ITEM: TIMESTEP
1620000
ITEM: NUMBER OF ATOMS
4590
ITEM: BOX BOUNDS pp pp pp
-9.9985700000000008e+00 9.9985700000000008e+00
-9.9985700000000008e+00 9.9985700000000008e+00
-9.9985700000000008e+00 9.9985700000000008e+00
ITEM: ATOMS id type xs ys zs
701 4 0.0613435 0.0668752 0.00836141
2576 4 0.0314435 0.989542 0.0892108
700 2 0.0842611 0.0639475 0.0179211
702 4 0.107179 0.0610198 0.0274809
566 4 0.110259 0.0753484 0.0415572
565 2 0.13484 0.0799255 0.0416121
491 4 0.274709 0.00568687 0.0390675
2264 4 0.257876 0.0043108 0.0288761
2263 2 0.256507 0.0282803 0.021893
2265 4 0.255137 0.0522499 0.0149099
653 4 0.332777 0.0220404 0.0910816
745 2 0.46747 0.0431494 0.00714881
746 4 0.478284 0.0338557 0.0276882
2469 4 0.495183 0.0287541 0.0364478
2467 2 0.493539 0.00553304 0.0455725
463 2 0.0356148 0.0987834 0.0187339
464 4 0.0158411 0.110293 0.0288189
590 4 0.997756 0.118074 0.0260106
567 4 0.159421 0.0845026 0.0416669
422 4 0.115798 0.109599 0.00297879
558 4 0.30904 0.0836498 0.0388525
556 2 0.326455 0.0871257 0.0564543
360 4 0.269633 0.132329 0.00710478
557 4 0.34387 0.0906017 0.0740561
865 2 0.346724 0.156401 0.997799
827 4 0.359803 0.128192 0.984052
554 4 0.0535952 0.224181 0.0491469
553 2 0.0660335 0.231905 0.0288783
555 4 0.0784719 0.239628 0.00860972
837 4 0.137382 0.231621 0.00435228
665 4 0.342315 0.185651 0.0274512
666 4 0.339054 0.226606 0.0559603
664 2 0.340684 0.206128 0.0417057
461 4 0.3272 0.234257 0.0688801
573 4 0.343041 0.244347 0.0633507
867 4 0.351908 0.176344 0.0119604
1070 4 0.370689 0.228772 0.0445796
1069 2 0.394049 0.236565 0.0489149
1071 4 0.417408 0.244357 0.0532501
294 4 0.0865261 0.258894 0.0524668
292 2 0.100239 0.274146 0.0381659
507 4 0.130856 0.300345 0.0241694
293 4 0.113951 0.289399 0.0238649
505 2 0.147251 0.319163 0.0256761
356 4 0.324338 0.296315 0.0281412
572 4 0.334145 0.2796 0.0290167
355 2 0.301414 0.304669 0.022675
357 4 0.27849 0.313023 0.0172087
571 2 0.338593 0.261974 0.0461837
324 4 0.420603 0.262201 0.0479341
322 2 0.430279 0.284097 0.0551524
672 4 0.435723 0.324616 0.0698228
323 4 0.439955 0.305993 0.0623708
670 2 0.453488 0.341205 0.0756858
620 4 0.00832697 0.370528 0.0707536
647 4 0.0156016 0.355426 0.0811259
506 4 0.163646 0.337981 0.0271829
483 4 0.166395 0.356119 0.0347028
481 2 0.189549 0.364755 0.0385082
609 4 0.22948 0.384228 0.0389762
607 2 0.240655 0.406372 0.042131
482 4 0.212704 0.373391 0.0423136
252 4 0.269204 0.417936 0.0447165
957 4 0.383022 0.360094 0.0139466
280 2 0.472647 0.394672 0.0712884
281 4 0.482689 0.372247 0.0759189
282 4 0.462605 0.417097 0.066658
552 4 0.106543 0.495132 0.0765057
550 2 0.095051 0.474351 0.0843342
1787 4 0.116993 0.504018 0.0632285
627 4 0.247254 0.459197 0.0705734
608 4 0.251829 0.428516 0.0452858
244 2 0.266376 0.478631 0.0553802
245 4 0.266937 0.462074 0.0741077
250 2 0.291116 0.429921 0.0435268
251 4 0.313027 0.441906 0.0423371
272 4 0.252505 0.49091 0.022953
246 4 0.265816 0.495189 0.0366528
525 4 0.371009 0.48771 0.0556462
226 2 0.450282 0.451039 0.0408906
228 4 0.445058 0.469851 0.0252706
227 4 0.455507 0.432226 0.0565107
563 4 0.432036 0.486153 0.0249746
2575 2 0.00856447 0.998904 0.0854591
16 1 0.0607938 0.0563395 0.136571
20 3 0.0519228 0.0718195 0.122417
1806 4 0.0582428 0.01644 0.134018
18 3 0.0530129 0.0351875 0.131052
17 3 0.0837152 0.0565676 0.134645
19 3 0.0550549 0.0614264 0.15847
380 4 0.0528915 0.0802731 0.159846
1505 4 0.17775 0.0459733 0.155304
450 4 0.172873 0.0545294 0.136931
448 2 0.175989 0.0789156 0.132372
1661 4 0.311875 0.995126 0.151299
652 2 0.322438 0.0142204 0.112462
654 4 0.312098 0.00640043 0.133842
484 2 0.382495 0.003808 0.10445
295 2 0.364853 0.0604255 0.0999979
297 4 0.372454 0.0434823 0.116741
485 4 0.380851 0.0287415 0.105344
296 4 0.357253 0.0773687 0.0832545
237 4 0.142697 0.157131 0.128506
578 4 0.124631 0.152131 0.125456
577 2 0.105726 0.135804 0.124366
579 4 0.0868205 0.119476 0.123277
235 2 0.160313 0.13944 0.127121
236 4 0.177929 0.12175 0.125737
693 4 0.189133 0.115383 0.140363
449 4 0.179106 0.103302 0.127814
691 2 0.208065 0.117896 0.156502
771 4 0.471665 0.133874 0.091907
769 2 0.470222 0.158508 0.0959351
310 2 0.423125 0.16405 0.150519
311 4 0.428803 0.139701 0.150277
339 4 0.0489044 0.194888 0.152087
337 2 0.0727738 0.192321 0.159076
476 4 0.143414 0.1759 0.120771
475 2 0.128584 0.18464 0.138906
477 4 0.113754 0.19338 0.157041
737 4 0.161457 0.181544 0.131516
736 2 0.181101 0.19377 0.122039
738 4 0.200745 0.205996 0.112561
460 2 0.328396 0.228001 0.0930588
283 2 0.316003 0.189792 0.136112
462 4 0.329591 0.221745 0.117237
354 4 0.318725 0.227908 0.129359
285 4 0.305772 0.167249 0.139617
284 4 0.326235 0.212336 0.132607
255 4 0.335828 0.227152 0.132783
254 4 0.383697 0.237332 0.143062
253 2 0.359762 0.232242 0.137922
630 4 0.401659 0.239716 0.135616
628 2 0.410938 0.216557 0.13396
765 4 0.396182 0.250254 0.150865
770 4 0.468778 0.183143 0.0999631
1014 4 0.480285 0.199722 0.103462
312 4 0.417447 0.1884 0.150761
629 4 0.420218 0.193399 0.132304
456 4 0.0708664 0.328674 0.104465
749 4 0.081754 0.291026 0.157263
353 4 0.285482 0.260958 0.146776
754 2 0.274409 0.304505 0.144893
755 4 0.278273 0.279841 0.146291
352 2 0.302104 0.244433 0.138068
756 4 0.270546 0.329169 0.143495
648 4 0.0622091 0.339854 0.0903989
646 2 0.0389053 0.34764 0.0857624
455 4 0.107849 0.340772 0.135876
454 2 0.0893577 0.334723 0.120171
537 4 0.206336 0.376152 0.132893
535 2 0.209796 0.40009 0.126553
611 4 0.224173 0.373426 0.141901
610 2 0.237695 0.352418 0.140892
612 4 0.251217 0.331411 0.139883
741 4 0.380504 0.381363 0.0831537
739 2 0.387953 0.385807 0.106604
740 4 0.395402 0.390252 0.130055
15 3 0.391308 0.374302 0.141267
385 2 0.36632 0.403523 0.153303
386 4 0.387535 0.393426 0.144751
495 4 0.405107 0.400963 0.14193
11 1 0.410795 0.372199 0.152864
387 4 0.345105 0.41362 0.161855
671 4 0.471253 0.357795 0.0815489
2651 4 0.489235 0.361106 0.090535
12 3 0.424658 0.357557 0.141793
14 3 0.421349 0.392804 0.154414
1465 2 0.0174726 0.474025 0.117787
1466 4 0.0327568 0.489713 0.129847
1467 4 0.00218836 0.458336 0.105727
1791 4 0.0448508 0.496672 0.145609
551 4 0.083559 0.453571 0.0921627
625 2 0.232787 0.447381 0.0871946
626 4 0.21832 0.435564 0.103816
536 4 0.213256 0.424028 0.120213
637 2 0.230163 0.496181 0.143119
767 4 0.250211 0.470607 0.149367
638 4 0.253539 0.48788 0.139986
766 2 0.260305 0.44776 0.148217
768 4 0.270398 0.424913 0.147066
301 2 0.311265 0.426835 0.154828
303 4 0.286568 0.426981 0.158735
493 2 0.414595 0.423114 0.135259
302 4 0.335961 0.426688 0.150922
494 4 0.424082 0.445265 0.128589
660 4 0.421145 0.45154 0.147183
658 2 0.432145 0.468374 0.162042
2480 4 0.00148688 0.999958 0.224401
673 2 0.121439 0.0515048 0.20071
675 4 0.103014 0.0568333 0.184669
674 4 0.139863 0.0461764 0.216751
1504 2 0.182535 0.0340827 0.176773
689 4 0.199888 0.0103027 0.210487
1506 4 0.187321 0.0221922 0.198241
21 1 0.394751 0.00553216 0.226653
25 3 0.417132 0.00943894 0.225073
22 3 0.383356 0.0221626 0.215574
757 2 0.42228 0.0492235 0.207018
759 4 0.421482 0.0267374 0.217922
349 2 0.452116 0.0217578 0.246711
350 4 0.432324 0.0195852 0.231587
758 4 0.423078 0.0717097 0.196113
379 2 0.0463493 0.100613 0.172833
512 4 0.0402806 0.114558 0.205911
381 4 0.0398072 0.120953 0.18582
511 2 0.0527727 0.128061 0.222846
513 4 0.0652648 0.141564 0.239781
692 4 0.226996 0.120409 0.172641
721 2 0.19435 0.145937 0.236884
723 4 0.199094 0.125626 0.223096
582 4 0.246112 0.112186 0.172017
580 2 0.269813 0.113331 0.179901
581 4 0.293514 0.114475 0.187784
30 3 0.307736 0.127667 0.183819
26 1 0.313598 0.145517 0.19669
29 3 0.324159 0.138215 0.216017
27 3 0.294658 0.157197 0.202524
28 3 0.327707 0.159572 0.184781
338 4 0.0966432 0.189755 0.166065
363 4 0.112675 0.193793 0.176512
362 4 0.125445 0.213844 0.220508
361 2 0.11906 0.203818 0.19851
372 4 0.129323 0.232221 0.228102
370 2 0.146089 0.244199 0.242266
545 4 0.126295 0.184773 0.247621
521 4 0.457343 0.182753 0.216168
520 2 0.48231 0.18222 0.214936
394 2 0.0601396 0.302057 0.231107
396 4 0.0423957 0.30085 0.248682
750 4 0.0853788 0.285099 0.206786
748 2 0.0835664 0.288063 0.182024
395 4 0.0778835 0.303264 0.213532
300 4 0.134131 0.310149 0.197239
298 2 0.128475 0.319169 0.219863
279 4 0.248904 0.26197 0.203557
278 4 0.274619 0.268597 0.161183
277 2 0.261762 0.265283 0.18237
307 2 0.317849 0.306766 0.228817
309 4 0.311532 0.307783 0.204646
763 2 0.403452 0.271536 0.161792
764 4 0.410722 0.292819 0.172718
623 4 0.421058 0.303211 0.186844
526 2 0.496759 0.289709 0.182829
528 4 0.484673 0.300728 0.201741
622 2 0.443433 0.30194 0.197932
624 4 0.465807 0.300668 0.20902
2618 4 0.00770786 0.412363 0.21783
262 2 0.0469046 0.398118 0.230039
264 4 0.0228871 0.402912 0.225004
263 4 0.0709222 0.393324 0.235075
602 4 0.0740463 0.373723 0.233656
299 4 0.12282 0.328188 0.242487
603 4 0.114485 0.345886 0.243173
601 2 0.0942656 0.359805 0.238414
290 4 0.185405 0.366593 0.228565
289 2 0.178884 0.389482 0.220901
291 4 0.172362 0.412371 0.213236
13 3 0.406512 0.363875 0.174096
416 4 0.164348 0.431266 0.213515
1430 4 0.186583 0.494773 0.201682
417 4 0.183243 0.477509 0.211225
415 2 0.173796 0.454388 0.21237
713 4 0.341405 0.50376 0.237506
659 4 0.443145 0.485209 0.176901
597 4 0.498897 0.466457 0.194428
595 2 0.477073 0.478538 0.19272
596 4 0.455249 0.49062 0.191011
231 4 0.438138 0.497974 0.191285
1799 4 0.020216 0.0215559 0.305289
233 4 0.0312809 0.0245794 0.289453
1402 2 0.0614617 0.0101411 0.300121
1403 4 0.0395045 0.0205936 0.305934
232 2 0.0236077 0.0476501 0.283618
234 4 0.0159346 0.0707208 0.277784
1798 2 0.00859489 0.0147991 0.326372
1404 4 0.083419 0.999689 0.294307
23 3 0.388264 0.00555286 0.248931
697 2 0.356893 0.0253308 0.325643
699 4 0.352751 0.00194358 0.317829
633 4 0.369371 0.059292 0.319905
631 2 0.367356 0.0743396 0.300038
698 4 0.361036 0.048718 0.333457
351 4 0.471908 0.0239303 0.261835
743 4 0.486935 0.049984 0.319004
744 4 0.472734 0.0409358 0.271917
742 2 0.479835 0.0454599 0.29546
479 4 0.496668 0.0563021 0.334402
2664 4 0.501709 0.0391471 0.326701
399 4 0.0600128 0.1049 0.327084
397 2 0.0751205 0.119916 0.313991
398 4 0.0902282 0.134933 0.300898
393 4 0.107346 0.143403 0.296925
390 4 0.0998199 0.143475 0.315568
391 2 0.109602 0.15835 0.277007
388 2 0.106309 0.160717 0.332473
722 4 0.189606 0.166248 0.250673
249 4 0.205301 0.1464 0.329627
404 4 0.195049 0.156929 0.314831
403 2 0.188969 0.163415 0.291462
405 4 0.182889 0.1699 0.268092
632 4 0.36534 0.0893871 0.280171
333 4 0.470635 0.158245 0.323411
331 2 0.469475 0.170452 0.301621
544 2 0.151043 0.182452 0.250328
392 4 0.111859 0.173296 0.25709
546 4 0.175791 0.180131 0.253035
420 4 0.412515 0.219056 0.282674
717 4 0.404695 0.236136 0.278676
761 4 0.494114 0.237666 0.248205
332 4 0.468316 0.182659 0.279831
418 2 0.432784 0.205184 0.277992
419 4 0.453052 0.191312 0.273309
760 2 0.482183 0.218009 0.258025
762 4 0.470252 0.198353 0.267846
444 4 0.0195486 0.251705 0.286298
443 4 0.0266173 0.289554 0.254389
365 4 0.0249428 0.308307 0.250108
364 2 0.00521534 0.321653 0.257715
442 2 0.023083 0.27063 0.270344
371 4 0.162855 0.256176 0.25643
401 4 0.219018 0.26183 0.2687
400 2 0.223762 0.273728 0.290173
402 4 0.228507 0.285626 0.311646
345 4 0.238924 0.275656 0.324397
510 4 0.233806 0.294305 0.328203
508 2 0.220043 0.31499 0.331011
308 4 0.324167 0.305749 0.252988
496 2 0.288869 0.312304 0.279264
498 4 0.267913 0.3126 0.292899
497 4 0.309826 0.312009 0.265629
715 2 0.411104 0.260223 0.280664
716 4 0.417513 0.284309 0.282652
542 4 0.431144 0.298017 0.288129
541 2 0.434087 0.31655 0.304652
547 2 0.0223427 0.406092 0.315404
734 4 0.130122 0.342312 0.253467
733 2 0.134484 0.346247 0.27777
735 4 0.138847 0.350183 0.302074
677 4 0.15424 0.347234 0.315795
509 4 0.20628 0.335675 0.33382
676 2 0.178372 0.350522 0.321454
728 4 0.364174 0.371258 0.32337
727 2 0.356535 0.391841 0.311404
729 4 0.348896 0.412423 0.299438
2860 2 0.457312 0.411461 0.252026
615 4 0.4313 0.349517 0.309505
543 4 0.43703 0.335084 0.321176
613 2 0.429291 0.370369 0.323155
2538 4 0.474342 0.351887 0.303084
2536 2 0.48131 0.368708 0.285947
614 4 0.427282 0.391221 0.336806
2537 4 0.488277 0.385528 0.268809
2862 4 0.476374 0.396815 0.258907
753 4 0.469061 0.349562 0.322767
549 4 0.0323046 0.419385 0.296716
777 4 0.0497192 0.430514 0.297856
775 2 0.068637 0.446734 0.299906
414 4 0.0992286 0.455622 0.316561
776 4 0.0875548 0.462954 0.301956
412 2 0.115791 0.469356 0.329299
438 4 0.300114 0.457833 0.276518
436 2 0.318307 0.44221 0.283596
437 4 0.3365 0.426587 0.290674
594 4 0.392104 0.481957 0.33779
2861 4 0.438251 0.426107 0.245146
1772 4 0.0219265 0.0169945 0.398609
1771 2 0.00949656 0.00555395 0.380175
732 4 0.0719464 0.0566903 0.359548
730 2 0.0601185 0.076336 0.349582
2238 4 0.0244639 0.03482 0.408042
369 4 0.085399 0.0464116 0.369327
367 2 0.0962025 0.0280571 0.382426
368 4 0.107006 0.00970257 0.395524
1701 4 0.177012 0.0818224 0.394811
256 2 0.382456 0.0641825 0.360891
257 4 0.371168 0.0645895 0.338584
258 4 0.393745 0.0637755 0.383197
426 4 0.411982 0.0576356 0.391632
424 2 0.399723 0.0452787 0.409583
478 2 0.479782 0.066691 0.349638
480 4 0.462897 0.0770799 0.364874
317 4 0.0489381 0.116111 0.33815
731 4 0.0482905 0.0959818 0.339616
458 4 0.008836 0.146202 0.372763
318 4 0.00915233 0.142102 0.353716
316 2 0.0290452 0.129107 0.345933
604 2 0.140569 0.103723 0.385107
605 4 0.161526 0.0900863 0.385274
606 4 0.119612 0.11736 0.384941
247 2 0.210275 0.125193 0.341904
1699 2 0.193491 0.0831394 0.376053
1700 4 0.209971 0.0844564 0.357294
248 4 0.215248 0.103986 0.35418
600 4 0.236221 0.154129 0.387401
683 4 0.236527 0.139862 0.401352
598 2 0.228449 0.173644 0.400963
682 2 0.257874 0.127552 0.405591
319 2 0.310945 0.119995 0.393125
320 4 0.297438 0.107098 0.40975
708 4 0.30828 0.1433 0.373213
706 2 0.312932 0.165089 0.361864
684 4 0.27922 0.115242 0.409831
321 4 0.324452 0.132891 0.376499
516 4 0.42959 0.113334 0.356333
515 4 0.461084 0.143464 0.331817
575 4 0.427075 0.103925 0.37281
574 2 0.43191 0.108999 0.396811
514 2 0.445337 0.128399 0.344075
453 4 0.471476 0.156159 0.342876
451 2 0.488332 0.170574 0.354418
459 4 0.00711064 0.189649 0.397463
457 2 0.00797332 0.167926 0.385113
389 4 0.112798 0.17796 0.349377
473 4 0.223742 0.238673 0.395264
374 4 0.208809 0.249954 0.38801
599 4 0.220677 0.19316 0.414525
472 2 0.248434 0.234917 0.394103
378 4 0.268633 0.224277 0.343096
376 2 0.288225 0.20943 0.33852
377 4 0.307816 0.194584 0.333943
707 4 0.317583 0.186877 0.350515
474 4 0.273127 0.23116 0.392943
488 4 0.291042 0.229405 0.401336
344 4 0.272639 0.244048 0.343501
347 4 0.0725821 0.311296 0.409242
618 4 0.0916022 0.312267 0.415645
275 4 0.128217 0.298914 0.375828
617 4 0.122193 0.283872 0.388102
616 2 0.106898 0.29807 0.401873
274 2 0.151768 0.297916 0.36749
276 4 0.175319 0.296919 0.359151
373 2 0.197844 0.271298 0.380983
375 4 0.186879 0.292642 0.373956
343 2 0.255782 0.259852 0.333949
408 4 0.0276277 0.363609 0.388561
548 4 0.0123808 0.392799 0.334092
406 2 0.0199758 0.369141 0.365409
407 4 0.0123238 0.374673 0.342257
435 4 0.219899 0.349308 0.33467
678 4 0.202504 0.353809 0.327113
433 2 0.231585 0.371148 0.338078
434 4 0.243272 0.392988 0.341486
334 2 0.326667 0.410555 0.398923
502 2 0.271381 0.397413 0.401988
504 4 0.255074 0.378608 0.404358
335 4 0.348058 0.397824 0.396573
240 4 0.363421 0.406242 0.407808
561 4 0.477726 0.334681 0.386933
752 4 0.483648 0.33645 0.368768
751 2 0.476355 0.343006 0.345768
413 4 0.132353 0.48309 0.342036
636 4 0.235112 0.437529 0.415087
503 4 0.287688 0.416219 0.399618
669 4 0.291264 0.434473 0.393805
336 4 0.305276 0.423287 0.401272
667 2 0.291735 0.453989 0.409428
592 2 0.411396 0.497536 0.340996
3990 4 0.487806 0.495196 0.372423
2237 4 0.0149628 0.0724844 0.439535
2236 2 0.0197133 0.0536522 0.423788
1127 4 0.0088949 0.0712324 0.458413
720 4 0.0225523 0.0838356 0.453271
718 2 0.0432674 0.0922756 0.464444
724 2 0.288509 0.0604312 0.493373
726 4 0.285887 0.0847753 0.488307
963 4 0.288741 0.016663 0.498765
961 2 0.269727 0.00107449 0.494219
1580 4 0.385985 0.0184545 0.440856
425 4 0.387465 0.0329219 0.427533
2878 2 0.47069 0.0523269 0.488738
2880 4 0.466989 0.0624019 0.466155
642 4 0.467481 0.08226 0.470604
719 4 0.0639824 0.100716 0.475617
1033 2 0.110085 0.144174 0.463245
1035 4 0.116997 0.156548 0.442646
1034 4 0.103174 0.131801 0.483843
261 4 0.13175 0.168965 0.442518
1182 4 0.294852 0.0840305 0.469859
1180 2 0.290721 0.0956846 0.448127
1181 4 0.28659 0.107339 0.426395
641 4 0.445328 0.113189 0.438148
576 4 0.436745 0.114072 0.420813
640 2 0.456405 0.0977243 0.454376
306 4 0.448612 0.128703 0.427003
304 2 0.466948 0.145197 0.431116
471 4 0.00898626 0.198405 0.482807
259 2 0.14613 0.187151 0.451881
694 2 0.148374 0.23761 0.472515
260 4 0.160511 0.205336 0.461245
695 4 0.167364 0.221693 0.469172
687 4 0.219099 0.195492 0.435223
686 4 0.176587 0.214482 0.453468
685 2 0.197843 0.204987 0.444345
411 4 0.241087 0.19427 0.499435
487 2 0.309552 0.215821 0.411236
489 4 0.328063 0.202237 0.421136
467 4 0.398507 0.200502 0.435142
466 2 0.383777 0.220641 0.433521
468 4 0.369047 0.24078 0.4319
305 4 0.485284 0.161691 0.435228
585 4 0.428011 0.245929 0.486091
346 2 0.0627583 0.328323 0.424694
696 4 0.129383 0.253527 0.475859
1260 4 0.110756 0.259599 0.475225
1258 2 0.0964488 0.256596 0.495509
813 4 0.244214 0.280016 0.476168
811 2 0.248985 0.299868 0.490601
266 4 0.323748 0.287046 0.440499
267 4 0.365569 0.261208 0.43133
265 2 0.344659 0.274127 0.435915
2456 4 0.45612 0.307366 0.498548
584 4 0.445776 0.291167 0.497866
583 2 0.436894 0.268548 0.491978
348 4 0.0529345 0.34535 0.440146
326 4 0.0631924 0.362244 0.441187
325 2 0.0823192 0.370017 0.455291
383 4 0.08129 0.415645 0.475138
681 4 0.0625999 0.417988 0.467125
935 4 0.0107329 0.380846 0.502038
382 2 0.10575 0.420526 0.476893
10 3 0.142577 0.346032 0.487985
327 4 0.101446 0.377791 0.469395
7 3 0.111595 0.366057 0.482326
6 1 0.132483 0.366056 0.491961
711 4 0.162109 0.388874 0.472198
8 3 0.145027 0.383227 0.482677
635 4 0.214836 0.408679 0.450546
709 2 0.183817 0.40098 0.469477
772 2 0.240304 0.403989 0.485912
710 4 0.205525 0.413085 0.466755
239 4 0.400321 0.391224 0.438033
238 2 0.381871 0.398733 0.422921
588 4 0.399357 0.408216 0.449063
1383 4 0.0586304 0.468565 0.436633
1381 2 0.0701269 0.486276 0.423242
680 4 0.0479206 0.452211 0.433747
679 2 0.0552602 0.435099 0.450436
538 2 0.10386 0.498187 0.491941
570 4 0.147466 0.485166 0.469024
539 4 0.0886678 0.479412 0.485472
569 4 0.140438 0.435831 0.464856
568 2 0.143952 0.460499 0.46694
384 4 0.130209 0.425408 0.478648
634 2 0.224974 0.423104 0.432817
774 4 0.22547 0.410232 0.466777
880 2 0.32617 0.492335 0.492463
668 4 0.292207 0.473505 0.425052
4 3 0.305583 0.487778 0.421085
5 3 0.287408 0.482202 0.453585
1 1 0.299116 0.497325 0.441221
587 4 0.419684 0.419386 0.493366
586 2 0.40952 0.413801 0.471214
1059 4 0.150484 0.0724613 0.570259
1057 2 0.142057 0.0503441 0.578321
1155 4 0.157637 0.0778901 0.587552
340 2 0.18885 0.0497889 0.512669
342 4 0.185435 0.0745168 0.514101
2430 4 0.19593 0.0082558 0.523692
341 4 0.192265 0.025061 0.511237
430 2 0.318631 0.0283812 0.52659
432 4 0.297206 0.0250569 0.514136
725 4 0.291131 0.0360871 0.498439
431 4 0.340055 0.0317054 0.539044
843 4 0.349091 0.0424794 0.526964
842 4 0.395911 0.0430648 0.544522
841 2 0.372501 0.0427721 0.535743
1217 4 0.41427 0.0391435 0.550015
1216 2 0.423972 0.0182965 0.559837
2879 4 0.474391 0.0422518 0.511321
938 4 0.0907237 0.150882 0.540313
937 2 0.102373 0.141187 0.520426
1151 4 0.159822 0.0896058 0.573495
939 4 0.114021 0.131492 0.500539
1150 2 0.170948 0.0884367 0.551133
1152 4 0.182073 0.0872676 0.528772
879 4 0.0797291 0.166086 0.535988
877 2 0.0557474 0.170797 0.541267
878 4 0.0317657 0.175507 0.546546
1199 4 0.0222932 0.175237 0.56443
1272 4 0.0916292 0.167494 0.551374
1270 2 0.105021 0.176465 0.570489
409 2 0.262798 0.203173 0.50807
898 2 0.291996 0.221915 0.555876
899 4 0.305463 0.23005 0.575309
900 4 0.278529 0.21378 0.536443
410 4 0.284508 0.212077 0.516704
871 2 0.382608 0.242785 0.522522
873 4 0.376621 0.229883 0.501959
906 4 0.454028 0.246012 0.573467
1259 4 0.0821412 0.253593 0.515793
812 4 0.253756 0.31972 0.505033
649 2 0.2777 0.312605 0.539867
651 4 0.294703 0.303935 0.556019
650 4 0.260696 0.321275 0.523715
872 4 0.388596 0.255688 0.543085
790 2 0.339661 0.250488 0.580192
792 4 0.354107 0.270883 0.580959
1238 4 0.357757 0.290215 0.580408
2455 2 0.475102 0.321486 0.506641
9 3 0.130203 0.369373 0.514813
1135 2 0.141889 0.39739 0.570352
1136 4 0.123333 0.41413 0.56959
1137 4 0.160446 0.380649 0.571114
897 4 0.179965 0.375743 0.573811
1189 2 0.243597 0.40889 0.545585
895 2 0.197616 0.393447 0.573419
1190 4 0.253412 0.400849 0.52404
804 4 0.263304 0.33577 0.510956
803 4 0.263112 0.385315 0.517734
802 2 0.263208 0.360542 0.514345
773 4 0.255138 0.397745 0.505047
930 4 0.270588 0.402909 0.514103
928 2 0.291455 0.416409 0.516838
927 4 0.424077 0.375467 0.540805
925 2 0.423557 0.396176 0.526803
2457 4 0.494083 0.335606 0.514735
926 4 0.423036 0.416885 0.512802
896 4 0.215268 0.411152 0.573028
1191 4 0.233782 0.416931 0.567131
1172 4 0.219569 0.429562 0.571353
929 4 0.312323 0.429909 0.519572
889 2 0.30126 0.493347 0.542621
891 4 0.314714 0.483402 0.52404
1952 4 0.327404 0.469403 0.529691
881 4 0.331076 0.479711 0.513481
1953 4 0.35995 0.435221 0.546214
1951 2 0.343677 0.452312 0.537953
663 4 0.41475 0.433778 0.506201
1001 4 0.423665 0.489637 0.53792
662 4 0.42695 0.470931 0.537371
661 2 0.42085 0.452355 0.521786
1911 4 0.4274 0.479729 0.55463
1909 2 0.433234 0.470086 0.576949
1332 4 0.441757 0.483332 0.541362
1330 2 0.462049 0.497419 0.537492
945 4 0.080078 0.00689157 0.627732
1185 4 0.002712 0.00319785 0.613281
1183 2 0.998491 0.0194091 0.594719
1058 4 0.13363 0.028227 0.586382
2375 4 0.125491 0.0159766 0.599951
1284 4 0.137293 0.0606905 0.66002
950 4 0.234046 0.0161961 0.638354
949 2 0.248238 0.0327392 0.626103
951 4 0.26243 0.0492824 0.613852
1031 4 0.26394 0.0678968 0.620916
45 3 0.427754 0.0735049 0.658459
3178 2 0.00511037 0.163135 0.657318
1153 2 0.162128 0.0933373 0.606694
1154 4 0.16662 0.108785 0.625835
1221 4 0.159792 0.12228 0.639406
1219 2 0.17281 0.14362 0.639971
1030 2 0.278758 0.0850485 0.631472
1032 4 0.293576 0.1022 0.642028
808 2 0.48708 0.0939593 0.645364
810 4 0.473928 0.0905123 0.666349
809 4 0.500231 0.0974063 0.62438
3008 4 0.501581 0.0801183 0.615232
1271 4 0.118413 0.185436 0.589603
1245 4 0.0858085 0.200277 0.661026
1243 2 0.088718 0.20734 0.637218
1244 4 0.0916274 0.214403 0.61341
797 4 0.166396 0.217517 0.628541
1220 4 0.185827 0.16496 0.640537
1212 4 0.205279 0.166162 0.639613
1210 2 0.22653 0.162629 0.652305
796 2 0.180569 0.196932 0.627799
798 4 0.194741 0.176346 0.627058
791 4 0.325216 0.230094 0.579426
857 4 0.31271 0.221335 0.591241
856 2 0.298088 0.214089 0.610186
858 4 0.283467 0.206843 0.62913
905 4 0.453902 0.235675 0.622394
3123 4 0.46214 0.217097 0.620856
904 2 0.453965 0.240843 0.597931
3121 2 0.481624 0.21096 0.635274
983 4 0.0353028 0.286667 0.599545
982 2 0.0383948 0.304566 0.616728
3263 4 0.0559274 0.33406 0.639776
984 4 0.0414868 0.322464 0.633911
805 2 0.311287 0.319293 0.647573
807 4 0.331182 0.316668 0.632658
1239 4 0.332308 0.317106 0.614023
1237 2 0.345033 0.303661 0.597215
952 2 0.473897 0.319679 0.603549
953 4 0.452375 0.310538 0.612403
954 4 0.49542 0.32882 0.594695
1041 4 0.0415485 0.34096 0.627718
1039 2 0.0424799 0.365759 0.624662
1040 4 0.0434113 0.390557 0.621607
993 4 0.0425994 0.406866 0.633838
806 4 0.291391 0.321917 0.662488
1206 4 0.478699 0.40964 0.586769
991 2 0.0590542 0.419095 0.619524
992 4 0.075509 0.431324 0.605211
1171 2 0.214259 0.450276 0.584311
1029 4 0.23387 0.417623 0.643719
1159 2 0.181396 0.4997 0.585375
1160 4 0.201525 0.488769 0.5954
1173 4 0.208949 0.470991 0.597268
1188 4 0.206796 0.464519 0.65977
1187 4 0.201179 0.480541 0.612734
1186 2 0.203988 0.47253 0.636252
1027 2 0.215784 0.411041 0.65968
1204 2 0.466578 0.429507 0.59591
1910 4 0.439067 0.460442 0.599268
1269 4 0.445046 0.462221 0.617031
1267 2 0.439433 0.472381 0.639177
1205 4 0.454458 0.449374 0.605051
1268 4 0.43382 0.482541 0.661323
1075 2 0.0345803 0.0758595 0.722807
1076 4 0.0311227 0.0810948 0.698604
1282 2 0.140385 0.077749 0.678037
1226 4 0.170672 0.0894615 0.749582
1004 4 0.3169 0.00943368 0.706277
1003 2 0.315103 0.033846 0.701179
1005 4 0.313306 0.0582583 0.696081
1049 4 0.331956 0.0032545 0.716716
1162 2 0.493928 0.0636798 0.693064
42 3 0.437645 0.0544611 0.688994
1163 4 0.477621 0.0792062 0.682192
41 1 0.438376 0.074945 0.678552
1083 4 0.0257536 0.147383 0.688012
1081 2 0.025723 0.122379 0.688049
1082 4 0.0256924 0.0973755 0.688086
850 2 0.0701539 0.151996 0.734421
3179 4 0.0238602 0.162667 0.673853
852 4 0.0502406 0.156488 0.748859
909 4 0.106104 0.148065 0.709346
907 2 0.123966 0.131198 0.704692
908 4 0.141827 0.114331 0.700038
1283 4 0.143478 0.0948076 0.696054
1227 4 0.13773 0.101527 0.713945
851 4 0.0900673 0.147504 0.719983
1225 2 0.154201 0.0954945 0.731764
1107 4 0.101273 0.163503 0.720287
888 4 0.254163 0.157231 0.683817
886 2 0.27299 0.162486 0.699409
829 2 0.328742 0.16123 0.704657
831 4 0.347799 0.147291 0.696429
1141 2 0.383074 0.156309 0.702059
1142 4 0.364513 0.139579 0.702956
44 3 0.46056 0.080954 0.675368
43 3 0.42778 0.0906036 0.692004
1025 4 0.466303 0.15639 0.703137
3424 2 0.47377 0.1191 0.693515
3426 4 0.468855 0.096234 0.684674
3425 4 0.478686 0.141966 0.702356
3269 4 0.482562 0.156162 0.715015
3268 2 0.483708 0.167899 0.737062
1024 2 0.443385 0.165777 0.699701
1214 4 0.0378631 0.170059 0.7435
1213 2 0.0164818 0.181885 0.738193
1209 4 0.097809 0.209506 0.672834
1207 2 0.0831493 0.220802 0.689647
1208 4 0.0684896 0.232098 0.70646
1105 2 0.112901 0.185601 0.721571
1106 4 0.124528 0.207699 0.722856
1130 4 0.143453 0.205531 0.721135
1129 2 0.159257 0.219072 0.734993
1211 4 0.247782 0.159096 0.664996
887 4 0.291817 0.16774 0.715001
830 4 0.309684 0.175169 0.712886
978 4 0.294492 0.185897 0.721096
1193 4 0.325001 0.235519 0.70701
976 2 0.302315 0.199154 0.7408
1194 4 0.37318 0.22655 0.716964
1192 2 0.34909 0.231035 0.711987
1143 4 0.401634 0.173038 0.701163
1262 4 0.412924 0.184911 0.711728
1026 4 0.420467 0.175165 0.696264
1261 2 0.415588 0.198446 0.732582
3262 2 0.0565759 0.327487 0.663892
3264 4 0.0572245 0.320915 0.688008
779 4 0.0490063 0.314044 0.70419
778 2 0.0591239 0.296222 0.718514
780 4 0.0692415 0.278401 0.732839
1065 4 0.214627 0.274546 0.713735
1063 2 0.239062 0.273541 0.708532
947 4 0.312269 0.28466 0.671572
946 2 0.296512 0.273603 0.68753
948 4 0.280756 0.262545 0.703487
1064 4 0.263498 0.272537 0.703329
1008 4 0.420653 0.311018 0.723837
1006 2 0.430427 0.300421 0.744266
893 4 0.0500917 0.333459 0.701502
892 2 0.0436311 0.348862 0.720108
894 4 0.0371705 0.364265 0.738714
3276 4 0.0273593 0.362586 0.755263
1066 2 0.159531 0.39839 0.69904
1067 4 0.13659 0.400344 0.708791
940 2 0.108073 0.409322 0.719789
941 4 0.121921 0.408752 0.698978
942 4 0.0942242 0.409891 0.740599
1068 4 0.182472 0.396435 0.68929
1028 4 0.197698 0.404458 0.675641
1019 4 0.400301 0.40731 0.736231
1280 4 0.0530358 0.495899 0.690662
1176 4 0.152276 0.468765 0.697098
1175 4 0.188876 0.472803 0.663263
1174 2 0.170576 0.470784 0.680181
1140 4 0.326068 0.484396 0.708233
1138 2 0.332203 0.496536 0.687253
1230 4 0.39145 0.433633 0.741729
1100 4 0.408048 0.425437 0.735071
3329 4 0.483371 0.432429 0.679864
1101 4 0.453604 0.444341 0.726822
1099 2 0.430826 0.434889 0.730947
3330 4 0.473135 0.4437 0.727497
1251 4 0.464226 0.457586 0.737492
3328 2 0.478253 0.438064 0.70368
2168 4 0.419569 0.488432 0.674418
1249 2 0.477972 0.474772 0.749361
1295 4 0.0156149 0.00484905 0.793229
1296 4 0.0430513 0.0457692 0.801802
1294 2 0.0293331 0.0253091 0.797516
1077 4 0.038038 0.0706242 0.747011
1203 4 0.176093 0.0748688 0.761594
2049 4 0.181157 0.00909639 0.763739
2255 4 0.246123 0.0106374 0.774188
1201 2 0.180394 0.0506455 0.766056
1202 4 0.184694 0.0264221 0.770518
2254 2 0.221129 0.0107016 0.774888
2256 4 0.196135 0.0107658 0.775588
1113 4 0.385749 0.0449995 0.840081
980 4 0.457693 0.998039 0.79881
2321 4 0.45338 0.00631442 0.780791
2322 4 0.446678 0.0555404 0.786501
2320 2 0.450029 0.0309274 0.783646
846 4 0.447544 0.0655939 0.804202
864 4 0.0410718 0.0795651 0.76417
862 2 0.0439205 0.100199 0.778001
863 4 0.0467693 0.120834 0.791832
832 2 0.0294325 0.134097 0.824186
833 4 0.0439605 0.135477 0.803883
1125 4 0.0606472 0.134936 0.79473
1123 2 0.0738871 0.155867 0.798157
35 3 0.108442 0.143896 0.829406
1149 4 0.232929 0.104004 0.750684
1148 4 0.185978 0.0912032 0.762194
1147 2 0.209454 0.0976039 0.756439
1257 4 0.239529 0.0944933 0.768175
921 4 0.201169 0.15404 0.816805
1255 2 0.259719 0.0926037 0.782803
1256 4 0.279909 0.090714 0.79743
840 4 0.291265 0.106008 0.800762
838 2 0.290714 0.116888 0.823267
844 2 0.454473 0.0891781 0.80878
845 4 0.461401 0.112762 0.813358
1072 2 0.0654181 0.209589 0.814732
1074 4 0.0568428 0.233068 0.815364
1073 4 0.0739933 0.186111 0.814099
1124 4 0.087127 0.176799 0.801585
1131 4 0.175061 0.232613 0.748852
1277 4 0.168224 0.232314 0.76751
1276 2 0.174277 0.221212 0.78908
1278 4 0.18033 0.210109 0.810651
920 4 0.197912 0.203892 0.814592
919 2 0.19954 0.178966 0.815698
1241 4 0.187952 0.212759 0.828874
977 4 0.310137 0.21241 0.760504
916 2 0.287922 0.245081 0.76396
918 4 0.292614 0.220646 0.761488
1298 4 0.298305 0.209251 0.775917
1297 2 0.317751 0.210478 0.791587
1299 4 0.337196 0.211705 0.807257
50 3 0.390891 0.188834 0.790547
1086 4 0.352175 0.199258 0.805776
1043 4 0.407808 0.240875 0.791189
49 3 0.402003 0.223833 0.798869
1084 2 0.356916 0.179486 0.820328
46 1 0.408858 0.202751 0.792017
1263 4 0.418252 0.211981 0.753436
1146 4 0.478616 0.195248 0.770308
1145 4 0.433263 0.21586 0.765962
1144 2 0.45594 0.205554 0.768135
1022 4 0.426751 0.179547 0.820545
48 3 0.424309 0.19417 0.807052
47 3 0.418788 0.204515 0.771343
3270 4 0.484854 0.179637 0.75911
1021 2 0.442101 0.182088 0.840119
3187 2 0.0121883 0.274007 0.779661
3189 4 0.0158848 0.296325 0.769011
3188 4 0.00849179 0.251688 0.79031
822 4 0.161087 0.245315 0.754449
821 4 0.133481 0.282758 0.772797
820 2 0.147284 0.264037 0.763623
1096 2 0.241458 0.317156 0.823528