ITEM: TIMESTEP
840000
ITEM: NUMBER OF ATOMS
4590
ITEM: BOX BOUNDS pp pp pp
-9.9985700000000008e+00 9.9985700000000008e+00
-9.9985700000000008e+00 9.9985700000000008e+00
-9.9985700000000008e+00 9.9985700000000008e+00
ITEM: ATOMS id type xs ys zs
463 2 0.0373895 0.0723313 0.0338703
464 4 0.0241053 0.0561374 0.020215
701 4 0.0685306 0.0809562 0.0427397
2576 4 0.0056548 0.0320303 0.0670216
491 4 0.260573 0.0186071 0.0495453
558 4 0.362389 0.0627322 0.0404516
556 2 0.354935 0.057459 0.0637283
745 2 0.471868 0.0496665 0.0116895
746 4 0.485072 0.0427693 0.0317705
2469 4 0.495696 0.02954 0.0418829
2467 2 0.505814 0.00696425 0.0382573
465 4 0.0506736 0.0885252 0.0475256
589 2 0.0215082 0.146125 0.0787339
590 4 0.0427207 0.135022 0.0715276
421 2 0.0965218 0.150224 0.0159192
700 2 0.0886607 0.0938342 0.0500961
702 4 0.108791 0.106712 0.0574525
566 4 0.12735 0.101258 0.0645472
565 2 0.148275 0.0920425 0.0544282
423 4 0.09338 0.12563 0.0126846
567 4 0.1692 0.0828268 0.0443091
360 4 0.239711 0.1472 0.0147795
358 2 0.259451 0.134538 0.00610791
359 4 0.27919 0.121875 0.997436
770 4 0.431955 0.145006 0.0884107
769 2 0.444167 0.166706 0.0861448
553 2 0.0482139 0.182598 0.00593202
554 4 0.0404074 0.15962 0.0119534
836 4 0.0771603 0.208065 0.000309507
555 4 0.0560205 0.205576 0.999911
422 4 0.0996637 0.174817 0.0191537
835 2 0.0987385 0.220691 0.00070555
837 4 0.120317 0.233316 0.00110159
915 4 0.134653 0.244883 0.00866305
666 4 0.329652 0.224888 0.0249779
664 2 0.323071 0.203924 0.0130467
573 4 0.316101 0.234848 0.0350503
461 4 0.331203 0.226186 0.0442995
665 4 0.31649 0.182959 0.00111556
460 2 0.336649 0.224024 0.0686068
1013 4 0.48029 0.183878 0.0381685
1014 4 0.504615 0.226067 0.0495325
1012 2 0.492453 0.204973 0.0438505
2808 4 0.00383804 0.281261 0.0168932
292 2 0.114382 0.302915 0.0510891
293 4 0.132791 0.304352 0.0679484
294 4 0.0959739 0.301478 0.0342297
507 4 0.143378 0.287449 0.0691637
505 2 0.167304 0.294544 0.0707129
357 4 0.247275 0.321511 0.0150987
481 2 0.227261 0.316717 0.078013
506 4 0.19123 0.301639 0.072262
483 4 0.212499 0.296868 0.074372
355 2 0.257637 0.299607 0.021266
571 2 0.299817 0.253786 0.0362122
356 4 0.267998 0.277703 0.0274333
572 4 0.283533 0.272724 0.0373741
482 4 0.242024 0.336566 0.081654
324 4 0.426049 0.255646 0.0619031
957 4 0.37036 0.323651 0.0114311
1069 2 0.419399 0.254712 0.0216833
1071 4 0.418041 0.263825 0.0449274
322 2 0.429977 0.277939 0.0725233
670 2 0.45143 0.333112 0.0629797
519 4 0.474161 0.267755 0.0811341
672 4 0.446886 0.310146 0.0717598
323 4 0.433906 0.300232 0.0831435
287 4 0.133424 0.349256 0.98812
455 4 0.135911 0.380023 0.0629889
454 2 0.115806 0.370678 0.0745491
609 4 0.257038 0.350236 0.0790625
252 4 0.291654 0.397924 0.0532567
608 4 0.292022 0.378741 0.0575156
607 2 0.27453 0.364489 0.0682891
671 4 0.455975 0.356078 0.0541996
281 4 0.47291 0.354798 0.0460109
280 2 0.485002 0.376623 0.0443852
282 4 0.497093 0.398448 0.0427594
551 4 0.0751139 0.432136 0.0626664
550 2 0.0863212 0.452628 0.071592
552 4 0.0975285 0.47312 0.0805177
1787 4 0.0920862 0.491893 0.0762939
242 4 0.106031 0.488335 0.0896705
245 4 0.256492 0.471087 0.0832105
250 2 0.293022 0.42257 0.0492704
244 2 0.263272 0.48284 0.0622085
251 4 0.294389 0.447216 0.0452841
271 2 0.283093 0.481135 0.002652
246 4 0.270053 0.494593 0.0412065
525 4 0.373367 0.490652 0.0535245
523 2 0.365332 0.48033 0.0748337
227 4 0.500866 0.477584 0.0664547
226 2 0.488247 0.463472 0.0827884
1673 4 0.413339 0.495334 0.0853334
16 1 0.0399025 0.0747965 0.147872
17 3 0.0617223 0.077532 0.141122
18 3 0.0363267 0.0524065 0.152802
1804 2 0.0679718 0.0104994 0.147982
20 3 0.0259793 0.0813788 0.131095
1806 4 0.0505549 0.00798109 0.165744
1667 4 0.0976433 0.0141699 0.112944
1805 4 0.0853887 0.0130178 0.13022
1666 2 0.101975 0.00549232 0.0898982
448 2 0.179931 0.0717484 0.169725
652 2 0.308902 0.0103741 0.140869
653 4 0.293746 0.0286539 0.133037
557 4 0.34748 0.0521858 0.087005
296 4 0.36043 0.0542935 0.101807
295 2 0.369486 0.0343103 0.113801
297 4 0.378541 0.0143272 0.125794
2724 4 0.499177 0.00422631 0.147989
237 4 0.138769 0.143747 0.158466
235 2 0.15802 0.127817 0.157574
236 4 0.177272 0.111887 0.156681
693 4 0.195175 0.107846 0.150689
449 4 0.184979 0.0950762 0.162275
283 2 0.264453 0.153173 0.140405
284 4 0.280582 0.138905 0.153111
312 4 0.445884 0.142931 0.152968
337 2 0.0539674 0.209238 0.140722
339 4 0.035658 0.214126 0.12441
363 4 0.0677594 0.22163 0.16545
338 4 0.0722767 0.20435 0.157033
476 4 0.135916 0.195581 0.127864
475 2 0.112986 0.199076 0.137201
477 4 0.0900562 0.202572 0.146539
737 4 0.154295 0.187442 0.125322
738 4 0.192389 0.219096 0.118426
736 2 0.173342 0.203269 0.121874
285 4 0.248324 0.167441 0.127699
462 4 0.342095 0.221861 0.0929141
254 4 0.386181 0.19714 0.129803
255 4 0.345107 0.204257 0.102181
253 2 0.365644 0.200699 0.115992
630 4 0.400831 0.207601 0.137915
771 4 0.456379 0.188407 0.0838789
629 4 0.415419 0.255403 0.139611
628 2 0.408125 0.231502 0.138763
2895 4 0.490959 0.2506 0.135538
518 4 0.479058 0.239851 0.122342
517 2 0.47661 0.253803 0.101738
354 4 0.317612 0.260054 0.109609
352 2 0.312753 0.273268 0.130272
353 4 0.307894 0.286482 0.150935
754 2 0.29 0.326121 0.143653
755 4 0.297105 0.302656 0.148559
278 4 0.291246 0.288665 0.160771
620 4 0.019645 0.344686 0.0886626
647 4 0.039467 0.339154 0.0930244
646 2 0.0516845 0.348813 0.112585
648 4 0.0639019 0.358473 0.132145
456 4 0.095701 0.361333 0.0861094
537 4 0.218293 0.375443 0.165523
535 2 0.200118 0.372006 0.148699
536 4 0.181943 0.36857 0.131875
756 4 0.282894 0.349586 0.138746
612 4 0.282735 0.36775 0.147853
610 2 0.260917 0.373803 0.158461
387 4 0.319714 0.390601 0.150049
302 4 0.313883 0.395798 0.168939
741 4 0.362867 0.338315 0.0863189
739 2 0.367628 0.350395 0.107687
740 4 0.37239 0.362476 0.129054
15 3 0.385527 0.370164 0.141433
385 2 0.343058 0.38314 0.145096
386 4 0.366403 0.375678 0.140143
11 1 0.408183 0.37158 0.139602
14 3 0.41547 0.392232 0.147268
495 4 0.405832 0.407554 0.138593
12 3 0.414155 0.369321 0.117503
13 3 0.418191 0.354602 0.15185
645 4 0.45705 0.406746 0.160033
1467 4 0.0191405 0.462738 0.115221
1465 2 0.0285098 0.484481 0.12326
315 4 0.999593 0.468666 0.11182
241 2 0.129309 0.496028 0.0945794
625 2 0.222211 0.455163 0.0925825
626 4 0.197249 0.454897 0.0939937
627 4 0.247174 0.455429 0.0911712
766 2 0.258829 0.481612 0.168733
524 4 0.357298 0.470008 0.0961428
658 2 0.414414 0.485817 0.161027
493 2 0.396122 0.429788 0.144639
660 4 0.400167 0.465798 0.156399
494 4 0.386412 0.452022 0.150685
228 4 0.475629 0.449359 0.0991221
2480 4 0.00440681 0.0160317 0.169385
19 3 0.0362144 0.0877545 0.166764
673 2 0.1278 0.0655521 0.216727
674 4 0.135934 0.0524182 0.236386
675 4 0.119665 0.0786859 0.197067
1506 4 0.218382 0.00692003 0.186149
1504 2 0.202377 0.0258974 0.189128
450 4 0.174882 0.0484206 0.177175
1505 4 0.186372 0.0448747 0.192107
689 4 0.175921 0.00531091 0.250878
758 4 0.40188 0.0779315 0.170685
21 1 0.383181 0.0220606 0.235034
25 3 0.394925 0.0404929 0.228633
759 4 0.390072 0.0504348 0.21075
757 2 0.395976 0.0641831 0.190717
22 3 0.36679 0.0177426 0.219484
24 3 0.397326 0.0037115 0.236315
23 3 0.373179 0.0258056 0.255633
744 4 0.474398 0.0198977 0.229115
351 4 0.459456 0.0331989 0.226946
349 2 0.44466 0.0532128 0.229332
350 4 0.429864 0.0732267 0.231718
380 4 0.0216566 0.0929556 0.179301
512 4 0.030293 0.151599 0.204627
379 2 0.01808 0.11499 0.190565
381 4 0.0145035 0.137025 0.201829
579 4 0.0693642 0.100497 0.178876
577 2 0.0796737 0.121762 0.187042
578 4 0.0899831 0.143027 0.195208
691 2 0.212242 0.119901 0.164421
692 4 0.22931 0.131956 0.178152
723 4 0.202175 0.135515 0.206856
721 2 0.192554 0.147249 0.226728
722 4 0.182932 0.158984 0.246601
582 4 0.245917 0.122318 0.17912
546 4 0.173283 0.176396 0.247224
28 3 0.324401 0.0834606 0.234222
580 2 0.265035 0.11733 0.194443
581 4 0.284153 0.112343 0.209767
30 3 0.298781 0.108231 0.22207
26 1 0.310289 0.100853 0.240285
27 3 0.322947 0.118096 0.248745
310 2 0.442147 0.140291 0.177549
311 4 0.438409 0.137652 0.20213
511 2 0.0467343 0.169627 0.210088
513 4 0.0631756 0.187656 0.21555
362 4 0.104898 0.226516 0.19858
361 2 0.0863286 0.224073 0.182015
372 4 0.122881 0.219223 0.206906
370 2 0.14736 0.215009 0.209765
371 4 0.17184 0.210795 0.212623
544 2 0.149298 0.170989 0.251768
308 4 0.312122 0.249487 0.241146
765 4 0.366744 0.221779 0.17712
763 2 0.370325 0.243424 0.189113
520 2 0.485088 0.194757 0.223285
521 4 0.465454 0.19833 0.23835
395 4 0.0609366 0.263804 0.235643
750 4 0.0614454 0.274597 0.218283
748 2 0.0716496 0.295865 0.209995
749 4 0.0818539 0.317134 0.201706
279 4 0.252725 0.274681 0.18943
277 2 0.271986 0.281673 0.175101
307 2 0.320219 0.25923 0.219589
309 4 0.328315 0.268972 0.198032
764 4 0.373906 0.26507 0.201106
623 4 0.383115 0.271986 0.185855
622 2 0.402363 0.287755 0.188311
624 4 0.421611 0.303525 0.190767
528 4 0.43807 0.292861 0.186659
527 4 0.475535 0.280363 0.217334
526 2 0.456803 0.286612 0.201996
262 2 0.060698 0.410715 0.224037
264 4 0.0524493 0.405127 0.201104
300 4 0.153513 0.351793 0.215564
298 2 0.148675 0.369103 0.232946
611 4 0.239099 0.379856 0.169068
290 4 0.229239 0.39759 0.234806
301 2 0.297902 0.40617 0.185131
303 4 0.28192 0.416542 0.201324
643 2 0.46358 0.38768 0.174832
644 4 0.47011 0.368613 0.189631
447 4 0.485442 0.35712 0.195258
445 2 0.489518 0.363559 0.219072
263 4 0.0689468 0.416302 0.24697
417 4 0.171367 0.483423 0.195938
415 2 0.17765 0.459864 0.201475
289 2 0.212081 0.414838 0.229036
291 4 0.194923 0.432086 0.223266
416 4 0.183932 0.436304 0.207012
768 4 0.255223 0.457523 0.174379
597 4 0.470302 0.421554 0.158775
595 2 0.469135 0.442991 0.171591
596 4 0.467968 0.464429 0.184407
1568 4 0.480865 0.472073 0.169
1404 4 0.0787355 0.0158045 0.259927
1798 2 0.0221889 0.0095579 0.32914
1799 4 0.0290519 0.0208148 0.307895
233 4 0.0256377 0.0260117 0.289624
1402 2 0.0608852 0.0175 0.277354
1403 4 0.0430348 0.0191955 0.29478
232 2 0.00628637 0.0356533 0.277064
1699 2 0.200399 0.0643096 0.310078
1701 4 0.186043 0.0454293 0.302165
1700 4 0.214755 0.0831899 0.317991
1516 2 0.392937 0.00622811 0.301075
697 2 0.391076 0.0622922 0.315047
699 4 0.389286 0.043894 0.298211
1518 4 0.39451 0.0290146 0.311247
743 4 0.494976 0.0119173 0.273988
742 2 0.484687 0.0159075 0.251552
478 2 0.467091 0.0331103 0.304369
479 4 0.481791 0.0134731 0.309214
480 4 0.452391 0.0527475 0.299524
398 4 0.0860062 0.144725 0.315556
397 2 0.0889941 0.129878 0.335451
248 4 0.209633 0.10257 0.312372
249 4 0.209963 0.152316 0.31747
247 2 0.209798 0.127443 0.314921
404 4 0.213646 0.157681 0.297978
403 2 0.201469 0.16573 0.277678
29 3 0.295473 0.0936963 0.256645
333 4 0.450285 0.11572 0.31057
331 2 0.458393 0.13845 0.304028
332 4 0.466501 0.161179 0.297486
444 4 0.00231602 0.245709 0.320384
393 4 0.0825625 0.205281 0.286358
392 4 0.119894 0.184727 0.260194
391 2 0.101228 0.195004 0.273276
545 4 0.125312 0.165581 0.256311
405 4 0.189292 0.17378 0.257378
378 4 0.291058 0.226533 0.329519
376 2 0.310615 0.211094 0.331613
418 2 0.420919 0.193361 0.3292
419 4 0.423576 0.171196 0.317939
707 4 0.346709 0.208092 0.33659
760 2 0.487881 0.1912 0.288919
762 4 0.466222 0.180082 0.294615
394 2 0.0399318 0.268152 0.248491
396 4 0.018927 0.2725 0.261339
442 2 0.0108299 0.258276 0.300516
443 4 0.0193438 0.270843 0.280647
364 2 0.0137457 0.310888 0.283208
365 4 0.015124 0.287769 0.273785
401 4 0.186374 0.265993 0.278708
345 4 0.233605 0.295631 0.298521
400 2 0.20291 0.276738 0.294079
402 4 0.219446 0.287483 0.309451
510 4 0.225915 0.304924 0.313341
508 2 0.216697 0.326537 0.321891
343 2 0.257021 0.300923 0.291532
344 4 0.280437 0.306216 0.284542
498 4 0.384436 0.289583 0.297263
496 2 0.360471 0.284626 0.292135
497 4 0.336506 0.279669 0.287008
543 4 0.403974 0.332404 0.295404
541 2 0.419678 0.316837 0.307075
542 4 0.435382 0.301269 0.318746
366 4 0.0123673 0.334007 0.292631
2493 4 0.0115187 0.346436 0.307306
603 4 0.13263 0.393917 0.263656
602 4 0.0853882 0.407143 0.253959
299 4 0.143837 0.386413 0.250328
601 2 0.109009 0.40053 0.258808
734 4 0.149738 0.38551 0.269322
733 2 0.167566 0.391805 0.285683
735 4 0.185395 0.3981 0.302045
677 4 0.200443 0.405054 0.314918
676 2 0.208569 0.384456 0.326533
435 4 0.243608 0.352107 0.329879
727 2 0.313745 0.380262 0.278239
728 4 0.292593 0.369292 0.285816
438 4 0.28232 0.410278 0.269997
729 4 0.334897 0.391233 0.270661
615 4 0.398107 0.350038 0.29875
613 2 0.386658 0.360445 0.318392
2538 4 0.48485 0.396687 0.315063
2536 2 0.4832 0.413489 0.29662
753 4 0.48367 0.383862 0.32983
549 4 0.0323604 0.439995 0.308273
547 2 0.0322774 0.423511 0.327074
777 4 0.0978578 0.426251 0.300435
775 2 0.114803 0.444525 0.29841
776 4 0.131748 0.462799 0.296384
414 4 0.144047 0.479443 0.298225
437 4 0.264428 0.451007 0.292839
436 2 0.273374 0.430643 0.281418
594 4 0.412659 0.450583 0.348258
713 4 0.37207 0.490175 0.270898
2537 4 0.48155 0.430291 0.278178
2860 2 0.486133 0.449267 0.251225
2862 4 0.470351 0.445889 0.270322
592 2 0.425909 0.463927 0.331778
367 2 0.0838208 0.0241928 0.407682
732 4 0.0953994 0.0815492 0.40673
368 4 0.101432 0.017738 0.391148
605 4 0.17518 0.0669723 0.365709
604 2 0.194991 0.0569429 0.377202
606 4 0.214803 0.0469136 0.388696
441 4 0.323475 0.998149 0.36773
698 4 0.392866 0.0806904 0.331884
256 2 0.408172 0.0646521 0.368075
257 4 0.399582 0.0789267 0.349431
258 4 0.416763 0.0503775 0.38672
633 4 0.380288 0.0812335 0.347149
426 4 0.42336 0.0398386 0.401225
318 4 0.0267565 0.0945289 0.357562
316 2 0.040923 0.115043 0.359475
317 4 0.0550894 0.135557 0.361387
457 2 0.0166875 0.147621 0.40605
459 4 0.0086165 0.171239 0.404554
730 2 0.100391 0.0972508 0.387922
399 4 0.0919821 0.115032 0.355347
731 4 0.105382 0.112952 0.369114
599 4 0.16965 0.161498 0.392373
600 4 0.205229 0.159416 0.357295
598 2 0.18744 0.160457 0.374834
683 4 0.273695 0.0915632 0.364056
682 2 0.287568 0.100871 0.38266
684 4 0.30144 0.110178 0.401263
320 4 0.290436 0.101957 0.414986
632 4 0.342253 0.113328 0.342248
631 2 0.36127 0.0972805 0.344698
516 4 0.404643 0.144447 0.374721
575 4 0.399022 0.136858 0.394098
574 2 0.408623 0.134076 0.417016
451 2 0.487777 0.15631 0.367188
514 2 0.426341 0.154779 0.36782
453 4 0.463251 0.15977 0.370604
2653 2 0.998107 0.209937 0.390143
2654 4 0.00256896 0.185362 0.391285
388 2 0.0983939 0.229845 0.3515
389 4 0.09383 0.206714 0.359826
685 2 0.15249 0.196064 0.407219
686 4 0.135422 0.211458 0.417062
687 4 0.169559 0.18067 0.397377
473 4 0.222522 0.191451 0.366703
472 2 0.238531 0.200356 0.38372
377 4 0.330171 0.195656 0.333707
474 4 0.25454 0.209262 0.400738
488 4 0.274255 0.210023 0.397868
487 2 0.297233 0.217136 0.39104
489 4 0.32021 0.224249 0.384213
420 4 0.418262 0.215526 0.340462
706 2 0.36105 0.188194 0.331733
708 4 0.375391 0.168296 0.326877
715 2 0.393977 0.240011 0.368498
468 4 0.383932 0.238697 0.410234
717 4 0.407176 0.22253 0.35644
515 4 0.448039 0.165111 0.360919
618 4 0.073913 0.306094 0.38866
347 4 0.0600347 0.306959 0.402841
616 2 0.0751041 0.325272 0.372662
390 4 0.102958 0.252975 0.343174
275 4 0.1278 0.310779 0.387791
274 2 0.147035 0.294804 0.387752
276 4 0.166269 0.278829 0.387713
373 2 0.20421 0.290542 0.379069
374 4 0.22878 0.293741 0.382418
375 4 0.179639 0.287344 0.375719
716 4 0.380779 0.257492 0.380556
406 2 0.049019 0.398442 0.385881
408 4 0.0562451 0.394281 0.409453
548 4 0.0321943 0.407028 0.345875
407 4 0.0417928 0.402602 0.362309
617 4 0.0762952 0.34445 0.356663
509 4 0.20748 0.348149 0.330441
678 4 0.216695 0.363859 0.338147
433 2 0.260331 0.367559 0.340212
434 4 0.277054 0.38301 0.350544
614 4 0.375209 0.370852 0.338033
561 4 0.465319 0.357622 0.386965
752 4 0.466427 0.372983 0.375493
559 2 0.476196 0.365594 0.40802
751 2 0.475048 0.378423 0.352662
499 2 0.162848 0.494295 0.394008
500 4 0.183805 0.48701 0.382479
667 2 0.294241 0.439056 0.416401
668 4 0.289688 0.462025 0.407634
1 1 0.30842 0.49605 0.40434
3 3 0.314258 0.490188 0.382661
4 3 0.295977 0.47905 0.414064
593 4 0.43916 0.47727 0.315299
718 2 0.0288097 0.072716 0.46132
720 4 0.0280074 0.0523902 0.47586
2237 4 0.0302137 0.0329668 0.473141
2236 2 0.0270888 0.0112103 0.461221
1127 4 0.0161313 0.0404219 0.484756
369 4 0.0662093 0.0306476 0.424215
1522 2 0.0973959 0.000358928 0.483075
341 4 0.185855 0.0258643 0.497691
1182 4 0.243148 0.0791669 0.491303
726 4 0.300163 0.0473528 0.438051
724 2 0.298319 0.0466342 0.462976
432 4 0.297523 0.057149 0.504318
725 4 0.296475 0.0459156 0.487901
963 4 0.283511 0.0440294 0.502916
1580 4 0.396802 0.00411144 0.441829
424 2 0.406736 0.030456 0.417374
425 4 0.390113 0.0210734 0.433524
2878 2 0.459235 0.0846597 0.477923
2879 4 0.455668 0.0695537 0.497526
458 4 0.0247586 0.124004 0.407546
719 4 0.0296121 0.0930417 0.44678
1033 2 0.114144 0.157633 0.486401
1180 2 0.241562 0.0965947 0.473444
1181 4 0.239977 0.114022 0.455585
411 4 0.263308 0.161453 0.453272
321 4 0.306256 0.123117 0.457444
319 2 0.298346 0.112537 0.436215
576 4 0.418224 0.131294 0.439935
2880 4 0.462801 0.0997657 0.45832
642 4 0.479144 0.108844 0.448818
640 2 0.462328 0.12608 0.442089
641 4 0.445511 0.143317 0.43536
306 4 0.427057 0.148458 0.44614
3158 4 0.484897 0.152429 0.487265
471 4 0.000111207 0.203931 0.475613
469 2 0.021122 0.19239 0.48272
470 4 0.0421328 0.180848 0.489828
1035 4 0.131347 0.174727 0.480318
260 4 0.114993 0.228856 0.447488
261 4 0.127149 0.182669 0.46231
259 2 0.121071 0.205762 0.454899
695 4 0.0986503 0.242936 0.444648
409 2 0.268761 0.179471 0.469729
410 4 0.274213 0.197488 0.486186
266 4 0.319388 0.247435 0.471871
900 4 0.289495 0.187137 0.493217
466 2 0.378591 0.216038 0.419357
467 4 0.37325 0.193379 0.42848
265 2 0.337379 0.249293 0.454606
3159 4 0.510693 0.195269 0.487087
305 4 0.435642 0.196607 0.456562
304 2 0.43135 0.172533 0.451351
3157 2 0.497795 0.173849 0.487176
346 2 0.0617813 0.31174 0.427321
326 4 0.0749006 0.315846 0.470803
348 4 0.0635278 0.316521 0.451801
694 2 0.101858 0.257487 0.464727
10 3 0.150498 0.333121 0.448976
1260 4 0.101878 0.284654 0.500885
696 4 0.105065 0.272037 0.484806
650 4 0.252942 0.306134 0.506415
651 4 0.223802 0.27186 0.484577
649 2 0.238372 0.288997 0.495496
811 2 0.289591 0.308264 0.490272
813 4 0.309201 0.300014 0.477134
267 4 0.35537 0.25115 0.437342
2456 4 0.499803 0.282981 0.471753
584 4 0.488135 0.266485 0.472082
583 2 0.465357 0.269346 0.481989
585 4 0.442579 0.272206 0.491897
2812 2 0.999408 0.371123 0.45231
325 2 0.078264 0.340415 0.474006
2813 4 0.0196966 0.373268 0.466765
327 4 0.0816273 0.364983 0.477208
7 3 0.122764 0.346075 0.470328
6 1 0.14483 0.348844 0.464446
8 3 0.147609 0.370085 0.455531
9 3 0.158005 0.346419 0.483392
504 4 0.237482 0.397193 0.445224
711 4 0.166308 0.375328 0.463064
709 2 0.185909 0.386979 0.473322
710 4 0.205511 0.39863 0.483579
774 4 0.21662 0.409207 0.49591
336 4 0.291237 0.398668 0.420144
502 2 0.261639 0.402168 0.441115
334 2 0.312236 0.385725 0.424234
503 4 0.285795 0.407143 0.437006
335 4 0.333235 0.372783 0.428324
239 4 0.393642 0.388543 0.459353
588 4 0.412777 0.39418 0.455506
586 2 0.419302 0.406397 0.476322
238 2 0.370924 0.38459 0.449687
240 4 0.348206 0.380637 0.440021
2507 4 0.502714 0.387321 0.4349
560 4 0.487073 0.373567 0.429075
1381 2 0.0486789 0.488013 0.432974
679 2 0.0566864 0.44186 0.46346
1383 4 0.0326091 0.470212 0.440051
681 4 0.0752858 0.431682 0.476713
680 4 0.038087 0.452039 0.450207
539 4 0.0946402 0.477604 0.470203
382 2 0.110655 0.442744 0.461064
568 2 0.160872 0.472071 0.449418
383 4 0.0952168 0.432869 0.478073
569 4 0.140578 0.465714 0.436267
384 4 0.126093 0.452618 0.444054
634 2 0.210696 0.437408 0.475738
570 4 0.181166 0.478429 0.462568
635 4 0.200821 0.417141 0.48655
636 4 0.220572 0.457675 0.464925
880 2 0.332635 0.506696 0.495321
669 4 0.298794 0.416087 0.425167
2 3 0.327616 0.499176 0.416624
882 4 0.308618 0.505467 0.488476
663 4 0.473883 0.439742 0.489604
587 4 0.425827 0.418614 0.497139
1126 2 0.00879104 0.0456693 0.508075
1128 4 0.00145077 0.0509167 0.531393
1057 2 0.150689 0.0695402 0.576804
1523 4 0.11482 0.0038848 0.500658
340 2 0.183383 0.0502358 0.502701
2428 2 0.200408 0.998252 0.523821
2430 4 0.183067 0.0117788 0.511924
342 4 0.18091 0.0746072 0.507711
1032 4 0.235919 0.0932201 0.573474
430 2 0.313473 0.0646453 0.522053
431 4 0.329424 0.0721416 0.539789
961 2 0.278888 0.020363 0.509526
1217 4 0.380201 0.0477544 0.543359
1216 2 0.387013 0.0245578 0.549739
842 4 0.39002 0.0647343 0.544415
1218 4 0.393824 0.00136118 0.556119
841 2 0.36729 0.0751481 0.544733
938 4 0.0953118 0.153209 0.562152
937 2 0.0963041 0.147879 0.537744
1151 4 0.166655 0.103089 0.552684
1059 4 0.161013 0.0873539 0.562617
1155 4 0.154809 0.105195 0.567816
1153 2 0.15696 0.129534 0.573123
939 4 0.0972964 0.142549 0.513335
1034 4 0.0969406 0.140538 0.492484
1150 2 0.171398 0.0982653 0.528613
1152 4 0.17614 0.0934414 0.504541
843 4 0.344561 0.085562 0.545051
878 4 0.0353678 0.221472 0.548337
1199 4 0.0189861 0.23222 0.550676
877 2 0.0535384 0.20579 0.555343
879 4 0.071709 0.190108 0.56235
858 4 0.245839 0.219697 0.563074
857 4 0.294685 0.209786 0.559006
856 2 0.270262 0.214742 0.56104
898 2 0.305525 0.196753 0.509823
791 4 0.313613 0.21501 0.561567
899 4 0.321555 0.206368 0.526428
790 2 0.323756 0.237846 0.562464
873 4 0.389508 0.250231 0.546947
983 4 0.0423241 0.305203 0.583847
1258 2 0.125013 0.282381 0.510095
1259 4 0.148147 0.280108 0.519304
812 4 0.269982 0.316514 0.50341
792 4 0.333899 0.260682 0.563361
871 2 0.404958 0.264536 0.533462
1239 4 0.32429 0.312917 0.558508
1238 4 0.34866 0.271686 0.572889
1237 2 0.336475 0.292302 0.565699
872 4 0.420409 0.27884 0.519978
1011 4 0.498261 0.318258 0.56353
1189 2 0.224667 0.377287 0.565638
773 4 0.24046 0.384325 0.532149
1190 4 0.241186 0.372999 0.547365
803 4 0.242361 0.364793 0.529437
772 2 0.22854 0.396766 0.514029
896 4 0.189326 0.38594 0.579579
802 2 0.257374 0.350799 0.515156
930 4 0.304953 0.3534 0.55559
928 2 0.293538 0.375552 0.557628
929 4 0.282123 0.397705 0.559666
804 4 0.272388 0.336805 0.500875
927 4 0.417706 0.371094 0.54456
925 2 0.423064 0.389878 0.528951
926 4 0.428423 0.408661 0.513342
2243 4 0.138707 0.483833 0.560559
1161 4 0.155011 0.494016 0.558019
2242 2 0.12655 0.495673 0.542195
1159 2 0.174431 0.481445 0.567505
1173 4 0.195386 0.449651 0.577874
1171 2 0.198719 0.425059 0.580926
1160 4 0.193851 0.468874 0.576992
889 2 0.310361 0.471511 0.560837
890 4 0.315186 0.487237 0.542007
891 4 0.305535 0.455786 0.579668
1002 4 0.388366 0.456149 0.518846
1000 2 0.411647 0.463561 0.524156
1001 4 0.434929 0.470974 0.529467
662 4 0.454484 0.46968 0.524649
661 2 0.464184 0.454711 0.507126
1911 4 0.448785 0.475574 0.542164
1909 2 0.449319 0.468434 0.566121
1332 4 0.462913 0.485708 0.532726
1330 2 0.483474 0.499928 0.532235
945 4 0.0601526 0.0111078 0.647069
1058 4 0.140365 0.0517265 0.590991
943 2 0.082697 0.0165706 0.637737
944 4 0.105241 0.0220334 0.628405
825 4 0.120251 0.0154757 0.61824
1030 2 0.249362 0.0740407 0.582228
950 4 0.32778 0.0420634 0.587352
949 2 0.303423 0.0458694 0.583179
951 4 0.279065 0.0496755 0.579007
1031 4 0.262804 0.0548613 0.590981
1092 4 0.304371 0.992924 0.643945
45 3 0.443834 0.0638824 0.664283
1081 2 0.029128 0.123555 0.6535
3179 4 0.0248215 0.163461 0.636788
1082 4 0.0382586 0.102951 0.664331
1083 4 0.0199974 0.144158 0.642669
1154 4 0.159112 0.153873 0.57843
1282 2 0.161123 0.117041 0.655018
1284 4 0.163282 0.109839 0.631172
1221 4 0.175216 0.164816 0.583824
3008 4 0.4982 0.0958432 0.614781
808 2 0.492522 0.102003 0.64641
809 4 0.500091 0.112929 0.625232
1243 2 0.0799737 0.23712 0.627165
1244 4 0.0627671 0.227723 0.611647
1272 4 0.0811538 0.188876 0.578451
1245 4 0.0971803 0.246516 0.642683
1270 2 0.096754 0.183578 0.59726
1271 4 0.112354 0.178281 0.616068
1209 4 0.0927613 0.240568 0.661215
1211 4 0.241893 0.160685 0.660151
1210 2 0.226909 0.175609 0.646812
1212 4 0.211926 0.190534 0.633473
1219 2 0.187728 0.178047 0.600958
1220 4 0.200241 0.191278 0.618091
796 2 0.19686 0.230198 0.624488
798 4 0.207744 0.207689 0.624667
797 4 0.185976 0.252708 0.62431
906 4 0.448406 0.205532 0.586168
904 2 0.456372 0.2207 0.604379
905 4 0.464339 0.235867 0.62259
3123 4 0.475889 0.231258 0.638705
3121 2 0.494936 0.234246 0.654627
982 2 0.0541682 0.317757 0.601938
3263 4 0.0615183 0.33676 0.638378
3262 2 0.0454424 0.329692 0.656177
984 4 0.0660124 0.330311 0.62003
947 4 0.189664 0.292584 0.631983
946 2 0.197701 0.282652 0.653475
954 4 0.49054 0.31089 0.581303
952 2 0.4777 0.309175 0.602689
953 4 0.464861 0.307459 0.624076
1041 4 0.0801289 0.334167 0.632956
897 4 0.146448 0.368407 0.598415
1137 4 0.128314 0.374492 0.599745
1039 2 0.0903286 0.356881 0.635246
1135 2 0.115571 0.396002 0.600057
1136 4 0.102829 0.417513 0.600368
1040 4 0.100528 0.379595 0.637535
991 2 0.0899748 0.418252 0.64987
993 4 0.103136 0.397043 0.648412
895 2 0.167887 0.377173 0.588997
1191 4 0.208148 0.381576 0.583911
1172 4 0.202052 0.400468 0.583978
1206 4 0.486721 0.409089 0.660675
992 4 0.0768136 0.439462 0.651327
1188 4 0.215643 0.490735 0.629816
1187 4 0.200843 0.459972 0.593274
1186 2 0.208243 0.475354 0.611545
1204 2 0.46782 0.423104 0.652219
1910 4 0.449854 0.461294 0.590077
1205 4 0.448919 0.437119 0.643762
1269 4 0.435256 0.449485 0.63605
1267 2 0.442339 0.473284 0.633114
1268 4 0.449422 0.497084 0.630179
2255 4 0.194426 0.992699 0.748731
1257 4 0.231907 0.0731548 0.767782
1148 4 0.199327 0.0923072 0.715306
1226 4 0.184035 0.0787286 0.717355
1003 2 0.331716 0.0405195 0.710768
1005 4 0.318864 0.0406933 0.689321
1004 4 0.344567 0.0403456 0.732216
42 3 0.453999 0.0545892 0.69897
41 1 0.452404 0.0718322 0.683828
1163 4 0.491715 0.0771973 0.679508
44 3 0.473573 0.0806118 0.6802
1076 4 0.0353503 0.105347 0.68402
864 4 0.033877 0.108538 0.744908
1075 2 0.0319246 0.0994174 0.708067
1077 4 0.028499 0.0934878 0.732115
852 4 0.0421983 0.163285 0.725193
909 4 0.0917194 0.132074 0.687629
907 2 0.1161 0.126526 0.687716
908 4 0.14048 0.120978 0.687804
1283 4 0.158965 0.124243 0.678865
1227 4 0.155827 0.111612 0.69238
1225 2 0.169931 0.0951705 0.704867
1147 2 0.21621 0.0873897 0.733082
1149 4 0.233093 0.0824721 0.750857
888 4 0.262442 0.161873 0.665174
831 4 0.367809 0.166397 0.689598
1142 4 0.386298 0.168859 0.696806
829 2 0.342942 0.166378 0.692203
1141 2 0.407725 0.168876 0.709692
810 4 0.484954 0.0910771 0.667588
1025 4 0.480173 0.161015 0.683857
43 3 0.43843 0.0881861 0.692528
3424 2 0.48802 0.113475 0.702376
3426 4 0.484918 0.0941037 0.686875
1024 2 0.464048 0.163066 0.702856
3425 4 0.491122 0.132847 0.717877
1213 2 0.0137024 0.190885 0.730069
1214 4 0.0268307 0.170202 0.735071
1178 4 0.00104108 0.230789 0.727723
850 2 0.064263 0.168766 0.735599
1207 2 0.103345 0.231704 0.682061
1208 4 0.113929 0.22284 0.702908
1106 4 0.143591 0.191226 0.723024
1105 2 0.124851 0.181568 0.736468
1107 4 0.106112 0.171911 0.749912
1074 4 0.0925671 0.245109 0.746926
886 2 0.282708 0.169597 0.677615
830 4 0.318074 0.166358 0.694809
887 4 0.302974 0.177322 0.690057
976 2 0.308178 0.197866 0.72444
978 4 0.309691 0.178992 0.70811
977 4 0.306665 0.21674 0.74077
1193 4 0.360544 0.233385 0.70112
1192 2 0.345058 0.225486 0.683149
1194 4 0.329571 0.217586 0.665179
1143 4 0.429153 0.168893 0.722578
1026 4 0.447923 0.165118 0.721855
1261 2 0.452159 0.196223 0.745469
1262 4 0.439592 0.176591 0.736423
1263 4 0.464726 0.215855 0.754514
1145 4 0.484243 0.22011 0.756998
3264 4 0.0293665 0.322624 0.673975
1177 2 0.000727954 0.255208 0.722359
1179 4 0.000414831 0.279627 0.716995
821 4 0.165744 0.276486 0.729511
948 4 0.205739 0.272721 0.674968
820 2 0.17381 0.255595 0.740634
1064 4 0.213627 0.288041 0.687247
1065 4 0.235295 0.283972 0.732132
1063 2 0.224461 0.286007 0.709689
893 4 0.0209179 0.334719 0.687797
892 2 0.0263051 0.354432 0.702205
894 4 0.0316924 0.374144 0.716612
3276 4 0.0199532 0.382487 0.729549
814 2 0.0597527 0.381013 0.747334
816 4 0.0382896 0.379372 0.734613
941 4 0.144749 0.405602 0.752467
1067 4 0.143188 0.404418 0.732161
940 2 0.121933 0.397042 0.758065
942 4 0.0991175 0.388483 0.763663
1066 2 0.16626 0.403648 0.722555
1029 4 0.235914 0.410916 0.679761
1027 2 0.212578 0.412647 0.688571
1068 4 0.189332 0.402878 0.712949
1028 4 0.189242 0.414377 0.697381
806 4 0.298039 0.328913 0.675655
805 2 0.320985 0.338731 0.677154
807 4 0.343932 0.348549 0.678653
1019 4 0.38653 0.400862 0.727274
1018 2 0.370028 0.389047 0.741878
1281 4 0.0273468 0.474891 0.687546
1983 4 0.00735184 0.478027 0.68781
1280 4 0.0711458 0.463306 0.708716
1279 2 0.0492463 0.469098 0.698131
1140 4 0.259047 0.464007 0.700717
1139 4 0.278664 0.460294 0.746565
1138 2 0.268856 0.462151 0.723641
1228 2 0.398866 0.455049 0.747011
1230 4 0.415594 0.439718 0.736507
1100 4 0.429554 0.436435 0.720874
1101 4 0.476154 0.454548 0.719852
1099 2 0.452854 0.445491 0.720363
1251 4 0.488571 0.46403 0.73171
3330 4 0.494261 0.459658 0.713621
1294 2 0.0104932 0.0357257 0.774079
1296 4 0.0343469 0.0285594 0.776275
1203 4 0.11501 0.0820566 0.78058
1201 2 0.127767 0.0607312 0.777811
1202 4 0.140524 0.0394059 0.775042
2049 4 0.155723 0.028239 0.780769
2254 2 0.20375 0.0148724 0.741907
2256 4 0.213074 0.0370461 0.735082
1255 2 0.254439 0.0731109 0.778623
1256 4 0.27697 0.073067 0.789463
1113 4 0.390991 0.0560798 0.794614
1111 2 0.379518 0.0728216 0.809218
2322 4 0.485928 0.052454 0.791542
2320 2 0.480087 0.0286848 0.786435
846 4 0.469264 0.0648374 0.786915
862 2 0.038005 0.121062 0.766151
863 4 0.042133 0.133586 0.787394
832 2 0.0206024 0.112807 0.819497
833 4 0.0337179 0.128021 0.804607
1125 4 0.0276021 0.144206 0.814785
834 4 0.00748689 0.0975929 0.834386
31 1 0.120386 0.142982 0.809327
34 3 0.127817 0.141929 0.78737
32 3 0.113607 0.164492 0.813859
35 3 0.137259 0.137287 0.823522
33 3 0.102373 0.128659 0.812289
840 4 0.269862 0.0873024 0.801561
838 2 0.275366 0.107007 0.815935
839 4 0.280869 0.126711 0.83031
844 2 0.46615 0.0855284 0.773227
845 4 0.463037 0.106219 0.759538
1123 2 0.0369432 0.166349 0.821687
1124 4 0.0462843 0.188491 0.828588
851 4 0.0863278 0.174246 0.746005
822 4 0.181875 0.234705 0.751756
1130 4 0.184804 0.178792 0.747724
1129 2 0.176971 0.201518 0.754609
1131 4 0.169139 0.224243 0.761493
920 4 0.207839 0.195346 0.813016
1277 4 0.184671 0.230185 0.771085
1276 2 0.191712 0.238022 0.79376