ITEM: TIMESTEP
2490000
ITEM: NUMBER OF ATOMS
4590
ITEM: BOX BOUNDS pp pp pp
-9.9985700000000008e+00 9.9985700000000008e+00
-9.9985700000000008e+00 9.9985700000000008e+00
-9.9985700000000008e+00 9.9985700000000008e+00
ITEM: ATOMS id type xs ys zs
465 4 0.0846052 0.0661695 0.0374835
463 2 0.0671585 0.0778749 0.0510399
701 4 0.0937836 0.0777082 0.0234257
700 2 0.115467 0.0653408 0.0248654
702 4 0.13715 0.0529733 0.0263052
566 4 0.152532 0.0638385 0.0201928
565 2 0.169151 0.0624283 0.00156462
746 4 0.488 0.0612584 0.0203586
2467 2 0.49327 0.0274527 0.0486555
2469 4 0.486035 0.0476401 0.0357984
464 4 0.0497119 0.0895803 0.0645963
590 4 0.0388966 0.0883187 0.0811485
589 2 0.0139456 0.0899279 0.0813386
558 4 0.340882 0.126101 0.0539274
556 2 0.346867 0.118278 0.076909
865 2 0.35463 0.157921 0.00364984
553 2 0.0777466 0.229328 0.0112117
555 4 0.0884254 0.221378 0.0323761
835 2 0.125027 0.203418 0.0202781
836 4 0.105268 0.212137 0.0328779
837 4 0.144786 0.194699 0.00767829
915 4 0.164044 0.20081 0.0087962
738 4 0.16422 0.186946 0.0763896
573 4 0.341487 0.23962 0.0576547
666 4 0.349102 0.224044 0.0671578
461 4 0.344935 0.240191 0.0772324
664 2 0.347753 0.207137 0.0487866
665 4 0.346404 0.190229 0.0304155
867 4 0.35617 0.17699 0.0197486
769 2 0.464089 0.164391 0.0732034
771 4 0.472495 0.161804 0.0497977
1070 4 0.450789 0.21756 0.0535779
1069 2 0.439465 0.238344 0.0616383
2807 4 0.993656 0.293393 0.0346582
2808 4 0.0278149 0.329734 0.0383012
2806 2 0.0107356 0.311563 0.0364797
294 4 0.104081 0.309916 0.0749816
292 2 0.11261 0.325731 0.0575949
356 4 0.316042 0.301207 0.0470926
572 4 0.325796 0.284709 0.0427706
355 2 0.313183 0.323102 0.0353607
571 2 0.333641 0.262164 0.0502126
1071 4 0.42814 0.259127 0.0696988
324 4 0.43994 0.275677 0.0712794
322 2 0.452443 0.297158 0.0685506
323 4 0.464945 0.318638 0.0658219
672 4 0.454793 0.335455 0.0628386
647 4 0.0225689 0.360411 0.0744897
646 2 0.0458122 0.354914 0.081887
620 4 0.00625317 0.364657 0.0651184
293 4 0.12114 0.341547 0.0402083
507 4 0.135869 0.328707 0.0321205
505 2 0.154972 0.342977 0.0245942
481 2 0.21234 0.381104 0.0166593
482 4 0.23434 0.3927 0.0192525
483 4 0.19034 0.369509 0.014066
609 4 0.247062 0.406667 0.0231799
536 4 0.200342 0.396501 0.0779446
611 4 0.234464 0.335319 0.0857117
535 2 0.212605 0.374772 0.07958
506 4 0.174075 0.357246 0.0170679
357 4 0.310324 0.344996 0.0236288
902 4 0.306992 0.354624 0.00533595
957 4 0.377144 0.378697 0.034872
955 2 0.378661 0.377772 0.00993163
280 2 0.487766 0.406394 0.0513762
281 4 0.497277 0.389544 0.0672129
671 4 0.483473 0.375743 0.0702608
670 2 0.469133 0.355599 0.0665497
551 4 0.0382395 0.436948 0.0637404
550 2 0.0580443 0.451388 0.0686834
1787 4 0.0966009 0.468672 0.067361
1786 2 0.102674 0.471485 0.0432698
1788 4 0.108746 0.474299 0.0191786
242 4 0.0893038 0.478044 0.0827384
552 4 0.077849 0.465828 0.0736264
246 4 0.2427 0.478329 0.0349179
244 2 0.227177 0.46921 0.0522691
245 4 0.211654 0.460091 0.0696202
627 4 0.194096 0.4512 0.0671835
625 2 0.19015 0.428692 0.0773317
607 2 0.267237 0.421429 0.022671
272 4 0.252936 0.488091 0.0210654
1778 4 0.256138 0.490746 0.0398472
271 2 0.258081 0.471779 0.00282777
608 4 0.287412 0.43619 0.0221621
252 4 0.298625 0.43387 0.0389736
250 2 0.311358 0.452668 0.0284997
251 4 0.32409 0.471466 0.0180259
523 2 0.377424 0.472929 0.0674832
524 4 0.362656 0.455105 0.0769369
2289 4 0.344447 0.473977 0.0200658
525 4 0.392192 0.490754 0.0580296
282 4 0.478255 0.423243 0.0355395
226 2 0.479449 0.464533 0.0541142
227 4 0.476768 0.441129 0.0457317
228 4 0.482129 0.487936 0.0624967
16 1 0.0628229 0.0557689 0.152879
20 3 0.0713585 0.0742211 0.142617
1806 4 0.0528948 0.0285883 0.122621
18 3 0.0573338 0.0397271 0.137039
19 3 0.0440019 0.0615358 0.165164
1804 2 0.0471598 0.00606184 0.11341
673 2 0.122854 0.0516299 0.166417
674 4 0.147846 0.0520623 0.165809
450 4 0.165914 0.0592345 0.165735
1505 4 0.163551 0.0408911 0.16142
448 2 0.174463 0.0802123 0.155151
654 4 0.312432 0.0188844 0.152034
1661 4 0.321241 0.00113781 0.15385
484 2 0.355953 0.0232791 0.131577
295 2 0.357459 0.0772357 0.113053
297 4 0.347864 0.0553689 0.120466
485 4 0.365638 0.0451538 0.124307
579 4 0.0948089 0.120085 0.115306
237 4 0.149066 0.156876 0.130441
578 4 0.131039 0.153677 0.123032
577 2 0.112924 0.136881 0.119169
235 2 0.165066 0.138318 0.135416
236 4 0.181067 0.11976 0.140392
693 4 0.195625 0.114029 0.15278
449 4 0.183012 0.10119 0.144567
691 2 0.220108 0.109924 0.15577
692 4 0.24459 0.10582 0.158761
582 4 0.26082 0.0946408 0.154363
580 2 0.277912 0.112641 0.157367
581 4 0.295004 0.130641 0.160372
29 3 0.315105 0.159195 0.15166
557 4 0.352853 0.110455 0.0998907
296 4 0.367054 0.0991025 0.10564
476 4 0.133204 0.168064 0.134893
737 4 0.141763 0.168809 0.117224
475 2 0.124698 0.179795 0.15527
736 2 0.152992 0.177877 0.0968067
283 2 0.317471 0.200398 0.138041
354 4 0.31971 0.242048 0.13794
285 4 0.312798 0.176025 0.141097
284 4 0.322144 0.22477 0.134986
462 4 0.330223 0.236791 0.124905
460 2 0.337579 0.238491 0.101069
255 4 0.335695 0.234275 0.141327
253 2 0.356536 0.242488 0.152436
254 4 0.377376 0.250701 0.163544
770 4 0.455683 0.166979 0.0966091
1014 4 0.468781 0.179356 0.105621
1013 4 0.490668 0.216382 0.13113
1012 2 0.479725 0.197869 0.118376
756 4 0.254161 0.313725 0.133367
610 2 0.247483 0.334007 0.107018
352 2 0.298579 0.251293 0.147592
353 4 0.277447 0.260538 0.157244
754 2 0.258546 0.293439 0.14731
755 4 0.262931 0.273152 0.161253
612 4 0.260502 0.332696 0.128324
456 4 0.0796751 0.334704 0.0984609
648 4 0.0690555 0.349418 0.0892843
455 4 0.113155 0.354636 0.129806
454 2 0.096415 0.34467 0.114134
537 4 0.224867 0.353043 0.0812155
626 4 0.186205 0.406183 0.08748
387 4 0.334367 0.40806 0.148895
741 4 0.405983 0.367259 0.105426
739 2 0.399034 0.372005 0.128971
740 4 0.392084 0.376751 0.152516
15 3 0.380357 0.365004 0.162406
385 2 0.355547 0.396226 0.154936
386 4 0.376728 0.384391 0.160977
1466 4 0.0332883 0.496046 0.0975831
1465 2 0.0162398 0.47861 0.0920593
241 2 0.105531 0.471497 0.100599
1438 2 0.1603 0.481559 0.123875
243 4 0.121758 0.464951 0.118459
1440 4 0.135886 0.476716 0.12626
1439 4 0.184714 0.486401 0.121491
637 2 0.21398 0.469991 0.138569
638 4 0.236729 0.47052 0.148931
639 4 0.19123 0.469461 0.128207
767 4 0.253074 0.479629 0.137098
303 4 0.308408 0.463757 0.128874
766 2 0.273272 0.465189 0.134149
768 4 0.29347 0.450748 0.131201
301 2 0.323673 0.444506 0.133516
302 4 0.338938 0.425255 0.138159
493 2 0.406126 0.41303 0.16613
494 4 0.41658 0.435707 0.16741
660 4 0.413753 0.455532 0.168272
17 3 0.0786227 0.0470389 0.167138
380 4 0.0271743 0.0682237 0.170965
675 4 0.0978611 0.0511976 0.167026
1504 2 0.175888 0.0287352 0.179453
1506 4 0.188226 0.0165793 0.197487
689 4 0.195537 0.99996 0.206313
652 2 0.31545 0.0380871 0.167761
653 4 0.318468 0.0572898 0.183487
22 3 0.411636 0.0134128 0.186441
21 1 0.409355 0.0210506 0.208019
23 3 0.388628 0.0312463 0.210216
757 2 0.457208 0.060906 0.197521
25 3 0.425904 0.0360543 0.212454
759 4 0.439626 0.0498016 0.211403
350 4 0.442375 0.0345761 0.222903
758 4 0.474791 0.0720104 0.183638
379 2 0.0238563 0.0887195 0.184897
512 4 0.034982 0.116262 0.211648
381 4 0.0205383 0.109215 0.198828
511 2 0.0523385 0.132238 0.219935
513 4 0.069695 0.148215 0.228222
339 4 0.0829451 0.144259 0.213724
337 2 0.0958303 0.160659 0.199933
30 3 0.287251 0.144597 0.172366
26 1 0.305061 0.158789 0.172574
27 3 0.320413 0.151456 0.188055
521 4 0.487516 0.146519 0.236127
311 4 0.443574 0.166067 0.223867
477 4 0.116193 0.191526 0.175647
363 4 0.100977 0.194249 0.188393
338 4 0.108715 0.177058 0.186142
362 4 0.109016 0.2411 0.203917
361 2 0.104996 0.217675 0.196155
372 4 0.119499 0.25139 0.218002
370 2 0.129979 0.253973 0.240556
279 4 0.239609 0.247414 0.213854
28 3 0.298106 0.180135 0.178436
630 4 0.382869 0.2412 0.179463
628 2 0.388596 0.219899 0.191237
629 4 0.394323 0.198598 0.203011
312 4 0.413316 0.198879 0.201316
310 2 0.428445 0.182473 0.212592
749 4 0.0630286 0.299722 0.165448
750 4 0.0315475 0.292887 0.203696
395 4 0.0345803 0.283358 0.221371
748 2 0.047288 0.296304 0.184572
394 2 0.0292017 0.284279 0.245772
300 4 0.13684 0.282943 0.20785
298 2 0.126953 0.304981 0.214312
299 4 0.117067 0.327019 0.220775
401 4 0.245936 0.303559 0.242907
278 4 0.265042 0.256317 0.171729
277 2 0.252325 0.251866 0.192791
307 2 0.314507 0.328688 0.179998
308 4 0.310762 0.326718 0.204641
497 4 0.297669 0.332041 0.219225
309 4 0.318252 0.330658 0.155356
496 2 0.274599 0.327687 0.227827
765 4 0.385928 0.261221 0.177389
763 2 0.405495 0.274018 0.186253
764 4 0.425062 0.286815 0.195116
528 4 0.492186 0.318503 0.175624
624 4 0.474967 0.328609 0.18064
623 4 0.439918 0.29307 0.183674
622 2 0.457443 0.31084 0.182157
262 2 0.0408957 0.384905 0.225011
264 4 0.0247177 0.401604 0.234208
2618 4 0.0221515 0.418578 0.243054
263 4 0.0570736 0.368205 0.215814
602 4 0.0642507 0.350571 0.217975
601 2 0.08852 0.34728 0.22301
603 4 0.112789 0.34399 0.228045
734 4 0.1145 0.327124 0.239352
290 4 0.173099 0.370713 0.198952
289 2 0.170594 0.392711 0.21057
495 4 0.395673 0.390352 0.16485
14 3 0.406205 0.383884 0.182232
11 1 0.391966 0.365565 0.181991
13 3 0.377245 0.366739 0.199889
12 3 0.404503 0.346376 0.18392
291 4 0.168088 0.414709 0.222189
416 4 0.168051 0.433436 0.226872
415 2 0.180097 0.450804 0.213515
1430 4 0.198196 0.487076 0.197688
417 4 0.192143 0.468172 0.200157
658 2 0.425515 0.476226 0.175925
659 4 0.437277 0.496921 0.183578
595 2 0.478707 0.487333 0.194498
597 4 0.50113 0.480057 0.202834
232 2 0.999732 0.0490709 0.295053
1799 4 0.0241676 0.0211203 0.314794
233 4 0.0162089 0.0307725 0.299394
1402 2 0.0542927 0.0455053 0.314953
1403 4 0.0315377 0.0380083 0.307799
1404 4 0.0770477 0.0530023 0.322107
1798 2 0.0116586 0.0085495 0.33242
633 4 0.374345 0.0454887 0.298483
631 2 0.358076 0.0567516 0.283198
257 4 0.369104 0.0494886 0.316715
698 4 0.360173 0.0347206 0.307172
697 2 0.361166 0.0106873 0.313998
632 4 0.341806 0.0680144 0.267913
349 2 0.448885 0.0264945 0.245651
744 4 0.461611 0.0188321 0.287584
742 2 0.474781 0.025743 0.307683
351 4 0.455395 0.0184128 0.268399
397 2 0.0745143 0.132404 0.333847
390 4 0.0750251 0.160384 0.311214
398 4 0.087521 0.150351 0.322275
393 4 0.0886443 0.147352 0.304147
545 4 0.133632 0.155794 0.267483
392 4 0.125387 0.136851 0.271891
391 2 0.107016 0.142101 0.288019
404 4 0.217572 0.162759 0.334844
444 4 0.0106351 0.241647 0.317214
388 2 0.0606998 0.180841 0.309988
389 4 0.0463745 0.201297 0.308763
544 2 0.157487 0.161382 0.272471
723 4 0.217607 0.22022 0.255772
721 2 0.205883 0.200846 0.266374
546 4 0.181343 0.16697 0.277458
403 2 0.204185 0.167594 0.314287
405 4 0.190797 0.172429 0.29373
722 4 0.19416 0.181472 0.276976
420 4 0.396229 0.236789 0.264741
717 4 0.377471 0.241359 0.268901
331 2 0.450947 0.207184 0.313301
332 4 0.449786 0.201429 0.288996
418 2 0.416239 0.224884 0.273854
419 4 0.436249 0.21298 0.282968
760 2 0.476082 0.219599 0.265067
762 4 0.453804 0.212628 0.274028
364 2 0.00851822 0.314656 0.287107
442 2 0.0108993 0.258859 0.29908
396 4 0.0238231 0.2852 0.270173
443 4 0.0111635 0.276071 0.280945
366 4 0.00975297 0.335166 0.301354
365 4 0.00728347 0.294146 0.272859
371 4 0.140458 0.256556 0.26311
677 4 0.14075 0.315461 0.296732
676 2 0.162615 0.320068 0.307952
735 4 0.126081 0.327407 0.287999
733 2 0.12029 0.327265 0.263676
510 4 0.247476 0.299907 0.310912
508 2 0.224868 0.309241 0.316103
400 2 0.247101 0.299262 0.267511
402 4 0.248265 0.294964 0.292115
509 4 0.20226 0.318575 0.321293
678 4 0.18448 0.324676 0.319171
345 4 0.264328 0.292497 0.303163
498 4 0.251529 0.323334 0.23643
343 2 0.276694 0.271625 0.309216
344 4 0.28906 0.250754 0.31527
715 2 0.373439 0.266021 0.26976
716 4 0.369407 0.290682 0.270619
542 4 0.38057 0.295894 0.288045
541 2 0.388487 0.310821 0.306476
543 4 0.396403 0.325748 0.324907
751 2 0.483357 0.33202 0.325408
407 4 0.0163151 0.341318 0.319223
548 4 0.0206626 0.350978 0.303131
547 2 0.0242245 0.375381 0.307251
549 4 0.0277865 0.399784 0.311371
777 4 0.0419825 0.413038 0.310597
435 4 0.197991 0.337964 0.321221
728 4 0.369218 0.36907 0.306654
727 2 0.370249 0.39226 0.315945
2538 4 0.485404 0.3281 0.284548
2536 2 0.496792 0.348435 0.275493
753 4 0.477727 0.337134 0.30159
2860 2 0.485193 0.403687 0.271994
775 2 0.0585095 0.42909 0.320311
776 4 0.0750366 0.445142 0.330026
1543 2 0.169508 0.469649 0.330327
1435 2 0.196882 0.49929 0.290349
1545 4 0.19225 0.465647 0.320738
1436 4 0.193129 0.480546 0.306465
729 4 0.37128 0.41545 0.325236
437 4 0.368271 0.433202 0.317196
2861 4 0.471185 0.421554 0.282469
1771 2 0.00409928 0.0169579 0.387064
1772 4 0.0062702 0.0340761 0.40516
2238 4 0.0213109 0.0448521 0.397382
732 4 0.0861702 0.0748742 0.392895
369 4 0.10212 0.0739786 0.405297
605 4 0.16291 0.0543207 0.388635
604 2 0.170989 0.0412108 0.408333
1701 4 0.178839 0.0656944 0.38286
256 2 0.37971 0.0636657 0.33437
258 4 0.390316 0.0778428 0.352025
426 4 0.396241 0.0673796 0.368073
424 2 0.390577 0.0565704 0.389896
425 4 0.384913 0.0457612 0.41172
1580 4 0.395159 0.0289192 0.41751
743 4 0.487951 0.0326539 0.327782
479 4 0.490085 0.0446622 0.343231
478 2 0.480827 0.0556942 0.36367
480 4 0.471568 0.0667262 0.384109
458 4 0.998963 0.153656 0.355062
318 4 0.00266 0.133571 0.355585
399 4 0.0615076 0.114457 0.345419
317 4 0.0447176 0.106744 0.352098
731 4 0.0605918 0.106074 0.363349
730 2 0.073381 0.0904743 0.378122
316 2 0.0236888 0.120158 0.353842
1699 2 0.196683 0.0829022 0.379596
247 2 0.211984 0.139973 0.359346
248 4 0.211548 0.11551 0.364501
1700 4 0.214528 0.10011 0.376332
249 4 0.212421 0.164435 0.354191
319 2 0.316308 0.11935 0.388071
320 4 0.30428 0.115992 0.409732
706 2 0.324078 0.161891 0.347188
321 4 0.328336 0.122708 0.366409
708 4 0.321451 0.140075 0.359118
684 4 0.286232 0.120008 0.403981
682 2 0.266623 0.134879 0.4084
516 4 0.462495 0.159342 0.37338
575 4 0.451286 0.143476 0.377212
574 2 0.460022 0.132791 0.398061
457 2 0.0036236 0.176737 0.363473
2654 4 0.990453 0.20905 0.379308
459 4 0.00828382 0.199817 0.371885
378 4 0.306189 0.24273 0.322862
376 2 0.312233 0.221075 0.333803
377 4 0.318277 0.19942 0.344744
707 4 0.326704 0.183707 0.335258
466 2 0.385543 0.240163 0.407445
467 4 0.395267 0.218205 0.400482
333 4 0.452107 0.212938 0.337606
514 2 0.46209 0.182022 0.362862
515 4 0.461685 0.204703 0.352345
453 4 0.460593 0.224578 0.349659
451 2 0.484041 0.233138 0.351108
406 2 0.0269582 0.329043 0.338229
408 4 0.0376014 0.316767 0.357235
347 4 0.0814747 0.334039 0.384009
275 4 0.152702 0.315914 0.36178
274 2 0.172333 0.304204 0.371914
276 4 0.191964 0.292494 0.382047
473 4 0.237528 0.262122 0.410283
374 4 0.240575 0.27868 0.399655
373 2 0.219352 0.277123 0.386527
375 4 0.198129 0.275566 0.3734
468 4 0.375819 0.262121 0.414408
615 4 0.407159 0.335422 0.338347
267 4 0.363559 0.267645 0.398688
265 2 0.348279 0.2869 0.403264
266 4 0.332998 0.306154 0.407841
613 2 0.423765 0.338437 0.356795
752 4 0.488986 0.326906 0.349227
614 4 0.440371 0.341453 0.375243
346 2 0.0649951 0.341333 0.401341
617 4 0.137176 0.315542 0.349919
618 4 0.101801 0.337421 0.377679
616 2 0.119488 0.326482 0.363799
433 2 0.196202 0.349172 0.3435
434 4 0.194412 0.360379 0.36578
335 4 0.368224 0.396943 0.389281
240 4 0.383207 0.407418 0.398831
414 4 0.0834831 0.449101 0.347501
412 2 0.105197 0.461226 0.344915
413 4 0.12691 0.47335 0.34233
1544 4 0.146766 0.473651 0.339916
500 4 0.136434 0.490211 0.339719
503 4 0.316218 0.425111 0.40505
336 4 0.325253 0.422496 0.388146
669 4 0.32805 0.439258 0.398772
667 2 0.321866 0.462139 0.406733
334 2 0.346738 0.409719 0.388713
436 2 0.367647 0.452722 0.332809
438 4 0.367023 0.472241 0.348423
592 2 0.411991 0.505914 0.372996
594 4 0.417384 0.484784 0.360763
3990 4 0.486232 0.490821 0.343139
2236 2 0.0247275 0.0570343 0.418948
1781 4 0.0686399 0.0165872 0.490053
1126 2 0.00363651 0.0462407 0.468095
1127 4 0.0196163 0.0607691 0.455495
2237 4 0.0281441 0.0692164 0.440514
719 4 0.0781265 0.0897892 0.478024
720 4 0.037193 0.069162 0.458032
718 2 0.0576597 0.0794756 0.468028
1780 2 0.079554 0.0170638 0.467563
367 2 0.10154 0.0536609 0.419858
368 4 0.10096 0.0333431 0.43442
1602 4 0.146841 0.984744 0.415349
606 4 0.179068 0.0281009 0.428032
1782 4 0.0904681 0.0175405 0.445072
962 4 0.246676 0.987798 0.484889
963 4 0.289404 0.0122693 0.493617
724 2 0.28783 0.052857 0.478721
726 4 0.284595 0.0746522 0.466902
725 4 0.291064 0.0310617 0.490539
432 4 0.307068 0.0207522 0.490791
1182 4 0.302143 0.0789764 0.458367
961 2 0.26804 3.36118e-05 0.489253
1579 2 0.38055 0.00940878 0.423087
642 4 0.44586 0.0634262 0.443466
2878 2 0.432179 0.0659154 0.485387
2880 4 0.442035 0.0612762 0.462881
939 4 0.0848656 0.132526 0.489154
1033 2 0.120825 0.129113 0.472063
1035 4 0.144275 0.13584 0.466583
261 4 0.154568 0.154499 0.467648
1034 4 0.097375 0.122387 0.477543
683 4 0.247014 0.149749 0.412819
600 4 0.248848 0.169265 0.416888
1180 2 0.295792 0.0936606 0.439152
1181 4 0.289441 0.108345 0.419937
640 2 0.456399 0.0829794 0.431988
576 4 0.468759 0.122105 0.418909
641 4 0.466939 0.102533 0.420509
306 4 0.471796 0.113687 0.436087
304 2 0.468993 0.131721 0.453178
3158 4 0.456258 0.146746 0.48749
305 4 0.466191 0.149754 0.47027
259 2 0.163799 0.177722 0.466832
694 2 0.152761 0.230641 0.480322
696 4 0.136925 0.241156 0.496565
695 4 0.168596 0.220126 0.464079
260 4 0.173031 0.200945 0.466016
472 2 0.245497 0.244738 0.426392
599 4 0.246124 0.208979 0.447154
687 4 0.227068 0.215717 0.446912
686 4 0.184409 0.214459 0.472976
685 2 0.205739 0.215088 0.459944
411 4 0.241122 0.224201 0.456963
598 2 0.247486 0.189122 0.432021
409 2 0.257544 0.221996 0.475688
474 4 0.253466 0.227355 0.442501
488 4 0.270838 0.220252 0.435693
489 4 0.319592 0.222054 0.424716
487 2 0.295215 0.221153 0.430205
813 4 0.240377 0.301958 0.482279
2812 2 0.0194521 0.329815 0.435227
348 4 0.0485155 0.348627 0.418673
2813 4 0.04337 0.336546 0.432433
326 4 0.059596 0.34685 0.435025
325 2 0.0718933 0.355451 0.455024
384 4 0.142613 0.419469 0.500926
327 4 0.0841907 0.364051 0.475024
10 3 0.121273 0.354804 0.485307
7 3 0.0947531 0.380691 0.480895
6 1 0.113058 0.37446 0.493356
711 4 0.147189 0.400361 0.496703
8 3 0.129214 0.391039 0.49176
709 2 0.168286 0.404301 0.483873
635 4 0.199391 0.423714 0.477486
774 4 0.202256 0.405544 0.48525
710 4 0.189382 0.408241 0.471044
502 2 0.303401 0.410972 0.421207
504 4 0.290585 0.396834 0.437363
926 4 0.410206 0.41016 0.508385
679 2 0.0670463 0.457367 0.491126
680 4 0.0455486 0.467766 0.483718
1383 4 0.033116 0.478816 0.47103
636 4 0.207938 0.448523 0.434917
634 2 0.203665 0.436119 0.456201
4 3 0.311132 0.499441 0.428372
668 4 0.315682 0.48502 0.414694
586 2 0.40806 0.429893 0.469688
239 4 0.407844 0.440971 0.426542
588 4 0.40757 0.437057 0.445738
238 2 0.395526 0.424195 0.412686
587 4 0.408551 0.422729 0.493638
1184 4 0.0055524 0.0214165 0.555973
1183 2 0.0161795 0.000320395 0.56417
1150 2 0.147175 0.0592544 0.549936
342 4 0.132516 0.0424635 0.511737
1152 4 0.135418 0.0483495 0.530752
340 2 0.147681 0.022744 0.509216
1151 4 0.158931 0.0701594 0.569121
430 2 0.326247 0.0113439 0.503785
841 2 0.36747 0.0246481 0.547676
842 4 0.378304 0.0382872 0.565614
1216 2 0.410655 0.0106162 0.578585
1217 4 0.390692 0.0253353 0.575418
843 4 0.356635 0.0110091 0.529738
2879 4 0.422323 0.0705547 0.507893
3009 4 0.4851 0.0610238 0.571146
1218 4 0.430617 0.995897 0.581752
879 4 0.0535257 0.148342 0.549165
877 2 0.0306199 0.147111 0.559114
878 4 0.00771407 0.145879 0.569063
938 4 0.0617546 0.146465 0.531252
1272 4 0.0665077 0.161318 0.542553
937 2 0.0733101 0.139496 0.510203
3159 4 0.48564 0.138763 0.52716
3157 2 0.470949 0.142755 0.507325
1270 2 0.0738108 0.180126 0.557321
1258 2 0.120492 0.21655 0.528369
1259 4 0.115368 0.206954 0.550882
1271 4 0.0811138 0.198933 0.57209
1260 4 0.125615 0.226147 0.505856
898 2 0.294984 0.209711 0.525951
899 4 0.309518 0.193546 0.538306
900 4 0.280449 0.225875 0.513596
857 4 0.320873 0.196051 0.554005
856 2 0.315801 0.177086 0.569491
410 4 0.273965 0.219792 0.494414
791 4 0.327639 0.201592 0.5367
790 2 0.347798 0.215754 0.540969
792 4 0.367957 0.229917 0.545238
872 4 0.375435 0.248762 0.546125
811 2 0.242891 0.31251 0.504807
650 4 0.255125 0.327173 0.543508
812 4 0.245405 0.323061 0.527335
649 2 0.260774 0.311077 0.561789
651 4 0.266423 0.294981 0.58007
806 4 0.284446 0.289003 0.586196
1238 4 0.362466 0.242396 0.559094
871 2 0.388146 0.256105 0.525884
873 4 0.400857 0.263448 0.505644
1237 2 0.355482 0.259401 0.576042
583 2 0.505609 0.290594 0.501048
585 4 0.510887 0.266553 0.505443
1135 2 0.116278 0.403763 0.564529
897 4 0.148908 0.393512 0.569049
1137 4 0.134306 0.398281 0.580964
1136 4 0.0982494 0.409244 0.548094
9 3 0.106541 0.371854 0.515472
773 4 0.237761 0.405213 0.520464
1189 2 0.222203 0.410642 0.558093
895 2 0.172256 0.399363 0.575817
1190 4 0.236106 0.402349 0.539038
803 4 0.245466 0.388833 0.528551
804 4 0.254595 0.33967 0.527938
802 2 0.250031 0.364251 0.528245
930 4 0.253478 0.406049 0.531641
772 2 0.220008 0.405378 0.502857
928 2 0.270274 0.424332 0.528675
925 2 0.419235 0.387084 0.505045
927 4 0.428265 0.364008 0.501705
681 4 0.088544 0.446968 0.498534
383 4 0.0964734 0.435293 0.511948
568 2 0.165728 0.456952 0.503576
382 2 0.119543 0.427381 0.506437
569 4 0.15202 0.436359 0.499945
896 4 0.195604 0.405215 0.582584
1191 4 0.208299 0.418935 0.577148
570 4 0.179437 0.477545 0.507207
1159 2 0.178873 0.496407 0.577323
929 4 0.287071 0.442614 0.525708
1952 4 0.305888 0.496702 0.524146
1951 2 0.305074 0.471996 0.520389
1953 4 0.30426 0.44729 0.516631
1000 2 0.401154 0.487785 0.551732
663 4 0.422303 0.426126 0.506652
1001 4 0.420117 0.4717 0.554348
661 2 0.425798 0.444476 0.523272
662 4 0.429293 0.462827 0.539892
1911 4 0.431235 0.456328 0.558469
1332 4 0.439033 0.473526 0.552806
1330 2 0.45804 0.487825 0.545095
1909 2 0.435035 0.447706 0.581629
1059 4 0.160904 0.0680428 0.588741
1058 4 0.183088 0.0286058 0.610031
1057 2 0.171996 0.0483243 0.599386
2375 4 0.178128 0.0101782 0.605541
949 2 0.277966 0.0159365 0.641419
951 4 0.279668 0.0408814 0.64123
1031 4 0.299478 0.044782 0.650037
1030 2 0.309885 0.0660746 0.658006
3007 2 0.491768 0.0793743 0.586766
43 3 0.429803 0.0747425 0.648802
45 3 0.440255 0.0485878 0.673789
1155 4 0.166823 0.0846643 0.580092
1153 2 0.164415 0.103594 0.59625
1154 4 0.162008 0.122523 0.612407
1221 4 0.178568 0.129072 0.622648
1219 2 0.190401 0.151013 0.624585
808 2 0.486499 0.0920436 0.642346
3008 4 0.498436 0.0977248 0.602385
809 4 0.500455 0.093056 0.621625
1244 4 0.0775844 0.207613 0.589508
1209 4 0.0986141 0.186224 0.650781
1245 4 0.086879 0.195929 0.637235
1243 2 0.0822317 0.201771 0.613371
1210 2 0.24366 0.17758 0.635269
1212 4 0.220048 0.181035 0.627804
1220 4 0.202235 0.172954 0.626521
797 4 0.181299 0.228802 0.597757
796 2 0.193081 0.209795 0.608942
798 4 0.204863 0.190788 0.620127
858 4 0.31073 0.158122 0.584976
1211 4 0.267271 0.174124 0.642734
888 4 0.273681 0.165602 0.659193
1193 4 0.409599 0.223015 0.659922
3121 2 0.478809 0.22976 0.630744
3122 4 0.476035 0.211339 0.647421
3357 4 0.469106 0.196284 0.65706
3355 2 0.490007 0.183137 0.660995
983 4 0.0141305 0.282522 0.633164
982 2 0.0337644 0.296569 0.639675
984 4 0.0533983 0.310615 0.646186
3263 4 0.0540788 0.321822 0.662553
1041 4 0.0536441 0.329842 0.645592
805 2 0.30727 0.281668 0.593298
807 4 0.330094 0.274334 0.6004
1239 4 0.348498 0.276406 0.59299
3123 4 0.481582 0.248182 0.614066
906 4 0.459671 0.300825 0.602042
905 4 0.48269 0.263696 0.626378
904 2 0.471181 0.28226 0.61421
953 4 0.460339 0.315796 0.589676
1039 2 0.0580412 0.35146 0.633823
1040 4 0.0624382 0.373078 0.622053
993 4 0.070392 0.387722 0.612451
991 2 0.0556064 0.407755 0.61016
1028 4 0.204289 0.404398 0.663811
1027 2 0.220089 0.397945 0.645537
1029 4 0.235888 0.391492 0.627264
952 2 0.477066 0.334036 0.59324
954 4 0.493793 0.352275 0.596804
3309 4 0.491017 0.411858 0.618968
992 4 0.0408208 0.427788 0.607869
1172 4 0.198804 0.421676 0.593408
1160 4 0.179422 0.481903 0.597683
1171 2 0.197155 0.44629 0.597482
1173 4 0.195506 0.470904 0.601555
1187 4 0.192151 0.486965 0.612111
1186 2 0.194443 0.486603 0.637007
1188 4 0.196736 0.48624 0.661902
1268 4 0.416043 0.48412 0.648892
1267 2 0.421277 0.464826 0.633875
3182 4 0.497158 0.428939 0.626122
1206 4 0.486291 0.416789 0.637079
2168 4 0.431084 0.494447 0.639231
1204 2 0.463993 0.425744 0.630167
1910 4 0.438836 0.439085 0.60479
1269 4 0.426511 0.445532 0.618858
1205 4 0.441695 0.434699 0.623255
944 4 0.0682677 0.984231 0.679762
1284 4 0.0952045 0.0457866 0.695513
1282 2 0.10136 0.0680303 0.705131
2047 2 0.151187 0.0127113 0.742062
2256 4 0.187721 0.0117276 0.725797
2049 4 0.169849 0.018848 0.726594
1201 2 0.185819 0.0532603 0.718522
1202 4 0.183383 0.0284645 0.716421
1203 4 0.188254 0.0780562 0.720622
1148 4 0.190225 0.0968096 0.726396
1005 4 0.344692 0.0328512 0.705485
1003 2 0.344481 0.0147219 0.688267
41 1 0.438374 0.0709708 0.670032
42 3 0.424056 0.0800825 0.685559
1162 2 0.49003 0.0638267 0.693266
1163 4 0.477797 0.0787841 0.677397
44 3 0.459137 0.0811198 0.67211
1077 4 0.0304726 0.118761 0.751167
1075 2 0.0156387 0.104859 0.736611
1076 4 0.000804764 0.0909562 0.722056
909 4 0.104957 0.158408 0.706295
907 2 0.107702 0.133967 0.710801
908 4 0.110447 0.109527 0.715308
1283 4 0.107516 0.090274 0.714749
1227 4 0.124735 0.0982362 0.70888
1225 2 0.148945 0.0942659 0.713703
1226 4 0.173156 0.0902955 0.718526
1147 2 0.20852 0.1007 0.742989
1032 4 0.320292 0.0873672 0.665974
829 2 0.323522 0.146948 0.714312
830 4 0.300191 0.154978 0.718354
887 4 0.297326 0.166664 0.703245
886 2 0.285504 0.166133 0.681219
831 4 0.346853 0.138917 0.710269
1142 4 0.365829 0.14089 0.706539
1141 2 0.382776 0.159265 0.707126
810 4 0.472544 0.0910312 0.663068
1025 4 0.463688 0.156316 0.698833
3424 2 0.47322 0.11934 0.687298
3426 4 0.46925 0.0952925 0.681718
3425 4 0.47719 0.143388 0.692878
3269 4 0.481893 0.155802 0.707007
3268 2 0.485326 0.163301 0.730611
1024 2 0.440256 0.164978 0.699879
852 4 0.0495012 0.17903 0.731357
1214 4 0.0296568 0.181111 0.729077
850 2 0.0712399 0.176358 0.719296
1213 2 0.00643665 0.189616 0.72538
851 4 0.0929786 0.173686 0.707235
1208 4 0.110216 0.175096 0.698133
1207 2 0.104415 0.18066 0.674457
1107 4 0.109557 0.172626 0.717719
1105 2 0.131126 0.180027 0.727975
1106 4 0.152694 0.187428 0.738231
1130 4 0.166181 0.202943 0.745298
978 4 0.289936 0.171321 0.720412
976 2 0.289709 0.187823 0.739196
916 2 0.297418 0.240278 0.745731
1192 2 0.409032 0.207388 0.679432
1143 4 0.399722 0.17764 0.707712
1262 4 0.415617 0.18632 0.715801
1194 4 0.408464 0.191761 0.698943
1026 4 0.416824 0.17364 0.700924
1261 2 0.417378 0.192562 0.739949
3262 2 0.0616034 0.318999 0.68623
3264 4 0.0691279 0.316176 0.709907
779 4 0.0798639 0.315849 0.726273
893 4 0.0612988 0.315729 0.728124
778 2 0.0995501 0.300509 0.72475
780 4 0.119236 0.28517 0.723226
1065 4 0.220532 0.323756 0.715445
1063 2 0.23843 0.317158 0.699279
1064 4 0.256327 0.31056 0.683114
947 4 0.294935 0.261467 0.711796
946 2 0.281579 0.277728 0.698293
948 4 0.268222 0.293989 0.684789
917 4 0.3037 0.257017 0.728252
1008 4 0.449132 0.267914 0.706577
1006 2 0.449997 0.26847 0.731559
892 2 0.0607091 0.33245 0.746705
1067 4 0.162833 0.398039 0.716925
940 2 0.130015 0.390993 0.742419
941 4 0.145072 0.401309 0.72533
1066 2 0.175828 0.395971 0.695663
1068 4 0.188822 0.393903 0.674402
1175 4 0.199457 0.467268 0.670351
1176 4 0.174835 0.444195 0.707258
1174 2 0.187146 0.455732 0.688805
1139 4 0.285402 0.48093 0.703492
1138 2 0.302808 0.468192 0.716139
1140 4 0.320214 0.455454 0.728787
1229 4 0.33035 0.439712 0.735796
1100 4 0.399228 0.439635 0.742298
1228 2 0.355307 0.440176 0.737252
1230 4 0.380263 0.440639 0.738709
1101 4 0.446001 0.457041 0.739137
1099 2 0.422615 0.448338 0.740718
3330 4 0.461706 0.457511 0.728131
3328 2 0.467872 0.459944 0.704022
1251 4 0.453401 0.47429 0.734754
3329 4 0.474039 0.462376 0.679914
1249 2 0.4509 0.495406 0.747909
2390 4 0.122625 0.998879 0.772594
1113 4 0.349416 0.0820101 0.80843
980 4 0.422628 0.999204 0.809309
2321 4 0.430927 0.0156917 0.812548
2322 4 0.449702 0.0618249 0.808082
2320 2 0.440315 0.0387583 0.810315
846 4 0.451084 0.0621115 0.788591
844 2 0.442747 0.0811199 0.77465
864 4 0.049178 0.126566 0.748738
862 2 0.0491639 0.128825 0.77364
863 4 0.0491498 0.131085 0.798541
833 4 0.0502271 0.120747 0.814766
1125 4 0.0577877 0.139249 0.814413
1123 2 0.0673335 0.158537 0.827142
832 2 0.047899 0.0989578 0.826808
911 4 0.0865771 0.10394 0.84308
1149 4 0.226815 0.10459 0.759583
1257 4 0.242203 0.114548 0.764394
1255 2 0.241566 0.130197 0.783884
921 4 0.225375 0.144494 0.81504
919 2 0.208752 0.162238 0.820869
840 4 0.242068 0.141649 0.822409
1256 4 0.240929 0.145846 0.803375
1111 2 0.361664 0.0957954 0.825316
845 4 0.434411 0.100128 0.760708
3189 4 0.0205597 0.245566 0.805856
1124 4 0.0768793 0.177825 0.839871
1129 2 0.167133 0.213728 0.767835
34 3 0.12722 0.178504 0.825646
1131 4 0.168085 0.224514 0.790373
1277 4 0.170549 0.228628 0.808631
822 4 0.174671 0.242665 0.795022
1276 2 0.181518 0.211809 0.82353
920 4 0.192128 0.179982 0.826699
977 4 0.289481 0.204324 0.757979
918 4 0.291136 0.223539 0.76321
1298 4 0.284151 0.21055 0.775828
1297 2 0.287313 0.206136 0.800235
1299 4 0.290476 0.201723 0.824642
1086 4 0.305727 0.200355 0.838459
50 3 0.390668 0.183144 0.791556
46 1 0.411742 0.191626 0.793169
49 3 0.411037 0.214803 0.792292
3270 4 0.488759 0.1708 0.754215
1043 4 0.423799 0.212965 0.775621
48 3 0.421546 0.184746 0.813043
47 3 0.424386 0.1839 0.775574
1263 4 0.41914 0.198803 0.764097
1146 4 0.48432 0.18354 0.768988
1145 4 0.436751 0.198641 0.772124
1144 2 0.460536 0.19109 0.770556
1022 4 0.421941 0.192295 0.83135
1042 2 0.43096 0.23664 0.771961
3187 2 0.0054458 0.250805 0.786639
3188 4 0.990332 0.256044 0.767422
821 4 0.188169 0.287514 0.812547
820 2 0.18142 0.265089 0.803784
1235 4 0.24446 0.319857 0.799186
1098 4 0.260377 0.313676 0.81051
1044 4 0.438122 0.260314 0.768301
1007 4 0.450863 0.269026 0.756541
1165 2 0.477589 0.269651 0.781127
1166 4 0.45321 0.271087 0.77576
3275 4 0.0178298 0.348808 0.818574
894 4 0.0601194 0.349171 0.765285
3276 4 0.0497481 0.355279 0.780626
3274 2 0.033789 0.352044 0.7996
816 4 0.0700889 0.35566 0.780205