ITEM: TIMESTEP
860000
ITEM: NUMBER OF ATOMS
4590
ITEM: BOX BOUNDS pp pp pp
-9.9985700000000008e+00 9.9985700000000008e+00
-9.9985700000000008e+00 9.9985700000000008e+00
-9.9985700000000008e+00 9.9985700000000008e+00
ITEM: ATOMS id type xs ys zs
463 2 0.0317487 0.0731121 0.0330648
464 4 0.0121265 0.0613221 0.0230077
701 4 0.0709536 0.0836604 0.0436732
2576 4 0.00590273 0.036991 0.0735279
491 4 0.264212 0.0142741 0.0404299
558 4 0.363856 0.05589 0.0397727
556 2 0.353036 0.0506654 0.0616998
745 2 0.47178 0.047901 0.0144405
746 4 0.482303 0.0461344 0.0370529
2469 4 0.492673 0.0283736 0.0379124
2467 2 0.503331 0.0057878 0.0391211
465 4 0.0513708 0.084902 0.0431219
589 2 0.0157261 0.141353 0.0780142
590 4 0.0357953 0.134762 0.0646365
421 2 0.102715 0.146448 0.0151472
700 2 0.0936162 0.0928684 0.0488498
702 4 0.116279 0.102076 0.0540263
566 4 0.134977 0.1095 0.0586782
565 2 0.14924 0.0894305 0.0543217
423 4 0.0854113 0.129013 0.0104831
567 4 0.163503 0.0693614 0.0499653
360 4 0.241702 0.147226 0.0123563
358 2 0.263906 0.135758 0.0131455
359 4 0.286111 0.124289 0.0139347
770 4 0.425916 0.154574 0.091287
769 2 0.437383 0.176668 0.0889325
553 2 0.057599 0.184025 0.0107578
554 4 0.0540515 0.159292 0.0116746
836 4 0.0786974 0.218245 0.00286744
555 4 0.0611465 0.208759 0.00984103
422 4 0.120019 0.163884 0.0198113
835 2 0.101717 0.226699 0.00774507
837 4 0.124737 0.235154 0.0126227
915 4 0.14257 0.244978 0.0084217
666 4 0.32631 0.227059 0.0256331
664 2 0.321972 0.208552 0.00938968
573 4 0.316378 0.236409 0.0392642
461 4 0.325722 0.220059 0.0445464
665 4 0.317634 0.190045 0.993146
460 2 0.334203 0.221294 0.0680353
1013 4 0.478882 0.17811 0.0400522
1014 4 0.501157 0.222842 0.0419309
1012 2 0.49002 0.200476 0.0409916
2808 4 0.00467786 0.283259 0.0230055
292 2 0.117535 0.298996 0.0561723
293 4 0.137058 0.3052 0.0705084
294 4 0.098011 0.292792 0.0418362
507 4 0.151493 0.293717 0.0778096
505 2 0.175429 0.293856 0.0705837
357 4 0.256771 0.314305 0.00080184
481 2 0.223707 0.323671 0.0819274
506 4 0.199366 0.293995 0.0633577
483 4 0.208118 0.304249 0.0797039
355 2 0.262968 0.293919 0.0138856
571 2 0.302888 0.256467 0.0328705
356 4 0.269166 0.273533 0.0269693
572 4 0.289398 0.276525 0.0264767
482 4 0.239297 0.343093 0.0841509
324 4 0.419906 0.260584 0.0635859
957 4 0.369708 0.314714 0.0126631
1069 2 0.409944 0.247805 0.0253205
1071 4 0.406122 0.255123 0.0489218
322 2 0.433792 0.280008 0.0710062
670 2 0.454314 0.333519 0.0625747
519 4 0.47977 0.263835 0.0807949
672 4 0.450446 0.31941 0.0828514
323 4 0.447678 0.299432 0.0784265
287 4 0.131609 0.352664 0.984033
455 4 0.129041 0.356774 0.0731289
454 2 0.105778 0.359893 0.0817471
609 4 0.250474 0.355039 0.0722457
252 4 0.295416 0.398663 0.0530151
608 4 0.287684 0.379058 0.0490241
607 2 0.269079 0.367048 0.0606349
671 4 0.458181 0.347629 0.042298
281 4 0.477105 0.35379 0.0466307
280 2 0.489732 0.375149 0.043539
282 4 0.502359 0.396507 0.0404472
551 4 0.0724794 0.433048 0.0537094
550 2 0.0831613 0.451837 0.0662814
552 4 0.0938433 0.470626 0.0788535
1787 4 0.0870427 0.488823 0.0768595
242 4 0.106604 0.48527 0.0795796
245 4 0.242551 0.474643 0.0795497
250 2 0.29116 0.423221 0.051022
244 2 0.258394 0.484166 0.0627122
251 4 0.286905 0.447779 0.0490289
271 2 0.284166 0.478918 0.00779151
246 4 0.274237 0.493689 0.0458747
525 4 0.366464 0.493235 0.0585778
523 2 0.364577 0.480693 0.0801262
227 4 0.508359 0.473186 0.0616094
226 2 0.489742 0.46496 0.0761322
1673 4 0.425078 0.498257 0.0876347
16 1 0.0468452 0.0757992 0.152163
17 3 0.0695051 0.0719366 0.153035
18 3 0.0357003 0.0555496 0.1542
1804 2 0.0647878 0.00843805 0.144667
20 3 0.0416601 0.0855527 0.132247
1806 4 0.0567754 0.0042091 0.167971
1667 4 0.0817078 0.999847 0.10642
1805 4 0.0728003 0.012667 0.121363
1666 2 0.097605 0.00673229 0.0883912
448 2 0.178333 0.0730876 0.166992
652 2 0.313578 0.00862124 0.137878
653 4 0.295939 0.0259912 0.141386
557 4 0.342215 0.0454408 0.0836268
296 4 0.359444 0.0462472 0.0924532
295 2 0.370483 0.0320702 0.109841
297 4 0.381523 0.0178932 0.127228
2724 4 0.503671 0.00468956 0.151675
237 4 0.135921 0.141125 0.151073
235 2 0.156407 0.128618 0.158078
236 4 0.176894 0.116112 0.165082
693 4 0.192806 0.108961 0.15692
449 4 0.181757 0.0978295 0.16813
283 2 0.262121 0.149095 0.144456
284 4 0.28138 0.137271 0.155156
312 4 0.459698 0.143422 0.169372
337 2 0.0515005 0.214467 0.153062
339 4 0.0274015 0.220809 0.151013
363 4 0.0874638 0.212399 0.169661
338 4 0.0755994 0.208125 0.155112
476 4 0.137084 0.19513 0.132433
475 2 0.11562 0.203766 0.141914
477 4 0.0941559 0.212402 0.151395
737 4 0.15333 0.185632 0.12607
738 4 0.184211 0.22469 0.121422
736 2 0.16877 0.205161 0.123746
285 4 0.242862 0.160918 0.133756
462 4 0.342684 0.222528 0.0915241
254 4 0.381396 0.199954 0.129024
255 4 0.344229 0.202947 0.0957022
253 2 0.362812 0.20145 0.112363
630 4 0.394591 0.213436 0.13632
771 4 0.448851 0.198762 0.086578
629 4 0.421531 0.255374 0.140337
628 2 0.408061 0.234405 0.138329
2895 4 0.489399 0.24786 0.142433
518 4 0.477516 0.244019 0.126653
517 2 0.478643 0.253927 0.103724
354 4 0.305652 0.263401 0.107764
352 2 0.306284 0.278453 0.12772
353 4 0.306916 0.293505 0.147675
754 2 0.2915 0.331137 0.144261
755 4 0.294877 0.308333 0.153946
278 4 0.299088 0.293187 0.165157
620 4 0.0185308 0.341327 0.0883462
647 4 0.0335651 0.353077 0.0926514
646 2 0.0497628 0.365784 0.106841
648 4 0.0659605 0.378491 0.121031
456 4 0.0825147 0.363011 0.0903653
537 4 0.216639 0.380856 0.15859
535 2 0.197427 0.371166 0.145855
536 4 0.178214 0.361476 0.133121
756 4 0.288123 0.35394 0.134576
612 4 0.274667 0.368293 0.140585
610 2 0.255004 0.37707 0.153294
387 4 0.322801 0.39327 0.144448
302 4 0.312749 0.401949 0.159572
741 4 0.362107 0.334712 0.0838945
739 2 0.36852 0.348336 0.103856
740 4 0.374933 0.361959 0.123817
15 3 0.380923 0.367142 0.141118
385 2 0.342615 0.378245 0.141836
386 4 0.362429 0.363219 0.139224
11 1 0.403424 0.370375 0.142506
14 3 0.408112 0.393077 0.143523
495 4 0.40233 0.409817 0.134436
12 3 0.413516 0.361528 0.123823
13 3 0.41181 0.359704 0.161326
645 4 0.458423 0.406854 0.157292
1467 4 0.0145354 0.467192 0.108347
1465 2 0.0259147 0.485512 0.120997
315 4 0.99537 0.469341 0.116809
241 2 0.129474 0.490811 0.0880318
625 2 0.221277 0.456543 0.0938056
626 4 0.196558 0.452992 0.0950406
627 4 0.245997 0.460094 0.0925706
766 2 0.261985 0.474986 0.16939
524 4 0.362689 0.468152 0.101675
658 2 0.4184 0.485297 0.153276
493 2 0.39525 0.432332 0.142691
660 4 0.403685 0.466731 0.145277
494 4 0.388169 0.454846 0.150946
228 4 0.471124 0.456735 0.090655
2480 4 0.0026126 0.0181642 0.174292
19 3 0.0409567 0.0898762 0.169643
673 2 0.126331 0.0714771 0.216718
674 4 0.122787 0.0585827 0.237845
675 4 0.129876 0.0843715 0.195591
1506 4 0.215068 0.01124 0.200804
1504 2 0.196079 0.0251342 0.192344
450 4 0.17491 0.0483456 0.165854
1505 4 0.177091 0.0390283 0.183885
689 4 0.183082 0.0060189 0.231795
758 4 0.402734 0.0828201 0.186403
21 1 0.386411 0.0233182 0.239073
25 3 0.402849 0.0383813 0.234432
759 4 0.392257 0.0517919 0.224194
757 2 0.397495 0.067306 0.205298
22 3 0.372135 0.021903 0.221091
24 3 0.395695 0.00240838 0.242943
23 3 0.374379 0.0302097 0.257678
744 4 0.470922 0.0242691 0.226725
351 4 0.467459 0.0437974 0.222996
349 2 0.448147 0.059141 0.227091
350 4 0.428834 0.0744845 0.231187
380 4 0.0240677 0.0968056 0.178277
512 4 0.0322241 0.15316 0.208477
379 2 0.0218041 0.117163 0.192616
381 4 0.0195405 0.137521 0.206956
579 4 0.0772122 0.105368 0.167004
577 2 0.0828327 0.121993 0.184814
578 4 0.0884531 0.138617 0.202625
691 2 0.212618 0.121437 0.165694
692 4 0.232431 0.133913 0.174468
723 4 0.199147 0.138665 0.205478
721 2 0.193479 0.153132 0.225067
722 4 0.187811 0.167599 0.244657
582 4 0.251105 0.133252 0.180578
546 4 0.171365 0.172934 0.253278
28 3 0.328125 0.0895164 0.235793
580 2 0.269574 0.123168 0.194084
581 4 0.288043 0.113084 0.207589
30 3 0.29639 0.107086 0.225698
26 1 0.312504 0.105617 0.241724
27 3 0.32313 0.125926 0.243669
310 2 0.447278 0.139786 0.190766
311 4 0.434857 0.136151 0.212159
511 2 0.0486041 0.169221 0.218423
513 4 0.0649841 0.185282 0.228369
362 4 0.106337 0.230365 0.212343
361 2 0.0969006 0.221382 0.191002
372 4 0.125888 0.230695 0.209113
370 2 0.148502 0.220048 0.209787
371 4 0.171115 0.209401 0.210461
544 2 0.146436 0.173105 0.251354
308 4 0.321008 0.249425 0.24652
765 4 0.359927 0.214047 0.180794
763 2 0.367408 0.237022 0.187223
520 2 0.485862 0.195255 0.224456
521 4 0.466425 0.208935 0.232215
395 4 0.0556858 0.260123 0.237859
750 4 0.0614054 0.274587 0.22574
748 2 0.0734998 0.290571 0.210793
749 4 0.0855942 0.306555 0.195846
279 4 0.265042 0.277605 0.198305
277 2 0.282065 0.285396 0.181731
307 2 0.329249 0.253324 0.223237
309 4 0.33749 0.257224 0.199955
764 4 0.37489 0.259997 0.193653
623 4 0.381555 0.275593 0.184157
622 2 0.401293 0.290939 0.184492
624 4 0.42103 0.306284 0.184827
528 4 0.436087 0.296064 0.190303
527 4 0.47508 0.269015 0.206071
526 2 0.455583 0.28254 0.198187
262 2 0.059046 0.410923 0.225652
264 4 0.0453457 0.408072 0.204931
300 4 0.148626 0.349878 0.218951
298 2 0.147755 0.365246 0.238655
611 4 0.235341 0.385847 0.166002
290 4 0.220381 0.395365 0.224135
301 2 0.295788 0.404576 0.177754
303 4 0.278826 0.407202 0.195936
643 2 0.468596 0.387132 0.168813
644 4 0.478769 0.36741 0.180334
447 4 0.490806 0.35924 0.194347
445 2 0.494354 0.36496 0.218428
263 4 0.0727463 0.413774 0.246373
417 4 0.16893 0.494179 0.197936
415 2 0.177387 0.470837 0.200902
289 2 0.206676 0.416194 0.222265
291 4 0.19297 0.437022 0.220394
416 4 0.185843 0.447494 0.203868
768 4 0.260051 0.450502 0.174078
597 4 0.467956 0.425589 0.161766
595 2 0.467879 0.445454 0.17695
596 4 0.467802 0.465319 0.192134
1568 4 0.481098 0.477852 0.183733
1404 4 0.0716421 0.0093904 0.270393
1798 2 0.0154523 0.0116968 0.331531
1799 4 0.0179073 0.0212133 0.30854
233 4 0.0262903 0.0265633 0.292656
1402 2 0.052581 0.0102053 0.286555
1403 4 0.03352 0.0110203 0.302716
232 2 0.00607415 0.0361751 0.281516
1699 2 0.206063 0.0618964 0.306813
1701 4 0.198708 0.0381959 0.303752
1700 4 0.213418 0.0855969 0.309874
1516 2 0.392341 0.00709236 0.299652
697 2 0.386048 0.0647519 0.31683
699 4 0.386771 0.0478553 0.298413
1518 4 0.394419 0.0312367 0.305809
743 4 0.498639 0.00551213 0.263883
742 2 0.484781 0.0148906 0.245304
478 2 0.468327 0.036993 0.30597
479 4 0.482364 0.0163014 0.305913
480 4 0.454291 0.0576846 0.306027
398 4 0.0796482 0.160322 0.324903
397 2 0.0878861 0.139741 0.336467
248 4 0.222975 0.10159 0.317265
249 4 0.215312 0.15015 0.308103
247 2 0.219144 0.12587 0.312684
404 4 0.206132 0.16721 0.308348
403 2 0.196925 0.171785 0.285556
29 3 0.302897 0.100192 0.262137
333 4 0.442796 0.125547 0.317224
331 2 0.451963 0.145797 0.305775
332 4 0.461129 0.166048 0.294326
444 4 0.0104768 0.25448 0.322942
393 4 0.0809901 0.209831 0.290645
392 4 0.115473 0.190479 0.260032
391 2 0.0982315 0.200155 0.275338
545 4 0.121507 0.173277 0.24943
405 4 0.187717 0.17636 0.262765
378 4 0.286031 0.222631 0.322835
376 2 0.308138 0.21385 0.33054
418 2 0.41877 0.191147 0.321516
419 4 0.423405 0.169537 0.309823
707 4 0.349909 0.205221 0.342057
760 2 0.485713 0.190666 0.288127
762 4 0.463624 0.185977 0.298864
394 2 0.035723 0.269907 0.249302
396 4 0.0157603 0.279691 0.260745
442 2 0.0147461 0.261195 0.299238
443 4 0.0190154 0.267911 0.275535
364 2 0.015492 0.311798 0.283016
365 4 0.0170449 0.287214 0.278731
401 4 0.196765 0.256912 0.278811
345 4 0.230662 0.29678 0.301182
400 2 0.206276 0.273081 0.295342
402 4 0.215788 0.28925 0.311873
510 4 0.21451 0.307606 0.305173
508 2 0.212868 0.32765 0.32003
343 2 0.253665 0.299428 0.291747
344 4 0.276668 0.302077 0.282312
498 4 0.390129 0.278059 0.281846
496 2 0.365221 0.28012 0.282568
497 4 0.340313 0.28218 0.283291
543 4 0.410846 0.337116 0.308169
541 2 0.422219 0.31495 0.310296
542 4 0.433591 0.292784 0.312424
366 4 0.013939 0.336383 0.2873
2493 4 0.0153856 0.344962 0.305268
603 4 0.134001 0.395057 0.262031
602 4 0.0892106 0.41639 0.255749
299 4 0.146884 0.380614 0.258359
601 2 0.111606 0.405723 0.25889
734 4 0.145769 0.388123 0.276349
733 2 0.163928 0.39515 0.292035
735 4 0.182087 0.402177 0.307721
677 4 0.18822 0.399406 0.326233
676 2 0.205709 0.38199 0.330233
435 4 0.241388 0.362407 0.32658
727 2 0.314101 0.375257 0.286671
728 4 0.294742 0.360719 0.29292
438 4 0.265654 0.419695 0.274882
729 4 0.333459 0.389796 0.280422
615 4 0.395632 0.349853 0.300134
613 2 0.396732 0.36213 0.321889
2538 4 0.493028 0.388895 0.31593
2536 2 0.482732 0.404472 0.299302
753 4 0.482997 0.388393 0.334376
549 4 0.0285871 0.439748 0.319104
547 2 0.0347299 0.422259 0.335884
777 4 0.104735 0.41987 0.302136
775 2 0.118422 0.440395 0.306211
776 4 0.132109 0.460919 0.310286
414 4 0.1385 0.479495 0.311984
437 4 0.250019 0.462994 0.294412
436 2 0.257837 0.441345 0.284647
594 4 0.421264 0.446289 0.35661
713 4 0.370815 0.482174 0.255102
2537 4 0.472435 0.42005 0.282673
2860 2 0.480754 0.446339 0.247741
2862 4 0.474446 0.428998 0.264614
592 2 0.427169 0.461862 0.337962
367 2 0.0821739 0.0228501 0.40599
732 4 0.0823207 0.0784396 0.393785
368 4 0.0981266 0.010562 0.391168
605 4 0.170142 0.0531203 0.358815
604 2 0.188386 0.0536587 0.375904
606 4 0.20663 0.0541971 0.392994
441 4 0.327387 0.983477 0.363239
698 4 0.385325 0.0816486 0.335246
256 2 0.405587 0.0630997 0.368896
257 4 0.391634 0.0702725 0.349426
258 4 0.419539 0.0559269 0.388366
633 4 0.377947 0.0836998 0.353572
426 4 0.429942 0.0401075 0.397542
318 4 0.0300708 0.098291 0.363059
316 2 0.0395924 0.11963 0.354162
317 4 0.0491141 0.140969 0.345265
457 2 0.0157555 0.149321 0.411853
459 4 0.0185312 0.171917 0.401515
730 2 0.0937704 0.0955374 0.379582
399 4 0.096124 0.119159 0.348031
731 4 0.10522 0.112635 0.365378
599 4 0.18063 0.165743 0.390834
600 4 0.207069 0.151994 0.350676
598 2 0.193849 0.158869 0.370755
683 4 0.266273 0.0917835 0.364006
682 2 0.276804 0.104989 0.382442
684 4 0.287336 0.118194 0.400878
320 4 0.291143 0.105376 0.416161
632 4 0.34459 0.12024 0.346304
631 2 0.361268 0.10197 0.349938
516 4 0.410169 0.140492 0.377362
575 4 0.398248 0.14106 0.393508
574 2 0.407135 0.139073 0.416795
451 2 0.489111 0.153729 0.370708
514 2 0.432915 0.148188 0.370394
453 4 0.466103 0.152723 0.380445
2653 2 0.00153391 0.211996 0.393202
2654 4 0.00735202 0.189014 0.401147
388 2 0.102039 0.233254 0.348454
389 4 0.0881396 0.212486 0.347643
685 2 0.160257 0.196514 0.407763
686 4 0.140363 0.209861 0.414924
687 4 0.180151 0.183168 0.400602
473 4 0.208756 0.199904 0.37525
472 2 0.233586 0.199 0.378051
377 4 0.330245 0.20507 0.338244
474 4 0.258415 0.198095 0.380852
488 4 0.271238 0.20569 0.395622
487 2 0.292819 0.217989 0.392762
489 4 0.3144 0.230289 0.389901
420 4 0.414134 0.212756 0.333209
706 2 0.367308 0.187286 0.342951
708 4 0.384706 0.169351 0.343846
715 2 0.392375 0.236995 0.363006
468 4 0.388651 0.240313 0.420207
717 4 0.40709 0.222431 0.348987
515 4 0.455661 0.155885 0.363425
618 4 0.0632881 0.303097 0.38136
347 4 0.0704962 0.303884 0.40073
616 2 0.0747905 0.323627 0.37291
390 4 0.115939 0.254022 0.349265
275 4 0.129456 0.311566 0.395282
274 2 0.150327 0.299057 0.38953
276 4 0.171199 0.286548 0.383779
373 2 0.206752 0.291801 0.374044
374 4 0.230811 0.294728 0.38019
375 4 0.182693 0.288874 0.367898
716 4 0.37766 0.251558 0.377025
406 2 0.0386524 0.392556 0.389949
408 4 0.0452441 0.39203 0.414062
548 4 0.0408728 0.404769 0.352663
407 4 0.0320606 0.393083 0.365836
617 4 0.0862929 0.344157 0.364461
509 4 0.211226 0.347694 0.334887
678 4 0.223197 0.364573 0.334233
433 2 0.264287 0.367452 0.335262
434 4 0.287185 0.372498 0.343944
614 4 0.397831 0.374407 0.343643
561 4 0.46078 0.357157 0.387967
752 4 0.472603 0.371966 0.38045
559 2 0.472042 0.365063 0.408844
751 2 0.4778 0.38018 0.357413
499 2 0.154377 0.494443 0.38845
500 4 0.178457 0.494647 0.381719
667 2 0.2927 0.443415 0.413761
668 4 0.292331 0.46742 0.406778
1 1 0.311837 0.494541 0.402734
3 3 0.322888 0.489694 0.382915
4 3 0.308335 0.475047 0.414823
593 4 0.433075 0.477436 0.319313
718 2 0.0313815 0.0706185 0.459709
720 4 0.0268602 0.0477725 0.468809
2237 4 0.0201795 0.0300266 0.4733
2236 2 0.0225018 0.0130006 0.455137
1127 4 0.0316294 0.0399822 0.486084
369 4 0.0662212 0.0351382 0.420812
1522 2 0.0985411 0.998862 0.488876
341 4 0.185473 0.0273684 0.509035
1182 4 0.255488 0.0747282 0.490912
726 4 0.283737 0.0409902 0.43698
724 2 0.289841 0.0421852 0.461198
432 4 0.299937 0.0517408 0.50223
725 4 0.295945 0.0433802 0.485415
963 4 0.285567 0.0388877 0.501577
1580 4 0.397826 0.001644 0.438856
424 2 0.413574 0.0250087 0.408912
425 4 0.397205 0.00991 0.420282
2878 2 0.452629 0.0854771 0.478338
2879 4 0.439354 0.077246 0.497863
458 4 0.0129798 0.126724 0.42219
719 4 0.0359027 0.0934645 0.45061
1033 2 0.12568 0.163883 0.484646
1180 2 0.242809 0.0855445 0.472272
1181 4 0.230131 0.0963608 0.453632
411 4 0.251489 0.164581 0.449138
321 4 0.300329 0.111023 0.464992
319 2 0.295736 0.108199 0.440576
576 4 0.416021 0.137086 0.440081
2880 4 0.465904 0.0937083 0.458813
642 4 0.467252 0.104744 0.442946
640 2 0.456482 0.127145 0.440226
641 4 0.445713 0.149546 0.437506
306 4 0.42605 0.153305 0.439231
3158 4 0.48662 0.156907 0.496993
471 4 0.997664 0.209048 0.486084
469 2 0.0146797 0.190799 0.48447
470 4 0.0316955 0.172549 0.482856
1035 4 0.138852 0.183515 0.476506
260 4 0.107501 0.225445 0.444498
261 4 0.139092 0.188891 0.457403
259 2 0.123296 0.207168 0.450951
695 4 0.115626 0.244903 0.446081
409 2 0.265142 0.173091 0.468279
410 4 0.278795 0.181602 0.487419
266 4 0.325945 0.254576 0.479677
900 4 0.290484 0.179741 0.503652
466 2 0.383714 0.216961 0.427654
467 4 0.378777 0.193608 0.435102
265 2 0.339779 0.256 0.458898
3159 4 0.515316 0.196697 0.487294
305 4 0.435086 0.197698 0.460404
304 2 0.430568 0.175501 0.449818
3157 2 0.500968 0.176802 0.492143
346 2 0.0713334 0.306434 0.425589
326 4 0.0808169 0.322946 0.461256
348 4 0.0721706 0.308984 0.450448
694 2 0.111348 0.262386 0.463437
10 3 0.155263 0.331993 0.450958
1260 4 0.113802 0.273286 0.497996
696 4 0.10707 0.279869 0.480793
650 4 0.263076 0.295437 0.503815
651 4 0.221059 0.269426 0.496154
649 2 0.242068 0.282432 0.499985
811 2 0.292869 0.299147 0.487909
813 4 0.312235 0.286019 0.479089
267 4 0.353613 0.257423 0.438119
2456 4 0.496866 0.289145 0.474731
584 4 0.479872 0.279715 0.467444
583 2 0.46224 0.268186 0.480911
585 4 0.444609 0.256656 0.494378
2812 2 0.00292201 0.369282 0.453468
325 2 0.0797916 0.344219 0.474356
2813 4 0.0232841 0.364378 0.467125
327 4 0.0787663 0.365491 0.487456
7 3 0.123077 0.3442 0.465377
6 1 0.14597 0.344437 0.467614
8 3 0.153418 0.366368 0.466209
9 3 0.151582 0.335473 0.488267
504 4 0.233068 0.400023 0.444568
711 4 0.159888 0.383784 0.472403
709 2 0.181637 0.393447 0.480071
710 4 0.203385 0.403111 0.48774
774 4 0.213953 0.409303 0.503304
336 4 0.289496 0.39997 0.420015
502 2 0.256817 0.405538 0.439024
334 2 0.309743 0.387184 0.427208
503 4 0.280567 0.411052 0.433481
335 4 0.329991 0.374398 0.434401
239 4 0.395066 0.385941 0.436759
588 4 0.408036 0.389753 0.451881
586 2 0.415979 0.40328 0.471352
238 2 0.370513 0.383326 0.440694
240 4 0.34596 0.380712 0.444628
2507 4 0.493823 0.389697 0.432695
560 4 0.483304 0.372969 0.42972
1381 2 0.0480919 0.489925 0.423824
679 2 0.0558582 0.444333 0.461524
1383 4 0.044059 0.469351 0.437448
681 4 0.0744971 0.436299 0.476126
680 4 0.0372194 0.452367 0.446922
539 4 0.0852882 0.486069 0.476107
382 2 0.11184 0.442074 0.458481
568 2 0.165891 0.471255 0.449684
383 4 0.0945931 0.435095 0.475185
569 4 0.14623 0.455815 0.450194
384 4 0.129087 0.449053 0.441777
634 2 0.223639 0.437428 0.47473
570 4 0.185551 0.486694 0.449174
635 4 0.218683 0.41545 0.485575
636 4 0.228594 0.459405 0.463886
880 2 0.327844 0.500281 0.492791
669 4 0.293069 0.419409 0.420745
2 3 0.324874 0.508796 0.415224
882 4 0.304507 0.495215 0.485383
663 4 0.474348 0.435904 0.493374
587 4 0.423923 0.416806 0.490823
1126 2 0.0169589 0.0435471 0.506016
1128 4 0.0022884 0.047112 0.525947
1057 2 0.144903 0.06418 0.575959
1523 4 0.122156 0.00349095 0.495665
340 2 0.182103 0.0507614 0.500874
2428 2 0.205168 0.000840732 0.518031
2430 4 0.185758 0.00833856 0.504168
342 4 0.178733 0.0741544 0.492714
1032 4 0.236509 0.0978108 0.58523
430 2 0.310247 0.0669082 0.519226
431 4 0.320557 0.0820756 0.536221
961 2 0.276558 0.0158064 0.504934
1217 4 0.386752 0.0428741 0.539141
1216 2 0.391913 0.0204088 0.548829
842 4 0.380802 0.0624112 0.542577
1218 4 0.397073 0.997943 0.558517
841 2 0.358322 0.0726964 0.546326
938 4 0.105725 0.152826 0.556703
937 2 0.102095 0.149891 0.532139
1151 4 0.159805 0.0993112 0.554876
1059 4 0.154259 0.085167 0.566101
1155 4 0.150442 0.104417 0.571056
1153 2 0.158061 0.126612 0.579688
939 4 0.0984659 0.146956 0.507575
1034 4 0.112508 0.144251 0.492786
1150 2 0.167673 0.0926472 0.532097
1152 4 0.17554 0.0859832 0.509319
843 4 0.335842 0.0829816 0.550075
878 4 0.0375032 0.219692 0.545118
1199 4 0.0195984 0.22776 0.544726
877 2 0.0546273 0.202841 0.552043
879 4 0.0717515 0.185989 0.558968
858 4 0.242289 0.206043 0.563343
857 4 0.291704 0.210888 0.557393
856 2 0.266997 0.208466 0.560368
898 2 0.302547 0.198404 0.515114
791 4 0.308021 0.221174 0.560838
899 4 0.314611 0.217066 0.526575
790 2 0.325003 0.239482 0.562103
873 4 0.378361 0.247565 0.547777
983 4 0.0328774 0.31067 0.583228
1258 2 0.133054 0.275578 0.513785
1259 4 0.152306 0.27787 0.529574
812 4 0.273502 0.312275 0.496729
792 4 0.341985 0.257791 0.563369
871 2 0.391033 0.266255 0.537039
1239 4 0.322046 0.318955 0.548683
1238 4 0.347288 0.278556 0.563896
1237 2 0.334667 0.298756 0.556289
872 4 0.403705 0.284945 0.526301
1011 4 0.499207 0.316034 0.567748
1189 2 0.225964 0.380849 0.572392
773 4 0.240822 0.382759 0.536079
1190 4 0.238836 0.372878 0.552493
803 4 0.244196 0.363305 0.536444
772 2 0.227388 0.396031 0.519692
896 4 0.194607 0.384818 0.596899
802 2 0.252857 0.346074 0.520529
930 4 0.312986 0.3606 0.548839
928 2 0.29613 0.377262 0.556804
929 4 0.279273 0.393923 0.564769
804 4 0.261517 0.328843 0.504614
927 4 0.423331 0.370814 0.540721
925 2 0.424302 0.390845 0.525788
926 4 0.425274 0.410875 0.510855
2243 4 0.137768 0.485891 0.559185
1161 4 0.157202 0.489621 0.555935
2242 2 0.127959 0.498226 0.539774
1159 2 0.176957 0.480947 0.568571
1173 4 0.195275 0.452603 0.584774
1171 2 0.197362 0.427967 0.5885
1160 4 0.196713 0.472273 0.581207
889 2 0.308678 0.461625 0.552896
890 4 0.311239 0.476449 0.532924
891 4 0.306117 0.446801 0.572868
1002 4 0.38899 0.460499 0.515899
1000 2 0.412072 0.467233 0.52276
1001 4 0.435153 0.473967 0.529622
662 4 0.453192 0.468882 0.524447
661 2 0.46377 0.452393 0.508911
1911 4 0.450514 0.479826 0.539822
1909 2 0.449226 0.474873 0.564296
1332 4 0.464853 0.484079 0.525961
1330 2 0.482967 0.500678 0.530603
945 4 0.0601503 0.00775109 0.652194
1058 4 0.135546 0.043193 0.585817
943 2 0.0801057 0.0171193 0.640396
944 4 0.100061 0.0264875 0.628597
825 4 0.117526 0.0195432 0.634672
1030 2 0.251187 0.0778704 0.588707
950 4 0.333485 0.0426378 0.582248
949 2 0.309002 0.0477125 0.58234
951 4 0.284519 0.0527871 0.582432
1031 4 0.265866 0.05793 0.592185
1092 4 0.301076 0.979733 0.64596
45 3 0.438144 0.0601714 0.664818
1081 2 0.0332628 0.121541 0.647285
3179 4 0.0279797 0.161738 0.635494
1082 4 0.0383883 0.101525 0.661365
1083 4 0.0281373 0.141558 0.633205
1154 4 0.165679 0.148808 0.588319
1282 2 0.158178 0.119204 0.655198
1284 4 0.160778 0.111013 0.631717
1221 4 0.184375 0.156166 0.592169
3008 4 0.512138 0.0915548 0.617492
808 2 0.491547 0.0989744 0.642374
809 4 0.499362 0.108793 0.620748
1243 2 0.0733965 0.240782 0.627112
1244 4 0.0564485 0.229463 0.612626
1272 4 0.0853966 0.180256 0.572266
1245 4 0.0903444 0.252101 0.641597
1270 2 0.098624 0.177425 0.593295
1271 4 0.111851 0.174593 0.614323
1209 4 0.0912717 0.238231 0.65727
1211 4 0.240663 0.170894 0.675693
1210 2 0.228014 0.180101 0.656188
1212 4 0.215365 0.189308 0.636684
1219 2 0.191822 0.173375 0.608709
1220 4 0.199269 0.190585 0.625248
796 2 0.198216 0.228974 0.624805
798 4 0.208102 0.206648 0.630193
797 4 0.188331 0.251299 0.619418
906 4 0.452036 0.217459 0.587492
904 2 0.46487 0.224355 0.607812
905 4 0.477703 0.231251 0.628132
3123 4 0.475162 0.240448 0.645103
3121 2 0.492898 0.240706 0.662725
982 2 0.0470644 0.32059 0.60127
3263 4 0.0631124 0.323443 0.637409
3262 2 0.0475519 0.323339 0.65698
984 4 0.0612514 0.33051 0.619311
947 4 0.197093 0.288073 0.630124
946 2 0.196543 0.278799 0.653337
954 4 0.482502 0.321464 0.577359
952 2 0.476752 0.31667 0.601215
953 4 0.471003 0.311876 0.625072
1041 4 0.0747589 0.337814 0.630982
897 4 0.146783 0.371071 0.591937
1137 4 0.130006 0.380174 0.585204
1039 2 0.0865118 0.359671 0.634036
1135 2 0.117512 0.399449 0.595083
1136 4 0.105019 0.418723 0.604962
1040 4 0.0982647 0.381528 0.63709
991 2 0.0899947 0.414734 0.648101
993 4 0.100253 0.392498 0.653155
895 2 0.170695 0.377945 0.594418
1191 4 0.213093 0.388821 0.592291
1172 4 0.199449 0.403331 0.592227
1206 4 0.485015 0.407355 0.664385
992 4 0.0797367 0.436969 0.643047
1188 4 0.219482 0.483278 0.637896
1187 4 0.193685 0.466325 0.598553
1186 2 0.206584 0.474801 0.618225
1204 2 0.468408 0.425143 0.658642
1910 4 0.447937 0.46992 0.588771
1205 4 0.451801 0.44293 0.652899
1269 4 0.44775 0.453354 0.635775
1267 2 0.442369 0.477771 0.635955
1268 4 0.436988 0.502188 0.636134
2255 4 0.20729 0.991176 0.742023
1257 4 0.236664 0.0637582 0.758329
1148 4 0.195598 0.0932497 0.721451
1226 4 0.185705 0.0784369 0.713073
1003 2 0.31773 0.0460786 0.712989
1005 4 0.309692 0.0468947 0.689327
1004 4 0.325768 0.0452624 0.736651
42 3 0.448898 0.0645616 0.700286
41 1 0.447933 0.0745025 0.679564
1163 4 0.488241 0.073752 0.675678
44 3 0.469505 0.0794887 0.672624
1076 4 0.0337755 0.0997535 0.680814
864 4 0.0341231 0.110182 0.747932
1075 2 0.0312617 0.106104 0.704867
1077 4 0.0287479 0.112455 0.728919
852 4 0.0442073 0.174621 0.724073
909 4 0.0927497 0.140552 0.689728
907 2 0.116262 0.132073 0.689063
908 4 0.139775 0.123593 0.688398
1283 4 0.155578 0.127395 0.678678
1227 4 0.155956 0.112738 0.692117
1225 2 0.17083 0.0955873 0.702595
1147 2 0.214691 0.087667 0.736598
1149 4 0.233785 0.0820843 0.751746
888 4 0.260822 0.165343 0.672507
831 4 0.369872 0.1622 0.696637
1142 4 0.38853 0.165726 0.703858
829 2 0.346579 0.169943 0.691875
1141 2 0.410263 0.161779 0.715573
810 4 0.483731 0.0891553 0.664
1025 4 0.482472 0.149246 0.688492
43 3 0.435425 0.0939808 0.681164
3424 2 0.488344 0.108312 0.699988
3426 4 0.481641 0.0905411 0.683726
1024 2 0.465099 0.158152 0.704114
3425 4 0.495047 0.126083 0.716249
1213 2 0.0139451 0.186552 0.723291
1214 4 0.0254906 0.164403 0.722156
1178 4 0.998977 0.227526 0.725142
850 2 0.067714 0.168705 0.730206
1207 2 0.100122 0.229942 0.679137
1208 4 0.108972 0.221654 0.701004
1106 4 0.137304 0.198566 0.718033
1105 2 0.121059 0.185917 0.73222
1107 4 0.104814 0.173268 0.746407
1074 4 0.0748378 0.236819 0.745898
886 2 0.283003 0.169327 0.683337
830 4 0.323287 0.177685 0.687112
887 4 0.305185 0.173311 0.694167
976 2 0.31238 0.195727 0.725379
978 4 0.318099 0.182415 0.705001
977 4 0.306662 0.209039 0.745758
1193 4 0.358288 0.23319 0.699885
1192 2 0.340746 0.225746 0.683697
1194 4 0.323204 0.218301 0.667509
1143 4 0.431997 0.157831 0.727288
1026 4 0.447727 0.167059 0.719736
1261 2 0.449541 0.193869 0.743604
1262 4 0.435882 0.175627 0.733316
1263 4 0.463199 0.212112 0.753892
1145 4 0.48203 0.22162 0.74811
3264 4 0.0319913 0.323234 0.676551
1177 2 0.99879 0.252331 0.728284
1179 4 0.998603 0.277136 0.731425
821 4 0.168971 0.271956 0.726319
948 4 0.195992 0.269524 0.67655
820 2 0.18091 0.252775 0.73703
1064 4 0.21454 0.266498 0.682963
1065 4 0.229266 0.280345 0.728702
1063 2 0.221903 0.273421 0.705832
893 4 0.0244309 0.328052 0.695447
892 2 0.0243189 0.346825 0.711962
894 4 0.024207 0.365598 0.728477
3276 4 0.018019 0.384088 0.732538
814 2 0.0604529 0.380758 0.744001
816 4 0.0363624 0.378259 0.73779
941 4 0.138252 0.410479 0.739922
1067 4 0.147482 0.394076 0.735349
940 2 0.120268 0.396419 0.750123
942 4 0.102284 0.382359 0.760324
1066 2 0.166098 0.399816 0.719674
1029 4 0.240699 0.399127 0.700526
1027 2 0.218401 0.410439 0.70075
1068 4 0.184714 0.405557 0.704
1028 4 0.196104 0.421751 0.700975
806 4 0.29364 0.321333 0.668317
805 2 0.314434 0.334777 0.671792
807 4 0.335227 0.348221 0.675266
1019 4 0.384275 0.398936 0.724967
1018 2 0.368735 0.391467 0.743076
1281 4 0.0222268 0.471107 0.705735
1983 4 0.00942048 0.480689 0.691727
1280 4 0.0689077 0.467714 0.688125
1279 2 0.0455672 0.46941 0.69693
1140 4 0.254057 0.460994 0.708875
1139 4 0.269163 0.460059 0.756537
1138 2 0.26161 0.460527 0.732706
1228 2 0.400544 0.45482 0.744228
1230 4 0.416 0.437597 0.734758
1100 4 0.423111 0.442541 0.716687
1101 4 0.468841 0.461997 0.71112
1099 2 0.445976 0.452269 0.713904
1251 4 0.479406 0.462383 0.728365
3330 4 0.487747 0.459214 0.711397
1294 2 0.00617814 0.0282376 0.781155
1296 4 0.0301943 0.0320305 0.786987
1203 4 0.118175 0.0820636 0.78234
1201 2 0.132917 0.0618694 0.782583
1202 4 0.147659 0.0416752 0.782826
2049 4 0.149367 0.0280249 0.767689
2254 2 0.211774 0.0157647 0.741324
2256 4 0.216259 0.0403529 0.740625
1255 2 0.255556 0.067083 0.774367
1256 4 0.274448 0.0704079 0.790405
1113 4 0.391759 0.0568278 0.802168
1111 2 0.377854 0.0749118 0.812405
2322 4 0.48075 0.05143 0.783656
2320 2 0.479815 0.0267159 0.787333
846 4 0.464872 0.0634218 0.782608
862 2 0.037604 0.122045 0.769664
863 4 0.0410849 0.133909 0.791397
832 2 0.0265398 0.107049 0.822644
833 4 0.0394751 0.124527 0.810299
1125 4 0.0343822 0.139423 0.822039
834 4 0.0136045 0.0895719 0.834989
31 1 0.120523 0.148093 0.811705
34 3 0.12675 0.154316 0.790236
32 3 0.116399 0.167063 0.824045
35 3 0.137305 0.136248 0.821538
33 3 0.101187 0.135288 0.810945
840 4 0.271751 0.0886935 0.798332
838 2 0.282782 0.107818 0.81007
839 4 0.293812 0.126942 0.821808
844 2 0.471413 0.0858457 0.773688
845 4 0.477954 0.10827 0.764768
1123 2 0.0388964 0.163767 0.825524
1124 4 0.0434106 0.188112 0.829009
851 4 0.0912207 0.162789 0.736339
822 4 0.19285 0.233594 0.74774
1130 4 0.171219 0.174949 0.754842
1129 2 0.174188 0.199771 0.755304
1131 4 0.177157 0.224594 0.755766
920 4 0.209719 0.200014 0.813643
1277 4 0.191152 0.231639 0.767358