ITEM: TIMESTEP
2850000
ITEM: NUMBER OF ATOMS
4590
ITEM: BOX BOUNDS pp pp pp
-9.9985700000000008e+00 9.9985700000000008e+00
-9.9985700000000008e+00 9.9985700000000008e+00
-9.9985700000000008e+00 9.9985700000000008e+00
ITEM: ATOMS id type xs ys zs
465 4 0.0811848 0.0744852 0.0450511
701 4 0.095854 0.0755977 0.0308916
700 2 0.11435 0.0616709 0.0214506
702 4 0.132845 0.047744 0.0120096
566 4 0.151719 0.0529452 0.00955883
565 2 0.171021 0.0682568 0.0138188
746 4 0.484522 0.0552375 0.0323912
2469 4 0.486328 0.0409059 0.0462041
745 2 0.473846 0.05479 0.00978601
463 2 0.0584889 0.0785356 0.0353728
464 4 0.035793 0.082586 0.0256945
590 4 0.0211876 0.0930206 0.0366801
589 2 0.00713552 0.0907771 0.0572394
558 4 0.374675 0.107218 0.028652
556 2 0.366105 0.108922 0.0520793
557 4 0.357535 0.110627 0.0755065
771 4 0.446154 0.130085 0.0692008
769 2 0.456753 0.150753 0.0784572
554 4 0.0516602 0.191149 0.00864543
553 2 0.0666019 0.20029 0.0264884
555 4 0.0815435 0.20943 0.0443314
835 2 0.121813 0.201634 0.0261334
836 4 0.0998 0.203838 0.0377852
837 4 0.143825 0.19943 0.0144816
573 4 0.330891 0.250855 0.0671341
461 4 0.330081 0.23799 0.0825972
666 4 0.322602 0.233889 0.0651575
865 2 0.37156 0.177016 0.00867699
664 2 0.336142 0.221173 0.04842
665 4 0.349682 0.208457 0.0316824
867 4 0.362585 0.197747 0.019393
1070 4 0.430384 0.233409 0.0661265
2808 4 0.0361796 0.303609 0.0235992
2806 2 0.0133599 0.294321 0.0278611
292 2 0.115625 0.325699 0.072223
293 4 0.121034 0.335685 0.0499471
507 4 0.140371 0.329369 0.0475197
356 4 0.311944 0.314314 0.0497437
572 4 0.323571 0.2977 0.0512409
355 2 0.295132 0.317913 0.0315888
571 2 0.327231 0.274278 0.0591875
357 4 0.278321 0.321511 0.0134339
1069 2 0.434902 0.253795 0.0798798
322 2 0.445628 0.316854 0.0847004
647 4 0.0188258 0.354302 0.0633588
646 2 0.0309098 0.335692 0.0748834
620 4 0.00652881 0.363362 0.0769658
648 4 0.0429937 0.317081 0.086408
505 2 0.155591 0.347659 0.0398382
481 2 0.207402 0.388503 0.0273365
482 4 0.231163 0.396281 0.0270329
483 4 0.183641 0.380724 0.0276402
506 4 0.170811 0.36595 0.0321567
609 4 0.235577 0.406421 0.0436811
626 4 0.176424 0.401913 0.0849802
902 4 0.276621 0.341442 0.00684508
957 4 0.369635 0.395512 0.00704952
323 4 0.455164 0.339076 0.0783428
671 4 0.488179 0.380056 0.0569957
670 2 0.467884 0.369046 0.0665907
280 2 0.492221 0.415049 0.0499135
672 4 0.447589 0.358035 0.0761857
550 2 0.0609556 0.445061 0.0782508
552 4 0.0786937 0.462474 0.0809574
1787 4 0.0913987 0.459145 0.0654386
1786 2 0.101766 0.4702 0.0455516
1788 4 0.112133 0.481255 0.0256645
246 4 0.2265 0.480371 0.029965
244 2 0.213692 0.471509 0.0495252
245 4 0.200884 0.462648 0.0690855
272 4 0.243739 0.480122 0.0210438
627 4 0.201896 0.444178 0.0768846
625 2 0.18916 0.423045 0.0809324
607 2 0.256683 0.419286 0.0399093
608 4 0.277789 0.432151 0.0361375
252 4 0.284552 0.450304 0.0316555
250 2 0.306983 0.461279 0.0303996
251 4 0.329414 0.472253 0.0291437
2289 4 0.330393 0.486135 0.0147433
525 4 0.432874 0.480727 0.0710158
282 4 0.484942 0.434709 0.0362872
226 2 0.461681 0.462478 0.042298
227 4 0.477143 0.450153 0.0269939
228 4 0.44622 0.474804 0.0576021
563 4 0.445285 0.493417 0.0644374
16 1 0.0633842 0.0335666 0.149513
20 3 0.0580302 0.0497951 0.134459
1806 4 0.0553532 0.994092 0.135705
18 3 0.0628333 0.0127604 0.139256
19 3 0.0484805 0.034031 0.167292
17 3 0.0846177 0.037356 0.157509
652 2 0.310657 0.0354421 0.162417
653 4 0.320178 0.0559166 0.151679
484 2 0.368103 0.0195558 0.100604
297 4 0.348818 0.0545116 0.110434
485 4 0.351069 0.0354782 0.109631
295 2 0.35435 0.0730524 0.0945975
579 4 0.0964634 0.14094 0.0961011
237 4 0.1491 0.152059 0.128864
578 4 0.138686 0.160519 0.114393
577 2 0.117575 0.15073 0.105247
235 2 0.163092 0.133888 0.138823
236 4 0.177084 0.115716 0.148783
693 4 0.191183 0.102276 0.151155
449 4 0.17393 0.101746 0.161043
691 2 0.215218 0.106814 0.145968
692 4 0.239253 0.111352 0.140782
582 4 0.257641 0.103436 0.134509
580 2 0.275629 0.116831 0.145563
581 4 0.293617 0.130226 0.156617
30 3 0.311614 0.137502 0.163481
296 4 0.359883 0.0915931 0.0787606
770 4 0.467352 0.171421 0.0877136
476 4 0.144928 0.171313 0.129192
737 4 0.157835 0.164757 0.11621
475 2 0.135859 0.184663 0.14829
736 2 0.161153 0.182354 0.0987597
738 4 0.164471 0.199951 0.0813093
354 4 0.311206 0.238912 0.143927
283 2 0.321718 0.198831 0.151186
285 4 0.325182 0.174707 0.156771
284 4 0.318253 0.222956 0.1456
462 4 0.322593 0.232935 0.131782
460 2 0.326337 0.235463 0.107189
255 4 0.32811 0.237317 0.147796
352 2 0.287572 0.243827 0.150444
253 2 0.349956 0.245831 0.156483
1014 4 0.454549 0.179051 0.102007
1013 4 0.478132 0.218761 0.121181
1012 2 0.46634 0.198906 0.111594
456 4 0.0575989 0.319792 0.100576
455 4 0.0501061 0.323203 0.1499
454 2 0.0538525 0.321498 0.125238
749 4 0.0370846 0.312139 0.162733
294 4 0.110217 0.315714 0.094499
610 2 0.236123 0.324826 0.110629
612 4 0.245855 0.3025 0.116285
756 4 0.246707 0.306235 0.135793
754 2 0.249953 0.285397 0.149225
353 4 0.263938 0.248743 0.15696
755 4 0.253198 0.264559 0.162657
254 4 0.371801 0.254345 0.16517
1071 4 0.439421 0.274182 0.0936332
324 4 0.436091 0.294632 0.0910579
611 4 0.22639 0.347153 0.104973
536 4 0.184658 0.38531 0.095627
535 2 0.205554 0.37537 0.105099
537 4 0.22645 0.365429 0.114571
387 4 0.342398 0.409871 0.12657
739 2 0.412947 0.379046 0.124866
740 4 0.400603 0.385631 0.145588
385 2 0.364122 0.402065 0.136179
386 4 0.385845 0.394259 0.145789
495 4 0.400879 0.401731 0.155176
15 3 0.384928 0.375364 0.152361
741 4 0.425292 0.372462 0.104143
551 4 0.0432175 0.427648 0.0755441
242 4 0.0976661 0.460774 0.0837159
241 2 0.119253 0.456658 0.0956431
243 4 0.140839 0.452542 0.10757
1440 4 0.149388 0.470177 0.111237
1438 2 0.173725 0.467909 0.116504
1439 4 0.198062 0.465641 0.12177
637 2 0.22644 0.491068 0.113643
639 4 0.210061 0.473122 0.107742
303 4 0.294868 0.456964 0.125784
766 2 0.277738 0.488914 0.130777
768 4 0.292458 0.470206 0.138426
301 2 0.31198 0.439041 0.12245
302 4 0.329092 0.421118 0.119116
524 4 0.407087 0.485498 0.113595
493 2 0.40919 0.425313 0.15504
494 4 0.417502 0.448894 0.154904
660 4 0.411902 0.466878 0.145308
523 2 0.41998 0.483112 0.0923054
658 2 0.427228 0.479425 0.160567
380 4 0.0507269 0.0511251 0.177853
379 2 0.0508743 0.0734401 0.189131
450 4 0.145096 0.0618153 0.169693
675 4 0.0892335 0.0550634 0.166037
673 2 0.112353 0.0546857 0.175552
1505 4 0.155364 0.0541948 0.184987
674 4 0.135473 0.054308 0.185066
1504 2 0.172194 0.0379895 0.193893
689 4 0.173634 0.00938622 0.207917
1506 4 0.189024 0.0217843 0.202799
1661 4 0.294738 0.00197773 0.159418
654 4 0.301135 0.0149677 0.173156
23 3 0.404843 0.997729 0.240285
22 3 0.411877 0.00859429 0.204999
632 4 0.382961 0.0520413 0.248897
21 1 0.421584 0.00252863 0.224952
757 2 0.472629 0.0211531 0.218978
25 3 0.434415 0.0197259 0.232585
759 4 0.453859 0.0194808 0.235411
350 4 0.442063 0.0306982 0.246813
512 4 0.0510157 0.110181 0.184163
381 4 0.0510216 0.0957551 0.200409
511 2 0.0622763 0.13092 0.192427
513 4 0.0735368 0.151658 0.200691
448 2 0.159513 0.0817808 0.165368
26 1 0.322298 0.147638 0.180853
28 3 0.31071 0.143818 0.200589
27 3 0.343482 0.138897 0.182857
311 4 0.455093 0.174072 0.196188
339 4 0.0823371 0.168813 0.200621
337 2 0.101713 0.18277 0.193208
477 4 0.126791 0.198012 0.167387
363 4 0.132708 0.211757 0.180264
338 4 0.12109 0.196727 0.185795
362 4 0.149521 0.243074 0.215439
361 2 0.141114 0.227416 0.197851
29 3 0.323937 0.170446 0.176916
628 2 0.394558 0.229287 0.186027
629 4 0.40664 0.207932 0.19084
630 4 0.382476 0.250642 0.181214
420 4 0.390548 0.225208 0.246319
312 4 0.412031 0.197361 0.206383
310 2 0.433562 0.185716 0.201285
761 4 0.482904 0.218579 0.241123
750 4 0.0183966 0.288733 0.202779
395 4 0.0175757 0.28507 0.222321
748 2 0.0277406 0.300436 0.182756
394 2 0.0243971 0.281915 0.246168
372 4 0.134217 0.25394 0.222873
370 2 0.14943 0.262897 0.240579
300 4 0.0975088 0.29367 0.187805
298 2 0.101737 0.310843 0.205479
299 4 0.105966 0.328017 0.223153
734 4 0.103298 0.325534 0.242312
279 4 0.238274 0.253258 0.21622
277 2 0.242938 0.250519 0.191808
371 4 0.164643 0.271855 0.258285
278 4 0.247601 0.247781 0.167396
401 4 0.278224 0.301629 0.231302
498 4 0.281415 0.316905 0.217026
496 2 0.291711 0.331094 0.199198
497 4 0.302007 0.345283 0.18137
764 4 0.418265 0.301373 0.187452
765 4 0.385906 0.267085 0.170782
763 2 0.402085 0.284229 0.179117
624 4 0.485778 0.30213 0.174
622 2 0.460836 0.301834 0.175736
528 4 0.502054 0.307051 0.185335
623 4 0.435895 0.301537 0.177472
262 2 0.0453706 0.398141 0.214133
263 4 0.0669443 0.393812 0.226008
602 4 0.0823438 0.38465 0.217467
264 4 0.023797 0.402471 0.202259
2618 4 0.0190958 0.415045 0.215725
601 2 0.0873865 0.361464 0.225351
603 4 0.0924292 0.338278 0.233235
290 4 0.170835 0.389339 0.214333
289 2 0.167628 0.414113 0.21327
308 4 0.319107 0.338867 0.187431
307 2 0.341383 0.349859 0.184589
309 4 0.36366 0.360852 0.181747
14 3 0.401279 0.399022 0.176663
11 1 0.39122 0.378275 0.174054
13 3 0.372713 0.376641 0.187954
12 3 0.406322 0.361911 0.179824
2617 2 0.00529254 0.431262 0.228826
291 4 0.164421 0.438887 0.212207
416 4 0.170707 0.456755 0.220608
415 2 0.185192 0.476728 0.216554
1430 4 0.218466 0.489714 0.209326
417 4 0.199677 0.496701 0.212501
597 4 0.489756 0.464664 0.210098
596 4 0.450119 0.490387 0.193729
659 4 0.442554 0.491973 0.175827
595 2 0.469938 0.477526 0.201913
645 4 0.489047 0.455789 0.194159
1799 4 0.0164937 0.0174757 0.298879
233 4 0.00893283 0.0349696 0.293009
1402 2 0.0448684 0.0397657 0.300786
1403 4 0.0262581 0.0298507 0.28735
1404 4 0.0634787 0.0496806 0.314222
1798 2 0.00425585 0.00485948 0.316662
633 4 0.371812 0.0396315 0.29604
631 2 0.377387 0.0458364 0.272469
257 4 0.364514 0.0537945 0.307329
698 4 0.369549 0.0373728 0.315885
697 2 0.364973 0.0128245 0.317159
256 2 0.365977 0.0662911 0.328936
349 2 0.449736 0.0307447 0.27061
744 4 0.451192 0.0331302 0.312884
742 2 0.469256 0.0272543 0.329143
351 4 0.457409 0.0307912 0.294407
398 4 0.070132 0.139527 0.307307
397 2 0.0595746 0.126648 0.325958
393 4 0.084737 0.151848 0.305391
390 4 0.0703621 0.157183 0.317074
392 4 0.115266 0.152144 0.265786
391 2 0.100002 0.151996 0.285589
404 4 0.194401 0.152778 0.332226
403 2 0.188203 0.160485 0.309262
521 4 0.483661 0.145636 0.261865
444 4 0.033513 0.232382 0.313549
442 2 0.027929 0.252856 0.300327
388 2 0.0668345 0.181515 0.321623
389 4 0.063307 0.205846 0.326173
545 4 0.127888 0.166666 0.259092
544 2 0.147903 0.173857 0.27224
546 4 0.167917 0.181048 0.285389
723 4 0.202852 0.221341 0.257192
721 2 0.194448 0.20426 0.273402
405 4 0.182006 0.168192 0.286297
722 4 0.186043 0.187179 0.289613
378 4 0.299503 0.252537 0.325046
717 4 0.376739 0.239962 0.244944
418 2 0.410351 0.218975 0.260253
331 2 0.449821 0.207034 0.31223
332 4 0.436118 0.207524 0.291321
419 4 0.430154 0.212742 0.274187
760 2 0.466182 0.215877 0.259514
762 4 0.449459 0.213175 0.277905
333 4 0.463524 0.206544 0.333138
453 4 0.480901 0.215149 0.331787
364 2 0.0203061 0.313376 0.294278
396 4 0.0312185 0.278761 0.270015
443 4 0.022345 0.273329 0.287104
365 4 0.0221755 0.29224 0.281051
366 4 0.0184368 0.334512 0.307505
407 4 0.0128519 0.328224 0.325622
735 4 0.141028 0.316342 0.273819
733 2 0.122163 0.320938 0.258065
677 4 0.15888 0.316576 0.283686
676 2 0.182266 0.320047 0.291826
508 2 0.235029 0.310217 0.303627
509 4 0.218151 0.324276 0.315571
678 4 0.205651 0.323519 0.299966
510 4 0.251907 0.296157 0.291684
400 2 0.272256 0.302299 0.255573
402 4 0.266287 0.302969 0.279845
345 4 0.270743 0.295157 0.297325
343 2 0.289168 0.283272 0.309344
344 4 0.307593 0.271387 0.321362
715 2 0.374067 0.259634 0.260145
716 4 0.371396 0.279306 0.275346
542 4 0.373346 0.288227 0.292723
541 2 0.383961 0.300045 0.312032
543 4 0.394577 0.311862 0.331341
751 2 0.487228 0.336385 0.330933
548 4 0.016561 0.346779 0.322686
547 2 0.0261543 0.369638 0.325944
549 4 0.0357476 0.392497 0.329201
435 4 0.204747 0.337312 0.313721
728 4 0.373612 0.37799 0.291984
727 2 0.3682 0.397851 0.306177
2538 4 0.475641 0.343022 0.288335
753 4 0.479784 0.341538 0.307626
2536 2 0.490037 0.36113 0.278845
2463 4 0.0111876 0.494287 0.336704
1543 2 0.146806 0.482062 0.317136
1545 4 0.167335 0.477448 0.303629
1436 4 0.170239 0.496405 0.300423
729 4 0.362788 0.417711 0.320371
437 4 0.374441 0.434984 0.317072
436 2 0.369913 0.454664 0.331816
2861 4 0.501536 0.433869 0.302749
730 2 0.0639176 0.0725412 0.348309
1772 4 0.013084 0.0219867 0.389108
1771 2 0.00295199 0.0076728 0.371285
732 4 0.0699939 0.04877 0.353124
2236 2 0.0172325 0.0504073 0.414095
369 4 0.0778088 0.034324 0.364651
367 2 0.0888029 0.0262044 0.385589
368 4 0.099797 0.0180848 0.406526
1782 4 0.112703 0.014833 0.420267
606 4 0.173132 0.00514164 0.406608
605 4 0.199606 0.0475053 0.408879
604 2 0.186369 0.0263235 0.407744
1701 4 0.18522 0.0612507 0.408089
1699 2 0.19491 0.0821819 0.398437
424 2 0.389564 0.0586127 0.384225
425 4 0.399357 0.0465705 0.403828
1580 4 0.386708 0.0311537 0.398273
426 4 0.379771 0.0706549 0.364622
258 4 0.367441 0.0787876 0.350543
2664 4 0.506239 0.0266375 0.343061
743 4 0.487319 0.0213784 0.345401
479 4 0.495591 0.0343133 0.357476
478 2 0.496154 0.0566568 0.368684
480 4 0.496717 0.0790003 0.379892
399 4 0.0490171 0.11377 0.34461
458 4 0.997743 0.133116 0.394113
318 4 0.015728 0.130006 0.384852
317 4 0.0458963 0.100326 0.358212
731 4 0.0578412 0.0963123 0.343494
316 2 0.0308121 0.115166 0.371532
457 2 0.998385 0.158092 0.393142
249 4 0.193241 0.133349 0.339139
247 2 0.19961 0.114636 0.35445
248 4 0.20598 0.0959223 0.369761
1700 4 0.2046 0.103113 0.388785
320 4 0.318474 0.110431 0.403866
682 2 0.283333 0.131196 0.411181
683 4 0.266317 0.149437 0.412885
684 4 0.30035 0.112956 0.409476
319 2 0.333692 0.127019 0.392984
321 4 0.34891 0.143607 0.382102
708 4 0.34422 0.155445 0.36778
516 4 0.480964 0.153839 0.364385
575 4 0.46867 0.152855 0.379919
574 2 0.472222 0.142226 0.40227
459 4 0.999027 0.183069 0.392171
376 2 0.304508 0.228454 0.32953
377 4 0.309513 0.20437 0.334013
707 4 0.324719 0.189452 0.336732
706 2 0.334469 0.172448 0.352256
466 2 0.363884 0.243512 0.395038
467 4 0.363409 0.220904 0.384369
515 4 0.479151 0.19874 0.342446
514 2 0.480057 0.17629 0.353416
406 2 0.0190005 0.31672 0.346953
408 4 0.0251491 0.305216 0.368285
347 4 0.0856443 0.32834 0.389816
346 2 0.0684714 0.335068 0.406698
275 4 0.143511 0.330073 0.35545
274 2 0.161932 0.314394 0.361777
276 4 0.180353 0.298716 0.368104
373 2 0.199275 0.281703 0.401422
375 4 0.182876 0.285755 0.382988
374 4 0.215675 0.27765 0.419856
473 4 0.233627 0.270454 0.423204
615 4 0.406425 0.329088 0.328207
267 4 0.367015 0.286562 0.405256
468 4 0.364359 0.26612 0.405707
265 2 0.345759 0.299326 0.408489
752 4 0.494673 0.331232 0.35424
777 4 0.0374378 0.411526 0.335204
618 4 0.0862268 0.343827 0.376333
617 4 0.134896 0.345495 0.364966
616 2 0.110562 0.344661 0.37065
433 2 0.206114 0.344453 0.337644
434 4 0.207481 0.351594 0.361567
502 2 0.301479 0.414573 0.410014
504 4 0.28288 0.403392 0.422433
613 2 0.424496 0.334893 0.344483
614 4 0.442568 0.340698 0.360758
775 2 0.0510327 0.428888 0.34699
776 4 0.0646277 0.446251 0.358776
414 4 0.0700685 0.466655 0.355905
1544 4 0.126276 0.486675 0.330644
413 4 0.117116 0.481179 0.347169
412 2 0.0935922 0.473917 0.351537
500 4 0.121363 0.500299 0.343113
503 4 0.320078 0.425755 0.397595
669 4 0.327909 0.442778 0.404334
667 2 0.329969 0.463739 0.41781
594 4 0.379866 0.495944 0.397699
438 4 0.365386 0.474344 0.34656
240 4 0.396473 0.418812 0.397289
335 4 0.383699 0.414946 0.381008
336 4 0.337806 0.431967 0.391246
334 2 0.360753 0.423457 0.386127
592 2 0.377576 0.493554 0.372915
593 4 0.375286 0.491164 0.348132
3990 4 0.499441 0.48498 0.356419
1127 4 0.0109606 0.0661545 0.451151
2237 4 0.0216897 0.0578516 0.437545
720 4 0.0246382 0.0766729 0.441695
1781 4 0.0929995 0.00162025 0.464288
1780 2 0.102851 0.00822661 0.442277
2429 4 0.243798 0.989203 0.488159
961 2 0.282218 0.998817 0.488591
724 2 0.294538 0.0493511 0.479944
726 4 0.296593 0.06857 0.464082
725 4 0.292482 0.0301323 0.495806
963 4 0.302205 0.0129732 0.493621
432 4 0.311135 0.028558 0.500062
1579 2 0.380285 0.0107831 0.411272
2879 4 0.413101 0.0405519 0.489189
642 4 0.448345 0.0729852 0.445957
2878 2 0.430914 0.0525571 0.476393
2880 4 0.448727 0.0645622 0.463597
470 4 0.0223425 0.147153 0.468826
718 2 0.0402463 0.0960232 0.444367
719 4 0.0558543 0.115373 0.447039
939 4 0.0887586 0.153108 0.476301
1033 2 0.124342 0.138297 0.47091
1035 4 0.149211 0.139798 0.468793
261 4 0.168854 0.145046 0.469899
1034 4 0.0994739 0.136796 0.473028
259 2 0.175378 0.167911 0.462165
600 4 0.261586 0.166873 0.41845
1181 4 0.312868 0.103843 0.421324
1182 4 0.303185 0.0871181 0.467446
1180 2 0.308027 0.0954808 0.444385
576 4 0.475773 0.131597 0.424622
640 2 0.459009 0.0951366 0.441399
641 4 0.469673 0.117288 0.43684
306 4 0.483327 0.129455 0.442136
304 2 0.476767 0.143372 0.461845
3158 4 0.454775 0.150034 0.490862
305 4 0.470207 0.157289 0.481555
694 2 0.156643 0.221733 0.471734
696 4 0.138793 0.236454 0.481214
1260 4 0.146415 0.243656 0.49933
695 4 0.174492 0.207012 0.462254
260 4 0.181902 0.190776 0.454431
472 2 0.241942 0.248847 0.432647
687 4 0.239871 0.21541 0.450956
686 4 0.19321 0.202982 0.463956
685 2 0.21654 0.209196 0.457456
489 4 0.314175 0.235358 0.432441
599 4 0.254225 0.210239 0.442237
474 4 0.250256 0.227239 0.44209
411 4 0.255829 0.219711 0.456916
598 2 0.257906 0.188556 0.430344
409 2 0.261838 0.221172 0.481143
488 4 0.267149 0.222708 0.443809
487 2 0.290662 0.229033 0.438125
813 4 0.268393 0.321979 0.475376
266 4 0.324504 0.312091 0.411722
2812 2 0.0170528 0.336532 0.438999
348 4 0.0512985 0.341796 0.42358
2813 4 0.0352708 0.351188 0.430139
326 4 0.0527113 0.360626 0.429939
325 2 0.0640037 0.375714 0.44637
327 4 0.075296 0.390802 0.462802
7 3 0.084476 0.385293 0.480064
6 1 0.107219 0.382954 0.482603
711 4 0.133427 0.412044 0.490316
8 3 0.11584 0.402603 0.491434
709 2 0.15688 0.410708 0.481752
10 3 0.116642 0.37877 0.462296
811 2 0.26283 0.33069 0.498143
1383 4 0.0654326 0.485606 0.471615
680 4 0.0486013 0.472432 0.474486
1381 2 0.0719767 0.499728 0.452046
679 2 0.0607607 0.456825 0.489774
634 2 0.201596 0.44305 0.457813
636 4 0.214549 0.459192 0.443784
635 4 0.188642 0.426908 0.471842
710 4 0.180333 0.409373 0.473188
774 4 0.196617 0.412964 0.483577
4 3 0.324649 0.491281 0.448485
668 4 0.332028 0.484699 0.431286
587 4 0.397274 0.428938 0.495456
238 2 0.408947 0.431158 0.415098
588 4 0.418444 0.435392 0.450613
586 2 0.407859 0.432165 0.473035
239 4 0.421421 0.443504 0.432907
1184 4 0.0116458 0.0303917 0.573394
1183 2 0.023806 0.00854481 0.573249
342 4 0.158347 0.0574194 0.503084
1152 4 0.148298 0.0575253 0.520881
1150 2 0.151192 0.0641335 0.544821
1151 4 0.154086 0.0707418 0.568761
340 2 0.176024 0.0397704 0.501993
341 4 0.193702 0.0221214 0.500902
2430 4 0.209663 0.0165439 0.512408
2428 2 0.22673 0.00287334 0.500283
430 2 0.327034 0.0157091 0.514461
841 2 0.363087 0.0264617 0.557454
842 4 0.378325 0.0427842 0.568704
1216 2 0.416057 0.0157484 0.569469
1217 4 0.398803 0.0335498 0.566219
843 4 0.347849 0.0101391 0.546205
3009 4 0.499471 0.0547828 0.565863
1061 4 0.489134 0.0682903 0.51955
2657 4 0.498556 0.0529327 0.512495
879 4 0.0530598 0.15832 0.534259
877 2 0.0290685 0.151281 0.534061
878 4 0.00507721 0.144241 0.533863
938 4 0.0680708 0.15484 0.521796
937 2 0.0784147 0.153974 0.499049
3159 4 0.455285 0.127378 0.53544
3157 2 0.45503 0.138706 0.513151
1062 4 0.463669 0.109195 0.532932
1060 2 0.476401 0.0887424 0.526241
1272 4 0.0705923 0.166252 0.537442
1270 2 0.0713555 0.180494 0.557979
1271 4 0.0721186 0.194736 0.578516
1258 2 0.144899 0.237527 0.523523
1259 4 0.143383 0.231397 0.547716
1244 4 0.0786463 0.181926 0.59174
898 2 0.291822 0.223447 0.540178
899 4 0.305222 0.21436 0.559231
857 4 0.315828 0.206335 0.573415
856 2 0.309421 0.192539 0.593259
791 4 0.32539 0.211983 0.557649
900 4 0.278422 0.232535 0.521124
410 4 0.267846 0.222633 0.50537
790 2 0.345693 0.225648 0.562772
792 4 0.365997 0.239312 0.567896
872 4 0.375397 0.247824 0.552914
806 4 0.311506 0.322516 0.564253
805 2 0.32552 0.313434 0.582862
1238 4 0.37349 0.257088 0.570265
871 2 0.377116 0.254942 0.529007
873 4 0.378834 0.26206 0.5051
1135 2 0.131788 0.359114 0.578262
9 3 0.111376 0.365281 0.497052
1137 4 0.147438 0.377501 0.571767
773 4 0.224804 0.415221 0.524822
1189 2 0.218472 0.41477 0.563684
1190 4 0.231715 0.414177 0.542484
803 4 0.228303 0.398025 0.531932
802 2 0.238417 0.375165 0.532494
804 4 0.248531 0.352305 0.533055
651 4 0.300913 0.337989 0.571111
649 2 0.281412 0.338969 0.555492
650 4 0.261912 0.33995 0.539873
812 4 0.257267 0.339402 0.52091
925 2 0.412791 0.396165 0.513982
927 4 0.424299 0.374103 0.516431
926 4 0.401284 0.418228 0.511533
1010 4 0.508341 0.361555 0.530511
681 4 0.0729201 0.441217 0.505062
383 4 0.0880354 0.448287 0.514722
382 2 0.109845 0.437504 0.508957
569 4 0.146424 0.435263 0.513384
2243 4 0.164928 0.51946 0.564664
568 2 0.1639 0.447897 0.526039
384 4 0.131655 0.42672 0.503193
772 2 0.21071 0.414092 0.5042
930 4 0.242422 0.410219 0.526208
570 4 0.181376 0.460531 0.538694
928 2 0.262475 0.425131 0.525397
929 4 0.282529 0.440044 0.524586
1951 2 0.293056 0.475128 0.538624
1953 4 0.290808 0.450229 0.538253
1952 4 0.295305 0.500028 0.538995
663 4 0.403939 0.437504 0.511432
661 2 0.414347 0.456333 0.524172
1001 4 0.41681 0.48249 0.553783
662 4 0.424755 0.475162 0.536913
1911 4 0.427372 0.466764 0.554132
1332 4 0.435585 0.484088 0.549485
1330 2 0.455913 0.498102 0.545541
1909 2 0.433194 0.461345 0.577837
2375 4 0.151488 0.0227634 0.62516
1059 4 0.154815 0.073747 0.587842
1057 2 0.159617 0.0550643 0.603751
1058 4 0.164419 0.0363815 0.619659
949 2 0.280408 0.0193492 0.61943
951 4 0.291277 0.0410436 0.625462
1031 4 0.291069 0.0351431 0.644461
950 4 0.269538 0.997655 0.613398
3007 2 0.505568 0.070399 0.584414
43 3 0.445424 0.049376 0.665866
3008 4 0.511664 0.0860153 0.602965
1155 4 0.150964 0.0887194 0.575894
1154 4 0.156521 0.130584 0.602675
1153 2 0.153743 0.109651 0.589284
1221 4 0.15375 0.148325 0.607776
1219 2 0.174047 0.1629 0.606883
808 2 0.492699 0.0831927 0.642646
809 4 0.50196 0.0886034 0.62006
1245 4 0.113922 0.183232 0.62716
1243 2 0.0962843 0.182579 0.60945
1209 4 0.109142 0.175488 0.645288
1207 2 0.107756 0.167135 0.668814
1210 2 0.224467 0.17957 0.6345
1212 4 0.205519 0.184737 0.619026
1220 4 0.194343 0.177476 0.605991
797 4 0.191995 0.246784 0.604252
796 2 0.193772 0.221897 0.605891
798 4 0.195549 0.197011 0.607529
1211 4 0.243415 0.174404 0.649974
858 4 0.303015 0.178743 0.613104
3121 2 0.481568 0.225319 0.626397
3122 4 0.490056 0.210149 0.64437
3357 4 0.481627 0.191873 0.64556
3355 2 0.500117 0.176031 0.651245
3123 4 0.47308 0.240489 0.608425
983 4 0.0137663 0.3127 0.617383
982 2 0.0309757 0.323045 0.632282
984 4 0.0481851 0.33339 0.647182
3263 4 0.0537113 0.33376 0.665691
1237 2 0.363594 0.274318 0.585443
807 4 0.339534 0.304351 0.601471
1239 4 0.353698 0.291548 0.600621
906 4 0.453066 0.304609 0.621612
905 4 0.465512 0.256371 0.617261
904 2 0.459289 0.28049 0.619436
953 4 0.454452 0.322497 0.613071
952 2 0.475262 0.333824 0.605081
1041 4 0.0620062 0.346258 0.652704
1039 2 0.0662839 0.364562 0.636217
1040 4 0.0705616 0.382867 0.61973
993 4 0.0511257 0.386558 0.621223
991 2 0.0348143 0.403971 0.613746
1136 4 0.116138 0.340728 0.584757
897 4 0.155082 0.380292 0.589148
1191 4 0.205228 0.415363 0.584884
895 2 0.173464 0.396639 0.593627
896 4 0.191846 0.412986 0.598105
1028 4 0.20326 0.401819 0.661009
1027 2 0.20353 0.409053 0.637076
1029 4 0.2038 0.416287 0.613143
954 4 0.496072 0.34515 0.597092
992 4 0.0185029 0.421384 0.606269
1172 4 0.203202 0.429355 0.598693
1159 2 0.171924 0.497311 0.592637
1160 4 0.188611 0.487991 0.608758
1171 2 0.204282 0.453846 0.603615
1173 4 0.205361 0.478336 0.608538
1187 4 0.194705 0.481242 0.624788
1186 2 0.181995 0.487288 0.645454
1206 4 0.494585 0.421134 0.619856
1268 4 0.44234 0.49376 0.647253
1267 2 0.441242 0.472557 0.634047
1204 2 0.472347 0.43093 0.613965
1910 4 0.439015 0.455926 0.601542
1269 4 0.440144 0.451354 0.620841
1205 4 0.45011 0.440726 0.608074
2168 4 0.459925 0.491378 0.657437
1284 4 0.1036 0.0442913 0.712129
1282 2 0.119298 0.062489 0.705231
2047 2 0.144934 0.0168551 0.744508
2048 4 0.121194 0.0145574 0.752013
2256 4 0.182893 0.0102852 0.747467
2049 4 0.168674 0.0191528 0.737003
1201 2 0.195178 0.0441148 0.723339
1202 4 0.187705 0.0222154 0.732812
1203 4 0.202652 0.0660143 0.713866
1226 4 0.191244 0.0746442 0.6994
1148 4 0.201787 0.084906 0.71112
1030 2 0.29466 0.0440925 0.66753
1032 4 0.298252 0.0530419 0.690599
1005 4 0.320035 0.999493 0.710781
810 4 0.483439 0.0777821 0.665232
45 3 0.462883 0.0375339 0.697052
41 1 0.456024 0.0558918 0.685451
1163 4 0.493013 0.0660808 0.677844
44 3 0.474238 0.0693831 0.68049
42 3 0.44118 0.0678709 0.698309
1077 4 0.0263803 0.119117 0.738344
1075 2 0.00855525 0.105255 0.727606
864 4 0.0433367 0.127744 0.74277
909 4 0.112754 0.145754 0.705129
907 2 0.12038 0.121952 0.704403
908 4 0.128006 0.0981511 0.703677
1283 4 0.134997 0.0806867 0.698333
1227 4 0.146656 0.0972494 0.698122
851 4 0.0964991 0.155536 0.70937
1208 4 0.106371 0.158783 0.692341
1225 2 0.16895 0.0859468 0.698761
1147 2 0.2163 0.0983275 0.72643
1149 4 0.230813 0.111749 0.74174
829 2 0.320906 0.154213 0.699
830 4 0.29655 0.15946 0.701104
887 4 0.277847 0.162542 0.702629
831 4 0.345262 0.148966 0.696895
1142 4 0.361166 0.155976 0.706706
1141 2 0.38573 0.160337 0.708375
1025 4 0.465224 0.126263 0.714745
3424 2 0.485108 0.105444 0.695887
3426 4 0.48645 0.0841792 0.682803
3425 4 0.483767 0.126709 0.708971
3269 4 0.480132 0.122825 0.727265
1024 2 0.447199 0.143439 0.712447
3268 2 0.490481 0.134626 0.746728
1026 4 0.429174 0.160614 0.710149
845 4 0.438839 0.100875 0.732225
852 4 0.0512626 0.176162 0.714749
1214 4 0.0322492 0.177851 0.718044
850 2 0.0738809 0.165849 0.71206
1213 2 0.00980693 0.184648 0.726723
1107 4 0.113864 0.165221 0.708252
1105 2 0.129908 0.180308 0.720091
1106 4 0.145952 0.195395 0.73193
1130 4 0.165488 0.190531 0.737668
888 4 0.243631 0.164305 0.666203
978 4 0.287536 0.169882 0.716453
886 2 0.260739 0.163424 0.684416
976 2 0.290504 0.185632 0.735645
916 2 0.30061 0.239538 0.750497
1143 4 0.410294 0.164699 0.710043
1192 2 0.423322 0.199327 0.691023
1194 4 0.423557 0.176331 0.700837
1262 4 0.421773 0.175996 0.719923
1193 4 0.423088 0.222323 0.68121
1261 2 0.428759 0.184392 0.742415
3262 2 0.0669369 0.325749 0.68534
3264 4 0.0801624 0.317737 0.704989
893 4 0.0708403 0.325424 0.720289
779 4 0.0837652 0.310465 0.722758
778 2 0.106941 0.301342 0.724959
780 4 0.130117 0.29222 0.727159
1065 4 0.251445 0.331198 0.668649
1063 2 0.248052 0.311483 0.683648
1064 4 0.244659 0.291768 0.698648
947 4 0.298932 0.268727 0.72964
946 2 0.281518 0.280473 0.716078
948 4 0.264103 0.292219 0.702515
917 4 0.294595 0.263771 0.749162
1008 4 0.465634 0.297332 0.708673
1006 2 0.46802 0.276295 0.721974
1007 4 0.470405 0.255257 0.735274
892 2 0.0682728 0.339325 0.740913
941 4 0.153968 0.379688 0.730028
1067 4 0.162227 0.388357 0.713141
1066 2 0.175322 0.391699 0.692105
1068 4 0.188416 0.395041 0.671069
1019 4 0.379908 0.41375 0.743667
884 4 0.0719542 0.453076 0.748815
1176 4 0.138953 0.462178 0.713812
1174 2 0.148887 0.469132 0.691945
1188 4 0.169285 0.493334 0.66612
1175 4 0.15882 0.476086 0.670079
1139 4 0.298481 0.465092 0.667495
1138 2 0.307346 0.456067 0.689062
1140 4 0.316211 0.447042 0.710629
1989 4 0.323192 0.447669 0.729326
1229 4 0.332355 0.437301 0.715641
1100 4 0.389954 0.42744 0.733968
1228 2 0.354668 0.426854 0.719907
1230 4 0.37698 0.416407 0.724173
1099 2 0.406876 0.443182 0.724428
1101 4 0.423798 0.458924 0.714889
3330 4 0.441496 0.46128 0.70788
3328 2 0.462683 0.448508 0.704251
1251 4 0.438274 0.46758 0.725572
3329 4 0.48387 0.435736 0.700622
1249 2 0.437972 0.486583 0.741819
834 4 0.0353724 0.0703048 0.824002
1113 4 0.376025 0.0852095 0.778296
979 2 0.416121 0.999226 0.829638
2321 4 0.447563 0.00756839 0.801418
2322 4 0.447083 0.0397066 0.763109
2320 2 0.447323 0.0236375 0.782264
846 4 0.441989 0.0589575 0.759311
862 2 0.0507004 0.125579 0.766566
863 4 0.058064 0.123414 0.790362
833 4 0.0596814 0.106637 0.799718
1125 4 0.068955 0.122564 0.80668
1123 2 0.0719929 0.139895 0.824445
832 2 0.0475269 0.088471 0.81186
911 4 0.143797 0.0906979 0.836881
1257 4 0.2155 0.119036 0.753851
1255 2 0.213319 0.117996 0.778737
921 4 0.213297 0.133367 0.813675
919 2 0.19412 0.146068 0.823478
840 4 0.222665 0.116628 0.81929
1256 4 0.211137 0.116957 0.803624
838 2 0.242504 0.123147 0.833041
920 4 0.174943 0.158769 0.833282
1111 2 0.370324 0.0918589 0.801716
1112 4 0.364623 0.0985083 0.825135
844 2 0.440414 0.0799164 0.745768
3270 4 0.50083 0.146428 0.766191
1146 4 0.488966 0.160482 0.774699
1129 2 0.16319 0.203578 0.758874
34 3 0.123645 0.180435 0.824682
1277 4 0.159768 0.205066 0.795819
1276 2 0.159467 0.188069 0.814155
35 3 0.0912227 0.165341 0.836455
1131 4 0.160892 0.216626 0.780079
822 4 0.172561 0.218884 0.79555
820 2 0.175432 0.24371 0.796324
1278 4 0.159166 0.171073 0.832491
977 4 0.293472 0.201382 0.754836
918 4 0.306625 0.215306 0.751833
1298 4 0.310118 0.201599 0.765276
1297 2 0.320294 0.199198 0.787988
1299 4 0.33047 0.196798 0.810701
1086 4 0.339492 0.2075 0.827172
50 3 0.39965 0.196329 0.793321
46 1 0.422318 0.195772 0.795445
49 3 0.43115 0.216885 0.791622
1043 4 0.441857 0.207824 0.775829
48 3 0.428101 0.188498 0.816707
47 3 0.431022 0.181154 0.779962
1263 4 0.435746 0.192789 0.764906
1145 4 0.448452 0.189436 0.779283
1144 2 0.468709 0.174959 0.776991
1042 2 0.451872 0.226675 0.76281
1044 4 0.461887 0.245526 0.74979
1022 4 0.442512 0.189514 0.829656
1236 4 0.211807 0.333107 0.773773
821 4 0.178302 0.268536 0.797098
1165 2 0.492849 0.259946 0.771164
1166 4 0.480793 0.250227 0.751533
3275 4 0.0123447 0.350561 0.801512
894 4 0.0657054 0.353227 0.761536
3276 4 0.051535 0.36019 0.77198
3274 2 0.0319398 0.355376 0.786746
816 4 0.070079 0.359765 0.779453
940 2 0.141427 0.376308 0.751393
814 2 0.0924323 0.37074 0.781697
942 4 0.128886 0.372928 0.772758
815 4 0.114786 0.381716 0.783941
1080 4 0.133361 0.385465 0.786811
1078 2 0.135079 0.394305 0.810137
1098 4 0.247249 0.338957 0.817755