ITEM: TIMESTEP
2640000
ITEM: NUMBER OF ATOMS
4590
ITEM: BOX BOUNDS pp pp pp
-9.9985700000000008e+00 9.9985700000000008e+00
-9.9985700000000008e+00 9.9985700000000008e+00
-9.9985700000000008e+00 9.9985700000000008e+00
ITEM: ATOMS id type xs ys zs
465 4 0.0945219 0.086017 0.0308747
701 4 0.108555 0.0799354 0.0164437
700 2 0.127045 0.0631054 0.0166869
702 4 0.145535 0.0462755 0.01693
566 4 0.163135 0.0358315 0.0164599
565 2 0.180835 0.0438152 0.000706891
567 4 0.198535 0.0517989 0.984954
746 4 0.478522 0.0655774 0.0273222
2467 2 0.491402 0.0301477 0.0503855
2469 4 0.481221 0.0505639 0.0401534
745 2 0.469378 0.0623807 0.00427121
463 2 0.0732039 0.0919569 0.0425125
590 4 0.0461271 0.0932286 0.0732993
464 4 0.0518859 0.0978969 0.0541504
589 2 0.0215738 0.0967349 0.0764645
558 4 0.37481 0.125232 0.038738
556 2 0.361765 0.117181 0.0584908
865 2 0.358774 0.166227 0.00277451
557 4 0.348719 0.10913 0.0782437
771 4 0.456913 0.155179 0.0589123
554 4 0.0352349 0.216432 0.00979852
553 2 0.0583913 0.209501 0.0161954
555 4 0.0815478 0.20257 0.0225924
835 2 0.123987 0.202717 0.0168172
836 4 0.101491 0.207429 0.026662
837 4 0.146482 0.198005 0.00697246
738 4 0.167423 0.192528 0.0819225
915 4 0.155145 0.215404 0.0123127
573 4 0.337001 0.238356 0.0553025
666 4 0.338995 0.221538 0.0645826
461 4 0.338402 0.238529 0.0746047
664 2 0.337913 0.202149 0.0488324
665 4 0.336831 0.182759 0.0330822
867 4 0.348595 0.184428 0.0165696
769 2 0.463798 0.165783 0.080484
1070 4 0.463594 0.239636 0.0741159
2808 4 0.024412 0.3354 0.0321829
2806 2 0.0129561 0.313433 0.0355593
294 4 0.0937084 0.31533 0.0534467
507 4 0.136681 0.349954 0.0317663
356 4 0.312858 0.30071 0.0383641
572 4 0.321595 0.282631 0.0378936
355 2 0.307675 0.320168 0.023541
571 2 0.329298 0.260493 0.0465981
1069 2 0.446699 0.258027 0.0753365
324 4 0.441712 0.290514 0.0690991
322 2 0.444304 0.315064 0.0730676
1071 4 0.429804 0.276419 0.076557
647 4 0.0196025 0.363614 0.0609994
646 2 0.0424476 0.357093 0.0687942
648 4 0.0652928 0.350572 0.076589
292 2 0.109611 0.334449 0.0508508
293 4 0.125514 0.353568 0.0482548
505 2 0.161657 0.348839 0.0314535
481 2 0.220177 0.37585 0.0238175
482 4 0.238284 0.39156 0.0167101
483 4 0.202069 0.360141 0.0309249
609 4 0.251528 0.395241 0.0322032
536 4 0.200369 0.398007 0.0977634
535 2 0.204806 0.373927 0.0926998
506 4 0.186634 0.347724 0.0311408
626 4 0.206552 0.40239 0.0792241
357 4 0.302492 0.339625 0.0087179
902 4 0.313939 0.355115 0.00378292
957 4 0.362162 0.375261 0.0248845
955 2 0.372773 0.373595 0.00230546
323 4 0.446895 0.339614 0.0770361
672 4 0.46223 0.343867 0.0647958
280 2 0.49588 0.417093 0.0528924
281 4 0.50241 0.396969 0.0662189
671 4 0.492974 0.382161 0.0742285
670 2 0.477602 0.363014 0.0695122
551 4 0.0309079 0.455915 0.0637271
550 2 0.0542624 0.448424 0.0685881
552 4 0.0776169 0.440933 0.0734491
1465 2 0.998651 0.480759 0.0738509
1787 4 0.091991 0.44888 0.0635406
1786 2 0.110693 0.447144 0.0470357
1788 4 0.129394 0.445408 0.0305308
246 4 0.252071 0.47641 0.0329412
244 2 0.240122 0.466295 0.0524374
245 4 0.228173 0.456181 0.0719337
625 2 0.208002 0.427232 0.076788
607 2 0.267145 0.414754 0.0329358
272 4 0.257404 0.485628 0.0165612
608 4 0.282763 0.434266 0.0336684
252 4 0.286382 0.449087 0.0484212
250 2 0.304682 0.455996 0.0328477
251 4 0.322982 0.462906 0.0172742
1778 4 0.260253 0.493777 0.0345093
2289 4 0.341704 0.461833 0.0096216
282 4 0.489351 0.437216 0.0395658
226 2 0.466816 0.473758 0.0458018
227 4 0.475146 0.452537 0.0355325
228 4 0.458486 0.494979 0.0560711
16 1 0.0615238 0.0522206 0.158395
20 3 0.0598695 0.0582468 0.136495
1806 4 0.0463547 0.0208272 0.146097
18 3 0.058526 0.0293127 0.160551
1804 2 0.0417453 0.0110882 0.123534
450 4 0.155878 0.0596443 0.167554
675 4 0.09303 0.0400848 0.166631
17 3 0.0824374 0.0577521 0.166216
448 2 0.165674 0.0788339 0.154867
484 2 0.369032 0.0203426 0.102116
297 4 0.378412 0.0571424 0.0985449
485 4 0.366426 0.0445686 0.107728
486 4 0.371638 0.996117 0.0965049
579 4 0.094685 0.119913 0.107497
237 4 0.146052 0.148576 0.127699
578 4 0.129425 0.153817 0.119513
577 2 0.112055 0.136865 0.113505
235 2 0.16259 0.132486 0.13733
476 4 0.136542 0.164547 0.134247
737 4 0.145231 0.165481 0.117653
236 4 0.179129 0.116395 0.14696
693 4 0.192289 0.105554 0.137262
449 4 0.17547 0.0980235 0.142179
691 2 0.2153 0.113542 0.131619
692 4 0.238312 0.12153 0.125976
582 4 0.254668 0.109708 0.129858
580 2 0.278566 0.114393 0.135526
581 4 0.302464 0.119078 0.141194
30 3 0.303287 0.127843 0.159619
29 3 0.32206 0.160445 0.161149
26 1 0.304829 0.147893 0.17031
28 3 0.284776 0.159419 0.168451
295 2 0.363726 0.0772785 0.0965318
296 4 0.349041 0.0974147 0.0945187
475 2 0.129284 0.179445 0.15297
736 2 0.156327 0.179004 0.0997877
354 4 0.321929 0.240283 0.137898
283 2 0.322951 0.19942 0.141548
285 4 0.3198 0.175447 0.147917
284 4 0.326102 0.223392 0.135179
462 4 0.331984 0.235606 0.124112
460 2 0.335193 0.237067 0.0993584
255 4 0.338254 0.235014 0.140462
770 4 0.470683 0.176386 0.102056
1014 4 0.485329 0.173724 0.115168
1013 4 0.47988 0.205636 0.153281
1012 2 0.482605 0.18968 0.134224
749 4 0.0549713 0.313962 0.153648
455 4 0.0674043 0.322431 0.139758
454 2 0.063646 0.332215 0.117057
612 4 0.239742 0.311748 0.137343
352 2 0.300265 0.250094 0.145616
756 4 0.252442 0.320394 0.148779
353 4 0.2786 0.259905 0.153335
754 2 0.265765 0.299648 0.152935
755 4 0.279089 0.278902 0.157091
253 2 0.355034 0.243244 0.157071
624 4 0.47511 0.31689 0.166133
764 4 0.406031 0.303853 0.170852
622 2 0.45046 0.313367 0.168396
456 4 0.0598876 0.341998 0.0943557
537 4 0.209243 0.349847 0.0876363
611 4 0.221483 0.344442 0.104201
610 2 0.230613 0.328095 0.120772
387 4 0.326388 0.404703 0.149694
741 4 0.397089 0.370029 0.0968869
739 2 0.39337 0.377915 0.120321
740 4 0.38965 0.385801 0.143755
385 2 0.350331 0.397887 0.152028
386 4 0.374274 0.391071 0.154362
495 4 0.391153 0.400396 0.155681
15 3 0.381586 0.372668 0.156064
242 4 0.0933216 0.446557 0.0830644
241 2 0.107372 0.454941 0.101971
1438 2 0.160812 0.46066 0.126773
243 4 0.121423 0.463325 0.120878
1440 4 0.138061 0.452197 0.120777
627 4 0.209452 0.452075 0.0743519
1439 4 0.183563 0.469124 0.132768
637 2 0.219357 0.465124 0.124562
638 4 0.243101 0.471278 0.12941
639 4 0.195613 0.458969 0.119713
767 4 0.254467 0.475422 0.145992
303 4 0.309845 0.461191 0.119574
766 2 0.27367 0.473523 0.130092
768 4 0.292873 0.471625 0.114192
301 2 0.31901 0.442478 0.133396
302 4 0.328175 0.423766 0.147217
525 4 0.408243 0.492061 0.079504
523 2 0.402628 0.470246 0.0903555
524 4 0.397014 0.448431 0.101207
493 2 0.400502 0.423242 0.151702
494 4 0.409851 0.446088 0.147722
660 4 0.422903 0.459946 0.142785
658 2 0.430008 0.479043 0.157276
19 3 0.0455968 0.0635088 0.170937
380 4 0.0327473 0.0783215 0.174753
1505 4 0.15375 0.0523241 0.185988
673 2 0.115779 0.0492398 0.171515
674 4 0.138528 0.0583947 0.176399
1504 2 0.170483 0.0355149 0.193902
1506 4 0.187216 0.0187057 0.201816
654 4 0.320568 0.0174093 0.167006
652 2 0.327965 0.041245 0.168531
653 4 0.335362 0.0650806 0.170056
22 3 0.412739 0.0223842 0.193285
23 3 0.400537 0.0308759 0.227805
24 3 0.421951 1.03983e-05 0.222046
21 1 0.418179 0.0219885 0.215632
757 2 0.474861 0.0355088 0.209076
25 3 0.436974 0.0344004 0.218998
759 4 0.454892 0.0258507 0.220614
350 4 0.445875 0.0305908 0.236226
758 4 0.494831 0.0451668 0.197538
379 2 0.0382995 0.0997651 0.186352
512 4 0.0363723 0.127139 0.216333
381 4 0.0438517 0.121209 0.19795
511 2 0.058732 0.137567 0.220392
513 4 0.0810917 0.147996 0.22445
339 4 0.0996149 0.148493 0.217576
27 3 0.309291 0.144278 0.192585
521 4 0.497309 0.139331 0.232053
337 2 0.10571 0.165223 0.200022
477 4 0.122025 0.194344 0.171692
363 4 0.117819 0.199407 0.190008
338 4 0.111806 0.181954 0.182469
362 4 0.116726 0.24231 0.215677
361 2 0.117273 0.220859 0.202842
628 2 0.398422 0.224393 0.195441
629 4 0.414605 0.207826 0.204867
312 4 0.417778 0.191193 0.193529
311 4 0.438104 0.157233 0.224094
310 2 0.427941 0.174213 0.208812
761 4 0.486657 0.238493 0.243171
750 4 0.0518634 0.303042 0.202349
395 4 0.0470852 0.297377 0.221704
748 2 0.0534173 0.308502 0.177999
394 2 0.036158 0.285654 0.240897
372 4 0.129108 0.247465 0.231143
370 2 0.146735 0.263234 0.239254
300 4 0.119815 0.289794 0.205609
298 2 0.115246 0.309399 0.220439
299 4 0.110677 0.329004 0.23527
371 4 0.164362 0.279004 0.247366
279 4 0.244852 0.247215 0.202807
277 2 0.261984 0.25652 0.187152
278 4 0.279116 0.265826 0.171496
401 4 0.264283 0.311242 0.242163
496 2 0.279191 0.327943 0.217644
498 4 0.261163 0.311321 0.222531
630 4 0.38224 0.240959 0.186016
254 4 0.371814 0.251475 0.173681
765 4 0.386356 0.259662 0.183529
763 2 0.396193 0.281757 0.177191
528 4 0.489836 0.317657 0.180606
623 4 0.42581 0.309843 0.170659
262 2 0.0374523 0.399482 0.214278
264 4 0.0157343 0.411854 0.214938
263 4 0.0591703 0.38711 0.213618
602 4 0.0736897 0.373885 0.204734
734 4 0.106184 0.34045 0.250532
601 2 0.0896424 0.360586 0.218656
603 4 0.105595 0.347286 0.232578
290 4 0.148 0.377522 0.239586
289 2 0.158142 0.396626 0.227041
291 4 0.168283 0.41573 0.214496
307 2 0.334778 0.346028 0.189429
308 4 0.311478 0.344584 0.198386
497 4 0.297219 0.344564 0.212756
309 4 0.358078 0.347471 0.180473
14 3 0.400619 0.399079 0.174982
11 1 0.393992 0.376844 0.1747
13 3 0.381588 0.372033 0.193711
12 3 0.412731 0.363503 0.174474
2618 4 0.0143728 0.430692 0.223087
2617 2 0.000636068 0.447613 0.235341
416 4 0.18013 0.432448 0.209854
415 2 0.193458 0.453582 0.20888
1430 4 0.206928 0.493848 0.203282
417 4 0.206785 0.474715 0.207906
597 4 0.488277 0.467026 0.206812
596 4 0.451446 0.489116 0.181195
659 4 0.437113 0.498141 0.171767
595 2 0.469862 0.478071 0.194004
1799 4 0.02143 0.0243575 0.310216
233 4 0.0204331 0.0402163 0.297725
1402 2 0.0582758 0.0481094 0.311363
1403 4 0.0354209 0.0380792 0.309871
1404 4 0.0811307 0.0581396 0.312854
1798 2 0.0105084 0.00833486 0.326001
633 4 0.3886 0.0424638 0.306937
631 2 0.387065 0.0569006 0.28658
257 4 0.379005 0.0448493 0.32461
698 4 0.377004 0.0288887 0.314019
697 2 0.371649 0.00655985 0.323914
349 2 0.453311 0.0295761 0.260077
744 4 0.477402 0.0369758 0.284978
742 2 0.48248 0.0336099 0.309228
351 4 0.460748 0.0285615 0.283927
398 4 0.0754474 0.136902 0.306056
390 4 0.0802666 0.154767 0.302359
393 4 0.0780293 0.142493 0.287154
545 4 0.131726 0.142852 0.265369
392 4 0.123102 0.126413 0.272643
391 2 0.100566 0.134453 0.279899
544 2 0.152264 0.157114 0.265264
249 4 0.192973 0.137528 0.333909
404 4 0.203341 0.151493 0.322925
632 4 0.385531 0.0713373 0.266223
444 4 0.00946753 0.234095 0.31092
388 2 0.0868684 0.177966 0.308946
389 4 0.0934702 0.201165 0.315534
723 4 0.220764 0.215153 0.253702
721 2 0.202162 0.200802 0.262257
546 4 0.172801 0.171376 0.265159
403 2 0.193266 0.160985 0.302102
405 4 0.183191 0.170476 0.28128
722 4 0.183561 0.18645 0.270812
378 4 0.303469 0.246879 0.323156
420 4 0.386647 0.22897 0.278839
717 4 0.369186 0.235757 0.273096
418 2 0.409221 0.218854 0.275198
331 2 0.456899 0.204193 0.306751
332 4 0.446729 0.205282 0.283935
419 4 0.431795 0.208738 0.271557
760 2 0.468199 0.227002 0.255517
762 4 0.44974 0.215512 0.267863
515 4 0.467059 0.204015 0.349194
364 2 0.0161468 0.308081 0.286938
442 2 0.0118715 0.251518 0.293147
396 4 0.0252307 0.273931 0.260089
443 4 0.0142755 0.268941 0.275375
365 4 0.0207334 0.287674 0.273237
407 4 0.0145392 0.326144 0.320808
677 4 0.144843 0.321185 0.29397
735 4 0.133274 0.336518 0.292381
676 2 0.167873 0.32507 0.302896
508 2 0.230334 0.312028 0.314798
509 4 0.206782 0.319405 0.318804
678 4 0.190904 0.328954 0.311822
510 4 0.253886 0.304652 0.310792
400 2 0.260472 0.307157 0.266534
402 4 0.256661 0.303072 0.290906
345 4 0.27106 0.299861 0.303417
343 2 0.280336 0.280255 0.315857
344 4 0.289611 0.260649 0.328297
715 2 0.371957 0.260052 0.278314
716 4 0.374728 0.284348 0.283532
542 4 0.393809 0.28552 0.288572
541 2 0.402592 0.30216 0.305037
543 4 0.411376 0.318801 0.321503
751 2 0.482246 0.331346 0.329293
2538 4 0.474888 0.336249 0.286826
753 4 0.472237 0.333936 0.306527
366 4 0.0115602 0.328488 0.300638
548 4 0.0178543 0.342563 0.31167
547 2 0.0261379 0.366068 0.313687
549 4 0.0344215 0.389573 0.315703
733 2 0.119729 0.338484 0.271457
728 4 0.357012 0.372108 0.309361
727 2 0.352234 0.394905 0.318452
729 4 0.347457 0.417702 0.327543
2536 2 0.490334 0.352343 0.275533
2860 2 0.495002 0.406661 0.281049
777 4 0.0394184 0.406079 0.326948
775 2 0.0509666 0.427219 0.333649
1543 2 0.153496 0.479171 0.329865
1435 2 0.190112 0.500937 0.296156
1545 4 0.173408 0.467717 0.31999
1436 4 0.180652 0.482142 0.309663
437 4 0.355833 0.434761 0.329728
436 2 0.353815 0.459505 0.326756
438 4 0.351797 0.484249 0.323785
2861 4 0.484145 0.427596 0.289358
730 2 0.0757943 0.0739551 0.362957
2236 2 0.99421 0.0537658 0.418161
732 4 0.0881176 0.0527213 0.367694
369 4 0.104824 0.0569494 0.380588
367 2 0.106194 0.0476343 0.403751
605 4 0.172758 0.0613901 0.389935
604 2 0.174467 0.0374696 0.397011
1701 4 0.180599 0.0707754 0.403845
606 4 0.176177 0.0135491 0.404086
256 2 0.376521 0.05966 0.344601
258 4 0.374037 0.0744707 0.364593
426 4 0.374498 0.0784557 0.384206
424 2 0.386852 0.0614736 0.397776
425 4 0.399207 0.0444916 0.411346
1580 4 0.399967 0.0272097 0.403121
743 4 0.487557 0.030244 0.333479
479 4 0.485987 0.0345116 0.351946
478 2 0.473089 0.053728 0.361408
480 4 0.46019 0.0729443 0.370871
458 4 0.996461 0.141241 0.369314
397 2 0.0723351 0.123522 0.326948
318 4 0.00724852 0.126025 0.373503
399 4 0.0692229 0.110143 0.347841
317 4 0.0525382 0.111787 0.357792
731 4 0.063471 0.0951888 0.358219
316 2 0.0298934 0.118906 0.365647
1699 2 0.188782 0.0915623 0.392615
247 2 0.197812 0.134423 0.358243
248 4 0.20265 0.131318 0.382576
1700 4 0.196966 0.112349 0.381385
319 2 0.323295 0.119593 0.389045
320 4 0.304816 0.11037 0.403139
682 2 0.273137 0.137783 0.406658
683 4 0.255979 0.155217 0.401476
706 2 0.332562 0.16904 0.359099
321 4 0.341774 0.128816 0.374951
708 4 0.337649 0.14498 0.363619
516 4 0.466161 0.157671 0.367961
575 4 0.472404 0.145192 0.382747
574 2 0.467361 0.134248 0.404655
576 4 0.462318 0.123304 0.426564
376 2 0.307829 0.226182 0.33649
600 4 0.254109 0.169039 0.417114
377 4 0.312188 0.205485 0.349824
707 4 0.327475 0.1931 0.354579
489 4 0.308157 0.239699 0.407394
333 4 0.46707 0.203103 0.329567
514 2 0.46661 0.180843 0.358578
453 4 0.471 0.220028 0.339193
451 2 0.492518 0.229416 0.347796
406 2 0.0213844 0.314795 0.34201
408 4 0.0282297 0.303446 0.363212
275 4 0.127799 0.290735 0.356312
617 4 0.127763 0.307366 0.367964
274 2 0.15192 0.288408 0.362474
616 2 0.110679 0.324218 0.374985
435 4 0.197897 0.333411 0.329504
276 4 0.17604 0.286081 0.368636
374 4 0.21721 0.275436 0.408241
373 2 0.203075 0.288618 0.392379
375 4 0.188941 0.301801 0.376517
615 4 0.411825 0.320897 0.342305
266 4 0.326626 0.305953 0.430271
267 4 0.360759 0.276847 0.408169
265 2 0.343693 0.2914 0.41922
468 4 0.355199 0.256592 0.408341
752 4 0.492255 0.328756 0.352059
613 2 0.431048 0.331255 0.354485
614 4 0.450272 0.341613 0.366664
347 4 0.0768891 0.34979 0.37577
346 2 0.0654166 0.347999 0.397914
618 4 0.0935937 0.341071 0.382005
433 2 0.191308 0.34692 0.349486
434 4 0.184719 0.36043 0.369467
502 2 0.311016 0.410534 0.411419
240 4 0.408376 0.424181 0.412717
776 4 0.0625149 0.448359 0.340351
413 4 0.115127 0.487039 0.344794
414 4 0.0688985 0.468395 0.340793
1544 4 0.133584 0.490625 0.339739
412 2 0.092013 0.477717 0.342793
503 4 0.32248 0.428505 0.39835
669 4 0.332171 0.444197 0.403524
667 2 0.328377 0.467452 0.411888
335 4 0.391595 0.42329 0.399918
336 4 0.34222 0.429676 0.395217
334 2 0.366907 0.426483 0.397567
3990 4 0.485094 0.480859 0.368013
1781 4 0.0739755 0.00392665 0.473779
1127 4 0.00602291 0.0600499 0.45512
2237 4 0.010173 0.061259 0.435888
720 4 0.0244619 0.0627207 0.449495
718 2 0.0350845 0.0803507 0.463691
1523 4 0.0566304 0.0108713 0.481894
1780 2 0.0882362 0.0188061 0.459622
368 4 0.107563 0.0383192 0.426914
1782 4 0.102497 0.0336855 0.445465
341 4 0.173377 0.0145275 0.495733
2430 4 0.185504 0.999881 0.488827
724 2 0.291474 0.0462704 0.486539
726 4 0.288148 0.0684793 0.475544
725 4 0.294799 0.0240614 0.497533
963 4 0.28226 0.0107276 0.490917
1182 4 0.280399 0.0751706 0.457659
1579 2 0.393533 0.00942985 0.419481
2879 4 0.418551 0.0375183 0.488903
642 4 0.456287 0.061373 0.442704
2878 2 0.427499 0.0479401 0.46801
2880 4 0.436447 0.0583619 0.447118
640 2 0.464477 0.084448 0.43764
470 4 0.9987 0.157412 0.487339
719 4 0.0457071 0.0979806 0.477887
939 4 0.09921 0.139522 0.487136
1033 2 0.118358 0.131304 0.465488
1035 4 0.142926 0.128767 0.461592
261 4 0.158051 0.139091 0.472479
1034 4 0.0937905 0.133841 0.469383
259 2 0.167717 0.162007 0.469912
684 4 0.290294 0.120349 0.411839
1180 2 0.287901 0.0886563 0.437986
1181 4 0.295403 0.102142 0.418313
641 4 0.472667 0.107523 0.432575
306 4 0.477602 0.125169 0.437707
304 2 0.476925 0.134906 0.460727
3158 4 0.45922 0.152717 0.487894
305 4 0.476249 0.144643 0.483747
694 2 0.152022 0.219882 0.475076
696 4 0.13902 0.239201 0.484182
695 4 0.165024 0.200564 0.46597
260 4 0.177383 0.184923 0.467345
472 2 0.235444 0.245453 0.433786
599 4 0.238461 0.211423 0.438547
687 4 0.227375 0.211906 0.454565
686 4 0.182481 0.20191 0.474193
685 2 0.204928 0.206908 0.464379
411 4 0.247214 0.212267 0.456327
598 2 0.246285 0.190231 0.42783
474 4 0.248936 0.226719 0.443387
409 2 0.258885 0.216008 0.47812
488 4 0.2663 0.232269 0.433729
487 2 0.287229 0.235984 0.420561
466 2 0.359018 0.235222 0.420747
467 4 0.362837 0.213852 0.433154
473 4 0.221952 0.264187 0.424184
813 4 0.235721 0.304847 0.472877
811 2 0.247157 0.315849 0.492199
2812 2 0.015481 0.336897 0.432426
348 4 0.0539441 0.346208 0.420058
2813 4 0.0390048 0.34537 0.432575
326 4 0.0561048 0.352317 0.438172
325 2 0.0765222 0.352421 0.452604
327 4 0.0969397 0.352524 0.467037
10 3 0.125572 0.357968 0.504915
7 3 0.111331 0.366625 0.471522
6 1 0.114742 0.374083 0.493013
711 4 0.137675 0.409795 0.491156
8 3 0.127599 0.393386 0.492302
709 2 0.162112 0.410341 0.485893
9 3 0.0941672 0.378623 0.502732
774 4 0.20314 0.419231 0.486392
772 2 0.223122 0.415547 0.500964
504 4 0.299552 0.392563 0.424488
1383 4 0.0632918 0.481883 0.461972
680 4 0.0591513 0.470097 0.477425
1381 2 0.0551487 0.495464 0.442622
679 2 0.0703974 0.45914 0.496884
635 4 0.194004 0.426995 0.471745
636 4 0.191486 0.475052 0.458146
710 4 0.186549 0.410888 0.480631
634 2 0.192745 0.451023 0.464946
668 4 0.324582 0.490708 0.420252
4 3 0.324268 0.496238 0.438925
238 2 0.405866 0.435859 0.434683
588 4 0.382983 0.446774 0.463347
239 4 0.403356 0.447537 0.456649
586 2 0.388481 0.43854 0.486307
1184 4 0.00518101 0.0146592 0.550347
342 4 0.16962 0.0530598 0.527385
1152 4 0.152343 0.0631947 0.530853
1150 2 0.162035 0.0706021 0.552679
340 2 0.171498 0.0337937 0.511559
1151 4 0.171727 0.0780096 0.574505
430 2 0.321068 0.00476611 0.508977
432 4 0.297074 0.00565802 0.502
841 2 0.366725 0.0239265 0.549797
842 4 0.379947 0.0341409 0.568399
1216 2 0.410703 0.0117229 0.579268
1217 4 0.395465 0.0315114 0.58045
843 4 0.353504 0.0137122 0.531195
431 4 0.345062 0.00387419 0.515953
2195 4 0.359732 0.996267 0.52644
3009 4 0.507474 0.0492664 0.576474
879 4 0.0571759 0.165768 0.526649
877 2 0.0323221 0.167385 0.528853
878 4 0.00746843 0.169002 0.531057
938 4 0.0730731 0.154109 0.527196
937 2 0.0861415 0.146815 0.507166
858 4 0.300728 0.164016 0.582172
3159 4 0.461521 0.141707 0.53662
3157 2 0.460371 0.147212 0.512257
1062 4 0.475392 0.126707 0.538139
1272 4 0.0715909 0.16834 0.539998
1270 2 0.0833236 0.182437 0.556991
1271 4 0.0950563 0.196534 0.573985
1258 2 0.130629 0.236048 0.52258
1259 4 0.119788 0.243029 0.544002
1260 4 0.141469 0.229067 0.501157
898 2 0.296194 0.222377 0.525827
899 4 0.313842 0.211191 0.53956
857 4 0.309187 0.191628 0.541347
856 2 0.304958 0.177822 0.561759
791 4 0.326702 0.198057 0.544556
410 4 0.270556 0.219749 0.499914
900 4 0.278546 0.233563 0.512093
790 2 0.344888 0.214218 0.550321
792 4 0.363075 0.23038 0.556086
872 4 0.365883 0.248313 0.548508
1238 4 0.363537 0.245309 0.567401
649 2 0.284919 0.332651 0.538767
651 4 0.297232 0.327154 0.559823
812 4 0.258593 0.32685 0.511522
806 4 0.303932 0.334455 0.577373
871 2 0.378174 0.257425 0.528732
1237 2 0.3496 0.264056 0.576317
873 4 0.390465 0.266537 0.508956
1135 2 0.127293 0.386786 0.567506
1136 4 0.116453 0.386032 0.544987
1137 4 0.138134 0.387541 0.590024
773 4 0.243104 0.411864 0.515536
1189 2 0.229323 0.407431 0.556223
1190 4 0.241917 0.408235 0.534637
803 4 0.242795 0.393476 0.52188
1191 4 0.216728 0.406627 0.577808
802 2 0.249522 0.369994 0.516539
930 4 0.258379 0.404459 0.524947
650 4 0.272605 0.338148 0.517712
804 4 0.25625 0.346512 0.511197
925 2 0.43341 0.411161 0.507778
927 4 0.454122 0.397255 0.509458
539 4 0.0755353 0.49566 0.499918
681 4 0.0816434 0.448182 0.516342
383 4 0.0957912 0.43491 0.526826
382 2 0.117496 0.429178 0.515815
384 4 0.1392 0.423447 0.504803
569 4 0.145246 0.439583 0.512413
568 2 0.16548 0.451765 0.520621
570 4 0.185714 0.463946 0.52883
1159 2 0.181888 0.485798 0.578699
928 2 0.275987 0.421874 0.528389
929 4 0.293595 0.439289 0.53183
1951 2 0.307881 0.47445 0.529549
1953 4 0.311731 0.450015 0.533192
1952 4 0.30403 0.498886 0.525905
926 4 0.412698 0.425067 0.506097
1000 2 0.4003 0.497576 0.574279
663 4 0.40872 0.442794 0.513767
587 4 0.393979 0.430306 0.509267
1001 4 0.419554 0.483709 0.566394
661 2 0.416534 0.457598 0.53234
662 4 0.424349 0.472402 0.550914
1911 4 0.43176 0.469105 0.568271
1332 4 0.437449 0.484788 0.559236
1330 2 0.456911 0.495694 0.547946
1059 4 0.174719 0.0658859 0.589314
2375 4 0.167399 0.003768 0.614518
1155 4 0.167022 0.0840389 0.59215
1058 4 0.171648 0.0233731 0.615467
1057 2 0.173184 0.0446295 0.602391
949 2 0.264822 0.0133624 0.635207
951 4 0.278192 0.0317168 0.645672
1031 4 0.282569 0.032477 0.665895
3007 2 0.499822 0.0698979 0.588348
43 3 0.433456 0.0626227 0.655196
1154 4 0.150504 0.126905 0.611908
1221 4 0.161622 0.136173 0.625548
1153 2 0.158763 0.105472 0.602029
1219 2 0.178082 0.15399 0.619483
808 2 0.485995 0.0878303 0.6413
1245 4 0.0965423 0.18492 0.634628
1244 4 0.107017 0.184884 0.58573
1243 2 0.10178 0.184902 0.610179
1209 4 0.105376 0.194086 0.650598
1210 2 0.231089 0.172525 0.638849
1212 4 0.21118 0.173685 0.623767
1220 4 0.194541 0.171808 0.613418
797 4 0.189176 0.234992 0.60291
796 2 0.196242 0.2121 0.610065
798 4 0.203307 0.189208 0.61722
888 4 0.261728 0.168855 0.6714
1211 4 0.250998 0.171366 0.653931
1193 4 0.427652 0.203862 0.651873
3121 2 0.466559 0.216846 0.633954
3122 4 0.470673 0.192733 0.639135
3357 4 0.477832 0.175594 0.645026
3355 2 0.496289 0.166338 0.659127
983 4 0.0198131 0.285691 0.642885
982 2 0.0327575 0.306354 0.648422
984 4 0.045702 0.327018 0.653958
3263 4 0.063343 0.324569 0.662825
805 2 0.310345 0.310882 0.582695
807 4 0.316759 0.287308 0.588018
1239 4 0.335664 0.282803 0.585234
3123 4 0.462446 0.240958 0.628772
906 4 0.449129 0.300631 0.598619
905 4 0.465734 0.257697 0.618157
904 2 0.457432 0.279164 0.608388
953 4 0.464919 0.312432 0.605179
1041 4 0.0560968 0.342406 0.658354
1039 2 0.0549233 0.361732 0.642533
1040 4 0.0537498 0.381057 0.626711
993 4 0.0685067 0.390625 0.615678
991 2 0.0490579 0.405291 0.610035
992 4 0.0296091 0.419956 0.604393
897 4 0.155932 0.379443 0.587888
895 2 0.17727 0.392298 0.585734
896 4 0.198607 0.405153 0.583579
1028 4 0.198424 0.391242 0.65803
1027 2 0.202812 0.399578 0.634869
1029 4 0.2072 0.407915 0.611708
1172 4 0.210536 0.415953 0.593898
952 2 0.481716 0.329692 0.598458
1206 4 0.486253 0.415021 0.627544
1160 4 0.198955 0.480954 0.596319
1171 2 0.20863 0.440406 0.598756
1173 4 0.206725 0.464859 0.603614
1187 4 0.194581 0.477252 0.61401
1186 2 0.183739 0.472739 0.636084
1188 4 0.172896 0.468226 0.658158
2167 2 0.473243 0.495821 0.64775
1909 2 0.430136 0.453862 0.588025
1268 4 0.437742 0.477246 0.662068
1267 2 0.432097 0.460783 0.644116
2168 4 0.451497 0.483526 0.646699
1204 2 0.462539 0.42234 0.624504
1910 4 0.428511 0.438619 0.607779
1269 4 0.426453 0.444319 0.626164
1205 4 0.438825 0.42966 0.621464
1284 4 0.0883454 0.0623362 0.710468
1282 2 0.106622 0.0763275 0.700701
2047 2 0.158135 0.00297249 0.733421
2254 2 0.209197 0.00131646 0.714657
2256 4 0.188765 0.00875539 0.727
2049 4 0.172743 0.0136828 0.716185
1201 2 0.18493 0.0528367 0.725691
1202 4 0.18417 0.0279159 0.723805
1203 4 0.185691 0.0777574 0.727576
1030 2 0.291413 0.0556011 0.669395
1032 4 0.300256 0.0787252 0.672894
1005 4 0.351502 0.0263083 0.710422
1003 2 0.344864 0.0109271 0.69186
45 3 0.452536 0.0425652 0.680717
41 1 0.444143 0.0631539 0.675785
810 4 0.47539 0.0835649 0.663538
1162 2 0.496404 0.0565729 0.686807
1163 4 0.477317 0.0673665 0.674791
44 3 0.46127 0.0788044 0.675418
42 3 0.428901 0.0691873 0.691922
1076 4 0.996737 0.0901182 0.720611
1077 4 0.0403391 0.109737 0.735261
1075 2 0.0185379 0.0999279 0.727936
864 4 0.0575866 0.110738 0.744443
909 4 0.102959 0.154412 0.697955
907 2 0.113412 0.13173 0.696755
908 4 0.123865 0.109048 0.695555
1283 4 0.124899 0.0903189 0.690935
1227 4 0.141538 0.102117 0.691086
1225 2 0.160095 0.0987233 0.707496
851 4 0.0948421 0.163969 0.71224
1148 4 0.196069 0.0894522 0.715832
1226 4 0.178652 0.0953301 0.723907
1147 2 0.214055 0.10011 0.729547
1149 4 0.23204 0.110767 0.743262
829 2 0.325271 0.148668 0.717751
830 4 0.302253 0.156379 0.723741
887 4 0.288696 0.165668 0.713391
831 4 0.34829 0.140956 0.711761
1142 4 0.367589 0.1475 0.713088
1141 2 0.387901 0.162005 0.711596
1143 4 0.408213 0.17651 0.710103
1025 4 0.46535 0.140983 0.708005
3424 2 0.479623 0.10863 0.691379
3426 4 0.478443 0.0852093 0.682704
3425 4 0.480803 0.13205 0.700055
3269 4 0.480876 0.136498 0.718553
1024 2 0.446413 0.157272 0.709134
3268 2 0.489277 0.144737 0.740615
852 4 0.0496498 0.175401 0.730342
1214 4 0.0392695 0.188859 0.719331
850 2 0.072246 0.169685 0.721291
1213 2 0.0149033 0.192165 0.723862
1208 4 0.0960028 0.172316 0.694632
1207 2 0.100689 0.183201 0.672615
1107 4 0.111515 0.169907 0.705292
1105 2 0.128382 0.179384 0.721132
1106 4 0.145248 0.188861 0.736971
1130 4 0.156474 0.199164 0.750858
978 4 0.289198 0.167935 0.732721
886 2 0.275212 0.167262 0.692395
976 2 0.29805 0.187238 0.745921
916 2 0.303279 0.243327 0.738171
1192 2 0.423345 0.194725 0.674745
1194 4 0.419038 0.185588 0.697617
1262 4 0.419946 0.190756 0.716658
1261 2 0.427242 0.195239 0.740149
1026 4 0.427476 0.17356 0.710264
3262 2 0.0692558 0.326447 0.687047
3264 4 0.0751685 0.328325 0.711268
893 4 0.0787526 0.336128 0.728294
779 4 0.0811919 0.317436 0.727097
778 2 0.103388 0.305982 0.725953
780 4 0.125584 0.294527 0.724809
1065 4 0.22727 0.313158 0.668902
1063 2 0.243957 0.307857 0.686752
1064 4 0.260645 0.302557 0.704601
947 4 0.317084 0.268247 0.703402
946 2 0.295263 0.279435 0.69852
948 4 0.273442 0.290623 0.693637
917 4 0.304894 0.260905 0.720463
1008 4 0.480626 0.278474 0.707746
1006 2 0.469558 0.278275 0.730166
1067 4 0.153648 0.395644 0.710867
940 2 0.137688 0.393023 0.75177
941 4 0.151183 0.392925 0.730722
1066 2 0.169675 0.391932 0.692038
1068 4 0.185702 0.388221 0.673209
1236 4 0.253281 0.347005 0.744191
1176 4 0.157791 0.484869 0.716928
1175 4 0.16704 0.458827 0.675251
1174 2 0.162415 0.471848 0.69609
1139 4 0.294636 0.475757 0.693997
1138 2 0.306534 0.46342 0.712201
1140 4 0.318433 0.451083 0.730406
1229 4 0.324239 0.432792 0.727134
1989 4 0.322621 0.439891 0.745651
1100 4 0.388552 0.44053 0.739592
1228 2 0.349086 0.431194 0.729427
1230 4 0.373933 0.429597 0.731719
1099 2 0.409496 0.452567 0.733141
1101 4 0.43044 0.464605 0.726691
3330 4 0.448089 0.458856 0.720529
3328 2 0.462003 0.444329 0.705677
1251 4 0.446849 0.473351 0.732982
3329 4 0.475916 0.429803 0.690825
834 4 0.0387907 0.0744523 0.822951
2321 4 0.434486 0.0100567 0.80161
2322 4 0.440832 0.0568547 0.785166
2320 2 0.437659 0.0334557 0.793388
846 4 0.43581 0.0712943 0.771377
862 2 0.0611775 0.118806 0.767835
863 4 0.0647684 0.126873 0.791228
833 4 0.0575058 0.117836 0.80657
1125 4 0.0707337 0.132332 0.808483
1123 2 0.080309 0.152565 0.819623
832 2 0.0481483 0.0961441 0.81476
911 4 0.117038 0.0947466 0.812989
910 2 0.121619 0.113024 0.829425
1257 4 0.23017 0.129769 0.748957
1255 2 0.22968 0.130977 0.773927
921 4 0.216449 0.143698 0.808368
919 2 0.202701 0.162477 0.817507
840 4 0.23208 0.137366 0.817363
1256 4 0.22919 0.132185 0.798896
1113 4 0.352421 0.0900217 0.792658
1111 2 0.357641 0.100793 0.814611
1112 4 0.362861 0.111565 0.836563
844 2 0.433872 0.0924361 0.758169
845 4 0.431935 0.113578 0.744961
1129 2 0.159872 0.214913 0.769979
34 3 0.133133 0.179152 0.835986
1131 4 0.16327 0.230661 0.7891
1277 4 0.169754 0.229163 0.807648
1276 2 0.173229 0.209628 0.822862
920 4 0.188953 0.181256 0.826645
822 4 0.172745 0.244875 0.79719
977 4 0.306902 0.206541 0.75912
918 4 0.301663 0.225749 0.755879
1298 4 0.300631 0.217543 0.773261
1297 2 0.299202 0.212861 0.797781
1299 4 0.297773 0.208178 0.822301
1086 4 0.312282 0.193952 0.824954
50 3 0.40098 0.194685 0.793884
46 1 0.42346 0.197733 0.795885
49 3 0.428538 0.220333 0.794518
1043 4 0.438412 0.215215 0.775605
48 3 0.430838 0.189168 0.816148
47 3 0.434158 0.186661 0.778794
1263 4 0.434538 0.199722 0.763641
1146 4 0.490371 0.17039 0.769375
1145 4 0.449315 0.198528 0.774219
1144 2 0.469843 0.184459 0.771797
1042 2 0.445876 0.237496 0.767058
821 4 0.206849 0.281015 0.791578
820 2 0.189797 0.262945 0.794384
1098 4 0.265913 0.33274 0.807429
1096 2 0.255182 0.328536 0.829617
1044 4 0.45334 0.259776 0.758511
1007 4 0.45849 0.278075 0.752585
1165 2 0.487004 0.271239 0.783692
1166 4 0.468223 0.269369 0.767292
892 2 0.0683398 0.347159 0.748171
3275 4 0.0126815 0.35015 0.810055
894 4 0.0579271 0.358189 0.768048
3276 4 0.0564055 0.358494 0.787267
3274 2 0.0345435 0.354322 0.798661
816 4 0.0713238 0.368294 0.779374
814 2 0.0940619 0.377366 0.784458
942 4 0.124193 0.393121 0.772819
815 4 0.1168 0.386439 0.789542
1080 4 0.135047 0.392236 0.788641
1078 2 0.1497 0.40421 0.804985
1235 4 0.257438 0.343381 0.793893
1234 2 0.25536 0.345193 0.769042
1020 4 0.405406 0.399289 0.785364
1018 2 0.393871 0.411965 0.767159
1016 4 0.399188 0.392702 0.804261
1015 2 0.410409 0.383087 0.824431
883 2 0.0520306 0.460799 0.77329
849 4 0.0433382 0.464777 0.816418
885 4 0.0440942 0.465817 0.796464