ITEM: TIMESTEP
1170000
ITEM: NUMBER OF ATOMS
4590
ITEM: BOX BOUNDS pp pp pp
-9.9985700000000008e+00 9.9985700000000008e+00
-9.9985700000000008e+00 9.9985700000000008e+00
-9.9985700000000008e+00 9.9985700000000008e+00
ITEM: ATOMS id type xs ys zs
463 2 0.0506002 0.0724416 0.0298111
465 4 0.061067 0.0561812 0.0456611
701 4 0.0812507 0.0529761 0.0444128
700 2 0.102493 0.0642871 0.0511971
702 4 0.123734 0.0755981 0.0579814
491 4 0.284153 0.0273801 0.0330415
2264 4 0.274294 0.0352902 0.0175561
490 2 0.285008 0.00454918 0.0432001
745 2 0.461602 0.0508878 0.00513056
746 4 0.466063 0.0490175 0.0296618
2469 4 0.480292 0.035033 0.0302893
2467 2 0.495517 0.0173224 0.0392187
464 4 0.0401334 0.088702 0.013961
589 2 0.00214911 0.126864 0.0798157
590 4 0.0140268 0.115131 0.0612032
566 4 0.131552 0.0876104 0.0727
422 4 0.11169 0.108176 0.0054361
360 4 0.236503 0.164007 0.0119526
827 4 0.40025 0.124905 0.016311
866 4 0.385167 0.138735 0.019026
865 2 0.364882 0.152886 0.0153613
771 4 0.430773 0.146522 0.0681585
554 4 0.0326689 0.201189 0.0411613
553 2 0.051363 0.207873 0.0259618
555 4 0.0700571 0.214558 0.0107622
836 4 0.0844946 0.220162 0.0247037
835 2 0.104322 0.230715 0.013718
837 4 0.124149 0.241269 0.00273241
666 4 0.318562 0.219281 0.024898
664 2 0.324196 0.197521 0.0139464
573 4 0.312058 0.236556 0.0324307
461 4 0.312723 0.219963 0.0427709
460 2 0.3171 0.218333 0.0673344
665 4 0.329829 0.175761 0.00299479
1070 4 0.409853 0.235466 0.0190858
867 4 0.344596 0.167037 0.0116965
1071 4 0.430119 0.239265 0.0646442
1012 2 0.491525 0.200791 0.0812434
1069 2 0.419986 0.237366 0.041865
294 4 0.0641092 0.292253 0.0533591
292 2 0.0881978 0.298864 0.0522553
507 4 0.128794 0.313209 0.0597364
293 4 0.112286 0.305474 0.0511514
505 2 0.152625 0.310572 0.0526421
506 4 0.176456 0.307936 0.0455479
483 4 0.197406 0.308053 0.0477972
355 2 0.289363 0.323021 0.00807182
571 2 0.306581 0.260036 0.0258053
356 4 0.292697 0.298252 0.00731191
572 4 0.301104 0.283515 0.0191798
324 4 0.435948 0.258421 0.0594584
322 2 0.440498 0.282639 0.0636966
672 4 0.4451 0.317261 0.0512131
323 4 0.445049 0.306857 0.0679348
519 4 0.49546 0.278946 0.0806396
620 4 0.0165938 0.355576 0.0760697
455 4 0.123703 0.360095 0.0864989
481 2 0.202052 0.332564 0.0494638
609 4 0.220727 0.368462 0.0593217
607 2 0.241709 0.377367 0.049043
482 4 0.206698 0.357076 0.0511305
357 4 0.28603 0.347789 0.00883173
252 4 0.272474 0.404181 0.0319314
608 4 0.26269 0.386273 0.0387643
250 2 0.29284 0.413699 0.0209862
957 4 0.381989 0.328905 0.010497
741 4 0.388072 0.350253 0.0734903
670 2 0.460397 0.334641 0.0606528
671 4 0.475693 0.352022 0.0700925
281 4 0.489486 0.365671 0.070978
280 2 0.478274 0.38703 0.0775528
282 4 0.467062 0.40839 0.0841276
2651 4 0.488218 0.352324 0.0851404
551 4 0.0957196 0.434479 0.0526464
550 2 0.101891 0.457444 0.0603729
552 4 0.108062 0.480409 0.0680994
1787 4 0.103846 0.497705 0.0599343
242 4 0.11717 0.496832 0.0745203
244 2 0.252688 0.486175 0.0598575
251 4 0.313207 0.423217 0.010041
246 4 0.258537 0.49246 0.0363742
272 4 0.264043 0.501587 0.0196066
271 2 0.261274 0.481669 0.004747
523 2 0.35619 0.495726 0.0586213
524 4 0.345757 0.497625 0.0359777
525 4 0.366622 0.493827 0.081265
226 2 0.447351 0.464591 0.0428805
228 4 0.444336 0.463836 0.0180709
227 4 0.450367 0.465347 0.06769
16 1 0.0610973 0.0641604 0.149018
20 3 0.0409033 0.0609191 0.139001
1806 4 0.0840408 0.0376565 0.128577
18 3 0.0751442 0.0462547 0.144493
2576 4 0.0193112 0.0303144 0.10659
1804 2 0.0863992 0.0172431 0.114333
1805 4 0.0887575 0.99683 0.100088
567 4 0.159811 0.0529676 0.0951061
565 2 0.145682 0.070289 0.083903
450 4 0.182168 0.0606911 0.133559
1505 4 0.191718 0.0487507 0.146486
652 2 0.299531 0.0195387 0.111629
653 4 0.282749 0.0267708 0.0945634
654 4 0.316312 0.0123066 0.128695
556 2 0.342883 0.0844245 0.0982187
557 4 0.356832 0.0638315 0.0956645
296 4 0.3766 0.0615478 0.0936548
295 2 0.387292 0.0422342 0.105395
297 4 0.397985 0.0229206 0.117136
485 4 0.396742 0.00258361 0.115988
17 3 0.0706554 0.0833832 0.140755
2625 4 0.001219 0.153535 0.161131
237 4 0.149377 0.152035 0.146189
578 4 0.138154 0.1385 0.154407
577 2 0.120865 0.120788 0.157953
448 2 0.185645 0.0853865 0.135356
235 2 0.171091 0.140685 0.141203
236 4 0.192805 0.129335 0.136217
693 4 0.197549 0.119912 0.152231
449 4 0.189121 0.110082 0.137154
558 4 0.328934 0.105017 0.100773
769 2 0.448394 0.160377 0.0792368
337 2 0.0667548 0.192383 0.140837
339 4 0.0485205 0.182346 0.126982
338 4 0.0849891 0.202419 0.154691
476 4 0.140908 0.189564 0.130171
475 2 0.121692 0.195003 0.145215
477 4 0.102476 0.200443 0.160259
737 4 0.156746 0.20024 0.123559
736 2 0.167702 0.220999 0.114943
738 4 0.178658 0.241757 0.106327
284 4 0.271162 0.196233 0.15691
283 2 0.294993 0.190624 0.151828
285 4 0.318823 0.185015 0.146746
462 4 0.321478 0.216704 0.0918978
255 4 0.335038 0.208538 0.104961
254 4 0.375326 0.211846 0.1344
253 2 0.355182 0.210192 0.11968
630 4 0.379768 0.21236 0.154975
628 2 0.398597 0.196764 0.149739
770 4 0.466016 0.174231 0.0903151
1014 4 0.471704 0.191698 0.0934743
629 4 0.417426 0.181168 0.144503
749 4 0.108939 0.296129 0.161632
352 2 0.325806 0.287266 0.135615
353 4 0.312347 0.299119 0.153037
754 2 0.288632 0.328155 0.160391
755 4 0.294071 0.305735 0.150748
278 4 0.298497 0.290634 0.162688
354 4 0.339266 0.275413 0.118193
526 2 0.484866 0.293092 0.157586
517 2 0.499152 0.278275 0.10536
518 4 0.502845 0.277605 0.13008
647 4 0.0255854 0.346886 0.0905259
646 2 0.0469391 0.341787 0.102492
648 4 0.0682928 0.336688 0.114459
456 4 0.0768834 0.351216 0.101657
454 2 0.100293 0.355655 0.094078
537 4 0.215721 0.376519 0.12498
535 2 0.197785 0.373821 0.107769
536 4 0.17985 0.371124 0.0905584
611 4 0.231886 0.378828 0.135698
610 2 0.249023 0.369352 0.151245
612 4 0.26616 0.359877 0.166793
387 4 0.325626 0.397341 0.14083
302 4 0.328107 0.409134 0.156397
739 2 0.381606 0.354711 0.0972283
740 4 0.37514 0.35917 0.120966
15 3 0.377896 0.364215 0.139487
385 2 0.346983 0.386393 0.133818
386 4 0.368341 0.375445 0.126806
11 1 0.396651 0.368005 0.151838
12 3 0.412862 0.352822 0.145851
14 3 0.404588 0.389433 0.147807
495 4 0.425832 0.392288 0.148151
1467 4 0.00376906 0.455195 0.128715
1465 2 0.0268429 0.464707 0.127197
1466 4 0.0499168 0.474219 0.125679
1791 4 0.0490425 0.493726 0.124676
245 4 0.246838 0.479891 0.0833407
627 4 0.231949 0.478603 0.0961062
625 2 0.218502 0.45756 0.09736
626 4 0.205056 0.436517 0.0986138
639 4 0.20632 0.502645 0.135416
637 2 0.229545 0.500041 0.144303
767 4 0.25463 0.478204 0.153416
766 2 0.271958 0.460395 0.1562
768 4 0.289287 0.442586 0.158984
301 2 0.315756 0.429794 0.163164
660 4 0.415776 0.459518 0.139534
494 4 0.423923 0.44116 0.137731
1673 4 0.448006 0.492515 0.113359
493 2 0.424877 0.416724 0.142941
658 2 0.429929 0.470061 0.157246
2480 4 0.0175637 0.0225949 0.208358
19 3 0.0582911 0.0664321 0.171939
1422 4 0.0277351 0.0129306 0.193166
380 4 0.0466085 0.0788579 0.182986
673 2 0.143618 0.0660424 0.201017
675 4 0.127324 0.0489257 0.192849
689 4 0.183508 0.0174961 0.195571
1506 4 0.170301 0.0307937 0.187953
1504 2 0.181009 0.0397722 0.167219
688 2 0.196201 0.000946519 0.209362
21 1 0.392969 0.0109836 0.231359
25 3 0.407002 0.027454 0.224257
759 4 0.409844 0.0464558 0.219878
757 2 0.398771 0.0688696 0.219455
22 3 0.375668 0.00878154 0.21636
351 4 0.470495 0.0182429 0.236765
349 2 0.447772 0.027101 0.231251
350 4 0.42505 0.0359591 0.225737
2483 4 0.994507 0.141142 0.174264
512 4 0.0374099 0.133489 0.207101
379 2 0.0348885 0.099191 0.191611
381 4 0.0231686 0.119524 0.200235
511 2 0.0426762 0.15752 0.211569
579 4 0.103576 0.103077 0.161499
674 4 0.159911 0.0831592 0.209184
546 4 0.166041 0.156704 0.249939
691 2 0.213938 0.11608 0.170722
692 4 0.230326 0.112249 0.189214
582 4 0.240357 0.112203 0.206709
722 4 0.181554 0.159631 0.240024
580 2 0.264466 0.117062 0.211215
581 4 0.288576 0.121921 0.21572
30 3 0.306858 0.127432 0.217069
26 1 0.327318 0.120719 0.224485
28 3 0.332832 0.100247 0.215057
29 3 0.327179 0.119003 0.247625
27 3 0.343101 0.136259 0.218275
758 4 0.387698 0.0912835 0.219032
312 4 0.47546 0.151589 0.181611
310 2 0.453004 0.141049 0.178483
311 4 0.430547 0.130509 0.175355
513 4 0.0479425 0.18155 0.216037
544 2 0.143764 0.165607 0.242891
363 4 0.0897408 0.206867 0.173263
545 4 0.121488 0.17451 0.235843
362 4 0.0975496 0.22487 0.219259
361 2 0.0936452 0.215868 0.196261
372 4 0.112554 0.233962 0.210981
370 2 0.1301 0.242847 0.226421
723 4 0.20389 0.17262 0.197209
721 2 0.192722 0.166126 0.218616
279 4 0.271743 0.258185 0.189743
765 4 0.397104 0.223126 0.158272
763 2 0.397383 0.245487 0.169455
521 4 0.472784 0.181854 0.244048
395 4 0.0741972 0.283209 0.217721
750 4 0.0783379 0.279143 0.197349
394 2 0.0559332 0.282552 0.234785
748 2 0.0936384 0.287636 0.17949
371 4 0.147645 0.251731 0.241861
277 2 0.28512 0.27441 0.176215
309 4 0.332987 0.28772 0.18443
308 4 0.324044 0.279183 0.232884
307 2 0.328515 0.283452 0.208657
764 4 0.397663 0.267849 0.180638
623 4 0.404392 0.286957 0.177011
528 4 0.463174 0.302666 0.16552
622 2 0.429117 0.289992 0.179157
624 4 0.453843 0.293027 0.181303
262 2 0.0625904 0.389754 0.22005
264 4 0.0536139 0.375999 0.201198
263 4 0.0715669 0.403509 0.238902
300 4 0.14417 0.334079 0.209061
298 2 0.138776 0.348308 0.2289
602 4 0.0916397 0.406546 0.237029
290 4 0.209533 0.403084 0.195095
756 4 0.283193 0.350574 0.170033
13 3 0.391924 0.365424 0.174407
447 4 0.492067 0.364716 0.212763
643 2 0.482144 0.401747 0.194219
644 4 0.482362 0.377268 0.199309
289 2 0.204464 0.42388 0.208018
417 4 0.173622 0.495472 0.21734
415 2 0.177593 0.470913 0.214837
291 4 0.199395 0.444676 0.220942
416 4 0.181565 0.446354 0.212334
303 4 0.303406 0.450455 0.169931
230 4 0.402643 0.500529 0.221117
645 4 0.481927 0.426226 0.189128
597 4 0.482962 0.43813 0.205963
595 2 0.470421 0.457896 0.197177
596 4 0.457879 0.477663 0.188391
1568 4 0.45523 0.495766 0.180643
659 4 0.444081 0.480605 0.174959
231 4 0.442094 0.488253 0.192945
229 2 0.422369 0.494391 0.207031
1799 4 0.0299345 0.0280085 0.323577
233 4 0.0192574 0.033781 0.308329
1402 2 0.0581627 0.0289155 0.294468
1403 4 0.0389098 0.0367144 0.308385
232 2 0.00294912 0.0343557 0.289384
1404 4 0.0774156 0.0211166 0.280551
1699 2 0.196045 0.0554846 0.306767
1701 4 0.192099 0.0322195 0.315033
1700 4 0.199992 0.0787498 0.2985
23 3 0.384226 0.0164489 0.252146
697 2 0.387644 0.0353959 0.320498
699 4 0.38625 0.018042 0.302552
1518 4 0.36786 0.0208943 0.295629
633 4 0.373323 0.0635783 0.337545
744 4 0.47991 0.0277621 0.253022
742 2 0.489689 0.0337245 0.275249
478 2 0.470842 0.0397038 0.329153
479 4 0.490372 0.0351699 0.314213
398 4 0.0711854 0.141993 0.319425
248 4 0.20953 0.0851585 0.313774
249 4 0.228294 0.127225 0.294305
247 2 0.218912 0.106192 0.30404
404 4 0.210773 0.136729 0.292046
403 2 0.196414 0.149343 0.275925
405 4 0.182055 0.161956 0.259803
632 4 0.338269 0.0978546 0.327694
631 2 0.355796 0.0807164 0.33262
333 4 0.450246 0.133532 0.293011
331 2 0.456851 0.157552 0.290861
444 4 0.0456758 0.237035 0.295018
393 4 0.0847951 0.170899 0.29108
392 4 0.110587 0.183992 0.250287
391 2 0.0976909 0.177445 0.270683
390 4 0.102836 0.172343 0.301429
388 2 0.10109 0.181206 0.324743
715 2 0.401943 0.250803 0.333641
420 4 0.424137 0.223961 0.32607
332 4 0.463456 0.181571 0.288712
418 2 0.440187 0.21072 0.312205
419 4 0.456237 0.197479 0.29834
760 2 0.496245 0.208653 0.289282
762 4 0.473207 0.198938 0.289041
364 2 0.00806166 0.310109 0.269009
396 4 0.0376691 0.281895 0.251849
442 2 0.0373179 0.256272 0.281408
443 4 0.02896 0.27551 0.267797
365 4 0.0237366 0.292979 0.259735
401 4 0.203458 0.278474 0.270814
400 2 0.222297 0.284638 0.286054
402 4 0.241135 0.290803 0.301295
510 4 0.241352 0.305521 0.313978
508 2 0.23361 0.328943 0.31806
345 4 0.254246 0.291077 0.316414
343 2 0.263704 0.269703 0.325297
344 4 0.273161 0.24833 0.33418
497 4 0.330394 0.275194 0.262257
498 4 0.347558 0.317496 0.282669
496 2 0.338976 0.296345 0.272463
541 2 0.415137 0.305616 0.296632
543 4 0.3982 0.322808 0.290092
716 4 0.385576 0.267722 0.325211
542 4 0.432074 0.288425 0.303172
299 4 0.133382 0.362538 0.24874
601 2 0.110779 0.393414 0.246325
603 4 0.129919 0.380283 0.255621
734 4 0.147865 0.373589 0.256608
733 2 0.156408 0.37659 0.279915
735 4 0.164952 0.379591 0.303221
677 4 0.175812 0.370031 0.317073
676 2 0.199981 0.370587 0.323455
678 4 0.22415 0.371142 0.329838
509 4 0.225868 0.352365 0.322142
435 4 0.24056 0.360738 0.331932
728 4 0.3116 0.381926 0.31167
727 2 0.334425 0.390491 0.306115
729 4 0.35725 0.399056 0.30056
615 4 0.403651 0.342025 0.295795
613 2 0.414876 0.362624 0.304449
2538 4 0.462391 0.381044 0.321916
2536 2 0.467962 0.395832 0.30254
2537 4 0.473533 0.410621 0.283164
614 4 0.4261 0.383223 0.313102
777 4 0.0755396 0.428505 0.322783
1757 4 0.0687514 0.502131 0.235559
1756 2 0.0875761 0.498029 0.251496
775 2 0.0938264 0.442642 0.313248
414 4 0.122618 0.468997 0.3157
776 4 0.112113 0.456779 0.303713
1758 4 0.106401 0.493927 0.267433
412 2 0.139678 0.477046 0.332111
438 4 0.280196 0.433273 0.27766
437 4 0.318252 0.443302 0.308513
436 2 0.299224 0.438288 0.293086
592 2 0.410664 0.453403 0.335903
593 4 0.435266 0.451041 0.332115
2861 4 0.462666 0.471859 0.256773
2862 4 0.477052 0.426114 0.270955
2860 2 0.469859 0.448986 0.263864
1798 2 0.0149755 0.0151684 0.338957
369 4 0.067221 0.0540286 0.371863
1772 4 0.0272118 0.0078778 0.41068
1800 4 1.65797e-05 0.00232818 0.354336
367 2 0.0798366 0.0324452 0.372293
732 4 0.0801502 0.0657492 0.380943
368 4 0.0924521 0.0108618 0.372722
605 4 0.144554 0.0523598 0.343882
604 2 0.153979 0.0598835 0.365785
606 4 0.163404 0.0674073 0.387688
698 4 0.389038 0.0527498 0.338445
256 2 0.393667 0.0542848 0.371499
257 4 0.376311 0.0529542 0.353549
258 4 0.411023 0.0556154 0.389448
426 4 0.417073 0.0578049 0.407473
480 4 0.451312 0.0442377 0.344093
458 4 0.0287412 0.145327 0.378557
318 4 0.0123524 0.133297 0.379688
316 2 0.0271046 0.117111 0.367623
317 4 0.0418569 0.100925 0.355558
397 2 0.0786612 0.127436 0.33833
730 2 0.088026 0.0893041 0.37806
399 4 0.086137 0.112879 0.357234
731 4 0.0959018 0.112859 0.375176
600 4 0.209317 0.136482 0.371226
598 2 0.200965 0.15751 0.381868
683 4 0.245013 0.119015 0.375304
682 2 0.258895 0.116003 0.395881
684 4 0.272776 0.112992 0.416458
575 4 0.404689 0.131957 0.395049
516 4 0.405654 0.132106 0.375576
574 2 0.418194 0.14203 0.413524
451 2 0.478828 0.16005 0.362412
514 2 0.42352 0.139995 0.359964
453 4 0.46158 0.149017 0.348061
515 4 0.441387 0.147885 0.344352
2654 4 0.00907626 0.195552 0.390151
457 2 0.026761 0.167136 0.390624
459 4 0.0247809 0.188945 0.402691
389 4 0.0993433 0.190069 0.348058
685 2 0.161282 0.201176 0.409615
687 4 0.173887 0.18442 0.395993
599 4 0.192613 0.178537 0.392511
374 4 0.216431 0.246333 0.395037
473 4 0.248743 0.20052 0.369583
378 4 0.278347 0.224255 0.332473
376 2 0.299247 0.213902 0.341483
377 4 0.320147 0.203549 0.350493
472 2 0.256481 0.205312 0.392871
474 4 0.26422 0.210103 0.416159
717 4 0.41831 0.233885 0.342071
707 4 0.337716 0.212987 0.350536
706 2 0.351229 0.192399 0.35486
708 4 0.364743 0.171811 0.359185
452 4 0.496076 0.171083 0.376763
305 4 0.48079 0.185048 0.40907
347 4 0.0750664 0.334462 0.405008
275 4 0.159318 0.326301 0.403689
274 2 0.166529 0.305937 0.3911
276 4 0.173741 0.285574 0.37851
373 2 0.19725 0.256977 0.383039
375 4 0.178069 0.267621 0.37104
406 2 0.0354527 0.392428 0.398157
407 4 0.036071 0.405256 0.376704
618 4 0.0941387 0.337153 0.410047
616 2 0.118655 0.336965 0.405139
617 4 0.143171 0.336777 0.400231
434 4 0.26561 0.394514 0.358994
433 2 0.253085 0.377626 0.345463
503 4 0.288816 0.408529 0.401928
336 4 0.306364 0.407036 0.410014
334 2 0.326413 0.395789 0.419848
502 2 0.2668 0.400361 0.410518
753 4 0.477992 0.371263 0.332102
561 4 0.487904 0.34005 0.391841
752 4 0.478503 0.351768 0.378149
751 2 0.478247 0.361515 0.355126
549 4 0.0607986 0.425204 0.334975
548 4 0.0274729 0.423822 0.372234
547 2 0.0441358 0.424513 0.353604
500 4 0.172263 0.485908 0.360284
413 4 0.156738 0.485095 0.348523
499 2 0.164464 0.494236 0.382532
501 4 0.156664 0.502564 0.40478
1545 4 0.223211 0.482934 0.338006
1543 2 0.198518 0.486441 0.339778
1544 4 0.173825 0.489947 0.341549
1436 4 0.239142 0.483606 0.325124
669 4 0.296515 0.42365 0.412228
594 4 0.386062 0.455765 0.339692
1126 2 0.00552864 0.0510234 0.487645
720 4 0.0241762 0.0661783 0.451737
2237 4 0.0214195 0.0472644 0.455827
2236 2 0.0311101 0.0297177 0.440881
1127 4 0.0154739 0.0620679 0.467538
2238 4 0.0408008 0.012171 0.425935
1522 2 0.0673242 0.00128221 0.496664
2428 2 0.223524 0.00511837 0.495604
2430 4 0.208245 0.0249041 0.496097
341 4 0.20818 0.0411411 0.48726
726 4 0.311997 0.0487998 0.442244
724 2 0.308011 0.0368577 0.463847
725 4 0.304026 0.0249156 0.48545
963 4 0.302977 0.00647102 0.490439
425 4 0.40504 0.0202397 0.43821
1580 4 0.405247 0.00382648 0.426987
424 2 0.411057 0.0390223 0.422841
2878 2 0.471661 0.0678924 0.486431
2879 4 0.47781 0.0463342 0.497504
718 2 0.0220816 0.0910416 0.450122
719 4 0.019987 0.115905 0.448506
1033 2 0.103456 0.148416 0.480309
1035 4 0.105136 0.16283 0.459947
1034 4 0.101776 0.134003 0.500671
1182 4 0.242244 0.108098 0.469236
320 4 0.290462 0.112188 0.423531
1180 2 0.258863 0.105048 0.450805
1181 4 0.275482 0.101999 0.432375
321 4 0.330253 0.133024 0.445513
319 2 0.310358 0.122606 0.434522
411 4 0.2639 0.162348 0.47674
3157 2 0.493081 0.154448 0.47345
2880 4 0.465512 0.0894505 0.475358
642 4 0.466299 0.0982027 0.456229
640 2 0.455046 0.117836 0.445595
641 4 0.443792 0.137469 0.434962
306 4 0.450031 0.154916 0.4345
576 4 0.431699 0.152103 0.431999
3159 4 0.503525 0.138366 0.489496
471 4 0.0458255 0.231863 0.49197
469 2 0.0393639 0.207741 0.490726
470 4 0.0329023 0.183618 0.489482
686 4 0.148678 0.217933 0.423237
260 4 0.132204 0.209366 0.428343
261 4 0.10004 0.18151 0.454615
259 2 0.116122 0.195438 0.441479
695 4 0.139326 0.224248 0.439052
694 2 0.135004 0.244605 0.452912
488 4 0.279552 0.202781 0.425439
487 2 0.29252 0.221602 0.435577
489 4 0.305488 0.240423 0.445716
409 2 0.282774 0.177578 0.482823
410 4 0.301648 0.192808 0.488906
900 4 0.300926 0.211847 0.492879
468 4 0.367601 0.2276 0.434616
466 2 0.367665 0.204208 0.425784
467 4 0.367729 0.180816 0.416952
267 4 0.355127 0.242941 0.432958
3158 4 0.482637 0.17053 0.457404
304 2 0.46541 0.169982 0.421785
585 4 0.434093 0.24864 0.466605
1260 4 0.134485 0.28044 0.47894
696 4 0.130682 0.264962 0.466771
266 4 0.324577 0.281912 0.439937
811 2 0.263727 0.299411 0.488556
813 4 0.269496 0.287029 0.467614
265 2 0.339852 0.262427 0.436448
2456 4 0.491855 0.286368 0.467505
584 4 0.473364 0.279086 0.472217
583 2 0.453728 0.263863 0.469411
408 4 0.0348344 0.3796 0.41961
346 2 0.0633209 0.342577 0.425535
348 4 0.0515755 0.350692 0.446062
326 4 0.0593505 0.343802 0.46262
325 2 0.0749223 0.349469 0.481344
10 3 0.134016 0.349376 0.472486
7 3 0.107204 0.362972 0.494603
6 1 0.129632 0.363795 0.489561
8 3 0.135113 0.38544 0.483249
711 4 0.155267 0.383211 0.4819
383 4 0.0929786 0.413783 0.439006
504 4 0.244784 0.392194 0.419108
709 2 0.174613 0.3989 0.484089
710 4 0.193959 0.414589 0.486278
774 4 0.212113 0.414262 0.492958
335 4 0.346462 0.384541 0.429682
239 4 0.396753 0.408885 0.435866
238 2 0.380113 0.390694 0.431698
240 4 0.363473 0.372503 0.427531
588 4 0.409561 0.404272 0.451156
586 2 0.407176 0.411523 0.474966
587 4 0.404792 0.418774 0.498776
681 4 0.0736148 0.416503 0.441289
679 2 0.0530475 0.429984 0.436768
1381 2 0.0394464 0.483157 0.44226
680 4 0.0324802 0.443464 0.432246
1383 4 0.0343946 0.458796 0.44475
570 4 0.144998 0.489627 0.480613
569 4 0.138693 0.447041 0.455169
568 2 0.141846 0.468334 0.467891
382 2 0.114533 0.42639 0.437726
384 4 0.136088 0.438997 0.436446
539 4 0.0912085 0.466283 0.487435
635 4 0.209017 0.424402 0.476879
636 4 0.226331 0.467732 0.458894
634 2 0.217674 0.446067 0.467886
5 3 0.290247 0.490456 0.429819
4 3 0.32554 0.483417 0.41875
668 4 0.308476 0.471128 0.422402
667 2 0.302495 0.447389 0.417315
1523 4 0.080895 0.00479319 0.517369
340 2 0.19296 0.0531328 0.503062
342 4 0.177739 0.0651245 0.518865
430 2 0.319866 0.0368243 0.517267
431 4 0.332051 0.0541593 0.53054
432 4 0.30768 0.0194894 0.503993
843 4 0.342263 0.0653941 0.545505
1217 4 0.392991 0.0398702 0.526146
1216 2 0.404104 0.018449 0.53269
842 4 0.389687 0.0585237 0.531206
841 2 0.365975 0.0619589 0.538356
879 4 0.0720738 0.158928 0.550257
1272 4 0.0792365 0.161188 0.567407
938 4 0.0865265 0.146875 0.55546
937 2 0.100059 0.138618 0.536124
1151 4 0.150522 0.0887631 0.557124
1059 4 0.139743 0.0907921 0.57334
1155 4 0.150901 0.106061 0.566194
939 4 0.113591 0.130362 0.516788
1150 2 0.156044 0.0818752 0.533731
1153 2 0.156684 0.126179 0.579869
1152 4 0.161567 0.0749874 0.510338
3009 4 0.496391 0.0881261 0.566592
878 4 0.030737 0.185653 0.541439
1199 4 0.0187295 0.202199 0.538476
877 2 0.0514054 0.17229 0.545848
857 4 0.294744 0.21692 0.559487
856 2 0.278625 0.205989 0.575167
898 2 0.299997 0.217353 0.517251
791 4 0.310194 0.228745 0.555687
899 4 0.299068 0.222859 0.541623
871 2 0.393621 0.233462 0.546165
872 4 0.385413 0.227594 0.523287
873 4 0.401829 0.23933 0.569042
3353 4 0.0226735 0.257375 0.518999
3352 2 0.0127396 0.280312 0.518363
3354 4 0.00280567 0.303249 0.517727
1259 4 0.109825 0.299842 0.517878
1258 2 0.122155 0.290141 0.498409
649 2 0.225677 0.303004 0.534312
651 4 0.212726 0.29435 0.553871
650 4 0.238628 0.311658 0.514753
804 4 0.248084 0.327762 0.512696
790 2 0.318474 0.252331 0.555104
812 4 0.257959 0.311792 0.509499
792 4 0.326755 0.275916 0.55452
1238 4 0.323097 0.287855 0.569784
1237 2 0.333529 0.310358 0.566623
1239 4 0.343961 0.33286 0.563463
954 4 0.48345 0.328218 0.572858
935 4 0.00267662 0.400377 0.532645
1135 2 0.134521 0.402585 0.567712
9 3 0.141778 0.357714 0.508373
1136 4 0.122096 0.422416 0.558906
897 4 0.164725 0.375116 0.581881
1137 4 0.146947 0.382755 0.576517
327 4 0.0904941 0.355137 0.500067
1189 2 0.237746 0.390412 0.560802
773 4 0.242011 0.384184 0.519456
1190 4 0.246866 0.383723 0.538502
772 2 0.227062 0.399223 0.506207
1191 4 0.228626 0.3971 0.583101
895 2 0.187847 0.383662 0.586069
803 4 0.258317 0.375177 0.524853
802 2 0.253201 0.35147 0.518774
930 4 0.273704 0.383201 0.534543
928 2 0.292122 0.395442 0.54621
929 4 0.310539 0.407684 0.557877
927 4 0.387123 0.376067 0.549328
925 2 0.395144 0.392699 0.532469
926 4 0.403164 0.409331 0.51561
1011 4 0.495579 0.337026 0.558857
538 2 0.101339 0.484596 0.501116
1161 4 0.158381 0.487998 0.564748
1159 2 0.179121 0.478108 0.574607
889 2 0.293727 0.464124 0.549836
890 4 0.314605 0.475797 0.557118
891 4 0.272849 0.452451 0.542555
1953 4 0.360631 0.458489 0.561342
1951 2 0.3516 0.465339 0.539056
881 4 0.351358 0.486695 0.50641
1000 2 0.416261 0.492752 0.534584
1952 4 0.342568 0.47219 0.516769
1001 4 0.434603 0.475801 0.535778
662 4 0.443094 0.458822 0.532558
661 2 0.431229 0.43939 0.522222
1911 4 0.446572 0.468186 0.549471
1909 2 0.446863 0.462984 0.573925
1332 4 0.454106 0.475169 0.533916
663 4 0.419365 0.419959 0.511886
1330 2 0.471775 0.492829 0.534961
2319 4 0.0509875 0.00451812 0.638575
945 4 0.055821 0.999452 0.657142
943 2 0.0797119 0.00186963 0.664111
1057 2 0.130495 0.0714905 0.586267
2374 2 0.123536 0.0149881 0.585481
1058 4 0.121246 0.0521889 0.599193
2375 4 0.126308 0.0342127 0.601226
825 4 0.112512 0.00644027 0.653168
823 2 0.135952 0.998614 0.649362
1284 4 0.162035 0.0729203 0.643568
950 4 0.320294 0.023384 0.615417
949 2 0.302412 0.0408372 0.614533
951 4 0.284529 0.0582904 0.613648
1031 4 0.268203 0.0682939 0.62239
45 3 0.438716 0.0622294 0.653347
3179 4 0.0309053 0.160819 0.660221
1083 4 0.0219736 0.143077 0.66479
1270 2 0.0920224 0.166892 0.588123
1154 4 0.162468 0.146297 0.593544
1032 4 0.25388 0.116206 0.622434
1221 4 0.180853 0.149351 0.587607
1219 2 0.197654 0.160179 0.602629
1030 2 0.261042 0.0922499 0.622412
808 2 0.490305 0.0892742 0.643727
43 3 0.432941 0.0984975 0.661649
3178 2 0.0126392 0.169448 0.645487
1243 2 0.0479733 0.21425 0.641731
1244 4 0.0490978 0.201137 0.620472
1245 4 0.0468488 0.227362 0.662991
1271 4 0.104808 0.172595 0.60884
1212 4 0.22953 0.178917 0.626595
1220 4 0.214454 0.171007 0.617651
796 2 0.20425 0.213008 0.622528
798 4 0.213649 0.18996 0.624909
797 4 0.194851 0.236055 0.620148
1210 2 0.251283 0.182112 0.638503
858 4 0.262506 0.195058 0.590848
1211 4 0.273035 0.185307 0.650412
888 4 0.287815 0.190722 0.663949
3121 2 0.493081 0.23581 0.664313
905 4 0.459181 0.236663 0.644937
3123 4 0.469624 0.243204 0.659809
983 4 0.0192758 0.3142 0.608703
982 2 0.0366415 0.319618 0.625857
3263 4 0.040623 0.328394 0.657134
984 4 0.0540071 0.325036 0.643011
947 4 0.211195 0.281118 0.637824
946 2 0.228685 0.27585 0.654898
805 2 0.326396 0.324328 0.662646
906 4 0.446203 0.274429 0.614837
904 2 0.452692 0.255546 0.629887
952 2 0.480343 0.32773 0.597664
1041 4 0.0488668 0.343739 0.647917
1039 2 0.0643136 0.363095 0.651371
1040 4 0.0797605 0.382451 0.654826
993 4 0.0700637 0.401104 0.647885
896 4 0.210968 0.392208 0.590257
1172 4 0.219918 0.408099 0.596354
807 4 0.334164 0.340776 0.64549
3309 4 0.495777 0.395469 0.603878
953 4 0.477237 0.327241 0.622469
1206 4 0.461525 0.39766 0.647916
992 4 0.0700345 0.438994 0.61525
991 2 0.0700491 0.420049 0.631567
1160 4 0.199861 0.468217 0.584466
1173 4 0.200111 0.453998 0.597641
1171 2 0.210015 0.431048 0.596998
1188 4 0.188686 0.492852 0.647288
1187 4 0.202567 0.47268 0.603686
1186 2 0.195626 0.482766 0.625487
1175 4 0.187263 0.48613 0.667144
1204 2 0.45338 0.419957 0.655769
1910 4 0.447155 0.457782 0.59838
1269 4 0.451021 0.459273 0.654639
1267 2 0.447495 0.482983 0.647526
1268 4 0.443969 0.506693 0.640413
944 4 0.103603 0.00428678 0.671079
1004 4 0.323191 0.0186487 0.722063
1003 2 0.332937 0.0396611 0.73148
1005 4 0.342683 0.0606736 0.740896
41 1 0.441833 0.0783954 0.669082
1163 4 0.478359 0.070937 0.681711
44 3 0.464477 0.0808966 0.673486
1162 2 0.492451 0.0514668 0.688602
42 3 0.431118 0.0722472 0.688487
1077 4 0.0425676 0.0860924 0.741501
1081 2 0.0193128 0.119298 0.672048
1082 4 0.0166521 0.0955198 0.679307
1076 4 0.0199049 0.0970811 0.698299
1075 2 0.0312362 0.0915867 0.7199
850 2 0.0682185 0.145238 0.733154
852 4 0.0450102 0.143697 0.742329
1214 4 0.0402799 0.163804 0.743619
1282 2 0.151134 0.0842902 0.662986
909 4 0.104292 0.14779 0.709925
907 2 0.116697 0.12755 0.702074
908 4 0.129102 0.10731 0.694223
1283 4 0.140232 0.0956601 0.682404
1227 4 0.144452 0.0972738 0.700946
851 4 0.0914268 0.146779 0.723979
1225 2 0.154983 0.0929107 0.7232
1107 4 0.110212 0.151807 0.728435
1105 2 0.122483 0.165794 0.745138
1226 4 0.165514 0.0885476 0.745454
1148 4 0.183127 0.0807467 0.750761
830 4 0.32105 0.154155 0.706725
978 4 0.308006 0.159501 0.720639
831 4 0.37027 0.148483 0.713504
1141 2 0.404557 0.157799 0.723709
829 2 0.34566 0.151319 0.710115
1142 4 0.384638 0.142755 0.725161
810 4 0.482136 0.0794488 0.665219
1025 4 0.4789 0.152462 0.703322
3424 2 0.483718 0.112914 0.692281
3426 4 0.479699 0.090746 0.681436
1024 2 0.456441 0.163405 0.704336
3425 4 0.487737 0.135082 0.703126
3269 4 0.495997 0.150425 0.712884
1209 4 0.0637674 0.232715 0.672682
1215 4 0.00543728 0.199367 0.738937
1213 2 0.0228586 0.181585 0.741278
1207 2 0.0819097 0.230954 0.689797
1208 4 0.100052 0.229194 0.706913
887 4 0.30751 0.166797 0.703197
886 2 0.297663 0.17876 0.683573
976 2 0.304167 0.173166 0.741224
1194 4 0.390821 0.212187 0.688597
1193 4 0.350343 0.239891 0.698329
1192 2 0.370582 0.226039 0.693463
1143 4 0.424476 0.172842 0.722257
1026 4 0.433982 0.174347 0.70535
1261 2 0.437951 0.20199 0.736393
1262 4 0.429084 0.190402 0.716089
3262 2 0.0380568 0.321236 0.680953
3264 4 0.0354906 0.314079 0.704773
779 4 0.0544652 0.322208 0.727321
893 4 0.0349967 0.321264 0.723664
778 2 0.0783051 0.324466 0.734514
1064 4 0.234235 0.263146 0.686913
948 4 0.246176 0.270582 0.671972
1065 4 0.212456 0.267238 0.731742
1063 2 0.223346 0.265192 0.709328
917 4 0.294211 0.254255 0.752695
806 4 0.318629 0.30788 0.679801
892 2 0.0258514 0.343978 0.728724
894 4 0.0167061 0.366692 0.733784
3276 4 0.00631074 0.380254 0.743942
814 2 0.0465677 0.39274 0.750015
816 4 0.0260621 0.379402 0.744838
1066 2 0.154708 0.410762 0.704059
1067 4 0.136655 0.418382 0.71959
780 4 0.102145 0.326724 0.741707
1029 4 0.240372 0.416218 0.67673
1068 4 0.172761 0.403141 0.688528
1027 2 0.21603 0.411191 0.679443
1028 4 0.191688 0.406163 0.682156
1019 4 0.388482 0.405046 0.722827
1018 2 0.380419 0.394581 0.744056
1008 4 0.406349 0.333666 0.753104
942 4 0.0729874 0.417536 0.739794
884 4 0.0468908 0.452836 0.75017
940 2 0.0977055 0.420221 0.73715
941 4 0.122423 0.422906 0.734507
1140 4 0.298481 0.470336 0.689309
1138 2 0.285237 0.452349 0.700546
1139 4 0.271993 0.434363 0.711783
1230 4 0.403717 0.463026 0.721277
1228 2 0.391398 0.453052 0.740615
1205 4 0.445234 0.442254 0.663623
1100 4 0.417489 0.470119 0.709635
1101 4 0.464248 0.457421 0.722008
1099 2 0.440869 0.46377 0.715822
1251 4 0.477946 0.461788 0.734446
3330 4 0.478626 0.444438 0.723751
3328 2 0.493876 0.437109 0.705341
2277 4 0.010747 0.0031816 0.775981
1201 2 0.162851 0.0584736 0.771641
2047 2 0.156068 0.00726853 0.794604
1202 4 0.157617 0.0353797 0.77967
2049 4 0.145824 0.030075 0.794949
2255 4 0.228282 0.016928 0.741867
2254 2 0.206996 0.0236616 0.753123
1203 4 0.168085 0.0815675 0.763613
2256 4 0.185709 0.0303952 0.76438
1113 4 0.384698 0.0616843 0.83405
1111 2 0.384639 0.084033 0.822838
2321 4 0.467789 0.00971756 0.778962
2322 4 0.465935 0.0579658 0.791977
2320 2 0.466862 0.0338417 0.78547
846 4 0.472026 0.0740295 0.802974
864 4 0.050839 0.100458 0.753795
862 2 0.0417916 0.111168 0.774498
863 4 0.0327443 0.121878 0.795201
832 2 0.0134747 0.11562 0.827531
833 4 0.0341039 0.116262 0.813417
1125 4 0.0372818 0.135205 0.809256
1123 2 0.0531932 0.153464 0.815471
31 1 0.127586 0.143514 0.815683
35 3 0.146596 0.139995 0.803646
33 3 0.108966 0.139688 0.802376
34 3 0.12723 0.165271 0.823738
1147 2 0.207082 0.0878167 0.751914
1149 4 0.231038 0.0948866 0.753068
1257 4 0.246969 0.106096 0.756752
1255 2 0.255463 0.101553 0.779826
1256 4 0.263957 0.0970093 0.802899
840 4 0.271903 0.114513 0.803466
838 2 0.283013 0.115947 0.82582
1112 4 0.38458 0.106382 0.811626
818 4 0.386801 0.117313 0.828512