ITEM: TIMESTEP
2270000
ITEM: NUMBER OF ATOMS
4590
ITEM: BOX BOUNDS pp pp pp
-9.9985700000000008e+00 9.9985700000000008e+00
-9.9985700000000008e+00 9.9985700000000008e+00
-9.9985700000000008e+00 9.9985700000000008e+00
ITEM: ATOMS id type xs ys zs
463 2 0.0509322 0.0491882 0.017528
3290 4 0.0788798 0.0173253 0.0342541
464 4 0.0611073 0.0294927 0.0290923
567 4 0.153156 0.0762682 0.0562508
3289 2 0.0884559 0.00709971 0.0135439
566 4 0.179042 0.0351119 0.044556
565 2 0.166099 0.0556901 0.0504034
490 2 0.298277 0.0155598 0.0534225
491 4 0.310361 0.0149945 0.0315399
986 4 0.315023 0.0272192 0.0167411
2263 2 0.289243 0.0586301 0.000407008
2265 4 0.274576 0.0760599 0.990099
492 4 0.286194 0.016125 0.0753051
2264 4 0.30391 0.0412002 0.0107153
557 4 0.406806 0.0585154 0.0767965
745 2 0.462046 0.058905 0.0485295
747 4 0.484811 0.0668155 0.05519
746 4 0.439281 0.0509945 0.0418689
2724 4 0.491145 0.0597787 0.0737108
1826 4 0.495352 0.0414561 0.0812568
465 4 0.040757 0.0688837 0.00596365
701 4 0.0497217 0.0855146 0.0134444
700 2 0.0413287 0.108034 0.00654478
359 4 0.23329 0.163683 0.0382902
358 2 0.212498 0.164427 0.0244221
1254 4 0.258499 0.0871517 0.989553
828 4 0.448239 0.160204 0.00656404
836 4 0.052756 0.255083 0.018257
422 4 0.0849292 0.20374 0.0458579
421 2 0.0949006 0.192762 0.0257275
360 4 0.191707 0.165171 0.0105539
737 4 0.177665 0.20744 0.0813505
736 2 0.19202 0.189843 0.0918124
506 4 0.182727 0.220713 0.0665963
665 4 0.368737 0.182241 0.0245861
664 2 0.348457 0.186607 0.0106271
323 4 0.481842 0.221314 0.0433385
322 2 0.46875 0.235208 0.059487
324 4 0.455659 0.249101 0.0756354
826 2 0.443361 0.181343 0.994132
2807 4 0.0171266 0.263759 0.0344036
2806 2 6.33053e-05 0.281515 0.038734
294 4 0.141794 0.314659 0.0590076
292 2 0.153076 0.292585 0.0557494
456 4 0.129691 0.32667 0.0460881
507 4 0.179143 0.270511 0.063747
293 4 0.164359 0.270511 0.0524912
505 2 0.180935 0.245612 0.0651716
739 2 0.34558 0.328428 0.0813945
356 4 0.28176 0.271764 0.0022348
254 4 0.388817 0.272342 0.0707038
573 4 0.392393 0.259796 0.0129898
571 2 0.371305 0.26912 0.00331826
741 4 0.351175 0.326833 0.0570772
1071 4 0.406619 0.248408 0.00581821
630 4 0.406983 0.265909 0.0680437
253 2 0.365676 0.271687 0.0801503
315 4 0.0478311 0.398411 0.0846351
621 4 0.0662916 0.39337 0.0901605
454 2 0.113947 0.344845 0.0529403
455 4 0.098203 0.363021 0.0597926
607 2 0.251915 0.358894 0.0846075
608 4 0.256017 0.377525 0.0684445
252 4 0.273473 0.367153 0.0662956
250 2 0.288987 0.373227 0.0476516
251 4 0.304501 0.379301 0.0290076
524 4 0.318039 0.392608 0.0216571
523 2 0.339565 0.405279 0.0227968
226 2 0.392049 0.396461 0.00846356
228 4 0.374605 0.403185 0.0250672
525 4 0.36109 0.417949 0.0239365
670 2 0.414251 0.371865 0.0859449
671 4 0.429361 0.379203 0.0674234
281 4 0.443789 0.388275 0.0582867
280 2 0.463668 0.3732 0.0599545
282 4 0.483546 0.358125 0.0616224
104 3 0.485296 0.346827 0.0783198
1047 4 0.495326 0.350864 0.0472395
1045 2 0.497252 0.349694 0.0223377
313 2 0.0526562 0.420133 0.0732315
552 4 0.0393851 0.448384 0.057828
314 4 0.0574814 0.441855 0.0618278
550 2 0.0200335 0.453361 0.0427972
551 4 0.00068182 0.458338 0.0277665
243 4 0.227469 0.483319 0.0535067
241 2 0.214374 0.503038 0.0454513
1440 4 0.226391 0.469894 0.0687901
1583 4 0.47323 0.464828 0.0761634
16 1 0.0493185 0.000862357 0.118998
1422 4 0.0278068 0.0195025 0.142111
2480 4 0.0151501 0.0368019 0.139286
18 3 0.0719927 0.998907 0.114475
19 3 0.0453679 0.0199574 0.131575
2479 2 0.00576507 0.0572868 0.128447
2481 4 0.99638 0.0777717 0.117609
1420 2 0.00868556 0.0108019 0.15567
652 2 0.241301 0.0413755 0.146694
654 4 0.249078 0.0299757 0.125843
1476 4 0.246684 0.00913785 0.121744
653 4 0.233524 0.0527754 0.167544
1474 2 0.260005 0.00488952 0.101015
296 4 0.386158 0.056886 0.0744986
485 4 0.352301 0.00519338 0.107477
297 4 0.365028 0.0172715 0.0965204
295 2 0.375593 0.0370787 0.0855095
236 4 0.134788 0.150369 0.128055
449 4 0.151664 0.140284 0.135623
450 4 0.14512 0.0915242 0.144588
448 2 0.148392 0.115904 0.140105
28 3 0.221069 0.12908 0.182506
556 2 0.415987 0.0753831 0.0928078
558 4 0.425168 0.0922508 0.108819
758 4 0.336119 0.12536 0.177
771 4 0.442087 0.101398 0.116237
769 2 0.444789 0.109422 0.139763
770 4 0.447491 0.117445 0.16329
338 4 0.0533673 0.237567 0.137495
235 2 0.142287 0.173709 0.132974
237 4 0.149786 0.197049 0.137892
362 4 0.13194 0.224651 0.172361
738 4 0.206375 0.172246 0.102274
354 4 0.222062 0.185874 0.100224
476 4 0.206061 0.222783 0.160413
477 4 0.238548 0.18532 0.153951
475 2 0.222305 0.204052 0.157182
352 2 0.246509 0.190588 0.102528
279 4 0.254362 0.24291 0.160347
353 4 0.270956 0.195302 0.104832
461 4 0.282753 0.201116 0.0887463
460 2 0.305848 0.196741 0.0972693
462 4 0.328944 0.192366 0.105792
628 2 0.417976 0.25548 0.0879331
629 4 0.428968 0.245052 0.107823
624 4 0.428507 0.239545 0.126451
337 2 0.0536901 0.257032 0.153185
395 4 0.0645862 0.292679 0.167094
704 4 0.00887636 0.321143 0.144299
612 4 0.239882 0.32309 0.107666
755 4 0.317136 0.256972 0.151651
610 2 0.247456 0.299357 0.109793
611 4 0.25503 0.275623 0.111919
278 4 0.249478 0.255603 0.112225
277 2 0.25192 0.249257 0.136286
754 2 0.326174 0.265129 0.129812
756 4 0.335213 0.273286 0.107973
740 4 0.339985 0.330023 0.105712
255 4 0.342535 0.271031 0.0895969
622 2 0.432039 0.2532 0.147097
623 4 0.435572 0.266854 0.167743
527 4 0.450798 0.279837 0.172251
619 2 0.0796513 0.386744 0.11023
620 4 0.093011 0.380119 0.1303
647 4 0.10974 0.376565 0.142151
537 4 0.121317 0.377436 0.12468
535 2 0.142806 0.383265 0.113302
536 4 0.164294 0.389093 0.101925
646 2 0.0980131 0.369614 0.163111
609 4 0.247813 0.340264 0.100771
386 4 0.324718 0.342967 0.11116
385 2 0.330797 0.363934 0.123351
387 4 0.336876 0.3849 0.135542
12 3 0.391721 0.381089 0.113844
11 1 0.38098 0.395024 0.128662
15 3 0.358804 0.389861 0.129088
672 4 0.399142 0.364528 0.104466
13 3 0.390199 0.392085 0.149752
302 4 0.346687 0.403651 0.143426
597 4 0.375655 0.378214 0.161703
626 4 0.188947 0.441288 0.157494
1438 2 0.226418 0.460748 0.0920608
625 2 0.209912 0.449083 0.146318
1439 4 0.226444 0.451601 0.115331
638 4 0.241142 0.472061 0.144648
637 2 0.245489 0.496166 0.139625
627 4 0.230877 0.456878 0.135143
272 4 0.267599 0.503437 0.095664
1559 4 0.335127 0.4859 0.116233
301 2 0.333533 0.424344 0.148318
303 4 0.320379 0.445038 0.153209
14 3 0.383865 0.416985 0.121747
494 4 0.382302 0.476281 0.123771
495 4 0.391341 0.429733 0.107888
493 2 0.386821 0.453007 0.11583
1584 4 0.450521 0.490453 0.112611
1582 2 0.461875 0.47764 0.094387
689 4 0.208433 0.0115552 0.216937
690 4 0.172077 0.042859 0.231045
688 2 0.190255 0.0272071 0.223991
693 4 0.231351 0.0552425 0.188656
1505 4 0.228809 0.0115517 0.212488
691 2 0.251571 0.0622862 0.201568
692 4 0.271791 0.0693298 0.21448
1699 2 0.311233 0.069715 0.231686
1701 4 0.287933 0.0629597 0.225632
1700 4 0.334533 0.0764702 0.237741
21 1 0.369342 0.0745928 0.223303
25 3 0.378763 0.0756484 0.202596
22 3 0.371109 0.0531135 0.231345
23 3 0.34689 0.0803239 0.222087
759 4 0.367766 0.0887508 0.189607
1760 4 0.492385 0.994235 0.178164
511 2 0.0126906 0.143767 0.211961
578 4 0.0397282 0.153577 0.241161
513 4 0.0257159 0.15979 0.22606
546 4 0.171167 0.156257 0.253037
27 3 0.243716 0.11885 0.210704
26 1 0.238921 0.135683 0.195776
29 3 0.233331 0.15484 0.207615
582 4 0.321305 0.112746 0.170706
580 2 0.298769 0.122635 0.175127
581 4 0.276234 0.132525 0.179547
30 3 0.257211 0.139631 0.182794
24 3 0.380411 0.0889566 0.237779
757 2 0.351943 0.107055 0.183303
333 4 0.39248 0.0742158 0.246465
312 4 0.439296 0.122906 0.181221
311 4 0.482793 0.141149 0.197832
310 2 0.461045 0.132027 0.189527
521 4 0.4856 0.15073 0.215252
577 2 0.0405047 0.177473 0.248481
529 2 0.00717459 0.220911 0.238179
579 4 0.0412811 0.201368 0.255802
361 2 0.121672 0.245807 0.163866
372 4 0.145058 0.209105 0.171992
371 4 0.191732 0.210543 0.154098
370 2 0.168395 0.209824 0.163045
339 4 0.054013 0.276497 0.168875
396 4 0.0647024 0.317893 0.210279
443 4 0.0618355 0.30615 0.225434
394 2 0.0646443 0.305286 0.188687
442 2 0.0522299 0.303713 0.24839
363 4 0.111404 0.266964 0.15537
299 4 0.0974694 0.335369 0.240922
285 4 0.264959 0.257137 0.167979
284 4 0.287471 0.290743 0.197384
283 2 0.276215 0.27394 0.182682
345 4 0.273043 0.320356 0.241219
526 2 0.444218 0.295591 0.190519
528 4 0.437638 0.311345 0.208786
703 2 0.00729712 0.328298 0.168205
648 4 0.0862857 0.362662 0.184071
300 4 0.0986293 0.349919 0.193093
298 2 0.0980494 0.342644 0.217008
596 4 0.35532 0.334099 0.173582
595 2 0.365488 0.356156 0.167643
645 4 0.393292 0.383593 0.171295
643 2 0.402446 0.392417 0.192825
644 4 0.4116 0.40124 0.214355
447 4 0.407831 0.417353 0.224948
109 3 0.50305 0.368207 0.213646
2861 4 0.508331 0.406789 0.237311
264 4 0.0491973 0.413092 0.21974
262 2 0.0355879 0.412047 0.240689
1430 4 0.186276 0.488186 0.188566
289 2 0.2261 0.41373 0.245277
417 4 0.202076 0.477569 0.19637
290 4 0.214935 0.416951 0.223138
416 4 0.208099 0.42945 0.208578
415 2 0.205088 0.453509 0.202474
659 4 0.332485 0.455526 0.165171
658 2 0.340693 0.467933 0.185267
660 4 0.348902 0.480341 0.205364
231 4 0.355459 0.488917 0.223164
445 2 0.411246 0.427593 0.247502
232 2 0.0329019 0.0236931 0.290321
234 4 0.0367139 0.0483431 0.292061
317 4 0.0410065 0.0477373 0.273119
233 4 0.0290898 0.999043 0.288581
316 2 0.0393414 0.0700771 0.262013
673 2 0.144559 0.0573964 0.258439
675 4 0.132481 0.0604336 0.28012
674 4 0.156636 0.0543592 0.236757
1406 4 0.205832 0.0116832 0.283429
698 4 0.386657 0.054513 0.243855
1518 4 0.38405 0.00706909 0.268981
697 2 0.386115 0.0383099 0.26289
699 4 0.385574 0.0221068 0.281926
425 4 0.415054 0.0329851 0.331574
743 4 0.504543 0.0444266 0.251156
351 4 0.488605 0.056562 0.256686
349 2 0.467888 0.0703012 0.259375
350 4 0.447171 0.0840403 0.262063
256 2 0.471685 0.0853797 0.321934
424 2 0.438746 0.0407135 0.329545
318 4 0.0376763 0.092417 0.250907
391 2 0.141081 0.14443 0.325701
392 4 0.150685 0.142037 0.302739
545 4 0.138743 0.139423 0.287184
544 2 0.154955 0.14784 0.270111
723 4 0.236177 0.0926084 0.258692
722 4 0.188251 0.0925802 0.272966
721 2 0.212214 0.0925943 0.265829
599 4 0.228513 0.119027 0.310847
404 4 0.222827 0.13694 0.300818
598 2 0.216804 0.10897 0.330517
403 2 0.217935 0.160608 0.29441
331 2 0.413577 0.0868702 0.250934
332 4 0.434674 0.0995245 0.255402
762 4 0.438936 0.154541 0.294994
761 4 0.473529 0.120999 0.308373
760 2 0.456232 0.13777 0.301684
257 4 0.467323 0.109881 0.324354
530 4 0.0278562 0.216952 0.251662
405 4 0.213043 0.184276 0.288002
401 4 0.232617 0.188272 0.281142
400 2 0.228478 0.211735 0.273559
402 4 0.224339 0.235199 0.265976
473 4 0.213977 0.210408 0.332085
269 4 0.512144 0.217672 0.339235
765 4 0.420727 0.217438 0.30869
764 4 0.458771 0.192844 0.329868
763 2 0.439749 0.205141 0.319279
444 4 0.0426243 0.301277 0.271345
750 4 0.0973423 0.33093 0.260228
734 4 0.17602 0.325442 0.311356
374 4 0.230669 0.32447 0.334244
343 2 0.287183 0.325011 0.261308
309 4 0.320059 0.324153 0.28312
344 4 0.301324 0.329666 0.281397
496 2 0.353046 0.282937 0.324654
497 4 0.366676 0.298938 0.311114
613 2 0.400205 0.337611 0.313351
615 4 0.425067 0.33497 0.313594
541 2 0.45366 0.318697 0.285811
542 4 0.467431 0.31316 0.265689
543 4 0.439889 0.324234 0.305932
365 4 0.0164019 0.342165 0.326272
366 4 0.0500033 0.338099 0.28946
749 4 0.0647843 0.349745 0.293193
364 2 0.0332026 0.340132 0.307866
748 2 0.0810633 0.340337 0.27671
602 4 0.120088 0.398082 0.308509
777 4 0.109194 0.406342 0.292351
677 4 0.173807 0.385914 0.288407
735 4 0.164585 0.372334 0.298274
733 2 0.170302 0.348888 0.304815
676 2 0.179989 0.404002 0.304524
413 4 0.264061 0.410926 0.312262
291 4 0.237264 0.410508 0.267417
728 4 0.331921 0.411745 0.314211
2 3 0.310414 0.417813 0.318036
614 4 0.375342 0.340251 0.313109
307 2 0.338048 0.335348 0.296395
727 2 0.340143 0.388133 0.313979
729 4 0.348366 0.364521 0.313747
308 4 0.356037 0.346544 0.309671
2924 4 0.500639 0.384164 0.325663
2537 4 0.500297 0.381611 0.302589
118 3 0.495061 0.400672 0.313001
263 4 0.0219784 0.411002 0.261638
1757 4 0.120679 0.471221 0.278827
776 4 0.123876 0.453808 0.286681
775 2 0.116535 0.430075 0.289516
1756 2 0.117981 0.495913 0.281699
678 4 0.186172 0.42209 0.320642
768 4 0.19353 0.463117 0.251795
412 2 0.244565 0.414529 0.297027
766 2 0.202213 0.486483 0.253754
414 4 0.225069 0.418132 0.281792
438 4 0.288862 0.470449 0.251744
1435 2 0.258475 0.4695 0.316917
437 4 0.280564 0.439936 0.290485
436 2 0.284713 0.455193 0.271115
1437 4 0.271238 0.453547 0.302503
5 3 0.275723 0.428269 0.309084
1 1 0.29003 0.424441 0.326385
434 4 0.323087 0.431663 0.306569
433 2 0.340874 0.448098 0.312791
435 4 0.35866 0.464533 0.319013
446 4 0.41466 0.437832 0.270056
116 1 0.50176 0.422776 0.315225
2860 2 0.499079 0.419936 0.256461
714 4 0.432998 0.447463 0.272097
119 3 0.491248 0.432437 0.333516
2862 4 0.489827 0.433082 0.275612
120 3 0.496661 0.434383 0.296307
713 4 0.475506 0.432599 0.293844
712 2 0.454252 0.440031 0.28297
428 4 0.0506046 0.0398027 0.333123
427 2 0.0540582 0.0183613 0.345513
605 4 0.148415 0.0725545 0.366859
732 4 0.125196 0.0884585 0.386688
730 2 0.116513 0.0749508 0.405854
604 2 0.159284 0.0553079 0.352381
606 4 0.170153 0.0380614 0.337903
683 4 0.233652 0.0298284 0.387945
682 2 0.238942 0.0218081 0.364861
321 4 0.23195 0.0495476 0.386984
319 2 0.226729 0.0585508 0.409718
684 4 0.244232 0.0137879 0.341777
249 4 0.310361 0.0616473 0.331367
247 2 0.332244 0.0575452 0.342746
248 4 0.354127 0.053443 0.354125
633 4 0.363161 0.0700369 0.349998
480 4 0.490979 0.0145608 0.339484
426 4 0.462439 0.0484418 0.327516
258 4 0.476047 0.0608787 0.319514
393 4 0.131478 0.146823 0.348662
399 4 0.119228 0.145155 0.364983
398 4 0.107512 0.100489 0.384178
397 2 0.11337 0.122822 0.374581
686 4 0.222175 0.115325 0.410276
600 4 0.205095 0.0989128 0.350188
685 2 0.219717 0.113232 0.385482
687 4 0.217259 0.111139 0.360688
410 4 0.233017 0.132371 0.412687
632 4 0.39523 0.0852657 0.385217
631 2 0.379196 0.0776513 0.367607
420 4 0.374591 0.117185 0.390585
468 4 0.384559 0.113178 0.406895
418 2 0.366767 0.14044 0.38577
419 4 0.358943 0.163695 0.380955
2654 4 0.00851938 0.242154 0.392454
390 4 0.0709792 0.241005 0.386548
470 4 0.070599 0.222692 0.401359
469 2 0.0791182 0.208724 0.420267
388 2 0.0940075 0.240153 0.376845
389 4 0.117036 0.239301 0.367142
474 4 0.171645 0.23361 0.345139
472 2 0.192811 0.222009 0.338612
708 4 0.214341 0.198859 0.347809
706 2 0.236478 0.188818 0.353669
489 4 0.211247 0.255078 0.41816
707 4 0.258614 0.178777 0.35953
377 4 0.341501 0.243258 0.397765
717 4 0.35453 0.228596 0.403317
716 4 0.356112 0.179485 0.394025
715 2 0.355321 0.204041 0.398671
268 2 0.501149 0.232479 0.356118
514 2 0.458812 0.167773 0.417178
515 4 0.477467 0.166204 0.400604
618 4 0.0175804 0.259272 0.388501
616 2 0.0374661 0.249378 0.399984
274 2 0.146272 0.252668 0.365407
276 4 0.125923 0.252217 0.379928
275 4 0.166622 0.253119 0.350886
510 4 0.222889 0.310406 0.34619
487 2 0.229845 0.270024 0.410683
488 4 0.248443 0.284971 0.403207
508 2 0.235525 0.299681 0.364912
509 4 0.248161 0.288957 0.383633
376 2 0.337232 0.257159 0.377425
378 4 0.332962 0.271059 0.357085
498 4 0.339416 0.266935 0.338195
265 2 0.349027 0.320539 0.365105
266 4 0.357702 0.315764 0.388064
585 4 0.366048 0.29784 0.389246
583 2 0.380529 0.284022 0.404231
584 4 0.39501 0.270203 0.419215
306 4 0.483377 0.263734 0.380403
270 4 0.490153 0.247286 0.373
601 2 0.114757 0.393273 0.33246
547 2 0.0816364 0.41547 0.372517
549 4 0.0911367 0.39361 0.364962
603 4 0.109427 0.388465 0.356411
373 2 0.228441 0.349306 0.336079
502 2 0.208706 0.400219 0.367659
504 4 0.22366 0.38792 0.351838
375 4 0.226214 0.374142 0.337914
3 3 0.281668 0.407613 0.339998
267 4 0.340351 0.325314 0.342146
2923 2 0.484964 0.370004 0.339042
2925 4 0.46929 0.355845 0.352421
680 4 0.998693 0.47295 0.410824
548 4 0.072136 0.437329 0.380073
407 4 0.0577595 0.450599 0.387909
406 2 0.0375062 0.462116 0.396983
408 4 0.0172529 0.473634 0.406056
570 4 0.125214 0.430531 0.422698
1436 4 0.245711 0.485453 0.331331
635 4 0.182056 0.465451 0.415671
503 4 0.193752 0.412519 0.383479
636 4 0.201903 0.423596 0.396831
634 2 0.19198 0.444524 0.406251
1401 4 0.328347 0.475351 0.399295
668 4 0.305419 0.437073 0.353108
4 3 0.292935 0.443888 0.338706
667 2 0.318183 0.434304 0.374429
669 4 0.330947 0.431535 0.39575
336 4 0.344715 0.440473 0.406378
593 4 0.474259 0.496802 0.358812
752 4 0.483903 0.41307 0.388108
561 4 0.480155 0.415518 0.40702
753 4 0.489253 0.445009 0.350002
751 2 0.486578 0.429039 0.369055
718 2 0.031315 0.0462938 0.485325
719 4 0.0539074 0.0445412 0.474757
369 4 0.0639682 0.0606239 0.478591
367 2 0.0778738 0.0621551 0.457867
731 4 0.107831 0.0614431 0.42502
368 4 0.0917794 0.0636862 0.437144
2430 4 0.194335 0.0601957 0.439924
2428 2 0.18835 0.0362685 0.444028
2429 4 0.182365 0.0123412 0.448133
341 4 0.205898 0.0766483 0.440922
320 4 0.221509 0.067554 0.432453
725 4 0.235606 0.0595356 0.445081
724 2 0.255871 0.0651068 0.458626
430 2 0.309886 0.073506 0.495873
432 4 0.285857 0.0699023 0.489973
726 4 0.276136 0.0706779 0.472172
843 4 0.350174 0.0688514 0.49486
467 4 0.385165 0.0823704 0.44628
2879 4 0.437007 0.0216517 0.432084
2878 2 0.45106 0.0332266 0.449222
2880 4 0.465114 0.0448015 0.466359
642 4 0.461259 0.0605615 0.478005
640 2 0.48125 0.0727576 0.46924
2584 2 0.997131 0.0939526 0.438146
2586 4 0.00646696 0.101271 0.460157
409 2 0.241983 0.15529 0.417099
340 2 0.205018 0.0990842 0.451924
1152 4 0.205097 0.127493 0.481093
342 4 0.204139 0.12152 0.462926
1150 2 0.184772 0.129503 0.495516
466 2 0.384862 0.0977744 0.426587
576 4 0.413265 0.122696 0.466464
574 2 0.420499 0.138498 0.448488
575 4 0.427732 0.1543 0.430511
471 4 0.0876373 0.194756 0.439175
617 4 0.0573517 0.239485 0.411468
261 4 0.0987823 0.181705 0.504769
259 2 0.0916428 0.183506 0.480874
260 4 0.0845033 0.185307 0.456979
411 4 0.25095 0.17821 0.421512
651 4 0.213184 0.235286 0.4124
649 2 0.228587 0.215705 0.414531
650 4 0.243989 0.196124 0.416662
516 4 0.440157 0.169342 0.433753
695 4 0.125361 0.286113 0.460455
694 2 0.138686 0.297314 0.442506
696 4 0.152011 0.308514 0.424557
1260 4 0.1717 0.31145 0.428599
1258 2 0.192025 0.31411 0.442916
1259 4 0.21235 0.316771 0.457234
2456 4 0.414309 0.269942 0.427105
2455 2 0.436686 0.267471 0.437985
2457 4 0.459062 0.265 0.448866
326 4 0.07501 0.402198 0.448411
325 2 0.0890742 0.382548 0.454832
10 3 0.146676 0.351592 0.449498
709 2 0.141231 0.412636 0.447502
7 3 0.1153 0.349016 0.469542
327 4 0.103138 0.362897 0.461254
6 1 0.13742 0.355314 0.46997
8 3 0.138694 0.377873 0.475252
9 3 0.14848 0.342775 0.486058
711 4 0.141673 0.391121 0.460234
238 2 0.329793 0.413253 0.485817
240 4 0.348526 0.420947 0.471152
2508 4 0.491055 0.372667 0.44688
559 2 0.491607 0.40233 0.424911
560 4 0.503059 0.389141 0.442802
1382 4 0.0264073 0.45845 0.472386
1381 2 0.0154501 0.46289 0.450354
540 4 0.0426568 0.460297 0.482335
538 2 0.0475096 0.458031 0.506759
384 4 0.158307 0.503698 0.469772
568 2 0.110527 0.448569 0.413527
569 4 0.0958403 0.466607 0.404357
772 2 0.155353 0.488006 0.435971
774 4 0.16518 0.476484 0.416075
382 2 0.161123 0.494733 0.492942
710 4 0.140789 0.434152 0.434771
1400 4 0.3136 0.497 0.441893
1399 2 0.320974 0.486176 0.420594
588 4 0.330532 0.499489 0.454353
334 2 0.342486 0.431341 0.429547
335 4 0.340256 0.42221 0.452717
720 4 0.00872261 0.0480465 0.495893
1059 4 0.0889153 0.052992 0.584855
1032 4 0.129705 0.0909836 0.575748
1030 2 0.151711 0.0861712 0.564895
951 4 0.186308 0.0786797 0.53947
1031 4 0.173716 0.0813587 0.554042
949 2 0.206675 0.0694679 0.528267
1182 4 0.244013 0.0612271 0.5266
950 4 0.227042 0.0602561 0.517065
961 2 0.312304 0.0239194 0.557215
1180 2 0.265227 0.0479943 0.526418
963 4 0.299838 0.038218 0.540926
1181 4 0.286442 0.0347616 0.526236
431 4 0.333915 0.0771098 0.501772
842 4 0.39838 0.0716849 0.507856
1217 4 0.415217 0.0779035 0.517653
841 2 0.374277 0.0702681 0.501358
939 4 0.156201 0.149209 0.510551
937 2 0.133109 0.157294 0.505398
1151 4 0.164447 0.131513 0.50994
938 4 0.110017 0.165379 0.500245
898 2 0.350254 0.165627 0.578106
1216 2 0.435697 0.0887433 0.527047
1218 4 0.456177 0.099583 0.536442
1035 4 0.0733917 0.17367 0.558853
1082 4 0.0784962 0.177083 0.578189
1081 2 0.0582189 0.164157 0.585039
1033 2 0.0701141 0.176766 0.534259
1034 4 0.0668366 0.179862 0.509665
877 2 0.0946576 0.244168 0.574223
797 4 0.266717 0.177921 0.58999
811 2 0.304185 0.232576 0.540474
812 4 0.281907 0.23358 0.551781
796 2 0.269509 0.198792 0.576506
798 4 0.2723 0.219662 0.563022
813 4 0.326463 0.231571 0.529166
900 4 0.360698 0.183256 0.563777
872 4 0.363661 0.186097 0.544968
873 4 0.345615 0.228644 0.525869
871 2 0.354638 0.20737 0.535419
878 4 0.0978573 0.263591 0.558805
896 4 0.210056 0.333267 0.536997
1191 4 0.223453 0.317894 0.536988
1189 2 0.242424 0.328949 0.525027
1239 4 0.255337 0.32103 0.574892
1190 4 0.261395 0.340004 0.513067
954 4 0.412749 0.305917 0.570616
1205 4 0.397469 0.303374 0.583435
905 4 0.43671 0.265639 0.593021
952 2 0.426942 0.285426 0.572575
953 4 0.441136 0.264935 0.574533
1137 4 0.168406 0.381147 0.555082
897 4 0.173832 0.367254 0.542782
895 2 0.191944 0.350261 0.539889
803 4 0.280333 0.334658 0.513413
802 2 0.299321 0.350242 0.518077
804 4 0.318309 0.365827 0.522741
929 4 0.321199 0.357323 0.540726
239 4 0.311059 0.405559 0.500481
928 2 0.338936 0.352886 0.557781
930 4 0.356673 0.348449 0.574837
925 2 0.504994 0.400702 0.532466
926 4 0.505189 0.410112 0.55563
1001 4 0.487546 0.416397 0.564354
1000 2 0.465452 0.412296 0.575319
539 4 0.0523624 0.455765 0.531182
936 4 0.028179 0.472589 0.531851
1938 4 0.0459135 0.473194 0.5451
1936 2 0.0603783 0.492374 0.552031
934 2 0.00612875 0.467644 0.542552
383 4 0.16394 0.485767 0.516113
2244 4 0.153012 0.470312 0.525812
2242 2 0.157868 0.476182 0.549627
2243 4 0.162723 0.482052 0.573442
1172 4 0.250349 0.458114 0.56412
882 4 0.253364 0.463997 0.545042
1161 4 0.179685 0.480915 0.584966
880 2 0.260133 0.485262 0.533766
1155 4 0.0881338 0.0719413 0.591383
1057 2 0.075738 0.0443305 0.604259
1185 4 0.0272061 0.0748435 0.646102
945 4 0.0361783 0.0588785 0.655785
825 4 0.0538379 0.0243591 0.637367
1058 4 0.0625607 0.0356691 0.623663
823 2 0.0629874 0.00567331 0.651234
1183 2 0.00224794 0.0733374 0.646118
1003 2 0.314086 0.0764844 0.65091
1004 4 0.333056 0.0693002 0.636291
2282 4 0.455857 0.0290048 0.631583
2281 2 0.449427 0.00914787 0.617816
43 3 0.466572 0.0404541 0.643454
41 1 0.473709 0.0601028 0.653523
44 3 0.458771 0.0772483 0.648908
1199 4 0.023653 0.153186 0.604235
1083 4 0.0379416 0.151231 0.591889
1153 2 0.101256 0.0921969 0.597918
1154 4 0.114378 0.112453 0.604452
1221 4 0.129874 0.120006 0.614099
1219 2 0.141928 0.117254 0.635832
1220 4 0.153982 0.114501 0.657565
1283 4 0.155121 0.131884 0.667673
1212 4 0.239285 0.158421 0.630494
1210 2 0.261914 0.15198 0.638957
856 2 0.300908 0.150081 0.593898
857 4 0.322113 0.13694 0.595584
1211 4 0.284543 0.14554 0.64742
888 4 0.282503 0.146429 0.667322
899 4 0.33981 0.147998 0.592434
879 4 0.0914578 0.224746 0.58964
1272 4 0.107139 0.213142 0.584388
1270 2 0.128421 0.202067 0.591431
1271 4 0.149703 0.190992 0.598474
909 4 0.1676 0.195939 0.605654
907 2 0.173111 0.209563 0.625883
908 4 0.178622 0.223186 0.646112
947 4 0.175352 0.240813 0.654706
858 4 0.279703 0.163221 0.592213
1025 4 0.386256 0.191654 0.660911
1024 2 0.386462 0.206867 0.641069
1143 4 0.368654 0.187435 0.668549
1026 4 0.386668 0.22208 0.621227
904 2 0.448181 0.248665 0.607355
906 4 0.459653 0.23169 0.621688
3122 4 0.490208 0.213539 0.669277
946 2 0.192152 0.256212 0.664991
1237 2 0.273372 0.313964 0.590702
792 4 0.280092 0.308754 0.622413
791 4 0.317014 0.318467 0.654711
790 2 0.298553 0.313611 0.638562
1238 4 0.291407 0.306897 0.606513
1204 2 0.377611 0.318415 0.585577
1206 4 0.357753 0.333457 0.587719
983 4 0.0320925 0.39986 0.626022
1041 4 0.0503926 0.402046 0.629827
1039 2 0.0752898 0.403327 0.631742
982 2 0.00777501 0.394982 0.629191
1136 4 0.162508 0.406602 0.597719
1135 2 0.165457 0.393874 0.5764
993 4 0.112465 0.420161 0.629807
1002 4 0.443358 0.408195 0.586284
992 4 0.153106 0.424303 0.600965
991 2 0.132786 0.422232 0.615386
1040 4 0.100187 0.404607 0.633658
1160 4 0.2225 0.49092 0.608789
1159 2 0.201093 0.485917 0.596877
1175 4 0.224346 0.483602 0.627818
1174 2 0.245392 0.492818 0.637682
1171 2 0.254644 0.465832 0.587511
1173 4 0.258939 0.473551 0.610903
889 2 0.342217 0.487022 0.644952
891 4 0.342461 0.482103 0.620439
1951 2 0.34951 0.501656 0.583453
1952 4 0.352494 0.490845 0.6058
3330 4 0.484965 0.416552 0.649047
1911 4 0.428131 0.456348 0.633003
1910 4 0.436398 0.426094 0.594053
1909 2 0.432265 0.441221 0.613528
3328 2 0.488315 0.435301 0.632847
943 2 0.0421526 0.0588021 0.680064
944 4 0.0481269 0.0587257 0.704343
1075 2 0.0481581 0.0439717 0.736577
1076 4 0.0345277 0.0567935 0.719994
1077 4 0.0617884 0.0311499 0.75316
1005 4 0.295116 0.0836686 0.665528
831 4 0.33192 0.0664997 0.726215
42 3 0.474561 0.0569087 0.676288
1163 4 0.482888 0.0568412 0.694791
32 3 0.091412 0.140768 0.747168
1282 2 0.158535 0.129209 0.692297
1284 4 0.161948 0.126534 0.716922
1227 4 0.175812 0.122113 0.731085
1225 2 0.190754 0.13414 0.747124
1226 4 0.205697 0.146168 0.763162
886 2 0.300639 0.136342 0.681268
887 4 0.318776 0.126254 0.695215
830 4 0.325392 0.107324 0.698082
829 2 0.328656 0.0869119 0.712148
1105 2 0.0380492 0.178326 0.747321
1107 4 0.0241837 0.195391 0.735417
851 4 0.0286159 0.207188 0.71985
822 4 0.140138 0.219328 0.700187
1278 4 0.152549 0.21623 0.715664
820 2 0.119017 0.232704 0.700573
1276 2 0.172242 0.221556 0.730121
1277 4 0.191936 0.226881 0.744578
916 2 0.301151 0.218472 0.726424
918 4 0.308595 0.19486 0.729919
917 4 0.293707 0.242085 0.722929
1142 4 0.32763 0.190509 0.696979
1008 4 0.330201 0.232403 0.737296
1141 2 0.348142 0.188972 0.682764
1194 4 0.407166 0.244157 0.735688
1262 4 0.419765 0.229077 0.737993
3123 4 0.44422 0.194014 0.671423
3121 2 0.467214 0.203777 0.67035
1261 2 0.432847 0.209583 0.746598
1209 4 0.0365401 0.269762 0.689031
1207 2 0.058152 0.261427 0.698446
1208 4 0.0797639 0.253092 0.70786
1245 4 0.999318 0.299034 0.706683
821 4 0.097895 0.246079 0.700958
948 4 0.208953 0.271612 0.675276
1065 4 0.224554 0.282417 0.676044
1064 4 0.231921 0.317217 0.711192
1063 2 0.228238 0.299817 0.693618
1098 4 0.246948 0.275136 0.738925
1241 4 0.244489 0.281783 0.758429
1097 4 0.275706 0.24184 0.715154
1096 2 0.261327 0.258488 0.727039
1192 2 0.408356 0.26638 0.747087
893 4 0.0673685 0.338866 0.678441
1279 2 0.0898242 0.405296 0.716961
892 2 0.0843556 0.355719 0.685693
894 4 0.101343 0.372572 0.692945
1281 4 0.0934588 0.390127 0.69742
940 2 0.152545 0.40711 0.722814
941 4 0.158156 0.400192 0.699451
1067 4 0.171434 0.413493 0.694552
1028 4 0.232072 0.415552 0.669185
1029 4 0.27736 0.394456 0.671355
1027 2 0.254716 0.405004 0.67027
1139 4 0.28748 0.404907 0.68539
1230 4 0.362467 0.418945 0.716102
3183 4 0.495957 0.42565 0.663531
1981 2 0.994753 0.49892 0.726531
2021 4 0.0235744 0.500838 0.710528
2020 2 0.0453776 0.504284 0.698783
1983 4 0.0164549 0.487014 0.723002
1280 4 0.0861896 0.420465 0.736503
3275 4 0.0846008 0.436487 0.749158
942 4 0.146933 0.414027 0.746177
1080 4 0.155725 0.429085 0.756857
1066 2 0.195343 0.418335 0.689065
1068 4 0.219252 0.423177 0.683579
890 4 0.341973 0.491941 0.669466
1138 2 0.29921 0.421107 0.700395
1140 4 0.310941 0.437306 0.715399
1989 4 0.300548 0.436083 0.73246
1228 2 0.358985 0.430183 0.694039
1229 4 0.355504 0.441421 0.671976
1268 4 0.43053 0.475753 0.639855
1267 2 0.435159 0.492379 0.657948
1100 4 0.471879 0.4706 0.723683
1099 2 0.47379 0.494353 0.716113
1250 4 0.473859 0.476508 0.742967
1203 4 0.077489 0.042885 0.759294
911 4 0.0432807 0.0777513 0.837424
1201 2 0.0984643 0.0319534 0.767401
2049 4 0.134614 0.00907588 0.781041
1202 4 0.119439 0.0210219 0.775507
1148 4 0.17388 0.0500946 0.762638
1147 2 0.193441 0.0616396 0.773091
1149 4 0.213002 0.0731846 0.783543
1049 4 0.232481 0.0673442 0.780334
1048 2 0.249583 0.0548663 0.793638
1050 4 0.266686 0.0423884 0.806942
817 2 0.375654 0.0758076 0.813452
819 4 0.383589 0.0882903 0.793293
846 4 0.477522 0.0326335 0.774335
1113 4 0.476093 0.0126704 0.768864
844 2 0.498718 0.0457297 0.772233
832 2 0.0359371 0.136249 0.787065
863 4 0.00691292 0.107486 0.801726
833 4 0.0183758 0.125642 0.801358
33 3 0.0711681 0.137468 0.778663
834 4 0.0534985 0.146856 0.772773
31 1 0.0834004 0.152139 0.76549
862 2 0.0151111 0.0936132 0.820844
1073 4 0.110224 0.178335 0.775582
34 3 0.101358 0.160527 0.777554
1130 4 0.206257 0.165866 0.765336
840 4 0.207729 0.142828 0.782399
838 2 0.225247 0.14398 0.800202
839 4 0.242766 0.145133 0.818006
959 4 0.256095 0.131361 0.823313
978 4 0.302292 0.146715 0.775999
958 2 0.271674 0.112954 0.829921
960 4 0.287254 0.0945481 0.836529
1084 2 0.379573 0.128637 0.79548
1085 4 0.375825 0.104681 0.801583
1086 4 0.383322 0.152592 0.789377
1299 4 0.387806 0.165724 0.774296
3268 2 0.488665 0.141442 0.808393
3270 4 0.471541 0.134577 0.791516
1146 4 0.472652 0.155617 0.784278
35 3 0.0700863 0.169233 0.758477
1106 4 0.0519147 0.16126 0.759226
778 2 0.0545003 0.223209 0.808708
779 4 0.0299196 0.223642 0.804149
780 4 0.0790809 0.222777 0.813267
1072 2 0.13057 0.191906 0.780786
1074 4 0.150915 0.205476 0.78599
869 4 0.0847299 0.217774 0.832243
1129 2 0.205699 0.189006 0.755881
1131 4 0.205142 0.212147 0.746426
977 4 0.299313 0.184837 0.743773
976 2 0.300802 0.165776 0.759886
1006 2 0.342931 0.249043 0.750943
1297 2 0.38811 0.181815 0.793431
1298 4 0.388413 0.197907 0.812566
47 3 0.40224 0.205138 0.823241
49 3 0.398583 0.241932 0.82998
1263 4 0.445928 0.190089 0.755203
1145 4 0.465578 0.190911 0.749565
1144 2 0.469115 0.173264 0.766921
1213 2 0.00706881 0.254737 0.799888
1214 4 0.0248848 0.239239 0.791669
1240 2 0.219536 0.281378 0.756889
1242 4 0.194583 0.280972 0.755349
801 4 0.294093 0.32981 0.824759
1166 4 0.406219 0.254059 0.811711
1043 4 0.38563 0.252905 0.813862
1042 2 0.375229 0.26568 0.795052
1007 4 0.355661 0.265683 0.76459
1044 4 0.364828 0.278455 0.776242
1193 4 0.409545 0.288603 0.758485
806 4 0.411867 0.316054 0.773311
1167 4 0.452951 0.25771 0.794289
1165 2 0.429585 0.255884 0.803
1306 2 0.481037 0.273634 0.813838