ITEM: TIMESTEP
3320000
ITEM: NUMBER OF ATOMS
4590
ITEM: BOX BOUNDS pp pp pp
-9.9985700000000008e+00 9.9985700000000008e+00
-9.9985700000000008e+00 9.9985700000000008e+00
-9.9985700000000008e+00 9.9985700000000008e+00
ITEM: ATOMS id type xs ys zs
1666 2 0.0690577 0.0626005 0.0762002
1668 4 0.0795704 0.0521967 0.0560402
465 4 0.0140075 0.0727638 0.00721224
3290 4 0.0871988 0.0473432 0.0383091
3289 2 0.104144 0.0490798 0.0200053
3291 4 0.121089 0.0508163 0.0017015
490 2 0.307971 0.0134175 0.0498088
491 4 0.316446 0.0369195 0.0488033
150 3 0.441273 0.119148 0.00301492
505 2 0.146952 0.237138 0.050443
506 4 0.156639 0.216128 0.0599254
737 4 0.176226 0.216659 0.0613707
736 2 0.192276 0.20051 0.0510369
738 4 0.208326 0.184361 0.0407031
354 4 0.228323 0.186197 0.0354841
462 4 0.324046 0.177556 0.0702813
460 2 0.305163 0.175359 0.0540407
352 2 0.253117 0.188935 0.0337611
461 4 0.286279 0.173162 0.0378001
353 4 0.27791 0.191674 0.0320382
665 4 0.348314 0.196788 0.0199249
664 2 0.341484 0.179439 0.00326631
2808 4 0.00278912 0.266983 0.0499945
2807 4 0.0319744 0.272527 0.00976762
2806 2 0.0173817 0.269755 0.0298811
915 4 0.130891 0.254292 0.0216957
507 4 0.137266 0.258148 0.0409606
293 4 0.100183 0.260533 0.0657269
287 4 0.162318 0.290482 0.0303928
286 2 0.153749 0.313946 0.0292856
292 2 0.101114 0.28529 0.069101
294 4 0.102045 0.310048 0.0724752
355 2 0.223693 0.266431 0.021777
357 4 0.199004 0.264208 0.0185098
356 4 0.248383 0.268654 0.0250441
483 4 0.259815 0.27704 0.0116516
612 4 0.260889 0.311709 0.0533633
610 2 0.260272 0.296126 0.0729075
609 4 0.267104 0.330547 0.048247
482 4 0.307274 0.290274 0.0202112
481 2 0.283544 0.283657 0.0159314
740 4 0.327423 0.324518 0.066587
572 4 0.309461 0.296849 0.999894
741 4 0.369242 0.328636 0.0394788
739 2 0.348333 0.326577 0.0530329
288 4 0.14518 0.337409 0.0281784
990 4 0.146298 0.356934 0.0291317
988 2 0.167457 0.369817 0.0325207
1289 4 0.192552 0.399561 0.0253623
989 4 0.188617 0.3827 0.0359097
1288 2 0.207997 0.404406 0.00630611
607 2 0.272417 0.354937 0.0496832
250 2 0.299962 0.401197 0.0647282
252 4 0.288198 0.379446 0.0684277
608 4 0.27773 0.379327 0.0511194
226 2 0.393353 0.402558 0.0347363
227 4 0.400622 0.381976 0.0225405
1305 4 0.412725 0.365247 0.0206217
1045 2 0.500721 0.366206 0.027538
280 2 0.463494 0.352299 0.0721317
282 4 0.484928 0.364431 0.067824
281 4 0.442059 0.340167 0.0764394
1047 4 0.497111 0.366913 0.0522696
551 4 0.0274817 0.496036 0.0248845
550 2 0.0123985 0.489554 0.0437434
313 2 0.0135542 0.441986 0.0692409
315 4 0.0251204 0.419979 0.0719012
1788 4 0.128509 0.488762 0.0311716
1786 2 0.15225 0.480972 0.0302358
1767 4 0.113243 0.493089 0.0419355
1440 4 0.207101 0.423102 0.0781003
243 4 0.195176 0.417093 0.0621884
241 2 0.191102 0.439466 0.0517929
242 4 0.187029 0.461838 0.0413974
1787 4 0.17599 0.473182 0.0293
251 4 0.311727 0.422947 0.0610286
524 4 0.329665 0.433428 0.0552218
271 2 0.291622 0.475786 0.0619937
272 4 0.301276 0.453794 0.0689448
273 4 0.281968 0.497778 0.0550426
228 4 0.386085 0.42314 0.046932
525 4 0.379043 0.432696 0.0630969
523 2 0.354354 0.433062 0.0591593
1583 4 0.483671 0.472372 0.0494948
1582 2 0.474675 0.481671 0.0708905
1667 4 0.0585451 0.0730043 0.0963602
16 1 0.0277319 0.0573532 0.119476
19 3 0.0120454 0.0697791 0.131221
17 3 0.0406865 0.0716555 0.106955
20 3 0.0172108 0.0426733 0.105604
18 3 0.041413 0.0458489 0.134271
2480 4 0.0125617 0.0822073 0.1503
1422 4 0.00213449 0.062148 0.149457
1475 4 0.319969 0.0628464 0.0988898
652 2 0.262855 0.0715947 0.150249
654 4 0.275824 0.0633185 0.130539
1476 4 0.271681 0.0618857 0.111855
1474 2 0.295825 0.0623661 0.105372
486 4 0.332088 0.999777 0.134248
297 4 0.383047 0.0375555 0.12118
295 2 0.40377 0.0513573 0.123472
484 2 0.34786 0.0189224 0.131102
485 4 0.363632 0.0380674 0.127955
296 4 0.424493 0.0651591 0.125765
745 2 0.494031 0.0248618 0.0903244
746 4 0.484924 0.0413744 0.106743
557 4 0.429461 0.0662947 0.105851
556 2 0.449194 0.0811797 0.109621
450 4 0.0790452 0.109245 0.102274
236 4 0.118616 0.130629 0.146729
449 4 0.101822 0.135461 0.138254
448 2 0.0904337 0.122353 0.120264
235 2 0.137121 0.136254 0.162575
28 3 0.249248 0.142673 0.167923
580 2 0.303752 0.11546 0.139989
581 4 0.281674 0.12445 0.132445
30 3 0.270441 0.141514 0.136823
26 1 0.26119 0.155219 0.152483
582 4 0.32583 0.10647 0.147533
758 4 0.344198 0.0981371 0.149261
558 4 0.468927 0.0960648 0.113391
771 4 0.477866 0.103025 0.131025
769 2 0.471856 0.116542 0.151183
477 4 0.241179 0.18932 0.135677
371 4 0.201153 0.239814 0.155353
476 4 0.217023 0.231904 0.145864
475 2 0.229101 0.210612 0.140771
29 3 0.247169 0.170612 0.142242
27 3 0.277923 0.166558 0.163463
756 4 0.362849 0.235305 0.128912
754 2 0.354839 0.220447 0.147357
255 4 0.359907 0.248515 0.112507
253 2 0.383621 0.249204 0.104611
254 4 0.407335 0.249894 0.0967142
755 4 0.346828 0.205588 0.165803
624 4 0.425157 0.228647 0.165245
629 4 0.438197 0.219641 0.150991
628 2 0.427047 0.228844 0.13059
630 4 0.415898 0.238046 0.110189
339 4 0.0453114 0.285173 0.163704
337 2 0.0621967 0.266915 0.166295
456 4 0.107149 0.313102 0.0916735
611 4 0.259655 0.280543 0.0924518
279 4 0.279655 0.273509 0.153969
277 2 0.269147 0.280929 0.132528
278 4 0.258639 0.288349 0.111087
386 4 0.326347 0.329583 0.086682
619 2 0.0313121 0.366454 0.142251
620 4 0.0309035 0.390704 0.136173
621 4 0.0317206 0.342204 0.14833
454 2 0.11615 0.336415 0.0908607
455 4 0.125152 0.359728 0.0900479
537 4 0.144329 0.400617 0.135763
535 2 0.140595 0.388971 0.113955
536 4 0.13686 0.377325 0.0921463
647 4 0.13255 0.387129 0.145569
646 2 0.119345 0.37928 0.165298
625 2 0.206948 0.384554 0.152718
627 4 0.214392 0.397484 0.132654
1439 4 0.202576 0.412157 0.126685
301 2 0.3198 0.409243 0.135805
385 2 0.33108 0.349513 0.101019
302 4 0.327707 0.386561 0.128863
387 4 0.335814 0.369443 0.115357
670 2 0.410696 0.354242 0.101314
12 3 0.379538 0.354286 0.130538
11 1 0.372795 0.375815 0.135028
15 3 0.350741 0.378015 0.129789
672 4 0.388734 0.358768 0.112376
13 3 0.376041 0.380141 0.157592
14 3 0.385466 0.390464 0.122251
495 4 0.390298 0.401668 0.106098
645 4 0.378172 0.401926 0.157567
671 4 0.432658 0.349717 0.0902525
104 3 0.492392 0.370393 0.0863257
1431 4 0.148802 0.475149 0.141263
1620 4 0.144468 0.495023 0.13818
1429 2 0.154163 0.464626 0.163302
1573 2 0.234518 0.48134 0.136674
1575 4 0.212585 0.493232 0.138312
1438 2 0.204838 0.417629 0.102392
1574 4 0.256451 0.469448 0.135036
639 4 0.256474 0.451475 0.143013
638 4 0.306192 0.450487 0.137737
637 2 0.281333 0.450981 0.140375
303 4 0.311894 0.431926 0.142747
659 4 0.327862 0.433551 0.155037
1559 4 0.379286 0.493438 0.13316
493 2 0.396695 0.42414 0.115001
494 4 0.403092 0.446612 0.123904
1584 4 0.465679 0.49097 0.0922863
688 2 0.166015 0.0444161 0.213358
690 4 0.156442 0.0660418 0.221474
1506 4 0.230146 0.0213068 0.164162
689 4 0.175587 0.0227903 0.205242
1505 4 0.191394 0.0172902 0.195512
1504 2 0.21077 0.0192985 0.179837
653 4 0.249885 0.079871 0.169958
22 3 0.383742 0.0708184 0.224089
698 4 0.401647 0.0722202 0.235269
697 2 0.402646 0.0480164 0.241462
699 4 0.403646 0.0238125 0.247654
1518 4 0.411489 0.00573861 0.249767
742 2 0.49089 0.00372345 0.249153
349 2 0.4817 0.0683644 0.203768
350 4 0.462585 0.0787144 0.216124
511 2 0.0144144 0.12678 0.220491
513 4 0.0335236 0.136061 0.233678
578 4 0.0429484 0.15374 0.230952
2479 2 0.00651514 0.094764 0.171059
2481 4 0.000468525 0.107321 0.191818
674 4 0.156531 0.0849019 0.214257
237 4 0.155626 0.141879 0.178422
673 2 0.149627 0.107886 0.221275
675 4 0.142723 0.13087 0.228293
546 4 0.122922 0.131807 0.227065
544 2 0.112618 0.143545 0.24659
722 4 0.18916 0.0851904 0.241268
693 4 0.259269 0.0872165 0.186092
691 2 0.273101 0.099023 0.203253
1701 4 0.303059 0.104708 0.231548
692 4 0.286932 0.110829 0.220413
1699 2 0.325944 0.0989666 0.223272
757 2 0.351335 0.0993124 0.173195
333 4 0.412175 0.0900334 0.233034
21 1 0.381594 0.0929112 0.218052
23 3 0.362756 0.101706 0.228358
25 3 0.379448 0.0943295 0.195424
1700 4 0.348829 0.0932255 0.214996
759 4 0.358472 0.100488 0.19713
24 3 0.400509 0.104446 0.224949
331 2 0.435652 0.0942643 0.225544
332 4 0.459129 0.0984951 0.218054
770 4 0.465845 0.130059 0.17134
312 4 0.472869 0.125963 0.189183
310 2 0.475818 0.137258 0.211295
311 4 0.478767 0.148552 0.233406
521 4 0.491258 0.162827 0.233238
577 2 0.0455276 0.178316 0.234771
529 2 0.0191808 0.227292 0.220785
530 4 0.0405335 0.21451 0.223203
579 4 0.0481068 0.202891 0.238589
338 4 0.0790821 0.248657 0.168886
362 4 0.14863 0.223632 0.196425
372 4 0.161412 0.22203 0.179952
361 2 0.136432 0.24428 0.203501
370 2 0.181283 0.230922 0.167653
622 2 0.433975 0.244829 0.182144
704 4 0.033046 0.282465 0.17987
703 2 0.0247005 0.304043 0.189351
705 4 0.0163549 0.325622 0.198833
363 4 0.124234 0.264928 0.210577
395 4 0.116615 0.277215 0.223525
394 2 0.10403 0.267349 0.242747
285 4 0.282705 0.273932 0.174499
283 2 0.271634 0.26905 0.19638
284 4 0.260562 0.264168 0.218261
528 4 0.419783 0.321903 0.198468
526 2 0.433894 0.301279 0.197608
623 4 0.442793 0.26101 0.199043
527 4 0.448004 0.280656 0.196747
542 4 0.424018 0.326652 0.218073
2615 4 0.00850827 0.340554 0.209087
264 4 0.00839648 0.408347 0.229922
263 4 0.0580097 0.414548 0.229035
262 2 0.0332031 0.411448 0.229479
648 4 0.106141 0.371431 0.185026
300 4 0.108223 0.366506 0.204553
298 2 0.104005 0.356877 0.227239
734 4 0.138671 0.383159 0.220385
733 2 0.151549 0.389466 0.240868
299 4 0.0997869 0.347248 0.249925
626 4 0.199504 0.371624 0.172783
416 4 0.191675 0.406634 0.215479
290 4 0.205618 0.403597 0.230817
597 4 0.361201 0.391856 0.169958
345 4 0.338929 0.356609 0.2118
596 4 0.337021 0.377268 0.211228
595 2 0.349111 0.384562 0.190593
343 2 0.342176 0.346672 0.234513
541 2 0.42937 0.33492 0.241055
1430 4 0.159524 0.454104 0.18534
415 2 0.184185 0.428256 0.205399
417 4 0.176694 0.449877 0.19532
438 4 0.265111 0.480558 0.228124
436 2 0.274568 0.473589 0.250197
658 2 0.336355 0.442877 0.176626
643 2 0.387687 0.419619 0.172453
644 4 0.397202 0.437312 0.18734
660 4 0.344848 0.452203 0.198214
231 4 0.356864 0.466572 0.203728
447 4 0.412462 0.445415 0.199952
229 2 0.362963 0.490146 0.198048
445 2 0.420183 0.442235 0.22352
446 4 0.427903 0.439054 0.247088
1402 2 0.0406849 0.00666167 0.256944
1403 4 0.0262676 0.0257678 0.264174
233 4 0.0316187 0.0314981 0.282
232 2 0.0451687 0.046307 0.296909
234 4 0.0587187 0.0611159 0.311818
317 4 0.0546761 0.0782144 0.299558
599 4 0.160491 0.0807426 0.304959
723 4 0.168826 0.0841383 0.286943
1405 2 0.208207 0.029978 0.286339
1406 4 0.196954 0.0522462 0.284701
721 2 0.178993 0.0846644 0.264105
1407 4 0.219459 0.0077097 0.287977
1517 4 0.430021 0.00758645 0.296177
743 4 0.480277 0.0156256 0.268411
425 4 0.473697 0.0331953 0.278393
424 2 0.479778 0.046265 0.298823
258 4 0.485676 0.0791673 0.317532
426 4 0.485859 0.0593346 0.319253
1516 2 0.420755 0.00666253 0.272972
316 2 0.0687094 0.0959815 0.288947
318 4 0.0827427 0.113749 0.278337
393 4 0.108392 0.136111 0.331897
392 4 0.111173 0.150412 0.284059
545 4 0.102314 0.155283 0.266115
391 2 0.109782 0.143262 0.307978
403 2 0.218711 0.137743 0.298411
598 2 0.175506 0.0924218 0.321185
404 4 0.224363 0.115679 0.308726
405 4 0.213059 0.159808 0.288096
401 4 0.202727 0.175035 0.29367
400 2 0.198578 0.197591 0.303631
402 4 0.194429 0.220146 0.313591
442 2 0.0651709 0.265579 0.28884
444 4 0.0416993 0.264132 0.297335
443 4 0.0886425 0.267025 0.280345
396 4 0.0914458 0.257483 0.261969
365 4 0.00947837 0.380748 0.324582
366 4 0.0513378 0.358069 0.30928
749 4 0.0595434 0.343132 0.299549
364 2 0.0304081 0.369408 0.316931
748 2 0.070472 0.341366 0.27713
777 4 0.0817204 0.404122 0.318297
750 4 0.0814006 0.3396 0.254711
602 4 0.0687686 0.414838 0.330874
735 4 0.164426 0.395774 0.261352
775 2 0.0936163 0.410533 0.29726
776 4 0.105512 0.416943 0.276223
677 4 0.171953 0.405215 0.277223
289 2 0.212031 0.404043 0.25498
291 4 0.218443 0.40449 0.279143
414 4 0.237944 0.40343 0.276269
412 2 0.242646 0.413833 0.298514
504 4 0.170615 0.400097 0.333324
727 2 0.330075 0.405376 0.329456
729 4 0.346849 0.390185 0.318824
344 4 0.345424 0.336735 0.257226
308 4 0.338756 0.387226 0.300147
309 4 0.353975 0.350961 0.269261
307 2 0.346366 0.369093 0.284704
2860 2 0.495739 0.388227 0.259578
118 3 0.492266 0.37842 0.319294
543 4 0.434722 0.343187 0.264038
615 4 0.425371 0.360753 0.269219
614 4 0.438656 0.348239 0.315777
613 2 0.432013 0.354496 0.292498
2862 4 0.486578 0.407848 0.272078
120 3 0.489709 0.405467 0.293225
116 1 0.489775 0.401191 0.315594
119 3 0.469983 0.408648 0.325138
2923 2 0.474911 0.350489 0.328693
2925 4 0.454109 0.338212 0.322231
1757 4 0.116664 0.433943 0.273411
1756 2 0.123202 0.456269 0.282575
1758 4 0.129739 0.478595 0.291739
1775 4 0.1419 0.482327 0.306899
767 4 0.203108 0.495654 0.277552
676 2 0.170953 0.424628 0.292948
678 4 0.169952 0.444042 0.308674
768 4 0.174652 0.460852 0.299457
766 2 0.18888 0.478253 0.288504
413 4 0.247348 0.424236 0.320759
437 4 0.284024 0.466621 0.272269
433 2 0.297386 0.453821 0.311702
435 4 0.290866 0.467685 0.291942
434 4 0.303905 0.439957 0.331462
713 4 0.475708 0.42103 0.287778
712 2 0.454601 0.427387 0.275977
714 4 0.433494 0.433743 0.264175
606 4 0.147298 0.0479388 0.344203
730 2 0.093611 0.0833525 0.405436
604 2 0.128249 0.0600528 0.354953
605 4 0.109199 0.0721667 0.365702
732 4 0.107251 0.0767721 0.385541
683 4 0.257653 0.0743356 0.375201
249 4 0.286043 0.0176919 0.38832
684 4 0.272878 0.0267372 0.377018
682 2 0.265265 0.0505364 0.37611
247 2 0.30991 0.022497 0.39402
248 4 0.333776 0.0273021 0.399719
633 4 0.338692 0.0451646 0.392078
631 2 0.349157 0.0633753 0.405643
2586 4 0.998587 0.141803 0.383098
2584 2 0.0021992 0.117902 0.38949
2585 4 0.00581156 0.0940013 0.395883
399 4 0.0980033 0.136018 0.348844
397 2 0.115418 0.142931 0.365401
398 4 0.132833 0.149843 0.381957
600 4 0.190522 0.104101 0.337412
685 2 0.212213 0.117191 0.365811
687 4 0.191166 0.105991 0.358276
686 4 0.23326 0.12839 0.373345
410 4 0.228001 0.141031 0.387776
409 2 0.245738 0.15844 0.390513
321 4 0.254176 0.0935944 0.379487
319 2 0.262281 0.101505 0.401778
419 4 0.388465 0.155983 0.374827
418 2 0.364542 0.154838 0.382011
420 4 0.34062 0.153694 0.389194
256 2 0.47842 0.0972499 0.333202
762 4 0.469623 0.154101 0.402846
257 4 0.471163 0.115333 0.348872
760 2 0.475399 0.140245 0.382851
761 4 0.481175 0.126389 0.362856
390 4 0.0877542 0.212481 0.413216
388 2 0.101303 0.208348 0.392612
274 2 0.147241 0.228046 0.3573
276 4 0.129198 0.210747 0.357921
389 4 0.114852 0.204214 0.372008
275 4 0.165284 0.245344 0.35668
473 4 0.224505 0.215465 0.343999
474 4 0.184701 0.24433 0.35312
472 2 0.204603 0.229898 0.348559
708 4 0.240771 0.205647 0.346905
651 4 0.246839 0.240775 0.408695
489 4 0.245939 0.248697 0.390373
707 4 0.289333 0.207277 0.358727
649 2 0.252221 0.216577 0.405431
706 2 0.265052 0.206462 0.352816
650 4 0.257603 0.192378 0.402167
411 4 0.263476 0.175848 0.393251
716 4 0.403808 0.168303 0.375992
377 4 0.407138 0.229062 0.343928
717 4 0.406799 0.211291 0.350619
715 2 0.405303 0.189797 0.363305
376 2 0.390716 0.247036 0.338233
763 2 0.451142 0.211402 0.336629
765 4 0.446839 0.186835 0.338399
764 4 0.455445 0.235968 0.334858
1258 2 0.1317 0.31035 0.383401
1259 4 0.122032 0.304899 0.360996
1260 4 0.141368 0.315801 0.405807
509 4 0.217709 0.308772 0.365258
488 4 0.227745 0.292404 0.374268
508 2 0.235895 0.325887 0.3665
487 2 0.236842 0.27055 0.38232
497 4 0.307919 0.259755 0.335048
496 2 0.332768 0.25755 0.336735
378 4 0.374294 0.26501 0.332538
498 4 0.357617 0.255346 0.338422
267 4 0.359005 0.32499 0.360239
266 4 0.371995 0.277335 0.368052
585 4 0.377556 0.27326 0.386044
583 2 0.373011 0.259413 0.406362
265 2 0.3655 0.301162 0.364146
306 4 0.493665 0.270465 0.388805
304 2 0.485107 0.279722 0.410398
510 4 0.25408 0.343002 0.367742
374 4 0.271345 0.35006 0.361234
373 2 0.263217 0.373701 0.360791
375 4 0.255089 0.397343 0.360347
3 3 0.268718 0.410299 0.36902
2924 4 0.495712 0.362766 0.335156
751 2 0.477902 0.41468 0.367625
752 4 0.479811 0.412388 0.39245
561 4 0.498315 0.411274 0.401141
3672 4 0.0235682 0.497903 0.342083
601 2 0.073397 0.432042 0.348417
679 2 0.034741 0.490641 0.382028
680 4 0.0359297 0.467546 0.372521
406 2 0.0294587 0.441078 0.408698
408 4 0.0319869 0.456163 0.388918
603 4 0.0780254 0.449247 0.36596
549 4 0.0926623 0.458244 0.377578
547 2 0.103819 0.449208 0.398049
502 2 0.177678 0.416916 0.350424
503 4 0.184742 0.433735 0.367524
634 2 0.192487 0.474253 0.355666
636 4 0.194848 0.449805 0.360346
635 4 0.190126 0.498701 0.350986
669 4 0.326598 0.486645 0.381274
728 4 0.313301 0.420568 0.340087
2 3 0.292278 0.42622 0.344441
5 3 0.255451 0.428405 0.33879
1 1 0.271776 0.428274 0.354669
668 4 0.289758 0.455039 0.369249
4 3 0.271327 0.448141 0.366649
667 2 0.308178 0.470842 0.375261
753 4 0.475993 0.416971 0.3428
368 4 0.0656249 0.0775081 0.430276
367 2 0.0433703 0.078747 0.441607
719 4 0.0196885 0.0757078 0.47219
369 4 0.0211157 0.0799859 0.452937
718 2 0.0167775 0.0824718 0.496084
341 4 0.179407 0.0752978 0.451907
2430 4 0.18604 0.0594196 0.440641
441 4 0.224746 0.0140936 0.459592
2428 2 0.202862 0.0409449 0.441576
2429 4 0.219684 0.0224701 0.442511
632 4 0.359622 0.081586 0.419209
641 4 0.488217 0.0778951 0.430779
2879 4 0.436877 0.00121014 0.432261
2878 2 0.454991 0.0123265 0.445432
2880 4 0.473105 0.0234429 0.458604
642 4 0.481835 0.0412159 0.464164
640 2 0.485026 0.0595555 0.447472
731 4 0.0799712 0.0899328 0.425332
1152 4 0.148386 0.125712 0.482191
342 4 0.146712 0.107479 0.47181
340 2 0.163059 0.0913885 0.461858
1150 2 0.164137 0.137763 0.497419
320 4 0.270386 0.109416 0.42407
725 4 0.274926 0.0990895 0.441061
724 2 0.275774 0.103777 0.465606
726 4 0.276623 0.108464 0.490152
468 4 0.358223 0.0887796 0.438194
467 4 0.393987 0.122213 0.448388
466 2 0.376105 0.105496 0.443291
576 4 0.396342 0.141831 0.450846
515 4 0.471977 0.0831647 0.420133
574 2 0.421068 0.139489 0.447965
3158 4 0.495339 0.0965243 0.434664
575 4 0.445794 0.137146 0.445084
516 4 0.44173 0.119617 0.436166
514 2 0.456853 0.101391 0.42815
259 2 0.0601793 0.172594 0.485733
260 4 0.0722918 0.186252 0.468648
471 4 0.0605143 0.20405 0.465656
469 2 0.0655129 0.212166 0.442541
470 4 0.0705115 0.220281 0.419425
616 2 0.0174828 0.245607 0.423021
617 4 0.0419324 0.24773 0.427805
2455 2 0.400084 0.220423 0.4432
2456 4 0.385789 0.239601 0.435917
584 4 0.368466 0.245566 0.426679
2457 4 0.41438 0.201246 0.450483
696 4 0.0739068 0.303949 0.437821
695 4 0.0799928 0.254853 0.445125
694 2 0.0769498 0.279401 0.441473
878 4 0.110345 0.259415 0.472183
326 4 0.129932 0.327755 0.417068
877 2 0.112353 0.258977 0.497102
1010 4 0.444441 0.328494 0.461009
1009 2 0.450741 0.307583 0.448835
1011 4 0.457042 0.286672 0.436661
305 4 0.476549 0.288978 0.431991
709 2 0.120963 0.406439 0.487737
325 2 0.138054 0.347074 0.430706
327 4 0.146176 0.366393 0.444343
8 3 0.147884 0.377278 0.494414
7 3 0.159282 0.370831 0.459184
6 1 0.162442 0.364957 0.481199
9 3 0.158082 0.342295 0.483615
711 4 0.128913 0.383715 0.49449
1191 4 0.204764 0.368394 0.497332
1189 2 0.228816 0.367109 0.49062
10 3 0.183976 0.369402 0.487132
1190 4 0.252867 0.365824 0.483908
803 4 0.267796 0.373932 0.495357
334 2 0.354582 0.415338 0.449059
335 4 0.376231 0.409035 0.459864
238 2 0.382463 0.394199 0.492744
240 4 0.391684 0.405661 0.472526
2507 4 0.460608 0.337279 0.456261
560 4 0.477992 0.389985 0.44157
559 2 0.488153 0.40063 0.421356
2506 2 0.475134 0.35747 0.453711
2508 4 0.48966 0.377661 0.45116
407 4 0.0269305 0.425993 0.428477
1382 4 0.0333818 0.443223 0.466443
1381 2 0.00843538 0.441586 0.466864
540 4 0.042059 0.452469 0.481643
548 4 0.114976 0.440173 0.41852
710 4 0.113012 0.429162 0.480984
569 4 0.12474 0.454512 0.426516
568 2 0.12734 0.44376 0.44894
570 4 0.129941 0.433008 0.471363
336 4 0.332932 0.421642 0.438254
1400 4 0.324944 0.487085 0.438162
1401 4 0.324354 0.437271 0.433806
1399 2 0.324649 0.462178 0.435984
1446 4 0.256249 0.490091 0.481898
1127 4 0.0214409 0.0764804 0.534446
1126 2 0.00489051 0.0660799 0.550038
1032 4 0.116274 0.0814419 0.561007
1182 4 0.214701 0.0712045 0.569376
1180 2 0.232145 0.0539686 0.574257
963 4 0.255943 0.0179568 0.579084
1181 4 0.249588 0.0367328 0.579137
961 2 0.278887 0.0155602 0.56944
843 4 0.314961 0.0784463 0.549538
962 4 0.301831 0.0131636 0.559795
2195 4 0.318962 0.00380748 0.566633
841 2 0.339417 0.0739399 0.54693
1216 2 0.38402 0.0608407 0.514074
1218 4 0.392338 0.0446134 0.496967
1217 4 0.375702 0.0770679 0.531181
842 4 0.363872 0.0694335 0.544321
2283 4 0.449394 0.00850317 0.577876
4467 4 0.449108 0.00378189 0.558975
720 4 0.0138664 0.0892359 0.519979
1033 2 0.0471005 0.143549 0.54497
1034 4 0.0459757 0.151632 0.521335
261 4 0.0480667 0.158935 0.502818
1035 4 0.0482253 0.135466 0.568604
1030 2 0.136883 0.0867568 0.547884
1154 4 0.0962973 0.0860279 0.565505
1031 4 0.157492 0.0920717 0.534762
950 4 0.217734 0.0837781 0.55379
949 2 0.192819 0.0854088 0.552454
951 4 0.167905 0.0870396 0.551117
1151 4 0.179887 0.149813 0.512647
939 4 0.183455 0.139349 0.528427
937 2 0.183268 0.153485 0.549051
938 4 0.183082 0.167621 0.569674
431 4 0.298873 0.0879407 0.539803
430 2 0.282684 0.0982303 0.523765
432 4 0.266495 0.10852 0.507727
857 4 0.370824 0.147057 0.575596
899 4 0.377561 0.15605 0.558204
1272 4 0.120546 0.246247 0.536034
1270 2 0.126329 0.232836 0.556329
1271 4 0.132112 0.219425 0.576623
898 2 0.386687 0.174274 0.54372
900 4 0.395812 0.192499 0.529237
872 4 0.397365 0.210682 0.54013
873 4 0.374414 0.24759 0.564865
871 2 0.38589 0.229136 0.552498
879 4 0.114361 0.258538 0.522021
1239 4 0.282238 0.277325 0.569785
813 4 0.357161 0.257603 0.570103
1204 2 0.376815 0.302632 0.572583
1206 4 0.353629 0.306789 0.564197
930 4 0.350468 0.326282 0.568069
1205 4 0.400001 0.298475 0.580969
905 4 0.472544 0.272742 0.583054
953 4 0.461251 0.289416 0.579472
983 4 0.0497381 0.38397 0.562286
982 2 0.0270417 0.394327 0.563956
1041 4 0.0582573 0.388503 0.579256
984 4 0.00434531 0.404684 0.565625
896 4 0.189652 0.372566 0.509531
897 4 0.19406 0.402297 0.549498
895 2 0.191856 0.387431 0.529515
1137 4 0.18605 0.414793 0.563089
802 2 0.286474 0.365694 0.509795
804 4 0.305153 0.357456 0.524233
929 4 0.317481 0.34689 0.536639
928 2 0.333975 0.336586 0.552354
239 4 0.373241 0.382737 0.512961
1001 4 0.460632 0.386254 0.535664
926 4 0.46229 0.36744 0.530614
925 2 0.483114 0.358971 0.519669
1000 2 0.453701 0.386782 0.559682
1936 2 0.0298181 0.483372 0.560755
1937 4 0.040018 0.476595 0.538955
539 4 0.0536594 0.467795 0.527809
538 2 0.0478592 0.460132 0.504726
1938 4 0.0196182 0.490148 0.582554
2244 4 0.125829 0.493713 0.550631
2242 2 0.139481 0.489144 0.571074
1173 4 0.225049 0.446148 0.575712
1171 2 0.24966 0.448949 0.572301
882 4 0.294453 0.45161 0.566689
880 2 0.298606 0.469202 0.549413
881 4 0.302758 0.486794 0.532137
1445 4 0.288411 0.482879 0.519505
1172 4 0.274271 0.45175 0.56889
1444 2 0.27233 0.486485 0.500702
1185 4 0.00726099 0.0478794 0.650564
945 4 0.0242379 0.0455406 0.640598
943 2 0.0363953 0.0577218 0.658736
1058 4 0.102492 0.0242457 0.652577
1057 2 0.106288 0.0455418 0.640037
1155 4 0.100218 0.0799224 0.614983
1059 4 0.110085 0.0668378 0.627498
1153 2 0.0982578 0.0829752 0.590244
1221 4 0.152286 0.0801521 0.658746
825 4 0.0965056 0.00798575 0.662542
1005 4 0.303587 0.0677063 0.60929
1003 2 0.309451 0.0802166 0.630129
1142 4 0.363901 0.0696355 0.66132
2282 4 0.482051 0.0326036 0.60709
2281 2 0.465723 0.0205534 0.592483
43 3 0.48621 0.0466185 0.621172
41 1 0.494175 0.0684046 0.6206
1082 4 0.0538811 0.130394 0.587525
1081 2 0.0402805 0.143005 0.604293
1083 4 0.0266799 0.155616 0.621061
1199 4 0.00941001 0.164486 0.61317
1219 2 0.173704 0.0926994 0.655747
1220 4 0.195123 0.105247 0.652748
1212 4 0.211891 0.106479 0.642762
1210 2 0.230827 0.117704 0.65462
1004 4 0.315315 0.092727 0.650968
887 4 0.303471 0.0994946 0.666907
856 2 0.35923 0.15809 0.594806
1141 2 0.369263 0.0933843 0.667013
44 3 0.476799 0.0832949 0.624444
909 4 0.144994 0.220014 0.592116
907 2 0.162582 0.23397 0.603118
908 4 0.18017 0.247927 0.614121
798 4 0.316435 0.224355 0.606722
796 2 0.323945 0.201694 0.614157
797 4 0.331455 0.179034 0.621592
811 2 0.346341 0.244668 0.588563
858 4 0.347636 0.169124 0.614017
812 4 0.335521 0.231733 0.607024
1026 4 0.388003 0.169057 0.65258
3357 4 0.496879 0.222396 0.668594
947 4 0.191582 0.2649 0.618117
946 2 0.20115 0.274479 0.639138
948 4 0.210718 0.284058 0.660158
1065 4 0.22511 0.293385 0.651051
1063 2 0.246177 0.299648 0.662973
1237 2 0.297134 0.286341 0.587729
1238 4 0.31203 0.295358 0.605672
792 4 0.321674 0.291561 0.622778
954 4 0.412783 0.287896 0.591688
790 2 0.340349 0.297643 0.638251
791 4 0.359024 0.303726 0.653724
952 2 0.437017 0.288656 0.58558
904 2 0.484685 0.262073 0.602132
906 4 0.496826 0.251405 0.62121
1281 4 0.0748333 0.34611 0.649712
1039 2 0.0801711 0.399821 0.583364
1279 2 0.0602248 0.358765 0.665574
894 4 0.0903788 0.348879 0.661201
991 2 0.12588 0.405458 0.615575
992 4 0.149798 0.404418 0.62279
892 2 0.114319 0.353518 0.666727
1136 4 0.160552 0.409069 0.605725
1040 4 0.102085 0.411138 0.587472
993 4 0.101963 0.406498 0.60836
1135 2 0.173301 0.411931 0.584407
1027 2 0.24353 0.385242 0.664416
1029 4 0.266547 0.391009 0.656535
1002 4 0.446769 0.38731 0.5837
1910 4 0.448798 0.404753 0.595349
1909 2 0.433704 0.414628 0.612664
936 4 0.014005 0.48183 0.598539
2243 4 0.153132 0.484574 0.591517
1160 4 0.211988 0.453207 0.589089
1161 4 0.173763 0.485281 0.59239
1159 2 0.192875 0.469244 0.59074
889 2 0.371371 0.490557 0.647427
1269 4 0.405772 0.476793 0.653794
890 4 0.386411 0.474349 0.659102
1911 4 0.418609 0.424504 0.629979
1267 2 0.417872 0.455611 0.648309
1268 4 0.429972 0.434429 0.642824
944 4 0.0485526 0.069903 0.676874
1075 2 0.0738374 0.0748736 0.713498
823 2 0.0823389 0.00257521 0.682422
1076 4 0.0581932 0.0705312 0.694483
1077 4 0.0894817 0.0792161 0.732513
1283 4 0.137503 0.0603715 0.716737
1282 2 0.152649 0.0772066 0.727337
831 4 0.343869 0.0823496 0.703759
3387 4 0.00214764 0.130712 0.743077
1105 2 0.0427904 0.166371 0.746831
32 3 0.107878 0.14841 0.727423
31 1 0.0969767 0.155252 0.746489
1284 4 0.167795 0.0940416 0.737937
1211 4 0.249762 0.128929 0.666479
1227 4 0.18099 0.105736 0.747909
888 4 0.265991 0.130531 0.67843
886 2 0.284731 0.115013 0.672669
830 4 0.294807 0.0920029 0.704434
829 2 0.319338 0.0871762 0.704096
1024 2 0.383587 0.150889 0.66918
1143 4 0.374626 0.117133 0.672707
1025 4 0.379171 0.13272 0.685781
35 3 0.0804388 0.169855 0.740842
1107 4 0.019139 0.171221 0.74033
1208 4 0.0695815 0.239299 0.692162
1207 2 0.0503129 0.250225 0.703761
821 4 0.0865309 0.242003 0.701865
822 4 0.115469 0.221171 0.736927
1278 4 0.133867 0.216005 0.73464
820 2 0.101 0.231587 0.719396
1276 2 0.154107 0.201754 0.738171
1277 4 0.174346 0.187503 0.741701
1131 4 0.18376 0.168489 0.74348
977 4 0.299232 0.22056 0.728928
916 2 0.319617 0.230097 0.703888
918 4 0.309182 0.210098 0.714673
3122 4 0.47956 0.233824 0.669721
1263 4 0.445973 0.219959 0.753066
1261 2 0.452513 0.243844 0.749617
1243 2 0.00709623 0.283758 0.703932
3188 4 0.0287272 0.269065 0.733468
1209 4 0.0310444 0.26115 0.71536
1244 4 0.0287906 0.295004 0.709229
1064 4 0.267244 0.305911 0.674896
1241 4 0.26277 0.282364 0.731403
917 4 0.330053 0.250097 0.693104
1097 4 0.321831 0.266505 0.68463
1096 2 0.303318 0.282007 0.678138
1098 4 0.284806 0.297509 0.671647
1008 4 0.328149 0.276732 0.748228
3121 2 0.478603 0.254262 0.684093
3123 4 0.477646 0.274699 0.698465
1262 4 0.459053 0.267729 0.746169
3275 4 0.0462494 0.37678 0.70044
1280 4 0.0456163 0.371421 0.681436
3274 2 0.0508652 0.392678 0.719178
816 4 0.0757699 0.405492 0.736424
3276 4 0.0554811 0.408576 0.737917
893 4 0.138259 0.358158 0.672253
940 2 0.161732 0.392366 0.735208
814 2 0.0990944 0.413831 0.733016
1028 4 0.220512 0.379475 0.672298
1068 4 0.211945 0.363084 0.681415
1067 4 0.18779 0.371438 0.724397
1066 2 0.199868 0.367261 0.702906
941 4 0.167822 0.368815 0.729427
1139 4 0.266248 0.406933 0.667619
1229 4 0.366213 0.377545 0.711411
1228 2 0.364454 0.40152 0.704533
2022 4 0.0458011 0.464325 0.666997
2021 4 0.0520424 0.477185 0.714917
1981 2 0.024385 0.490726 0.735299
2020 2 0.0489217 0.470755 0.690957
1983 4 0.0351143 0.488225 0.712853
942 4 0.155642 0.415917 0.74099
815 4 0.122419 0.422169 0.729608
1138 2 0.277556 0.426332 0.678618
1140 4 0.288865 0.445731 0.689617
1989 4 0.293003 0.440118 0.707398
1987 2 0.297631 0.45516 0.726827
1988 4 0.302259 0.470203 0.746256
1230 4 0.362696 0.425495 0.697656
1100 4 0.437078 0.493412 0.737812
864 4 0.0596614 0.0556543 0.823141
862 2 0.0566859 0.0765006 0.80966
1203 4 0.0926387 0.0712439 0.749745
1201 2 0.108653 0.0527509 0.754914
2049 4 0.144434 0.0357855 0.765899
2047 2 0.159776 0.0160639 0.764973
1202 4 0.124668 0.0342579 0.760083
1147 2 0.204624 0.0642798 0.810338
1148 4 0.186043 0.0781263 0.81973
1149 4 0.223204 0.0504332 0.800946
1049 4 0.241028 0.05831 0.809551
1048 2 0.258816 0.0483187 0.824005
817 2 0.32442 0.0821168 0.809217
818 4 0.340288 0.0630742 0.805935
965 4 0.358314 0.064163 0.816468
964 2 0.377689 0.0779293 0.824232
846 4 0.492069 0.00926725 0.762526
1106 4 0.0664419 0.161521 0.753332
863 4 0.0537104 0.0973469 0.796178
832 2 0.0623907 0.131686 0.782303
833 4 0.0521652 0.115757 0.79864
834 4 0.0726162 0.147614 0.765966
33 3 0.0878838 0.136675 0.757007
34 3 0.112245 0.165631 0.760544
1073 4 0.116826 0.158726 0.779919
1225 2 0.192421 0.10775 0.770055
1226 4 0.203852 0.109764 0.792201
840 4 0.219856 0.121186 0.791988
838 2 0.239928 0.134921 0.797786
1130 4 0.178222 0.153312 0.790806
1129 2 0.180991 0.1609 0.767143
839 4 0.26 0.148657 0.803583
959 4 0.2755 0.159399 0.800804
819 4 0.308552 0.101159 0.812498
1085 4 0.320503 0.114757 0.804403
1084 2 0.32624 0.136901 0.814498
1086 4 0.331976 0.159045 0.824594
966 4 0.397064 0.0916955 0.831996
3270 4 0.489422 0.158854 0.769742
779 4 0.0679763 0.225573 0.832133
1214 4 0.0518944 0.23159 0.820268
1213 2 0.0324918 0.239677 0.806729
1215 4 0.0130891 0.247765 0.793189
1072 2 0.118138 0.169039 0.802659
778 2 0.085104 0.207469 0.83012
1074 4 0.119449 0.179353 0.825398
780 4 0.102232 0.189364 0.828106
976 2 0.294119 0.215992 0.752973
978 4 0.289006 0.211423 0.777018
958 2 0.272889 0.182717 0.792165