ITEM: TIMESTEP
2860000
ITEM: NUMBER OF ATOMS
4590
ITEM: BOX BOUNDS pp pp pp
-9.9985700000000008e+00 9.9985700000000008e+00
-9.9985700000000008e+00 9.9985700000000008e+00
-9.9985700000000008e+00 9.9985700000000008e+00
ITEM: ATOMS id type xs ys zs
463 2 0.0262131 0.0408116 0.0081244
464 4 0.0387221 0.0195713 0.0123142
1668 4 0.0548755 0.0437644 0.0482031
1666 2 0.0408345 0.0429548 0.0688762
3290 4 0.0729445 0.0362099 0.0457748
701 4 0.0299719 0.072964 0.000441654
3289 2 0.0895824 0.0344387 0.0271947
565 2 0.169129 0.0382476 0.0187893
566 4 0.15165 0.0396154 0.000962812
3291 4 0.10622 0.0326675 0.0086145
567 4 0.186608 0.0368797 0.0366158
490 2 0.294483 0.00544019 0.0546254
491 4 0.299422 0.0239517 0.0385596
985 2 0.298461 0.0437807 0.00945841
987 4 0.306187 0.0411502 0.0330925
745 2 0.458309 0.0403134 0.054649
746 4 0.439051 0.0537285 0.0460261
747 4 0.477566 0.0268983 0.063272
1826 4 0.48395 0.00721325 0.064864
460 2 0.303635 0.160746 0.0580647
462 4 0.323243 0.15031 0.0465848
2724 4 0.478481 0.0935664 0.0756499
422 4 0.0519083 0.183629 0.0145819
421 2 0.0744451 0.177434 0.0056997
505 2 0.144806 0.250859 0.0468829
506 4 0.167034 0.240628 0.052025
737 4 0.181965 0.228257 0.0509545
736 2 0.201554 0.212797 0.0494009
738 4 0.221144 0.197337 0.0478473
354 4 0.222105 0.17983 0.0396563
352 2 0.243626 0.174596 0.0512599
461 4 0.284027 0.171183 0.0695446
353 4 0.265146 0.169362 0.0628635
665 4 0.329974 0.217111 0.0220971
1069 2 0.384822 0.240284 0.00502431
828 4 0.483488 0.227905 0.024675
519 4 0.508437 0.244079 0.0576676
826 2 0.486082 0.214327 0.00384043
324 4 0.449614 0.262119 0.027516
2807 4 0.00686347 0.263842 0.00603972
292 2 0.0991162 0.286563 0.0696931
293 4 0.110086 0.26872 0.0560378
507 4 0.122579 0.26109 0.0417408
612 4 0.280559 0.295917 0.0587232
610 2 0.275559 0.276494 0.073654
609 4 0.267226 0.310078 0.0578249
482 4 0.307723 0.29958 0.992522
481 2 0.286118 0.287204 0.994808
1071 4 0.364957 0.251966 0.0147234
573 4 0.361177 0.271525 0.0148659
571 2 0.348075 0.291848 0.00850388
323 4 0.492364 0.254189 0.0522192
322 2 0.470989 0.258154 0.0398676
630 4 0.416309 0.259821 0.0876237
1288 2 0.190022 0.414191 0.0102137
1289 4 0.183105 0.395948 0.0258515
988 2 0.181286 0.358863 0.00364494
989 4 0.186762 0.375809 0.0211957
741 4 0.330094 0.350998 0.00763396
739 2 0.327039 0.356018 0.0319373
250 2 0.28674 0.388198 0.0501475
252 4 0.272553 0.367823 0.0471906
607 2 0.273764 0.331514 0.0467379
608 4 0.280303 0.35295 0.0356509
740 4 0.323984 0.361037 0.0562406
386 4 0.339764 0.363316 0.0682974
226 2 0.393356 0.38817 0.0271668
228 4 0.385662 0.410767 0.0346056
227 4 0.401049 0.365572 0.0197279
671 4 0.422763 0.363176 0.0689621
525 4 0.365154 0.413477 0.0351628
281 4 0.433026 0.346171 0.0687144
280 2 0.457558 0.341657 0.0669855
282 4 0.48209 0.337143 0.0652566
1047 4 0.498488 0.333554 0.0549782
104 3 0.488018 0.342149 0.084197
552 4 0.0240641 0.456891 0.0593232
314 4 0.0211226 0.452261 0.0783763
550 2 0.0103184 0.475575 0.0499882
313 2 0.0162686 0.429705 0.0880125
1956 4 0.988987 0.495541 0.0220429
1786 2 0.161139 0.491164 0.0671277
243 4 0.235534 0.465549 0.0584064
1440 4 0.237814 0.463932 0.0782273
241 2 0.212998 0.471634 0.0494453
242 4 0.190462 0.477718 0.0404841
1787 4 0.172401 0.47868 0.0486216
1290 4 0.19694 0.432433 0.994576
251 4 0.300927 0.408574 0.0531044
524 4 0.31773 0.416883 0.0506572
271 2 0.2747 0.479586 0.0716059
272 4 0.29203 0.461823 0.0746598
523 2 0.341442 0.41518 0.04291
1583 4 0.456 0.444093 0.06187
1582 2 0.4518 0.464534 0.0756434
1584 4 0.4476 0.484974 0.0894168
1667 4 0.0267936 0.0421453 0.0895492
16 1 0.0334988 0.0465918 0.123754
2480 4 0.0157951 0.0627078 0.152689
18 3 0.043584 0.0674888 0.123686
19 3 0.0238916 0.0425004 0.144475
17 3 0.0170141 0.0462379 0.107714
20 3 0.0489136 0.0305088 0.119024
1422 4 0.0090572 0.0452663 0.163475
652 2 0.232808 0.0440661 0.164886
654 4 0.22624 0.0270507 0.147783
1476 4 0.242511 0.0296984 0.136768
1475 4 0.279144 0.0231938 0.103356
1474 2 0.260828 0.0264461 0.120062
297 4 0.369676 0.0491747 0.135877
295 2 0.389205 0.0633768 0.129388
296 4 0.408734 0.0775789 0.122899
484 2 0.351862 0.0188196 0.126291
485 4 0.354521 0.0435601 0.123838
557 4 0.424731 0.0712681 0.111051
556 2 0.44631 0.0818285 0.117978
450 4 0.100839 0.0912338 0.0994627
236 4 0.138228 0.1349 0.123935
449 4 0.121614 0.12624 0.128509
448 2 0.111227 0.108737 0.113986
235 2 0.159311 0.145496 0.115663
237 4 0.180394 0.156093 0.107392
580 2 0.314015 0.123736 0.152981
582 4 0.325896 0.103452 0.144461
581 4 0.302134 0.14402 0.1615
30 3 0.285994 0.152057 0.171513
758 4 0.34032 0.0917848 0.150769
558 4 0.46789 0.0923889 0.124904
771 4 0.485689 0.0955909 0.133333
769 2 0.487832 0.109953 0.153688
370 2 0.166329 0.214225 0.164071
371 4 0.188286 0.209469 0.153098
476 4 0.195702 0.200133 0.169194
456 4 0.0918965 0.313543 0.100442
704 4 0.0296096 0.297823 0.167938
339 4 0.0488435 0.29499 0.163528
294 4 0.0881465 0.304406 0.0833485
611 4 0.27056 0.257071 0.0885848
279 4 0.260696 0.254237 0.148877
277 2 0.257084 0.257415 0.124341
278 4 0.253471 0.260593 0.0998047
285 4 0.277783 0.250919 0.158814
254 4 0.398373 0.265244 0.08198
754 2 0.352985 0.25947 0.14995
756 4 0.353204 0.257699 0.12501
253 2 0.37675 0.260063 0.0934163
255 4 0.355127 0.254883 0.104853
624 4 0.436284 0.248256 0.139735
629 4 0.446746 0.262089 0.127237
628 2 0.431527 0.260955 0.10743
622 2 0.436846 0.254415 0.163962
619 2 0.0383787 0.382129 0.113792
620 4 0.0598898 0.375198 0.124488
621 4 0.0168675 0.38906 0.103096
315 4 0.0114146 0.407149 0.0976488
454 2 0.0908169 0.338414 0.0981085
455 4 0.0897374 0.363286 0.0957754
537 4 0.142101 0.384592 0.158173
535 2 0.141041 0.381889 0.133339
536 4 0.139982 0.379187 0.108504
625 2 0.230693 0.405984 0.139492
627 4 0.226598 0.411523 0.115455
626 4 0.234787 0.400445 0.163528
301 2 0.336191 0.419766 0.129073
670 2 0.410267 0.366938 0.0902899
385 2 0.348823 0.376447 0.0875501
387 4 0.357883 0.389579 0.106803
12 3 0.408467 0.381648 0.124764
11 1 0.393361 0.395944 0.134591
15 3 0.372859 0.392818 0.125182
672 4 0.397771 0.370699 0.111618
302 4 0.354253 0.405563 0.119212
13 3 0.392417 0.39139 0.157324
596 4 0.340783 0.362028 0.1847
1466 4 0.00953293 0.485109 0.115994
1431 4 0.161525 0.494411 0.165614
1438 2 0.231947 0.447587 0.096216
1439 4 0.22608 0.431242 0.114205
1574 4 0.270304 0.501694 0.118422
639 4 0.270812 0.500491 0.140131
638 4 0.283235 0.453864 0.153257
637 2 0.277024 0.477178 0.146694
303 4 0.318129 0.433968 0.138934
659 4 0.321834 0.449386 0.149704
1559 4 0.358313 0.488132 0.144984
14 3 0.400392 0.417791 0.131174
494 4 0.40044 0.469321 0.100761
495 4 0.4137 0.431044 0.130082
493 2 0.40707 0.450183 0.115422
658 2 0.336151 0.459351 0.167619
2479 2 0.0176157 0.0867182 0.159424
674 4 0.151309 0.0716017 0.21149
673 2 0.156011 0.0806468 0.234321
689 4 0.188163 0.037602 0.17651
690 4 0.156935 0.0732172 0.192543
1505 4 0.196816 0.0202476 0.181529
653 4 0.239375 0.0610815 0.18199
688 2 0.172549 0.0554096 0.184527
693 4 0.252881 0.0491756 0.190394
691 2 0.270308 0.0586721 0.205603
1699 2 0.324807 0.0802571 0.221732
692 4 0.287735 0.0681687 0.220811
1701 4 0.300582 0.0827928 0.227382
1700 4 0.349031 0.0777213 0.216082
22 3 0.388514 0.0504142 0.221881
698 4 0.403378 0.0552026 0.234513
21 1 0.381255 0.0713585 0.215733
333 4 0.412422 0.0736484 0.225956
23 3 0.363436 0.0774063 0.229309
25 3 0.374625 0.0709049 0.193951
759 4 0.35694 0.0807807 0.196632
697 2 0.412602 0.0358447 0.247373
351 4 0.504188 0.0637084 0.230371
2481 4 0.0194364 0.110729 0.166159
513 4 0.0266842 0.147319 0.227601
578 4 0.0404046 0.16154 0.223735
511 2 0.0032921 0.140218 0.222351
28 3 0.251984 0.139693 0.181911
27 3 0.265309 0.172266 0.195106
26 1 0.264757 0.158373 0.17678
757 2 0.34863 0.0862827 0.1737
24 3 0.398703 0.0864227 0.218386
349 2 0.489688 0.0835193 0.225631
770 4 0.489976 0.124315 0.174043
312 4 0.476598 0.13509 0.183712
310 2 0.481267 0.135175 0.208275
350 4 0.475189 0.10333 0.220891
331 2 0.434456 0.085444 0.226686
332 4 0.45649 0.0972396 0.227415
311 4 0.485937 0.13526 0.232839
577 2 0.0345329 0.185598 0.227188
529 2 0.0165527 0.240553 0.222259
530 4 0.0237585 0.225584 0.240944
579 4 0.0286613 0.209656 0.230641
372 4 0.144371 0.218981 0.175044
362 4 0.140609 0.23621 0.186261
361 2 0.116719 0.24058 0.192205
29 3 0.255255 0.169819 0.158973
475 2 0.217508 0.1879 0.168988
477 4 0.239314 0.175667 0.168781
337 2 0.0706796 0.288206 0.173644
531 4 0.00934681 0.255523 0.203573
2483 4 0.00659514 0.2502 0.184909
703 2 0.017027 0.306934 0.18753
705 4 0.00444434 0.316045 0.207122
2615 4 0.0160238 0.327256 0.218213
338 4 0.0925158 0.281422 0.18376
395 4 0.0985108 0.288456 0.201874
396 4 0.101758 0.290681 0.251726
394 2 0.100134 0.289569 0.2268
363 4 0.0928288 0.244949 0.19815
283 2 0.291972 0.269756 0.167122
284 4 0.30616 0.288593 0.17543
755 4 0.352766 0.261241 0.17489
528 4 0.423749 0.319683 0.21884
623 4 0.437408 0.260574 0.188188
527 4 0.439454 0.279997 0.192781
526 2 0.431601 0.29984 0.20581
263 4 0.0517305 0.427572 0.233014
647 4 0.140015 0.383752 0.177307
300 4 0.108562 0.35071 0.209391
646 2 0.119873 0.371362 0.18543
648 4 0.0997315 0.358972 0.193553
298 2 0.101065 0.351715 0.233223
289 2 0.225666 0.40365 0.240935
416 4 0.201338 0.409634 0.207939
290 4 0.209977 0.399515 0.221911
345 4 0.339142 0.364147 0.205189
645 4 0.392976 0.40148 0.177071
597 4 0.372435 0.39733 0.168804
595 2 0.356609 0.379679 0.176752
343 2 0.34446 0.362331 0.229553
542 4 0.435256 0.317977 0.235851
1430 4 0.161164 0.453033 0.193695
417 4 0.164479 0.443275 0.211161
1429 2 0.161344 0.473722 0.179655
415 2 0.182909 0.426454 0.20955
438 4 0.276505 0.465847 0.225149
643 2 0.397608 0.422899 0.189111
229 2 0.364576 0.49909 0.214678
644 4 0.402239 0.444317 0.201151
660 4 0.350467 0.469315 0.185533
231 4 0.359857 0.482355 0.19671
447 4 0.408051 0.439653 0.219094
445 2 0.419315 0.446542 0.240327
1403 4 0.00893094 0.00505255 0.276515
233 4 0.00698039 0.0241358 0.281228
232 2 0.014887 0.0477814 0.279344
234 4 0.0227935 0.071427 0.277459
317 4 0.040154 0.0645567 0.284209
316 2 0.061288 0.0777488 0.286331
318 4 0.082422 0.0909409 0.288452
1407 4 0.247585 0.0120779 0.296127
722 4 0.177098 0.080208 0.266308
1405 2 0.225171 0.016647 0.286032
1406 4 0.202757 0.0212161 0.275936
684 4 0.298617 0.0577869 0.331917
249 4 0.318594 0.0556991 0.331034
1518 4 0.427941 0.024064 0.27908
1516 2 0.435698 0.00189112 0.287647
699 4 0.421825 0.0164869 0.260233
425 4 0.4827 0.0384752 0.278814
424 2 0.474517 0.0483976 0.300256
258 4 0.463185 0.0788668 0.323126
426 4 0.466333 0.0583199 0.321697
743 4 0.495741 0.0280224 0.267223
393 4 0.0865256 0.139309 0.31656
675 4 0.160713 0.0896919 0.257152
391 2 0.0942937 0.138112 0.292824
392 4 0.102062 0.136916 0.269087
544 2 0.140117 0.125161 0.259776
545 4 0.121108 0.140756 0.26432
546 4 0.159126 0.109567 0.255232
399 4 0.0935351 0.133306 0.333988
721 2 0.195188 0.078848 0.283516
723 4 0.213277 0.0774879 0.300723
599 4 0.213147 0.0742451 0.321806
404 4 0.240452 0.0994143 0.288712
403 2 0.234621 0.123419 0.284845
405 4 0.22879 0.147424 0.280979
256 2 0.480122 0.0972251 0.324253
401 4 0.229279 0.166685 0.276675
400 2 0.249231 0.181619 0.274655
402 4 0.269183 0.196553 0.272635
765 4 0.415308 0.186389 0.322974
763 2 0.437382 0.193339 0.31351
764 4 0.459457 0.200289 0.304045
2769 4 0.503134 0.251089 0.325262
442 2 0.0723593 0.268043 0.270156
444 4 0.0533943 0.251772 0.271018
749 4 0.0616198 0.328926 0.295417
748 2 0.0825645 0.334873 0.283123
443 4 0.0913244 0.284315 0.269294
497 4 0.312479 0.27241 0.306424
496 2 0.331201 0.266672 0.321971
615 4 0.412238 0.311094 0.294611
541 2 0.430208 0.310964 0.259314
543 4 0.425159 0.30395 0.282777
613 2 0.420317 0.324707 0.313966
366 4 0.0567916 0.348571 0.297115
365 4 0.00817341 0.358974 0.302479
364 2 0.0324825 0.353772 0.299797
601 2 0.0776653 0.383466 0.320913
299 4 0.093568 0.352721 0.257055
750 4 0.103509 0.340819 0.27083
602 4 0.0793081 0.390627 0.297014
777 4 0.0881098 0.405289 0.28598
735 4 0.160592 0.381998 0.293307
733 2 0.154531 0.358084 0.297377
734 4 0.148471 0.33417 0.301448
677 4 0.166761 0.39961 0.291686
291 4 0.241356 0.407786 0.259959
414 4 0.245671 0.397232 0.277062
412 2 0.257414 0.406294 0.297191
413 4 0.269156 0.415357 0.317319
5 3 0.278546 0.415743 0.335087
309 4 0.356122 0.363137 0.273331
344 4 0.349778 0.360516 0.253917
307 2 0.34921 0.371271 0.295941
729 4 0.329951 0.372345 0.332774
308 4 0.342297 0.379405 0.318552
2924 4 0.479958 0.369174 0.314418
2923 2 0.462689 0.357211 0.327979
2862 4 0.468195 0.397114 0.280364
2860 2 0.482934 0.388194 0.262243
120 3 0.48006 0.413337 0.309039
614 4 0.428396 0.338319 0.333321
262 2 0.0386181 0.428018 0.254298
264 4 0.0255056 0.428465 0.275583
1757 4 0.11153 0.458805 0.273843
776 4 0.111816 0.449056 0.290798
775 2 0.0999627 0.427173 0.288389
1756 2 0.108498 0.48258 0.280964
1640 4 0.227251 0.500073 0.263506
767 4 0.212724 0.486705 0.25925
676 2 0.171195 0.422203 0.281935
678 4 0.175629 0.444796 0.272185
768 4 0.188128 0.45176 0.285223
766 2 0.200426 0.469232 0.272237
504 4 0.219064 0.438671 0.305841
502 2 0.213551 0.446037 0.32909
1436 4 0.249042 0.49444 0.323335
437 4 0.276606 0.456543 0.274283
436 2 0.276556 0.461195 0.249716
1437 4 0.2624 0.467276 0.283529
1435 2 0.255721 0.480858 0.303432
433 2 0.320739 0.458269 0.328038
435 4 0.32532 0.479666 0.315941
713 4 0.46549 0.410761 0.295645
446 4 0.430579 0.45343 0.26156
712 2 0.447615 0.42391 0.284125
714 4 0.429739 0.43706 0.272604
731 4 0.0787745 0.0504427 0.401202
368 4 0.0669338 0.0639742 0.409774
730 2 0.0970548 0.0656035 0.393381
604 2 0.141158 0.0849458 0.360092
732 4 0.115335 0.0807642 0.385561
606 4 0.162168 0.0765667 0.349437
682 2 0.284878 0.0690711 0.349498
321 4 0.283746 0.0745093 0.381411
683 4 0.271139 0.0803554 0.367079
247 2 0.339335 0.0530677 0.344747
248 4 0.360076 0.0504363 0.358461
633 4 0.357526 0.0665152 0.369234
631 2 0.359109 0.0756844 0.392442
2586 4 0.0135525 0.148202 0.399114
2584 2 0.00763555 0.12554 0.407867
397 2 0.112241 0.143906 0.346752
605 4 0.120147 0.0933249 0.370747
398 4 0.130946 0.154506 0.359516
598 2 0.204291 0.0888422 0.340073
600 4 0.195435 0.103439 0.358339
685 2 0.204148 0.134793 0.376841
687 4 0.19937 0.123635 0.354981
686 4 0.208925 0.145951 0.398701
410 4 0.221232 0.151434 0.41353
319 2 0.277158 0.0860693 0.40258
760 2 0.486577 0.146726 0.351722
762 4 0.481193 0.168996 0.361733
761 4 0.491961 0.124455 0.341711
390 4 0.0967569 0.224174 0.414146
388 2 0.111442 0.239194 0.400584
473 4 0.22568 0.203106 0.353139
474 4 0.183423 0.228989 0.34642
472 2 0.204551 0.216048 0.34978
708 4 0.239708 0.195921 0.365355
651 4 0.249063 0.243895 0.407062
649 2 0.254114 0.2208 0.415204
275 4 0.167554 0.240881 0.349464
706 2 0.257773 0.196282 0.348072
707 4 0.275837 0.196644 0.330789
419 4 0.36229 0.174709 0.411082
716 4 0.379385 0.167238 0.402514
377 4 0.38231 0.205077 0.357902
717 4 0.39544 0.188989 0.360444
715 2 0.387413 0.178114 0.381479
376 2 0.371964 0.227522 0.354114
2654 4 0.993455 0.25916 0.407981
618 4 0.0127427 0.254696 0.409347
274 2 0.15204 0.254958 0.363114
276 4 0.136526 0.269035 0.376765
389 4 0.126128 0.254214 0.387022
1258 2 0.14307 0.314266 0.400142
1259 4 0.146133 0.314528 0.375328
508 2 0.237294 0.327842 0.35758
509 4 0.243504 0.309273 0.373131
487 2 0.249008 0.271248 0.379507
488 4 0.239407 0.290385 0.366594
489 4 0.25861 0.25211 0.392419
378 4 0.361619 0.249968 0.350326
498 4 0.349924 0.260934 0.337519
266 4 0.341492 0.301573 0.38767
585 4 0.360311 0.299104 0.395358
583 2 0.372192 0.280473 0.40706
265 2 0.337519 0.324755 0.379187
269 4 0.492144 0.240924 0.337444
268 2 0.490028 0.254896 0.35807
270 4 0.487912 0.268869 0.378697
306 4 0.479714 0.256177 0.389435
304 2 0.480975 0.261964 0.413727
603 4 0.0760226 0.376305 0.344813
547 2 0.0901125 0.407874 0.373535
549 4 0.0846643 0.389384 0.35761
510 4 0.231083 0.34641 0.34203
375 4 0.229578 0.405887 0.366036
374 4 0.230413 0.365455 0.336621
373 2 0.229996 0.385671 0.351328
3 3 0.277126 0.409367 0.372167
267 4 0.333546 0.347938 0.370705
727 2 0.328226 0.395724 0.341473
2925 4 0.445421 0.345249 0.341539
407 4 0.0546774 0.421837 0.392126
680 4 0.0525398 0.480552 0.410254
406 2 0.049926 0.442551 0.405299
569 4 0.112703 0.422825 0.399197
548 4 0.0955606 0.426365 0.38946
635 4 0.168883 0.489787 0.393151
634 2 0.185238 0.474986 0.381377
636 4 0.201592 0.460185 0.369602
503 4 0.208038 0.453404 0.352339
434 4 0.316158 0.436872 0.340136
669 4 0.302414 0.501356 0.376308
2 3 0.306285 0.427634 0.357044
1 1 0.283574 0.424273 0.355595
668 4 0.273703 0.465478 0.356582
4 3 0.272779 0.444594 0.358582
667 2 0.288058 0.483417 0.366445
728 4 0.326502 0.419102 0.350171
1401 4 0.326287 0.45298 0.414076
336 4 0.348746 0.429349 0.404273
752 4 0.495189 0.422947 0.411567
751 2 0.497363 0.41752 0.387257
718 2 0.0408848 0.0524306 0.484875
719 4 0.0497621 0.0517506 0.461511
369 4 0.0494034 0.0700767 0.456209
367 2 0.0581686 0.0670255 0.432991
341 4 0.182694 0.0655037 0.479802
2430 4 0.184784 0.0525407 0.464974
2428 2 0.199885 0.0326615 0.466377
2429 4 0.214985 0.0127822 0.467779
632 4 0.360692 0.0848536 0.415649
2879 4 0.422831 0.996005 0.421001
641 4 0.492372 0.0731201 0.437705
2878 2 0.444514 0.00826639 0.423163
2880 4 0.466197 0.0205282 0.425324
642 4 0.471872 0.0346943 0.413129
640 2 0.482122 0.0539072 0.425417
2757 4 0.0040102 0.0834834 0.422498
2585 4 0.00171861 0.102878 0.41662
340 2 0.190303 0.0886421 0.474154
1152 4 0.194064 0.122855 0.485192
342 4 0.197912 0.11178 0.468506
1150 2 0.197953 0.140949 0.502004
320 4 0.27057 0.0976293 0.42375
725 4 0.254926 0.0911315 0.435192
724 2 0.268808 0.0990621 0.454417
432 4 0.288409 0.118156 0.489807
726 4 0.28269 0.106993 0.473641
418 2 0.357173 0.152353 0.421043
420 4 0.352057 0.129998 0.431004
467 4 0.371302 0.115759 0.464952
466 2 0.359758 0.100027 0.449318
468 4 0.348214 0.0842948 0.433684
574 2 0.400519 0.144396 0.459596
576 4 0.381227 0.132793 0.470475
575 4 0.419811 0.156 0.448717
260 4 0.0820076 0.187077 0.472628
259 2 0.0786911 0.179364 0.49618
469 2 0.0744218 0.21078 0.441767
471 4 0.0691414 0.192939 0.458469
470 4 0.0797021 0.228621 0.425064
409 2 0.234105 0.169227 0.425483
650 4 0.259165 0.197705 0.423347
411 4 0.246979 0.18702 0.437436
2455 2 0.376959 0.224113 0.438737
2457 4 0.379129 0.201896 0.450001
516 4 0.423279 0.165248 0.432194
514 2 0.446517 0.165062 0.441423
515 4 0.469754 0.164877 0.450652
616 2 0.017456 0.26293 0.43248
617 4 0.0221693 0.271164 0.455614
695 4 0.0855603 0.272993 0.435741
1260 4 0.140007 0.314004 0.424956
694 2 0.105027 0.28764 0.430113
696 4 0.124493 0.302288 0.424484
584 4 0.384073 0.261843 0.418761
2456 4 0.37479 0.24633 0.427473
2507 4 0.474027 0.331677 0.474534
1009 2 0.483041 0.295937 0.456541
1011 4 0.492125 0.272883 0.4532
305 4 0.482236 0.267752 0.438019
326 4 0.089296 0.38647 0.460501
325 2 0.110679 0.373537 0.461338
7 3 0.14656 0.357237 0.474483
327 4 0.132061 0.360604 0.462174
6 1 0.154779 0.364205 0.494806
8 3 0.155136 0.387403 0.495199
10 3 0.175868 0.356061 0.49756
1189 2 0.220653 0.350124 0.497534
1190 4 0.245197 0.354249 0.499932
803 4 0.264894 0.357564 0.497302
238 2 0.34388 0.376729 0.463012
240 4 0.339135 0.391578 0.443464
239 4 0.348626 0.36188 0.482561
2506 2 0.480495 0.355774 0.472894
559 2 0.499115 0.395696 0.440682
2508 4 0.486963 0.379871 0.471254
1881 4 0.992363 0.508061 0.497419
408 4 0.0451747 0.463265 0.418472
540 4 0.0466006 0.489878 0.473363
1382 4 0.0353064 0.474379 0.470002
1381 2 0.0139506 0.461845 0.47347
773 4 0.138524 0.500535 0.48434
570 4 0.117847 0.432005 0.448085
772 2 0.120691 0.498882 0.466892
709 2 0.134882 0.419714 0.480457
774 4 0.102859 0.497229 0.449444
384 4 0.14267 0.494547 0.502474
568 2 0.115275 0.427415 0.423641
710 4 0.128336 0.437547 0.464199
1446 4 0.245211 0.486221 0.4845
1394 4 0.22779 0.486865 0.474716
334 2 0.353291 0.414948 0.424201
1400 4 0.336916 0.496042 0.437172
1399 2 0.331601 0.474511 0.425624
335 4 0.357835 0.400547 0.444129
561 4 0.502464 0.417097 0.428194
1127 4 0.0166878 0.0635849 0.515785
720 4 0.0320074 0.0531106 0.50824
1031 4 0.164991 0.0762814 0.560401
949 2 0.201674 0.0528078 0.563713
950 4 0.220644 0.0381236 0.570761
1182 4 0.23928 0.0451995 0.574463
951 4 0.182703 0.067492 0.556665
961 2 0.309394 0.00659153 0.564421
1180 2 0.259386 0.0381133 0.561398
963 4 0.290205 0.0225197 0.562622
1181 4 0.279493 0.0310272 0.548333
1216 2 0.39211 0.0698809 0.510648
1218 4 0.40195 0.0484259 0.5024
2283 4 0.450067 0.992618 0.579929
1035 4 0.0760781 0.138711 0.573735
1033 2 0.0821162 0.152247 0.553598
1034 4 0.0881543 0.165783 0.533461
1030 2 0.148934 0.0903007 0.573471
938 4 0.143962 0.168548 0.551677
937 2 0.16589 0.168847 0.539667
1151 4 0.201842 0.159043 0.518816
843 4 0.321591 0.0884502 0.536206
431 4 0.310259 0.105122 0.532858
857 4 0.32928 0.134747 0.573577
856 2 0.309007 0.146196 0.582693
430 2 0.299334 0.111639 0.511333
899 4 0.341596 0.121844 0.563309
1217 4 0.382269 0.091336 0.518895
841 2 0.3463 0.0921045 0.535072
842 4 0.371009 0.0957588 0.533938
898 2 0.358364 0.140231 0.560869
900 4 0.375132 0.158617 0.558428
261 4 0.0753747 0.171652 0.519732
879 4 0.105091 0.23209 0.549269
877 2 0.107301 0.242477 0.526633
1272 4 0.100445 0.241812 0.567195
878 4 0.109511 0.252865 0.503997
1270 2 0.11897 0.229796 0.578927
939 4 0.187818 0.169147 0.527656
811 2 0.334271 0.232878 0.578509
812 4 0.309303 0.23172 0.57914
872 4 0.384043 0.174939 0.552368
813 4 0.35924 0.234036 0.577878
873 4 0.360934 0.217309 0.565461
871 2 0.372489 0.196124 0.558915
1239 4 0.256026 0.303145 0.56935
1205 4 0.400042 0.301116 0.565425
1204 2 0.377394 0.306875 0.556533
954 4 0.417125 0.288898 0.56833
1206 4 0.354746 0.312635 0.547641
930 4 0.344959 0.330098 0.553104
952 2 0.431051 0.277412 0.585631
9 3 0.140945 0.35621 0.511632
711 4 0.141427 0.401882 0.496715
896 4 0.183522 0.343842 0.514493
1135 2 0.161006 0.379224 0.580088
1137 4 0.163439 0.355845 0.571562
1191 4 0.196108 0.345999 0.495136
897 4 0.176834 0.342047 0.564019
895 2 0.180178 0.342944 0.539256
802 2 0.282622 0.352732 0.514259
804 4 0.300351 0.347899 0.531215
929 4 0.311389 0.36365 0.537356
928 2 0.328174 0.346874 0.54523
1001 4 0.47488 0.380492 0.563241
926 4 0.46874 0.388602 0.544693
925 2 0.484358 0.37532 0.53038
1000 2 0.462293 0.397029 0.577143
934 2 0.0108615 0.479911 0.571729
936 4 0.0307105 0.493542 0.578466
382 2 0.132068 0.490738 0.524796
2242 2 0.135343 0.503423 0.577827
2244 4 0.119767 0.504345 0.558289
383 4 0.121466 0.486929 0.547118
882 4 0.274446 0.474248 0.574019
880 2 0.273997 0.488705 0.553623
1172 4 0.257389 0.4644 0.575927
1155 4 0.0826255 0.0834545 0.614738
1185 4 0.0251498 0.0657253 0.652976
945 4 0.0391713 0.054169 0.659488
1059 4 0.0818206 0.0639819 0.619425
825 4 0.11723 0.00890446 0.636658
1058 4 0.114359 0.0280773 0.631788
1057 2 0.0980897 0.0460296 0.625607
1005 4 0.290237 0.0790887 0.613089
1925 4 0.392613 0.990529 0.657494
2282 4 0.46289 0.0373936 0.598134
2281 2 0.456479 0.0150058 0.589031
43 3 0.470112 0.0407574 0.617533
41 1 0.477465 0.0588869 0.630009
44 3 0.45978 0.0733115 0.634202
45 3 0.493957 0.0698701 0.618782
42 3 0.485744 0.0512451 0.650064
1082 4 0.0637068 0.144165 0.588813
1081 2 0.040801 0.147857 0.598134
1083 4 0.0178953 0.151548 0.607455
1199 4 0.99958 0.160545 0.607881
1032 4 0.132878 0.10432 0.586541
1153 2 0.0984499 0.0921229 0.597428
1154 4 0.114274 0.100791 0.580119
1221 4 0.165336 0.0791339 0.621127
1219 2 0.178212 0.0926534 0.637759
1220 4 0.191089 0.106173 0.65439
1212 4 0.202119 0.120141 0.664137
1283 4 0.179349 0.100761 0.668897
1004 4 0.297046 0.109628 0.652097
1003 2 0.293641 0.0943584 0.632593
887 4 0.305273 0.123934 0.663921
1143 4 0.368318 0.148311 0.655078
1025 4 0.378616 0.144236 0.637165
1271 4 0.137495 0.21778 0.590658
909 4 0.143872 0.202621 0.601453
907 2 0.153839 0.212699 0.622051
947 4 0.166563 0.242083 0.635342
908 4 0.163806 0.222778 0.642649
946 2 0.169994 0.256409 0.655545
798 4 0.298391 0.218798 0.58895
858 4 0.288734 0.157644 0.591809
796 2 0.288666 0.19606 0.592637
797 4 0.278942 0.173322 0.596323
1024 2 0.382443 0.167289 0.628272
1026 4 0.38627 0.190342 0.619379
1237 2 0.270166 0.299662 0.589675
792 4 0.302061 0.286705 0.615872
790 2 0.323398 0.295481 0.625508
1238 4 0.284306 0.296179 0.61
791 4 0.344736 0.304258 0.635144
905 4 0.457577 0.252001 0.59858
953 4 0.444977 0.265926 0.602932
904 2 0.480801 0.24419 0.593597
982 2 0.0296502 0.394328 0.583252
984 4 0.00527911 0.39345 0.577734
983 4 0.0540214 0.395207 0.588771
1041 4 0.064591 0.405168 0.602204
1039 2 0.0838545 0.421108 0.602275
1136 4 0.158573 0.402602 0.588614
1002 4 0.449706 0.413566 0.591045
3330 4 0.491727 0.405674 0.662613
2022 4 0.0368004 0.498307 0.656215
992 4 0.158021 0.418339 0.576504
991 2 0.139984 0.431149 0.588155
993 4 0.121946 0.443958 0.599805
1040 4 0.103118 0.437049 0.602346
2243 4 0.150919 0.5025 0.597364
1161 4 0.166404 0.489568 0.593665
1171 2 0.236628 0.454524 0.585756
1160 4 0.209035 0.463446 0.592674
1159 2 0.18772 0.476507 0.59317
1173 4 0.215867 0.444647 0.595584
1267 2 0.420738 0.470559 0.656396
1952 4 0.353054 0.497997 0.61894
1910 4 0.459647 0.413956 0.608915
1911 4 0.429553 0.445888 0.632903
1909 2 0.4446 0.429922 0.620909
1268 4 0.436454 0.452218 0.649934
943 2 0.0511005 0.0546792 0.681457
1076 4 0.0565166 0.0398512 0.713739
944 4 0.0630296 0.0551893 0.703425
1075 2 0.0736675 0.03637 0.731597
1077 4 0.0908184 0.0328888 0.749455
831 4 0.316172 0.0884653 0.718694
1163 4 0.496332 0.0500091 0.666443
3387 4 0.0171962 0.102843 0.752271
1106 4 0.0705422 0.150346 0.753684
32 3 0.103018 0.124264 0.736578
35 3 0.0898879 0.156746 0.749439
1227 4 0.173338 0.10758 0.730984
31 1 0.0967253 0.135863 0.75542
1284 4 0.177048 0.092596 0.718179
1282 2 0.178199 0.0966786 0.693538
1210 2 0.226495 0.124335 0.667801
1211 4 0.25087 0.128528 0.671465
830 4 0.305306 0.0834935 0.670135
888 4 0.26138 0.144509 0.6762
886 2 0.283326 0.134221 0.67006
829 2 0.310739 0.0859794 0.694415
1141 2 0.353055 0.137649 0.671767
1142 4 0.337791 0.126986 0.688455
1107 4 0.0423682 0.184324 0.73018
851 4 0.0315138 0.197584 0.741706
850 2 0.00718552 0.200357 0.736644
1207 2 0.0624219 0.243878 0.690725
1105 2 0.0564552 0.167335 0.741932
1208 4 0.0813882 0.2276 0.690022
822 4 0.144996 0.210798 0.695805
1278 4 0.145412 0.197463 0.711555
820 2 0.122093 0.217245 0.688119
821 4 0.0991897 0.223692 0.680434
1276 2 0.152117 0.191313 0.734844
976 2 0.290781 0.193862 0.745718
977 4 0.310684 0.199219 0.731564
916 2 0.318138 0.241512 0.716813
918 4 0.309553 0.218819 0.722856
3122 4 0.497781 0.223196 0.697653
3121 2 0.47543 0.232186 0.690961
1262 4 0.434685 0.246178 0.751271
3123 4 0.453079 0.241176 0.684268
1261 2 0.442557 0.222712 0.747725
1263 4 0.450429 0.199246 0.744178
1209 4 0.0434556 0.260156 0.691427
1244 4 0.0382311 0.273132 0.677487
1243 2 0.0169245 0.274279 0.690521
3188 4 0.0212708 0.263591 0.753025
1064 4 0.224784 0.312154 0.679501
1063 2 0.206984 0.294863 0.682563
1065 4 0.189184 0.277572 0.685625
948 4 0.173424 0.270735 0.675748
1240 2 0.242736 0.315061 0.724934
1242 4 0.230553 0.319196 0.746373
917 4 0.326723 0.264205 0.710771
1097 4 0.313322 0.277845 0.704284
1241 4 0.25492 0.310925 0.703495
1096 2 0.291178 0.288657 0.700048
1098 4 0.269035 0.29947 0.695812
1008 4 0.355353 0.250948 0.724249
1006 2 0.36283 0.264096 0.744159
1194 4 0.432841 0.265883 0.743427
1279 2 0.0534508 0.367815 0.707476
3275 4 0.0369576 0.391527 0.732696
1280 4 0.0350255 0.374746 0.722892
1281 4 0.0718762 0.360885 0.69206
3274 2 0.0517749 0.407935 0.744374
894 4 0.0892072 0.365862 0.684222
893 4 0.124582 0.345164 0.712873
892 2 0.106895 0.355513 0.698548
940 2 0.150614 0.3776 0.745574
942 4 0.128885 0.389078 0.750187
815 4 0.133568 0.407813 0.750147
1028 4 0.239221 0.357796 0.696838
941 4 0.172343 0.366123 0.740961
1068 4 0.223381 0.370148 0.696087
1067 4 0.185666 0.37463 0.728616
1066 2 0.204523 0.372389 0.712352
1029 4 0.277736 0.384044 0.678717
1139 4 0.286102 0.401599 0.681681
1027 2 0.258478 0.37092 0.687777
1229 4 0.356346 0.387884 0.693891
1228 2 0.359821 0.412549 0.696069
2020 2 0.0285843 0.504048 0.679122
1079 4 0.172005 0.479709 0.74396
1078 2 0.179599 0.456007 0.746352
2214 4 0.254905 0.490334 0.746916
1138 2 0.285389 0.426344 0.685198
1140 4 0.284676 0.451088 0.688715
1989 4 0.290455 0.455555 0.70735
1987 2 0.298511 0.467541 0.727761
1988 4 0.306566 0.479527 0.748173
1230 4 0.363295 0.437214 0.698246
1269 4 0.405021 0.488901 0.662857
1100 4 0.485137 0.485771 0.711886
1250 4 0.482055 0.486456 0.731419
1203 4 0.0927387 0.0284038 0.768739
1201 2 0.111771 0.015055 0.777944
2049 4 0.147946 0.00953509 0.795589
1202 4 0.130804 0.0017063 0.78715
1148 4 0.176227 0.0772364 0.783134
1147 2 0.195405 0.0612059 0.782496
1149 4 0.214583 0.0451755 0.781858
1049 4 0.224276 0.0375272 0.798081
1048 2 0.247552 0.0295453 0.793647
1050 4 0.270829 0.0215634 0.789212
818 4 0.352052 0.0658074 0.819358
965 4 0.364446 0.0608862 0.83543
817 2 0.357911 0.0845284 0.803854
975 4 0.373737 0.00466059 0.821353
846 4 0.50613 0.00552088 0.741494
832 2 0.0459827 0.122334 0.777539
863 4 0.0204419 0.107839 0.809049
833 4 0.0290177 0.11024 0.791362
33 3 0.0793398 0.124501 0.765767
834 4 0.0629477 0.134429 0.763715
862 2 0.0330197 0.0896066 0.82065
34 3 0.114904 0.137291 0.76977
1073 4 0.126458 0.153376 0.776802
1225 2 0.179009 0.115224 0.754106
1226 4 0.184679 0.122867 0.777227
840 4 0.204376 0.121617 0.775753
838 2 0.22656 0.130912 0.782582
839 4 0.248745 0.140206 0.789411
959 4 0.248601 0.150012 0.805883
819 4 0.36377 0.103249 0.78835
1084 2 0.363877 0.142186 0.800069
1085 4 0.354974 0.122034 0.788244
1086 4 0.372779 0.162337 0.811894
3268 2 0.496658 0.138896 0.803066
3270 4 0.474643 0.136216 0.791519
1146 4 0.466079 0.15391 0.7843
778 2 0.0762782 0.205236 0.808047
779 4 0.0525393 0.210532 0.813843
1214 4 0.0386165 0.216853 0.827282
1213 2 0.0210367 0.232764 0.819347
1277 4 0.158822 0.185163 0.758134
1072 2 0.121793 0.177083 0.783235
1074 4 0.117128 0.200791 0.789668
780 4 0.100017 0.19994 0.802251
1131 4 0.167316 0.191237 0.775835
1130 4 0.21094 0.178023 0.796403
1129 2 0.189128 0.18463 0.786119
978 4 0.270878 0.188504 0.759872
958 2 0.265833 0.162616 0.818898
1299 4 0.360324 0.177823 0.804502