ITEM: TIMESTEP
1240000
ITEM: NUMBER OF ATOMS
4590
ITEM: BOX BOUNDS pp pp pp
-9.9985700000000008e+00 9.9985700000000008e+00
-9.9985700000000008e+00 9.9985700000000008e+00
-9.9985700000000008e+00 9.9985700000000008e+00
ITEM: ATOMS id type xs ys zs
463 2 0.0445769 0.0633002 0.0228495
464 4 0.0508317 0.0457377 0.00618773
3290 4 0.0605277 0.0298978 0.0135638
1668 4 0.060986 0.00691309 0.0439869
1666 2 0.0757675 0.0228249 0.0563764
1667 4 0.090549 0.0387368 0.0687659
1476 4 0.228698 0.0339528 0.0659282
1474 2 0.242003 0.0241237 0.0471787
1475 4 0.255308 0.0142945 0.0284292
492 4 0.266493 0.00557553 0.0147782
490 2 0.285574 0.0158651 0.00231919
986 4 0.362477 0.0544285 0.0146999
745 2 0.448956 0.0681458 0.0300504
747 4 0.454639 0.0631204 0.0538752
2722 2 0.471533 0.0454372 0.0758051
2724 4 0.470201 0.0517925 0.0516594
746 4 0.443272 0.0731712 0.00622561
465 4 0.0383221 0.0808627 0.0395113
591 4 0.0402564 0.105049 0.0619339
701 4 0.0522091 0.112588 0.04723
700 2 0.0346725 0.12968 0.0421794
2760 4 0.999966 0.138674 0.0324073
702 4 0.017136 0.146772 0.0371289
3234 4 0.0363934 0.125327 0.000731211
423 4 0.102963 0.166305 0.0353293
566 4 0.194352 0.0880304 0.0691628
1133 4 0.226093 0.140186 0.00533941
360 4 0.2268 0.140663 0.0256696
358 2 0.250545 0.141066 0.0334922
359 4 0.274289 0.141468 0.0413149
421 2 0.0802103 0.174599 0.0415519
553 2 0.025302 0.194691 0.0366147
422 4 0.0574579 0.182892 0.0477745
555 4 0.0418163 0.191326 0.0550844
554 4 0.00878769 0.198057 0.018145
506 4 0.182594 0.233756 0.042356
737 4 0.185145 0.220315 0.0564357
736 2 0.201946 0.205683 0.067785
738 4 0.218748 0.191051 0.0791342
353 4 0.28576 0.204215 0.0709301
461 4 0.297281 0.220863 0.0680288
460 2 0.314123 0.215287 0.085648
323 4 0.405491 0.232407 0.0380209
322 2 0.427617 0.240752 0.0461437
324 4 0.449743 0.249097 0.0542665
1170 4 0.0433899 0.306113 0.00236861
1056 4 0.0620393 0.302278 0.00769126
294 4 0.136065 0.325946 0.0316112
292 2 0.153055 0.308032 0.0276653
505 2 0.183841 0.258417 0.038422
507 4 0.185089 0.283077 0.034488
293 4 0.170046 0.290117 0.0237195
481 2 0.275135 0.296501 0.0186813
482 4 0.280391 0.286948 0.0411819
1071 4 0.402251 0.240088 0.0192765
1069 2 0.384447 0.256894 0.0142004
573 4 0.395614 0.282602 0.0604958
571 2 0.372904 0.275385 0.0680695
456 4 0.13053 0.336388 0.0494114
454 2 0.141935 0.351235 0.0659838
607 2 0.252945 0.369291 0.0780339
252 4 0.261754 0.403943 0.0585346
250 2 0.282249 0.416229 0.051175
608 4 0.260428 0.383838 0.0591249
281 4 0.427649 0.368529 0.0637979
671 4 0.420193 0.357612 0.079156
280 2 0.450421 0.359049 0.0597098
282 4 0.473194 0.349569 0.0556218
104 3 0.487666 0.336634 0.0580167
550 2 0.0438643 0.496423 0.0597333
314 4 0.0309518 0.464024 0.0797348
313 2 0.0324597 0.439563 0.0846917
793 2 0.165424 0.495244 0.012172
795 4 0.150974 0.478327 0.000762614
246 4 0.221477 0.474916 0.0293618
244 2 0.223062 0.47434 0.00441514
251 4 0.302744 0.428516 0.0438154
524 4 0.359394 0.429038 0.0491709
523 2 0.353912 0.434008 0.0730544
19 3 0.0438182 0.0371792 0.146812
20 3 0.0686447 0.014632 0.129697
1422 4 0.0345932 0.0176961 0.1508
16 1 0.0661658 0.0339813 0.141449
17 3 0.0733218 0.051642 0.128564
2480 4 0.0297494 0.0274575 0.130908
18 3 0.0789221 0.0331719 0.160815
652 2 0.234579 0.0528258 0.152708
654 4 0.224312 0.0566267 0.130228
484 2 0.327425 0.0246885 0.137417
582 4 0.29819 0.0746592 0.133405
485 4 0.334649 0.0313146 0.114415
297 4 0.329711 0.0399256 0.0966595
486 4 0.3202 0.0180624 0.160419
296 4 0.357419 0.0815196 0.0949511
295 2 0.343565 0.0607226 0.0958053
2723 4 0.472866 0.039082 0.0999508
2744 4 0.493231 0.0183757 0.158088
590 4 0.0533434 0.0929897 0.108667
589 2 0.0467999 0.0990195 0.0853006
448 2 0.148902 0.0903217 0.160397
449 4 0.1569 0.113754 0.156912
567 4 0.152558 0.110843 0.0844435
236 4 0.144715 0.122283 0.170007
565 2 0.173455 0.0994368 0.0768032
580 2 0.294208 0.0853188 0.155669
557 4 0.357465 0.102375 0.0955847
758 4 0.375139 0.0916406 0.15794
558 4 0.407336 0.102045 0.0992566
556 2 0.382401 0.10221 0.0974206
771 4 0.444902 0.15136 0.0821015
769 2 0.463502 0.163918 0.0931258
338 4 0.0637617 0.247946 0.107161
337 2 0.0859684 0.242895 0.117482
339 4 0.108175 0.237844 0.127803
477 4 0.177407 0.229311 0.118986
354 4 0.237169 0.19682 0.0801448
475 2 0.180405 0.21083 0.135559
476 4 0.183402 0.192349 0.152131
352 2 0.261465 0.200517 0.0755374
277 2 0.29739 0.237946 0.14401
278 4 0.307881 0.23712 0.121329
462 4 0.330965 0.209711 0.103267
255 4 0.336621 0.191481 0.10842
254 4 0.385712 0.200876 0.109989
630 4 0.388341 0.214268 0.0950145
253 2 0.361167 0.196178 0.109204
628 2 0.409515 0.223036 0.105012
770 4 0.482102 0.176475 0.10415
624 4 0.446558 0.23462 0.127697
629 4 0.430689 0.231805 0.11501
611 4 0.241353 0.312792 0.131543
610 2 0.236965 0.335509 0.122063
755 4 0.30648 0.255596 0.117781
754 2 0.324652 0.266718 0.104694
572 4 0.350194 0.268168 0.0756432
756 4 0.342823 0.277841 0.0916068
741 4 0.350777 0.295193 0.0954455
739 2 0.360374 0.316048 0.105351
622 2 0.439793 0.247697 0.147906
623 4 0.433027 0.260774 0.168115
621 4 0.033868 0.400461 0.101905
619 2 0.0456414 0.383039 0.115435
620 4 0.0574148 0.365618 0.128965
647 4 0.0752405 0.363415 0.13914
455 4 0.153341 0.366083 0.0825562
646 2 0.0887588 0.374919 0.15675
612 4 0.232578 0.358225 0.112583
609 4 0.245461 0.354744 0.0969429
536 4 0.187999 0.369946 0.15736
387 4 0.332517 0.377047 0.14499
302 4 0.333534 0.394531 0.135109
301 2 0.331742 0.411165 0.153691
385 2 0.342631 0.362305 0.12751
740 4 0.369972 0.336904 0.115256
386 4 0.352746 0.347562 0.11003
12 3 0.399536 0.361283 0.146121
11 1 0.408285 0.377154 0.160289
15 3 0.391267 0.387852 0.170992
672 4 0.406007 0.362865 0.12682
14 3 0.420602 0.392364 0.147824
670 2 0.4131 0.360238 0.102988
596 4 0.46739 0.337548 0.135642
495 4 0.421417 0.403351 0.131821
595 2 0.45014 0.342113 0.153157
552 4 0.0362605 0.484377 0.0802821
315 4 0.0339677 0.415102 0.0896486
1789 2 0.0718185 0.480984 0.117981
1791 4 0.0547032 0.481544 0.1362
1790 4 0.0889338 0.480423 0.0997617
1466 4 0.0522113 0.501551 0.14031
626 4 0.182723 0.447493 0.125083
625 2 0.20304 0.449318 0.139543
627 4 0.223356 0.451143 0.154003
638 4 0.232558 0.464216 0.167701
639 4 0.265488 0.490244 0.140519
637 2 0.249023 0.47723 0.15411
525 4 0.348429 0.438978 0.0969379
494 4 0.421237 0.44786 0.109025
493 2 0.421327 0.425606 0.120423
1420 2 0.0272449 0.00248338 0.169233
450 4 0.140904 0.0668895 0.163882
690 4 0.157766 0.0163772 0.245629
688 2 0.174789 0.0103641 0.22833
653 4 0.244845 0.0490248 0.175187
693 4 0.241057 0.0596108 0.192884
691 2 0.224937 0.0498924 0.209343
692 4 0.208818 0.040174 0.225802
1661 4 0.303934 0.0114203 0.168892
1700 4 0.332336 0.0561712 0.21811
1699 2 0.307503 0.0536588 0.219596
1701 4 0.28267 0.0511464 0.221083
21 1 0.365458 0.0672446 0.235523
25 3 0.378212 0.061445 0.217569
759 4 0.383304 0.0626576 0.197865
23 3 0.344461 0.0575224 0.23379
1760 4 0.483644 0.0049221 0.169301
235 2 0.157181 0.138823 0.184015
237 4 0.169647 0.155362 0.198023
581 4 0.290227 0.0959783 0.177933
28 3 0.272731 0.126297 0.191252
30 3 0.287714 0.0922604 0.197141
26 1 0.289315 0.11439 0.202278
29 3 0.310214 0.122435 0.196202
27 3 0.286602 0.11712 0.224957
757 2 0.379222 0.0771491 0.177902
24 3 0.363428 0.0903309 0.236666
312 4 0.409114 0.113223 0.193963
311 4 0.418953 0.162237 0.192716
310 2 0.414033 0.13773 0.19334
577 2 0.071297 0.177857 0.216356
578 4 0.0486011 0.168954 0.221907
513 4 0.0310618 0.170515 0.21509
511 2 0.017618 0.167547 0.194219
531 4 0.0073006 0.17931 0.23988
579 4 0.093993 0.186759 0.210805
279 4 0.2869 0.238771 0.166692
284 4 0.268965 0.261075 0.222499
283 2 0.273352 0.246205 0.202882
285 4 0.277739 0.231335 0.183266
521 4 0.441928 0.200068 0.2396
703 2 0.0272526 0.308345 0.216883
704 4 0.0209456 0.295912 0.196127
705 4 0.0335596 0.320778 0.23764
443 4 0.0848345 0.276998 0.245688
537 4 0.1673 0.325481 0.167116
396 4 0.0891322 0.290088 0.230934
394 2 0.100244 0.278769 0.211606
395 4 0.111355 0.267449 0.192277
363 4 0.11734 0.266309 0.173318
361 2 0.141794 0.262905 0.177262
362 4 0.166249 0.2595 0.181207
372 4 0.170069 0.256495 0.201195
370 2 0.175341 0.260865 0.225243
371 4 0.180614 0.265234 0.249291
343 2 0.277601 0.316327 0.232355
344 4 0.296283 0.305434 0.244906
527 4 0.429385 0.274325 0.182488
526 2 0.447225 0.282283 0.198095
528 4 0.465064 0.29024 0.213703
300 4 0.108757 0.37319 0.187818
648 4 0.102277 0.386423 0.174359
298 2 0.119452 0.392196 0.200047
299 4 0.130147 0.411203 0.212277
535 2 0.177649 0.347713 0.162238
290 4 0.212574 0.413612 0.221258
345 4 0.258919 0.327219 0.219804
13 3 0.422007 0.366643 0.175768
597 4 0.432891 0.346678 0.170673
643 2 0.451326 0.377121 0.200744
644 4 0.459555 0.393562 0.217689
645 4 0.443097 0.36068 0.183799
447 4 0.468347 0.401902 0.233082
263 4 0.0345807 0.459114 0.208863
262 2 0.0474575 0.444765 0.192942
264 4 0.0603344 0.430416 0.177022
417 4 0.173714 0.480393 0.207182
1430 4 0.177983 0.483709 0.188508
416 4 0.183698 0.432381 0.19739
415 2 0.178706 0.456387 0.202286
289 2 0.217419 0.432039 0.237449
291 4 0.222263 0.450466 0.25364
766 2 0.230249 0.48179 0.209667
768 4 0.207485 0.479064 0.19969
767 4 0.253013 0.484515 0.219645
303 4 0.32995 0.427799 0.172273
659 4 0.338627 0.445921 0.176778
660 4 0.336926 0.483773 0.209414
658 2 0.337776 0.464847 0.193096
231 4 0.344477 0.498715 0.219731
713 4 0.385024 0.458216 0.243671
712 2 0.409924 0.459012 0.245801
445 2 0.45461 0.421195 0.241097
232 2 0.0333621 0.0245296 0.296394
234 4 0.0255395 0.0475631 0.290611
317 4 0.0212519 0.0650101 0.300104
673 2 0.143879 0.0403321 0.26338
675 4 0.128818 0.0446861 0.282858
674 4 0.158939 0.0359781 0.243902
1406 4 0.232326 0.0121502 0.325722
723 4 0.227337 0.0716198 0.263196
249 4 0.288111 0.0719767 0.341704
1518 4 0.370078 0.00411611 0.308018
697 2 0.383631 0.0332963 0.292263
699 4 0.38745 0.0149675 0.308836
698 4 0.379812 0.0516251 0.275691
22 3 0.375578 0.0597083 0.254757
333 4 0.395815 0.0623527 0.26349
331 2 0.412135 0.0812219 0.265157
744 4 0.477319 0.0116159 0.286284
743 4 0.495903 0.0561123 0.273039
742 2 0.486611 0.0338641 0.279662
351 4 0.483289 0.0719643 0.281159
1747 2 0.461654 0.989976 0.331246
1749 4 0.478067 0.00759091 0.324499
316 2 0.0294423 0.0885813 0.301682
318 4 0.0376328 0.112153 0.30326
399 4 0.14523 0.150964 0.329092
545 4 0.17419 0.163508 0.261224
722 4 0.224117 0.120071 0.251244
721 2 0.225727 0.0958452 0.25722
546 4 0.207678 0.126551 0.25755
544 2 0.190934 0.14503 0.259387
599 4 0.238254 0.143865 0.301793
404 4 0.242029 0.163674 0.306384
598 2 0.224537 0.134688 0.320575
349 2 0.464336 0.0881232 0.278952
332 4 0.428455 0.100091 0.266823
350 4 0.445384 0.104282 0.276745
762 4 0.431693 0.108319 0.30826
760 2 0.430504 0.129589 0.295171
761 4 0.429314 0.15086 0.282081
257 4 0.475852 0.0964153 0.328325
529 2 0.0209026 0.192951 0.255821
530 4 0.0345045 0.206592 0.271761
393 4 0.138443 0.163311 0.315044
392 4 0.170612 0.174203 0.278339
391 2 0.154527 0.168757 0.296691
403 2 0.243286 0.188639 0.305781
405 4 0.244544 0.213604 0.305178
401 4 0.231804 0.226657 0.297386
400 2 0.209123 0.233402 0.289308
402 4 0.186442 0.240147 0.28123
765 4 0.384841 0.21005 0.278677
763 2 0.405214 0.207774 0.264361
522 4 0.485638 0.218352 0.255594
520 2 0.463783 0.20921 0.247597
764 4 0.425586 0.205498 0.250044
442 2 0.0712981 0.283004 0.265834
444 4 0.0577616 0.289011 0.28598
390 4 0.10646 0.288839 0.32735
309 4 0.302322 0.316419 0.259214
307 2 0.306244 0.330327 0.279619
541 2 0.453954 0.309308 0.301528
542 4 0.476542 0.29978 0.306444
543 4 0.431365 0.318836 0.296611
748 2 0.0745301 0.360019 0.256535
749 4 0.0514984 0.358675 0.266175
365 4 0.0250159 0.388308 0.313736
364 2 0.0283172 0.376217 0.2921
366 4 0.0316185 0.364126 0.270465
547 2 0.0456336 0.416991 0.343014
750 4 0.0975617 0.361364 0.246896
734 4 0.11573 0.36887 0.252148
733 2 0.134564 0.356763 0.263278
602 4 0.126616 0.414123 0.322204
735 4 0.153397 0.344655 0.274408
677 4 0.172042 0.349299 0.28047
678 4 0.16586 0.349438 0.330093
676 2 0.168951 0.349369 0.305281
497 4 0.315134 0.354013 0.320498
308 4 0.310167 0.344234 0.300024
729 4 0.316894 0.366552 0.29621
727 2 0.316397 0.385371 0.312665
728 4 0.315899 0.404191 0.32912
614 4 0.411537 0.365959 0.324926
615 4 0.414746 0.330032 0.290289
613 2 0.413141 0.347996 0.307608
118 3 0.49831 0.391736 0.317843
2537 4 0.516977 0.381904 0.311455
549 4 0.0506083 0.419632 0.318653
777 4 0.129254 0.430871 0.311125
1757 4 0.0882341 0.462871 0.266785
1756 2 0.092764 0.48746 0.267026
776 4 0.103416 0.454525 0.275438
775 2 0.116335 0.442698 0.293282
1545 4 0.198515 0.487423 0.316233
414 4 0.209301 0.450405 0.269339
413 4 0.201851 0.490921 0.297688
412 2 0.205576 0.470663 0.283513
438 4 0.317107 0.49247 0.276961
434 4 0.335393 0.415684 0.331611
1435 2 0.256507 0.473834 0.330278
437 4 0.293155 0.459339 0.305759
436 2 0.305131 0.475905 0.29136
1437 4 0.276077 0.461425 0.320887
5 3 0.293795 0.450047 0.325492
446 4 0.440873 0.440488 0.249112
2862 4 0.499373 0.446823 0.302379
120 3 0.495242 0.427278 0.305799
2861 4 0.484401 0.449044 0.254718
714 4 0.434824 0.459809 0.247931
2860 2 0.491887 0.447934 0.278548
606 4 0.162681 0.0356371 0.381403
731 4 0.111813 0.0551035 0.374107
428 4 0.0923138 0.0492686 0.374493
427 2 0.0872823 0.0248249 0.372953
730 2 0.126998 0.0718853 0.363479
604 2 0.170597 0.0177863 0.365786
605 4 0.178512 0.999936 0.35017
682 2 0.218026 0.0389262 0.392332
684 4 0.208686 0.0157348 0.392644
683 4 0.227367 0.0621175 0.39202
247 2 0.312693 0.0756169 0.344474
439 2 0.265754 0.00353911 0.407966
633 4 0.357508 0.0846402 0.34786
425 4 0.391737 0.0346431 0.370798
480 4 0.490362 0.0133371 0.337932
256 2 0.464639 0.078611 0.341833
424 2 0.414515 0.044406 0.367476
426 4 0.437293 0.054169 0.364155
258 4 0.453427 0.0608068 0.355342
2878 2 0.492301 0.0468997 0.414385
397 2 0.142639 0.129577 0.341782
732 4 0.142184 0.0886672 0.352851
398 4 0.140048 0.10819 0.354473
600 4 0.210819 0.125511 0.339358
686 4 0.185824 0.147259 0.391516
685 2 0.189197 0.135413 0.369757
687 4 0.19257 0.123567 0.347997
321 4 0.267712 0.134232 0.390394
248 4 0.337274 0.079257 0.347245
467 4 0.32484 0.148283 0.412094
319 2 0.263404 0.116781 0.407775
632 4 0.369924 0.128513 0.368395
631 2 0.363716 0.106577 0.358128
453 4 0.497042 0.159352 0.411114
515 4 0.475844 0.157665 0.41092
2653 2 0.99945 0.222196 0.360574
2654 4 0.0213592 0.210159 0.36109
617 4 0.0414688 0.250947 0.380582
274 2 0.142891 0.22513 0.35835
276 4 0.126208 0.239656 0.370006
275 4 0.159574 0.210605 0.346694
474 4 0.177358 0.214538 0.337696
472 2 0.20077 0.221764 0.342683
473 4 0.224181 0.22899 0.347671
708 4 0.23904 0.219322 0.359699
707 4 0.260154 0.194819 0.397837
706 2 0.249597 0.20707 0.378768
418 2 0.410086 0.196157 0.358515
419 4 0.389397 0.204368 0.347125
716 4 0.381733 0.214895 0.362529
715 2 0.374993 0.237007 0.372058
420 4 0.430774 0.187945 0.369904
269 4 0.463948 0.238222 0.355586
347 4 0.0109245 0.298153 0.410532
618 4 0.0202684 0.294622 0.392569
616 2 0.0308686 0.272785 0.386576
388 2 0.116925 0.270702 0.341014
389 4 0.12739 0.252564 0.354678
510 4 0.249654 0.311247 0.35568
374 4 0.241044 0.325991 0.365694
508 2 0.257592 0.287544 0.356267
509 4 0.265531 0.263841 0.356854
488 4 0.327077 0.271235 0.408634
498 4 0.316997 0.321257 0.358237
487 2 0.304294 0.263536 0.415478
717 4 0.368253 0.259119 0.381588
377 4 0.350301 0.267767 0.378017
376 2 0.342284 0.289355 0.368277
378 4 0.334267 0.310943 0.358537
268 2 0.478244 0.252041 0.370746
306 4 0.499906 0.253119 0.402198
2493 4 0.00692206 0.381091 0.320806
548 4 0.0406589 0.41435 0.367375
601 2 0.111894 0.394307 0.326172
603 4 0.0971711 0.374491 0.330139
502 2 0.211624 0.405172 0.399579
504 4 0.221028 0.382568 0.394498
373 2 0.237839 0.348898 0.37519
375 4 0.234634 0.371805 0.384686
496 2 0.316066 0.337635 0.339367
433 2 0.358683 0.415394 0.340703
334 2 0.357396 0.407731 0.417121
435 4 0.381973 0.415103 0.349795
561 4 0.459995 0.416958 0.407837
407 4 0.0521919 0.430006 0.372173
406 2 0.0643201 0.435636 0.393301
408 4 0.0764483 0.441266 0.414429
501 4 0.150946 0.506175 0.361262
1436 4 0.236936 0.486243 0.339668
503 4 0.20222 0.427776 0.40466
636 4 0.205875 0.447677 0.398237
2 3 0.315536 0.42335 0.339897
3 3 0.278809 0.423739 0.347875
1 1 0.29742 0.436981 0.34379
668 4 0.305556 0.452957 0.383162
4 3 0.301881 0.450292 0.362265
667 2 0.329003 0.445135 0.386939
587 4 0.396615 0.494221 0.406175
669 4 0.352449 0.437314 0.390716
336 4 0.352679 0.418489 0.395049
119 3 0.499209 0.420533 0.342629
752 4 0.470231 0.414558 0.392487
593 4 0.460101 0.458961 0.363314
751 2 0.487564 0.421833 0.376
592 2 0.453843 0.481196 0.372885
718 2 0.0738071 0.0427608 0.494296
2586 4 0.0191131 0.0544529 0.428811
719 4 0.0961974 0.0449806 0.48339
368 4 0.0923426 0.0426624 0.432171
367 2 0.107439 0.0277924 0.445444
369 4 0.122535 0.0129224 0.458717
2430 4 0.212809 0.0188731 0.473174
2428 2 0.234271 0.0179498 0.460379
341 4 0.234703 0.0785159 0.498814
2429 4 0.255733 0.0170265 0.447585
1182 4 0.245187 0.0633482 0.492073
441 4 0.264187 0.01738 0.428731
1180 2 0.266635 0.0508154 0.494916
1181 4 0.288083 0.0382826 0.497758
726 4 0.310969 0.080074 0.458409
430 2 0.337157 0.0866003 0.494308
2880 4 0.472216 0.0552613 0.426709
642 4 0.471677 0.0742673 0.43335
458 4 0.000535594 0.132007 0.469501
340 2 0.212983 0.0848242 0.488153
342 4 0.191264 0.0911326 0.477493
1152 4 0.180219 0.102168 0.491924
724 2 0.287945 0.0858211 0.450533
725 4 0.264921 0.0915682 0.442657
320 4 0.259096 0.0993305 0.425156
466 2 0.330581 0.138552 0.434399
432 4 0.325787 0.083917 0.472202
468 4 0.336322 0.12882 0.456704
641 4 0.48297 0.11749 0.455822
640 2 0.477324 0.0958786 0.444586
3158 4 0.48635 0.123786 0.47457
3157 2 0.482496 0.147854 0.468998
575 4 0.435111 0.168941 0.442841
469 2 0.0226461 0.231339 0.465471
470 4 0.000240645 0.231551 0.454375
471 4 0.0450516 0.231127 0.476568
261 4 0.129771 0.198685 0.476513
260 4 0.100079 0.225806 0.446789
259 2 0.114925 0.212245 0.461651
410 4 0.254026 0.175622 0.501039
650 4 0.252007 0.217256 0.447362
411 4 0.244266 0.203665 0.460802
409 2 0.249146 0.189643 0.48092
649 2 0.257666 0.235021 0.430701
576 4 0.412295 0.182715 0.485154
514 2 0.453122 0.165746 0.417522
516 4 0.4304 0.173826 0.424124
3159 4 0.478641 0.171922 0.463426
574 2 0.423703 0.175828 0.463997
2814 4 0.011606 0.328873 0.466304
348 4 0.0113257 0.332152 0.4472
346 2 0.0111251 0.315153 0.428866
695 4 0.118601 0.301531 0.462585
694 2 0.125618 0.284616 0.479609
696 4 0.132634 0.267701 0.496634
489 4 0.281511 0.255837 0.422322
651 4 0.263325 0.252785 0.414041
267 4 0.340873 0.269679 0.424039
265 2 0.364233 0.26967 0.432955
266 4 0.387593 0.26966 0.44187
585 4 0.395859 0.26118 0.425406
583 2 0.419567 0.26255 0.433232
2457 4 0.469096 0.313594 0.46902
2455 2 0.457076 0.29217 0.464363
2456 4 0.445057 0.270745 0.459706
584 4 0.443275 0.26392 0.441059
2812 2 0.999506 0.349802 0.472687
326 4 0.0942569 0.405853 0.432855
10 3 0.157316 0.338869 0.468374
7 3 0.129945 0.362389 0.458859
327 4 0.115163 0.362498 0.446419
325 2 0.10471 0.384175 0.439637
6 1 0.152489 0.36047 0.463013
709 2 0.156192 0.400073 0.420025
9 3 0.15808 0.374448 0.480669
711 4 0.165576 0.377794 0.426409
8 3 0.164183 0.366702 0.443966
382 2 0.113819 0.41981 0.498432
804 4 0.292753 0.391515 0.494638
335 4 0.362113 0.396972 0.439194
238 2 0.360323 0.369545 0.466256
240 4 0.363888 0.377048 0.442672
239 4 0.356757 0.362042 0.489839
2508 4 0.48563 0.373581 0.451233
559 2 0.464476 0.399692 0.425358
560 4 0.468957 0.382426 0.442878
680 4 0.012798 0.47278 0.462984
1383 4 0.00906994 0.475596 0.48388
679 2 0.00976507 0.48955 0.444688
710 4 0.146808 0.422352 0.413641
570 4 0.139024 0.433352 0.426792
568 2 0.12583 0.440263 0.446875
569 4 0.112636 0.447174 0.466958
384 4 0.121084 0.437032 0.481824
772 2 0.222862 0.446529 0.47186
634 2 0.210926 0.45983 0.419497
635 4 0.215977 0.471983 0.440756
773 4 0.23373 0.428138 0.484854
774 4 0.211994 0.46492 0.458867
1454 4 0.309225 0.489703 0.50158
586 2 0.386027 0.481285 0.424769
1401 4 0.344848 0.487857 0.487892
1400 4 0.358145 0.459804 0.448689
1399 2 0.351497 0.473831 0.468291
588 4 0.375439 0.46835 0.443363
2712 4 0.496974 0.426269 0.449582
1126 2 0.0172499 0.0535575 0.531012
1127 4 0.0338665 0.0414598 0.516774
720 4 0.0514169 0.040541 0.505201
951 4 0.207464 0.0418896 0.56896
1031 4 0.218679 0.0555862 0.55671
1030 2 0.242172 0.0556874 0.56527
961 2 0.300611 0.00808478 0.521236
963 4 0.296863 0.0186564 0.498889
431 4 0.348527 0.0892836 0.516414
841 2 0.363428 0.0782962 0.546423
843 4 0.341357 0.0833722 0.535826
842 4 0.385498 0.0732203 0.55702
4466 4 0.451523 0.0223691 0.568115
1062 4 0.466117 0.0132334 0.577655
1218 4 0.445973 0.0771119 0.522524
1216 2 0.423114 0.0769228 0.532653
1033 2 0.064923 0.145026 0.515532
1035 4 0.0506665 0.125321 0.521333
939 4 0.156931 0.148999 0.511569
1151 4 0.167686 0.137888 0.5246
1150 2 0.173953 0.120028 0.508262
899 4 0.305517 0.161595 0.543798
857 4 0.287619 0.170402 0.541507
1217 4 0.400255 0.0767336 0.542781
1199 4 0.0220249 0.17432 0.555465
1198 2 0.997097 0.17575 0.556778
1034 4 0.0791795 0.16473 0.509731
878 4 0.0819521 0.237326 0.544799
937 2 0.148989 0.171202 0.503254
877 2 0.0823624 0.22984 0.568652
938 4 0.141048 0.193405 0.494938
898 2 0.324686 0.176714 0.538397
798 4 0.25631 0.246684 0.583519
856 2 0.269546 0.175908 0.557885
858 4 0.251474 0.181414 0.574263
796 2 0.254741 0.221816 0.585597
900 4 0.343854 0.191832 0.532995
871 2 0.353407 0.220537 0.560077
872 4 0.352729 0.197842 0.549605
873 4 0.354084 0.243232 0.570549
1258 2 0.154576 0.271238 0.526765
1260 4 0.132288 0.265797 0.516825
1259 4 0.176865 0.276679 0.536705
1237 2 0.25101 0.334655 0.589029
812 4 0.296946 0.270144 0.545543
811 2 0.317296 0.262453 0.557869
813 4 0.337645 0.254762 0.570195
953 4 0.457831 0.276635 0.590162
1137 4 0.136867 0.363628 0.563519
383 4 0.106555 0.402588 0.51504
897 4 0.154179 0.358322 0.573005
1239 4 0.26067 0.355581 0.579335
895 2 0.176684 0.363521 0.56343
1189 2 0.227734 0.355668 0.541097
896 4 0.19919 0.36872 0.553856
1191 4 0.213426 0.358042 0.561465
1190 4 0.242041 0.353295 0.52073
803 4 0.256403 0.363843 0.514977
1173 4 0.255428 0.398228 0.571428
802 2 0.274578 0.377679 0.504807
928 2 0.371101 0.383621 0.562486
930 4 0.381151 0.384416 0.585367
929 4 0.361051 0.382826 0.539605
925 2 0.478706 0.393192 0.536685
926 4 0.478749 0.412344 0.552759
927 4 0.478663 0.37404 0.520612
1001 4 0.461212 0.409207 0.561746
538 2 0.049501 0.473843 0.530351
540 4 0.0371173 0.454239 0.539706
539 4 0.0618848 0.493447 0.520997
2243 4 0.183526 0.49387 0.583824
1171 2 0.265949 0.4191 0.562548
1172 4 0.27647 0.439972 0.553668
882 4 0.27775 0.442171 0.533593
880 2 0.292268 0.461337 0.526735
891 4 0.30964 0.463938 0.582311
1951 2 0.31345 0.50214 0.573227
881 4 0.306786 0.480504 0.519877
1952 4 0.321714 0.479248 0.578957
1000 2 0.453119 0.429677 0.573607
1910 4 0.443418 0.470578 0.582154
1002 4 0.445027 0.450147 0.585467
1185 4 0.020344 0.0274496 0.652076
945 4 0.035575 0.0260707 0.663827
1183 2 0.00440569 0.0446893 0.643477
1058 4 0.101772 0.0369434 0.594709
1057 2 0.111978 0.0593785 0.590505
825 4 0.0897355 0.0224749 0.602552
950 4 0.169248 0.0575691 0.597145
1059 4 0.122184 0.0818136 0.5863
949 2 0.188356 0.0497294 0.583053
1032 4 0.265664 0.0557886 0.57383
1004 4 0.358348 0.0567987 0.627821
1003 2 0.359276 0.0573946 0.6528
4465 2 0.43582 0.0344248 0.583387
4467 4 0.420117 0.0464806 0.59866
2283 4 0.409163 0.0608976 0.607877
2282 4 0.427677 0.0578629 0.654232
2281 2 0.41842 0.0593802 0.631054
43 3 0.447543 0.0598761 0.655943
45 3 0.484499 0.0592261 0.648765
810 4 0.499846 0.0538886 0.637777
41 1 0.468804 0.0606758 0.665203
1082 4 0.0674426 0.158099 0.619524
1081 2 0.0442931 0.159053 0.628925
1083 4 0.0211435 0.160006 0.638325
1155 4 0.135561 0.0898479 0.573256
1153 2 0.150657 0.107954 0.581589
1154 4 0.165753 0.126061 0.589921
1221 4 0.187153 0.128779 0.590841
1219 2 0.205875 0.129551 0.607397
1220 4 0.224596 0.130322 0.623953
1212 4 0.241188 0.138138 0.631547
1210 2 0.252699 0.130017 0.652204
1142 4 0.338755 0.156593 0.64497
3426 4 0.493725 0.140335 0.625434
879 4 0.0827728 0.222353 0.592505
1272 4 0.0947072 0.21019 0.602438
1270 2 0.110544 0.201555 0.619753
1271 4 0.126381 0.192921 0.637069
909 4 0.139725 0.205358 0.644757
907 2 0.162885 0.214568 0.642755
1209 4 0.0895208 0.242794 0.669309
908 4 0.186044 0.223777 0.640753
947 4 0.204528 0.218156 0.633181
946 2 0.206082 0.235663 0.615397
797 4 0.253173 0.196949 0.587676
1141 2 0.358208 0.172259 0.646139
1143 4 0.377661 0.187924 0.647308
1025 4 0.398684 0.189568 0.647461
1026 4 0.434305 0.176704 0.614806
904 2 0.487866 0.247404 0.584916
1024 2 0.416495 0.183136 0.631133
1244 4 0.0650806 0.317251 0.661663
948 4 0.207636 0.25317 0.597613
792 4 0.254947 0.29948 0.599641
1238 4 0.24135 0.313729 0.598723
791 4 0.267908 0.282438 0.644832
790 2 0.261428 0.290959 0.622236
905 4 0.465272 0.257995 0.586507
952 2 0.440314 0.293559 0.595809
954 4 0.422796 0.310483 0.601456
3121 2 0.491011 0.269042 0.659472
3123 4 0.480465 0.286568 0.645091
1205 4 0.417686 0.327121 0.590998
983 4 0.0304822 0.3774 0.636717
1039 2 0.0703618 0.385026 0.639155
1041 4 0.048549 0.374019 0.644468
982 2 0.00609198 0.381154 0.632691
1040 4 0.0921746 0.396033 0.633842
1135 2 0.117151 0.368284 0.578174
1136 4 0.0974341 0.37294 0.592829
993 4 0.104419 0.41097 0.638756
991 2 0.125573 0.422134 0.64604
1206 4 0.39832 0.372909 0.5856
1204 2 0.408003 0.350015 0.588299
992 4 0.146727 0.433298 0.653323
2170 2 0.122721 0.498037 0.645728
2172 4 0.119132 0.473928 0.640153
1160 4 0.206841 0.445836 0.58564
1159 2 0.188485 0.462656 0.58795
1161 4 0.170129 0.479476 0.59026
1187 4 0.276603 0.483125 0.61959
890 4 0.301236 0.424022 0.611238
889 2 0.305438 0.44398 0.596775
1186 2 0.265743 0.501998 0.63188
1909 2 0.438908 0.49484 0.578126
2319 4 0.00989825 0.0284547 0.713234
943 2 0.0551685 0.0403197 0.670011
944 4 0.0747621 0.0545686 0.676195
1075 2 0.0477368 0.0367783 0.733258
1076 4 0.0285432 0.0275746 0.72014
1077 4 0.0669304 0.045982 0.746376
1005 4 0.360205 0.0579905 0.677779
44 3 0.471546 0.0804392 0.677048
1163 4 0.489647 0.0485562 0.686322
42 3 0.471297 0.0429445 0.679644
1162 2 0.504663 0.0519057 0.706031
1283 4 0.18108 0.0919604 0.678889
1282 2 0.200178 0.105864 0.687083
1284 4 0.219275 0.119768 0.695277
1227 4 0.220939 0.12093 0.716033
1225 2 0.211438 0.138588 0.730968
888 4 0.272846 0.108764 0.68577
1211 4 0.26421 0.121896 0.672862
886 2 0.293219 0.122055 0.691553
887 4 0.313592 0.135347 0.697337
830 4 0.334846 0.132571 0.695833
829 2 0.335177 0.153685 0.709221
1146 4 0.500881 0.145464 0.729455
1144 2 0.487699 0.162762 0.717119
1105 2 0.0615433 0.184552 0.724993
1107 4 0.0513771 0.201944 0.710183
851 4 0.0322462 0.210607 0.713599
850 2 0.0145417 0.226247 0.705406
1106 4 0.0717095 0.16716 0.739803
35 3 0.0850521 0.175333 0.752121
822 4 0.141029 0.225524 0.721697
820 2 0.123907 0.243226 0.717376
1278 4 0.155816 0.213145 0.717932
1276 2 0.155582 0.203299 0.740914
918 4 0.298908 0.221071 0.745468
916 2 0.290574 0.243957 0.739815
831 4 0.335507 0.1748 0.72261
1192 2 0.394853 0.226432 0.701423
1194 4 0.396855 0.202916 0.709677
1262 4 0.413525 0.192021 0.710434
1261 2 0.438075 0.190315 0.714855
1263 4 0.462625 0.188608 0.719276
1145 4 0.474517 0.180061 0.704783
1245 4 0.0153849 0.317219 0.667234
1207 2 0.0833184 0.262141 0.683884
1243 2 0.0402328 0.317235 0.664448
1179 4 0.0136508 0.302498 0.679428
1208 4 0.0771159 0.281488 0.698458
1177 2 0.00479955 0.279251 0.681964
821 4 0.106785 0.260927 0.713055
1064 4 0.226099 0.275452 0.73141
1063 2 0.223186 0.267477 0.707893
1065 4 0.220273 0.259502 0.684375
917 4 0.282239 0.266843 0.734163
1097 4 0.277182 0.2795 0.749351
1193 4 0.39285 0.249949 0.693169
806 4 0.425473 0.267602 0.730156
805 2 0.423748 0.292233 0.726216
807 4 0.422024 0.316864 0.722276
3357 4 0.494795 0.245455 0.692835
1280 4 0.0437306 0.41928 0.73871
3275 4 0.0293321 0.41112 0.749044
894 4 0.0773137 0.397149 0.673704
940 2 0.140185 0.412293 0.721611
941 4 0.154293 0.404156 0.702639
1067 4 0.170991 0.410359 0.711525
1066 2 0.19484 0.405723 0.705616
1068 4 0.218689 0.401087 0.699707
1028 4 0.224863 0.410155 0.682514
1140 4 0.32215 0.408351 0.726017
1018 2 0.412683 0.34864 0.73016
1020 4 0.417244 0.332885 0.711288
3330 4 0.488826 0.401518 0.716304
3328 2 0.470727 0.418078 0.721138
2020 2 0.0590787 0.500456 0.72412
892 2 0.0783617 0.413413 0.692666
1281 4 0.045329 0.467574 0.725834
1279 2 0.0445298 0.443427 0.732272
2021 4 0.0401695 0.485696 0.731175
893 4 0.0794098 0.429678 0.711628
1027 2 0.247743 0.415169 0.69126
1175 4 0.245941 0.519011 0.705169
1029 4 0.270624 0.420183 0.700006
1138 2 0.303999 0.420435 0.713782
1139 4 0.285847 0.432519 0.701547
1987 2 0.311716 0.462077 0.745906
1989 4 0.322619 0.449971 0.726939
1229 4 0.341988 0.450092 0.72056
1228 2 0.360606 0.435944 0.729413
1230 4 0.379225 0.421796 0.738266
1100 4 0.490868 0.485946 0.753842
1099 2 0.495937 0.497227 0.732112
3329 4 0.452628 0.434638 0.725973
1203 4 0.0694857 0.0485042 0.766528
1201 2 0.0935695 0.0422015 0.768857
1202 4 0.117653 0.0358988 0.771185
2049 4 0.121508 0.0158296 0.769612
1148 4 0.200675 0.0294446 0.757699
1147 2 0.21347 0.0406057 0.776054
1149 4 0.226265 0.0517667 0.794409
1049 4 0.278057 0.0246435 0.80237
1048 2 0.291934 0.00955025 0.81668
1256 4 0.313796 0.0675444 0.74673
1255 2 0.305342 0.0720329 0.769829
1257 4 0.296887 0.0765215 0.792928
1112 4 0.434707 0.0122591 0.811702
846 4 0.465627 0.0480402 0.789539
1113 4 0.449562 0.045777 0.777693
1111 2 0.442134 0.029018 0.794698
844 2 0.487371 0.0586102 0.783164
864 4 0.0434263 0.0830121 0.819662
911 4 0.0455196 0.0877738 0.838293
862 2 0.0338267 0.102585 0.807417
832 2 0.0170904 0.165102 0.782044
863 4 0.0242271 0.122158 0.795172
833 4 0.0200094 0.141692 0.790326
33 3 0.0714787 0.155887 0.781366
31 1 0.0905586 0.164579 0.771426
32 3 0.104973 0.147306 0.76663
1226 4 0.201936 0.156247 0.745904
1130 4 0.195403 0.148535 0.762647
840 4 0.23751 0.139201 0.783561
1129 2 0.177533 0.162035 0.773765
838 2 0.252052 0.135663 0.80359
839 4 0.266595 0.132126 0.82362
959 4 0.279762 0.145856 0.831845
819 4 0.397019 0.0978578 0.822981
1084 2 0.381703 0.122388 0.797215
1085 4 0.396825 0.103362 0.803087