ITEM: TIMESTEP
3430000
ITEM: NUMBER OF ATOMS
4590
ITEM: BOX BOUNDS pp pp pp
-9.9985700000000008e+00 9.9985700000000008e+00
-9.9985700000000008e+00 9.9985700000000008e+00
-9.9985700000000008e+00 9.9985700000000008e+00
ITEM: ATOMS id type xs ys zs
1666 2 0.0711865 0.0516944 0.0778831
1668 4 0.07946 0.0361394 0.0601414
465 4 0.0231079 0.0673272 0.0197725
463 2 0.0220168 0.0440414 0.0107303
464 4 0.0209257 0.0207556 0.0016882
3290 4 0.0819856 0.0296669 0.0414177
3289 2 0.094466 0.0286165 0.0197771
3291 4 0.106946 0.0275661 0.998137
490 2 0.29767 0.010461 0.0644886
491 4 0.305877 0.0329407 0.0717331
747 4 0.499245 0.0204919 0.0778248
701 4 0.0257039 0.0843025 0.0095661
358 2 0.216258 0.142843 0.00674694
359 4 0.237432 0.130919 0.0126307
461 4 0.289383 0.161328 0.04184
150 3 0.445898 0.125476 0.000812275
2723 4 0.49847 0.098857 0.0568674
505 2 0.146605 0.241494 0.0450113
506 4 0.163088 0.226437 0.0562713
737 4 0.180499 0.224255 0.0478749
736 2 0.196254 0.205012 0.0504586
738 4 0.212008 0.185768 0.0530423
354 4 0.227609 0.1778 0.0426929
352 2 0.252588 0.178015 0.0437771
462 4 0.323155 0.172824 0.076883
460 2 0.306269 0.167076 0.0593615
353 4 0.277567 0.17823 0.0448613
665 4 0.36108 0.193863 0.00934938
2807 4 0.034885 0.266121 0.0112822
2806 2 0.0159985 0.259375 0.0262144
2808 4 0.997112 0.252629 0.0411466
915 4 0.125324 0.260655 0.0137797
507 4 0.130122 0.25655 0.0337513
293 4 0.100177 0.266596 0.0470846
287 4 0.155429 0.291249 0.0327233
286 2 0.152457 0.315916 0.0355287
292 2 0.104952 0.286642 0.0612465
294 4 0.109728 0.306687 0.0754085
356 4 0.230485 0.271477 0.0138543
612 4 0.241576 0.326035 0.0579909
610 2 0.248746 0.306561 0.0719388
483 4 0.249744 0.269277 0.0104085
482 4 0.285414 0.303738 0.0167949
481 2 0.267579 0.286507 0.0136017
572 4 0.304649 0.300861 0.0104671
571 2 0.322442 0.287299 0.999301
315 4 0.0122376 0.413575 0.0685701
288 4 0.149485 0.340584 0.0383341
990 4 0.163981 0.349474 0.0275127
609 4 0.242016 0.345278 0.0601481
988 2 0.1834 0.364214 0.0219633
1289 4 0.20481 0.398626 0.0125742
989 4 0.202819 0.378954 0.016414
1288 2 0.205599 0.415146 0.993822
739 2 0.335374 0.33811 0.0555058
607 2 0.263644 0.355588 0.0529993
250 2 0.301175 0.407137 0.0561663
252 4 0.291602 0.385468 0.0481651
608 4 0.285273 0.365898 0.0458506
741 4 0.348237 0.341164 0.0342832
226 2 0.387611 0.40067 0.032121
227 4 0.391235 0.380292 0.0180919
1303 2 0.405112 0.353713 0.00892124
1305 4 0.406108 0.369909 0.0279437
1045 2 0.495619 0.35637 0.0261939
280 2 0.462479 0.355161 0.0763247
282 4 0.485265 0.360126 0.0673051
1047 4 0.496895 0.358972 0.051029
1046 4 0.494343 0.353769 0.00135875
550 2 0.0248576 0.493792 0.0453817
313 2 0.0213935 0.435486 0.0607444
552 4 0.0201529 0.47333 0.0589592
314 4 0.0305493 0.457398 0.0529187
1790 4 0.071669 0.491667 0.0766346
1786 2 0.149901 0.493447 0.0258931
1766 4 0.0833169 0.504249 0.067219
1440 4 0.220618 0.422364 0.0731484
243 4 0.209045 0.435631 0.0634704
241 2 0.190569 0.451311 0.0573094
242 4 0.172094 0.466992 0.0511484
1787 4 0.168031 0.479134 0.0354646
251 4 0.310747 0.428806 0.0641676
524 4 0.329912 0.43308 0.0706046
271 2 0.26285 0.473164 0.0608358
272 4 0.266246 0.448394 0.0611647
273 4 0.259455 0.497934 0.060507
228 4 0.383986 0.421047 0.0461502
525 4 0.376191 0.415335 0.0639646
523 2 0.353052 0.424207 0.0672846
1583 4 0.485365 0.493713 0.0651655
1667 4 0.0629131 0.0672494 0.0956249
16 1 0.0284219 0.0614213 0.119613
19 3 0.0227475 0.0742736 0.13808
17 3 0.04829 0.0691649 0.110985
20 3 0.0121943 0.063065 0.103719
18 3 0.0311143 0.039253 0.125915
1422 4 0.0149715 0.0625647 0.157057
1420 2 0.0037917 0.0443685 0.170061
1475 4 0.303841 0.0446874 0.0881443
652 2 0.253717 0.0805933 0.144908
654 4 0.258644 0.0626294 0.128229
1476 4 0.268236 0.0460604 0.123231
1474 2 0.286039 0.0453739 0.105688
297 4 0.379494 0.0371187 0.118624
295 2 0.402119 0.036717 0.129258
484 2 0.352617 0.0151785 0.144026
485 4 0.369936 0.0299288 0.133649
296 4 0.424745 0.0363152 0.139893
745 2 0.485539 0.0249052 0.0982662
746 4 0.471833 0.0293184 0.118708
557 4 0.440756 0.0442859 0.13013
556 2 0.456327 0.0636126 0.127097
558 4 0.471898 0.0829392 0.124064
2480 4 0.0166869 0.0849078 0.158187
450 4 0.0740877 0.0911291 0.119359
236 4 0.118039 0.129156 0.134211
449 4 0.108523 0.127326 0.117192
448 2 0.0913053 0.109228 0.118275
235 2 0.139222 0.132602 0.147039
237 4 0.160406 0.136049 0.159867
580 2 0.304733 0.121537 0.130686
581 4 0.284552 0.134863 0.137037
30 3 0.268128 0.144681 0.143727
26 1 0.274648 0.160685 0.158559
582 4 0.324914 0.10821 0.124335
653 4 0.24879 0.0985571 0.161587
27 3 0.297055 0.158136 0.163093
758 4 0.330894 0.0988261 0.142127
757 2 0.339817 0.0969391 0.165407
771 4 0.48486 0.0938285 0.13513
769 2 0.483902 0.106817 0.156474
338 4 0.0685083 0.247736 0.157727
371 4 0.212009 0.225609 0.151849
476 4 0.228676 0.231758 0.143695
475 2 0.246532 0.214516 0.140686
477 4 0.264389 0.197275 0.137677
29 3 0.271179 0.181762 0.149496
756 4 0.36052 0.23777 0.150073
630 4 0.406094 0.235834 0.110924
624 4 0.441913 0.227524 0.161054
629 4 0.444223 0.223316 0.140761
628 2 0.425159 0.229575 0.125842
456 4 0.105732 0.321933 0.0871806
611 4 0.255916 0.287088 0.0858866
279 4 0.2679 0.304503 0.151902
277 2 0.265677 0.298957 0.127623
278 4 0.263454 0.293412 0.103344
740 4 0.322511 0.335056 0.0767283
285 4 0.266902 0.285891 0.159587
255 4 0.354475 0.25333 0.139195
253 2 0.375833 0.25387 0.126206
254 4 0.397192 0.254411 0.113218
619 2 0.0279055 0.363969 0.141457
620 4 0.0147574 0.374416 0.122932
621 4 0.0410536 0.353523 0.159982
454 2 0.120167 0.340988 0.0945104
455 4 0.134601 0.360043 0.10184
537 4 0.130157 0.399738 0.14123
535 2 0.136192 0.389402 0.119277
536 4 0.142226 0.379067 0.0973233
647 4 0.112653 0.388113 0.147489
625 2 0.197016 0.388558 0.143442
627 4 0.197161 0.396754 0.11982
1439 4 0.215573 0.406681 0.120364
1438 2 0.218096 0.414523 0.0967561
386 4 0.316266 0.337645 0.0952685
385 2 0.325526 0.356517 0.108806
387 4 0.334786 0.375389 0.122344
302 4 0.334312 0.398319 0.11983
12 3 0.385351 0.372441 0.131047
11 1 0.370775 0.390215 0.131932
15 3 0.35334 0.386327 0.117806
672 4 0.404891 0.37783 0.133806
13 3 0.362997 0.39246 0.153678
14 3 0.382023 0.409468 0.125515
281 4 0.439694 0.350196 0.0853444
670 2 0.418821 0.371922 0.1139
671 4 0.432751 0.366014 0.0939944
104 3 0.49376 0.371798 0.0822739
1431 4 0.158552 0.484291 0.148764
1620 4 0.15526 0.493966 0.131214
1429 2 0.163528 0.467055 0.166181
1573 2 0.238136 0.492952 0.153386
1574 4 0.23484 0.475841 0.135455
639 4 0.243752 0.4608 0.127091
301 2 0.32078 0.417768 0.127818
638 4 0.288404 0.43911 0.133126
637 2 0.266078 0.449955 0.130108
303 4 0.307247 0.437216 0.135806
659 4 0.328114 0.432707 0.157754
495 4 0.375804 0.421776 0.140215
1559 4 0.371554 0.486918 0.117023
493 2 0.376917 0.444961 0.13092
494 4 0.37803 0.468146 0.121625
1584 4 0.464733 0.482375 0.109284
1582 2 0.475049 0.488044 0.087225
1674 4 0.456226 0.497248 0.12065
1416 4 0.990102 0.00942155 0.194383
688 2 0.161998 0.0398704 0.221546
690 4 0.147353 0.0590499 0.228092
674 4 0.147023 0.071327 0.212194
1506 4 0.222657 0.0286232 0.172574
689 4 0.176643 0.020691 0.215
1505 4 0.195821 0.0138417 0.212097
1504 2 0.209239 0.0212324 0.192335
22 3 0.381011 0.0613986 0.205339
698 4 0.397531 0.0600514 0.217692
697 2 0.404466 0.0396231 0.230332
699 4 0.411401 0.0191948 0.242972
333 4 0.404948 0.0796504 0.220321
21 1 0.376349 0.0838472 0.207202
351 4 0.501108 0.0571224 0.199949
742 2 0.492733 0.00520709 0.243863
349 2 0.484253 0.0732218 0.208998
511 2 0.0162708 0.118241 0.225693
513 4 0.0290318 0.131948 0.24226
578 4 0.0418489 0.145844 0.236456
2479 2 0.005463 0.0986352 0.175816
512 4 0.00350984 0.104535 0.209126
673 2 0.144651 0.0938061 0.222883
675 4 0.142279 0.116285 0.233571
546 4 0.139343 0.136008 0.230291
722 4 0.169747 0.0925796 0.25329
693 4 0.251996 0.0938198 0.181735
28 3 0.262698 0.158499 0.178328
691 2 0.268862 0.0989647 0.199462
1701 4 0.303482 0.108788 0.226657
692 4 0.285728 0.10411 0.217189
1699 2 0.325212 0.100171 0.217784
23 3 0.360024 0.0867963 0.223426
25 3 0.368877 0.0916459 0.187152
1700 4 0.346942 0.0915527 0.208911
759 4 0.34874 0.0950522 0.188688
24 3 0.395723 0.0950489 0.213332
350 4 0.467398 0.0893212 0.218047
331 2 0.428318 0.0874175 0.224645
332 4 0.451688 0.0951846 0.228969
770 4 0.482944 0.119806 0.177818
312 4 0.470786 0.132198 0.1866
310 2 0.475058 0.135831 0.210966
311 4 0.47933 0.139465 0.235333
521 4 0.496147 0.138491 0.246998
577 2 0.043874 0.170693 0.238359
529 2 0.0136931 0.220263 0.228723
530 4 0.0371518 0.213332 0.233902
579 4 0.045899 0.195541 0.240261
362 4 0.154594 0.235437 0.177575
361 2 0.144112 0.243677 0.198727
370 2 0.192131 0.225942 0.167013
372 4 0.172254 0.226274 0.182178
754 2 0.364243 0.225891 0.171757
755 4 0.367965 0.214013 0.193442
622 2 0.44286 0.245353 0.178558
337 2 0.062163 0.268096 0.17078
339 4 0.0558176 0.288457 0.183833
704 4 0.0367237 0.292079 0.184688
703 2 0.0251124 0.313666 0.189625
705 4 0.0135011 0.335253 0.194561
363 4 0.13363 0.251917 0.219879
395 4 0.118802 0.265562 0.217455
394 2 0.107751 0.257106 0.238228
283 2 0.266522 0.277525 0.183147
284 4 0.266142 0.269159 0.206706
528 4 0.424531 0.322005 0.200369
526 2 0.438043 0.301486 0.195724
623 4 0.443808 0.263183 0.196062
527 4 0.451556 0.280967 0.191078
542 4 0.430833 0.338181 0.210006
750 4 0.0681612 0.361023 0.247712
646 2 0.109666 0.383255 0.171834
648 4 0.106678 0.378398 0.196178
300 4 0.109147 0.359611 0.197943
298 2 0.0958878 0.355597 0.218759
734 4 0.145426 0.395968 0.212609
299 4 0.0826289 0.351584 0.239574
733 2 0.14995 0.398628 0.237055
626 4 0.196871 0.380363 0.167064
416 4 0.196568 0.414331 0.211272
290 4 0.213407 0.40866 0.222435
289 2 0.21742 0.402136 0.246237
645 4 0.36362 0.416565 0.185631
597 4 0.364765 0.399758 0.173738
345 4 0.359623 0.359145 0.214992
596 4 0.346314 0.361665 0.20037
595 2 0.355539 0.380712 0.187054
343 2 0.360519 0.355817 0.239757
541 2 0.418619 0.345367 0.230606
417 4 0.162583 0.45015 0.203352
1430 4 0.168504 0.449819 0.183597
415 2 0.179575 0.43224 0.207312
438 4 0.286532 0.474381 0.229954
658 2 0.33529 0.451944 0.172024
643 2 0.382372 0.43072 0.194185
644 4 0.401125 0.444875 0.202739
660 4 0.342466 0.47118 0.186295
231 4 0.357514 0.482678 0.180728
447 4 0.410692 0.462376 0.203397
445 2 0.42541 0.455154 0.222275
446 4 0.440128 0.447931 0.241154
1403 4 0.0281052 0.998876 0.275815
233 4 0.0351665 0.0164931 0.281121
232 2 0.0349564 0.0409741 0.286202
234 4 0.0347463 0.065455 0.291283
317 4 0.047317 0.0787748 0.302351
723 4 0.151577 0.0686365 0.293256
721 2 0.160662 0.0806081 0.273273
1340 4 0.22797 0.999871 0.291592
1405 2 0.209723 0.0301189 0.280161
1406 4 0.205586 0.0547013 0.282104
1407 4 0.21386 0.00553661 0.278219
743 4 0.477857 0.007892 0.26378
425 4 0.483628 0.0272375 0.269387
424 2 0.479981 0.049696 0.279755
426 4 0.476334 0.0721546 0.290123
316 2 0.0661638 0.0920521 0.292672
318 4 0.0850105 0.105329 0.282992
544 2 0.130366 0.138319 0.253512
599 4 0.15743 0.0829126 0.307383
392 4 0.107423 0.141787 0.290602
545 4 0.12139 0.14063 0.276734
391 2 0.110989 0.135535 0.314547
403 2 0.225536 0.140923 0.295794
598 2 0.168182 0.0907513 0.328552
404 4 0.242939 0.12442 0.302863
405 4 0.208133 0.157426 0.288725
258 4 0.475529 0.0796841 0.309041
256 2 0.480292 0.0998419 0.323047
444 4 0.0457339 0.242861 0.27992
442 2 0.0705549 0.240305 0.278319
443 4 0.0953759 0.237748 0.276719
396 4 0.0966995 0.24865 0.259002
401 4 0.205588 0.176245 0.281203
400 2 0.208512 0.198462 0.292295
402 4 0.211436 0.220679 0.303387
377 4 0.399956 0.239607 0.331883
763 2 0.452202 0.211651 0.317483
765 4 0.454304 0.187465 0.311502
764 4 0.450101 0.235838 0.323464
2493 4 0.00604587 0.406865 0.328175
262 2 0.0154401 0.412682 0.260729
365 4 0.0104369 0.38635 0.326106
366 4 0.0447805 0.364618 0.296969
749 4 0.0556269 0.348051 0.294353
364 2 0.0276087 0.375484 0.311538
748 2 0.0618941 0.354537 0.271032
735 4 0.154473 0.401289 0.261502
677 4 0.16999 0.404623 0.273744
291 4 0.221433 0.395612 0.270038
414 4 0.222552 0.394986 0.291354
412 2 0.229093 0.410696 0.309673
727 2 0.31422 0.408294 0.314747
308 4 0.31965 0.37401 0.31086
729 4 0.317883 0.389655 0.298489
344 4 0.361414 0.35249 0.264522
309 4 0.346998 0.348054 0.278011
307 2 0.333324 0.361032 0.294436
543 4 0.406406 0.352553 0.251207
2860 2 0.497989 0.38587 0.258646
615 4 0.420128 0.352837 0.266423
614 4 0.442393 0.34956 0.31108
613 2 0.43126 0.351199 0.288752
2862 4 0.47547 0.396667 0.257422
120 3 0.482706 0.408406 0.291361
116 1 0.492326 0.407972 0.311999
119 3 0.476868 0.414376 0.328075
2923 2 0.481141 0.35282 0.314793
2925 4 0.45971 0.340413 0.318254
2924 4 0.502571 0.365227 0.311332
713 4 0.473274 0.409834 0.273445
263 4 0.0403587 0.413714 0.258946
777 4 0.0587485 0.419977 0.31358
602 4 0.0706134 0.414332 0.328445
775 2 0.0778865 0.426459 0.298853
776 4 0.0970245 0.432942 0.284125
1757 4 0.113209 0.442594 0.277474
1756 2 0.119565 0.461772 0.292205
1758 4 0.125921 0.480949 0.306936
1775 4 0.13409 0.498894 0.305559
1544 4 0.203586 0.498108 0.331674
767 4 0.20581 0.500237 0.283944
676 2 0.177742 0.426289 0.283525
678 4 0.185494 0.447955 0.293306
768 4 0.18755 0.454856 0.273555
766 2 0.19668 0.477546 0.278749
436 2 0.29263 0.482809 0.252691
437 4 0.298728 0.491236 0.275428
433 2 0.298423 0.463808 0.310515
435 4 0.297191 0.480533 0.291969
434 4 0.299654 0.447083 0.32906
712 2 0.453614 0.420633 0.262397
714 4 0.433954 0.431431 0.25135
2756 4 0.99779 0.0479761 0.407178
606 4 0.151165 0.0523013 0.364247
730 2 0.0859234 0.0693438 0.394981
604 2 0.126407 0.0517497 0.360794
605 4 0.10165 0.0511981 0.357341
732 4 0.0918102 0.0623843 0.371698
683 4 0.247415 0.0659351 0.385567
249 4 0.299033 0.0250267 0.388976
684 4 0.284411 0.0337096 0.375896
682 2 0.265913 0.0498223 0.380731
247 2 0.321828 0.0326567 0.382095
321 4 0.246137 0.085498 0.38721
248 4 0.344623 0.0402867 0.375213
633 4 0.353906 0.0411936 0.392678
631 2 0.363233 0.0639942 0.396957
1749 4 0.491332 0.0382863 0.358165
1747 2 0.481202 0.0169657 0.34992
2586 4 0.0153963 0.146462 0.391286
393 4 0.114555 0.129284 0.338493
399 4 0.105085 0.129609 0.355867
397 2 0.107476 0.139872 0.378541
398 4 0.109866 0.150136 0.401216
731 4 0.0800365 0.0763034 0.418264
600 4 0.178934 0.0985899 0.349721
685 2 0.212639 0.119362 0.359061
687 4 0.199226 0.101741 0.347451
686 4 0.226052 0.136982 0.370671
410 4 0.23644 0.152239 0.376795
409 2 0.245689 0.16293 0.397418
319 2 0.254469 0.0973538 0.407586
632 4 0.372561 0.0867948 0.401236
419 4 0.401943 0.163991 0.374315
418 2 0.378968 0.157736 0.381944
420 4 0.355993 0.151482 0.389574
762 4 0.458856 0.149694 0.374473
257 4 0.485054 0.12 0.337053
760 2 0.478102 0.139303 0.362356
761 4 0.497348 0.128913 0.35024
515 4 0.455305 0.0926586 0.399714
514 2 0.451383 0.112042 0.415013
617 4 0.0343445 0.229822 0.415565
388 2 0.093095 0.215165 0.397719
274 2 0.144479 0.206506 0.36405
276 4 0.119591 0.20885 0.363494
389 4 0.105026 0.206993 0.377321
275 4 0.169366 0.204162 0.364606
473 4 0.221868 0.225792 0.366299
474 4 0.180111 0.205047 0.348225
472 2 0.20099 0.21542 0.357262
708 4 0.241893 0.224109 0.365319
651 4 0.24087 0.236332 0.409071
707 4 0.290525 0.235753 0.365487
706 2 0.266209 0.229931 0.365403
411 4 0.254938 0.173622 0.418041
497 4 0.308103 0.242516 0.359406
716 4 0.397098 0.179543 0.362601
717 4 0.397652 0.219853 0.333013
715 2 0.397375 0.199698 0.347807
696 4 0.0480064 0.306506 0.428156
1258 2 0.151485 0.31717 0.377747
1259 4 0.15349 0.314017 0.353024
1260 4 0.149481 0.320322 0.40247
489 4 0.244715 0.255612 0.410502
509 4 0.228377 0.30521 0.368744
488 4 0.223757 0.293675 0.385749
508 2 0.233679 0.32735 0.379083
487 2 0.234236 0.274644 0.398126
496 2 0.331476 0.251186 0.357479
376 2 0.386591 0.253352 0.347934
378 4 0.373226 0.267096 0.363985
498 4 0.354849 0.259856 0.355553
266 4 0.374926 0.286547 0.371846
265 2 0.379601 0.308447 0.360723
270 4 0.486211 0.261785 0.369487
306 4 0.470216 0.27345 0.376991
304 2 0.476091 0.281447 0.399941
504 4 0.163236 0.3864 0.362678
502 2 0.173796 0.408861 0.365705
510 4 0.238982 0.34949 0.389422
374 4 0.233275 0.363696 0.376428
373 2 0.246833 0.383567 0.369608
375 4 0.260392 0.403437 0.362788
267 4 0.384275 0.330347 0.349601
561 4 0.485971 0.412544 0.396905
753 4 0.47105 0.408968 0.345347
601 2 0.0693483 0.423865 0.351525
679 2 0.0442297 0.491678 0.385209
680 4 0.0542305 0.469193 0.389633
406 2 0.0324652 0.439705 0.409287
408 4 0.0392312 0.458568 0.394334
603 4 0.0680831 0.433398 0.374606
549 4 0.0812202 0.435799 0.390897
547 2 0.103068 0.441245 0.401769
548 4 0.124916 0.44669 0.412641
413 4 0.235635 0.426406 0.327992
635 4 0.184536 0.491656 0.334061
503 4 0.184357 0.431322 0.368732
634 2 0.18586 0.469167 0.344909
636 4 0.187183 0.446678 0.355757
728 4 0.310558 0.426934 0.331005
3 3 0.272559 0.417126 0.369753
2 3 0.290661 0.429503 0.339228
5 3 0.253601 0.425207 0.338243
1 1 0.271204 0.431228 0.351377
668 4 0.281214 0.466053 0.365811
4 3 0.26868 0.453194 0.358417
667 2 0.294999 0.486211 0.36044
751 2 0.477476 0.419889 0.366902
752 4 0.483902 0.43081 0.388457
341 4 0.170371 0.0704274 0.433435
2430 4 0.178519 0.0558286 0.42487
441 4 0.217044 0.019777 0.448112
2428 2 0.191628 0.0350105 0.429335
2429 4 0.204737 0.0141923 0.433801
1218 4 0.408486 0.0571034 0.482495
2879 4 0.442746 0.00460981 0.45512
2878 2 0.460071 0.0143352 0.43994
2880 4 0.477396 0.0240606 0.424759
642 4 0.487945 0.0394694 0.433308
640 2 0.489644 0.0640004 0.428778
368 4 0.0740049 0.0844037 0.435448
367 2 0.0610547 0.0953682 0.453813
719 4 0.0344378 0.0969218 0.482434
369 4 0.0481046 0.106333 0.472177
718 2 0.0176435 0.102395 0.50013
1152 4 0.165278 0.121315 0.478205
1150 2 0.164593 0.13442 0.499489
342 4 0.172925 0.108889 0.465293
340 2 0.171648 0.089658 0.449364
320 4 0.2628 0.10921 0.427963
725 4 0.266732 0.0925231 0.437449
724 2 0.265971 0.0915517 0.462423
726 4 0.26521 0.0905803 0.487396
432 4 0.277398 0.102732 0.494862
468 4 0.364651 0.0883962 0.420603
467 4 0.387504 0.124574 0.446479
466 2 0.376078 0.106485 0.433541
576 4 0.396733 0.135807 0.460574
641 4 0.491343 0.0885313 0.424247
574 2 0.419829 0.140727 0.452353
3158 4 0.497262 0.107258 0.42881
575 4 0.442924 0.145647 0.444132
516 4 0.447461 0.131425 0.430313
259 2 0.0549514 0.174616 0.484328
260 4 0.0713551 0.180084 0.466267
471 4 0.0622823 0.198318 0.463765
469 2 0.0754517 0.21415 0.449584
390 4 0.081164 0.223336 0.418116
470 4 0.0886211 0.229981 0.435403
649 2 0.244286 0.213229 0.418001
650 4 0.247702 0.190126 0.42693
2455 2 0.397946 0.234584 0.440093
2457 4 0.418234 0.226535 0.427895
2456 4 0.377658 0.242633 0.452291
616 2 0.0137831 0.244012 0.416603
694 2 0.071048 0.29721 0.430957
695 4 0.0940897 0.287913 0.433758
878 4 0.106502 0.271508 0.493608
326 4 0.138418 0.328777 0.416171
585 4 0.348062 0.293362 0.424232
583 2 0.362252 0.278147 0.4381
584 4 0.376441 0.262931 0.451968
1010 4 0.444437 0.327626 0.456255
1009 2 0.453782 0.308965 0.442485
1011 4 0.463126 0.290304 0.428715
305 4 0.481966 0.289445 0.422891
709 2 0.132235 0.401272 0.493566
325 2 0.14963 0.344888 0.43166
327 4 0.160843 0.360999 0.447148
8 3 0.160027 0.370658 0.49239
711 4 0.142701 0.379172 0.498784
7 3 0.174816 0.371216 0.457842
6 1 0.178379 0.364555 0.479569
9 3 0.181038 0.341509 0.48001
1191 4 0.21478 0.389211 0.483073
1189 2 0.23525 0.375224 0.479832
10 3 0.197146 0.374696 0.487543
896 4 0.20174 0.394692 0.499446
1190 4 0.255721 0.361237 0.47659
335 4 0.379083 0.415001 0.442175
238 2 0.383289 0.396694 0.481504
240 4 0.374878 0.406566 0.460127
559 2 0.48332 0.401937 0.419391
2507 4 0.440903 0.343551 0.467452
560 4 0.48067 0.39133 0.441878
2506 2 0.458357 0.360405 0.461411
2508 4 0.47581 0.377259 0.455371
407 4 0.0256991 0.420843 0.424241
1382 4 0.027104 0.439607 0.477418
540 4 0.0415066 0.452936 0.474841
1381 2 0.00319457 0.44278 0.470827
570 4 0.124505 0.43934 0.475839
568 2 0.130223 0.438998 0.4515
710 4 0.121768 0.423372 0.488348
569 4 0.13594 0.438656 0.427162
336 4 0.335857 0.438678 0.433711
1444 2 0.271529 0.488142 0.491194
1446 4 0.253183 0.487933 0.474207
588 4 0.332013 0.497923 0.456316
586 2 0.332349 0.495584 0.481207
1399 2 0.317384 0.467892 0.433835
1401 4 0.318302 0.444761 0.424384
1400 4 0.316466 0.491022 0.443287
334 2 0.35747 0.426839 0.437943
1032 4 0.111755 0.0673186 0.561362
1154 4 0.0980663 0.0806367 0.571025
1030 2 0.12749 0.076341 0.544152
1031 4 0.143225 0.0853634 0.526942
1180 2 0.230195 0.0638135 0.575623
963 4 0.243744 0.0300316 0.578486
1182 4 0.221793 0.0829645 0.561918
961 2 0.264783 0.0169098 0.575273
843 4 0.321103 0.0774793 0.52386
962 4 0.285823 0.00378806 0.572059
2195 4 0.306089 0.00698904 0.573017
431 4 0.304267 0.0836953 0.532497
841 2 0.345454 0.0735178 0.527926
1216 2 0.398526 0.058452 0.505389
1217 4 0.388565 0.0598007 0.528284
842 4 0.369805 0.0695564 0.531992
1033 2 0.046432 0.145813 0.530604
1034 4 0.0451426 0.150398 0.506058
1035 4 0.0477213 0.141229 0.55515
1082 4 0.0608059 0.144206 0.570762
951 4 0.15988 0.0953832 0.532633
950 4 0.206232 0.0914068 0.550974
949 2 0.183056 0.093395 0.541803
1151 4 0.163909 0.147525 0.520772
939 4 0.177606 0.145322 0.534345
937 2 0.200397 0.154924 0.538028
938 4 0.223188 0.164525 0.54171
430 2 0.290832 0.0932136 0.51368
857 4 0.369907 0.140636 0.582697
899 4 0.374734 0.142172 0.561854
898 2 0.385607 0.161786 0.550797
808 2 0.498261 0.0951366 0.582812
809 4 0.501276 0.0950075 0.557991
261 4 0.0385477 0.169148 0.502389
879 4 0.11505 0.243109 0.533872
1270 2 0.119922 0.243583 0.571966
900 4 0.396479 0.181401 0.53974
872 4 0.403407 0.199478 0.541627
873 4 0.375667 0.235365 0.562684
871 2 0.389537 0.217421 0.552155
813 4 0.359573 0.247344 0.559502
877 2 0.110776 0.257309 0.51374
1272 4 0.110738 0.25463 0.551501
804 4 0.292217 0.330024 0.526954
929 4 0.311077 0.334012 0.531396
1204 2 0.384395 0.312307 0.566755
1206 4 0.364734 0.32217 0.554868
930 4 0.360602 0.33127 0.537755
1205 4 0.404057 0.302443 0.578643
928 2 0.335839 0.332641 0.534576
983 4 0.0580734 0.399591 0.548824
982 2 0.0361988 0.407877 0.557658
1041 4 0.0676307 0.3905 0.562604
1039 2 0.0862989 0.393086 0.579036
897 4 0.189675 0.390308 0.547778
895 2 0.195708 0.3925 0.523612
1137 4 0.195911 0.406812 0.556536
1135 2 0.180056 0.404736 0.575757
802 2 0.277717 0.342373 0.510755
803 4 0.263217 0.354722 0.494555
239 4 0.391701 0.386823 0.502881
1001 4 0.456148 0.39167 0.53662
926 4 0.454639 0.374983 0.525411
925 2 0.478411 0.368467 0.521216
1000 2 0.44489 0.400245 0.557233
1002 4 0.433632 0.40882 0.577846
927 4 0.502184 0.361951 0.517021
984 4 0.0143243 0.416163 0.566491
1936 2 0.03042 0.471258 0.555059
1937 4 0.0358404 0.476198 0.531155
539 4 0.0507642 0.468736 0.521375
538 2 0.0461354 0.460836 0.498108
1938 4 0.0249995 0.466318 0.578963
2242 2 0.145172 0.49605 0.567484
1161 4 0.177266 0.477279 0.581903
882 4 0.274568 0.469735 0.574709
880 2 0.279204 0.476715 0.551152
881 4 0.283841 0.483694 0.527594
1445 4 0.289876 0.488352 0.50818
587 4 0.332685 0.493245 0.506099
1185 4 0.0105371 0.0446929 0.646544
945 4 0.0268703 0.0516682 0.65548
1057 2 0.0993593 0.0440387 0.651816
1155 4 0.109566 0.0660606 0.617457
1059 4 0.101037 0.0633668 0.636043
1153 2 0.103816 0.0733486 0.594241
825 4 0.101053 0.00619431 0.662889
1181 4 0.238596 0.0446626 0.589328
1142 4 0.374674 0.0573223 0.662184
1141 2 0.372966 0.0819962 0.658515
2282 4 0.490492 0.028287 0.608089
2281 2 0.476595 0.00918553 0.599893
41 1 0.497477 0.0605294 0.628693
44 3 0.475553 0.061421 0.63624
1081 2 0.0458687 0.157721 0.585574
1221 4 0.157468 0.10351 0.64013
1219 2 0.173602 0.121824 0.634698
1220 4 0.189736 0.140137 0.629266
1212 4 0.206816 0.138799 0.640265
1210 2 0.225288 0.140177 0.65706
1005 4 0.30797 0.107871 0.600197
1003 2 0.304308 0.100207 0.623713
1004 4 0.300646 0.0925434 0.64723
887 4 0.294963 0.109387 0.656702
856 2 0.352347 0.152398 0.596056
1024 2 0.387652 0.139784 0.653891
1143 4 0.371259 0.10667 0.654846
1025 4 0.386378 0.116272 0.645479
810 4 0.495246 0.0952657 0.607632
3045 4 0.00466031 0.197673 0.628937
1083 4 0.0309315 0.171236 0.600387
1199 4 0.0140606 0.164017 0.608125
1271 4 0.129105 0.232536 0.592431
909 4 0.149751 0.228111 0.593645
907 2 0.165753 0.240023 0.60872
908 4 0.181754 0.251935 0.623795
796 2 0.329305 0.203431 0.607539
797 4 0.3224 0.179514 0.609889
858 4 0.334787 0.16416 0.609415
798 4 0.33621 0.227347 0.605188
1026 4 0.388925 0.163295 0.662302
811 2 0.351697 0.246745 0.583225
812 4 0.343822 0.246146 0.606949
3357 4 0.48633 0.205215 0.659737
906 4 0.468883 0.219405 0.626313
904 2 0.466197 0.236081 0.607877
3122 4 0.475187 0.220869 0.664238
947 4 0.182216 0.254301 0.643104
946 2 0.199072 0.272182 0.647722
948 4 0.215928 0.290063 0.652339
1065 4 0.234834 0.295538 0.649207
1063 2 0.254979 0.301638 0.662704
1239 4 0.276885 0.266956 0.59455
1237 2 0.297095 0.281669 0.595079
1238 4 0.317304 0.296382 0.595608
792 4 0.317871 0.310302 0.60949
954 4 0.408631 0.294768 0.59727
790 2 0.342447 0.309648 0.614049
791 4 0.367023 0.308994 0.618607
905 4 0.463511 0.252757 0.589442
953 4 0.446485 0.262099 0.596557
952 2 0.427558 0.278433 0.596913
3262 2 0.000651557 0.411099 0.608408
894 4 0.0918393 0.348485 0.666128
991 2 0.126762 0.40616 0.611778
992 4 0.151255 0.410562 0.609355
892 2 0.115101 0.352273 0.657779
1040 4 0.104967 0.395671 0.595467
993 4 0.102268 0.401758 0.614201
893 4 0.138363 0.356061 0.64943
1136 4 0.164201 0.402659 0.594979
1027 2 0.240828 0.383223 0.658981
1028 4 0.230214 0.364722 0.672029
1029 4 0.251441 0.401724 0.645933
1910 4 0.424926 0.407122 0.596737
3263 4 0.00529627 0.412707 0.583892
936 4 0.0122489 0.476962 0.589492
2022 4 0.0281221 0.475625 0.652887
2243 4 0.161006 0.488051 0.585104
1160 4 0.218215 0.448654 0.584023
1159 2 0.19774 0.462966 0.582963
1139 4 0.253362 0.416048 0.65894
1173 4 0.225804 0.449374 0.602783
1171 2 0.249063 0.450392 0.593663
1172 4 0.272321 0.451411 0.584542
891 4 0.355875 0.488315 0.63077
889 2 0.375497 0.492454 0.645703
1269 4 0.399857 0.47683 0.661219
1951 2 0.359182 0.485022 0.592406
1952 4 0.353693 0.475777 0.61498
890 4 0.39512 0.496593 0.660637
1909 2 0.427181 0.419768 0.618189
1911 4 0.429436 0.432414 0.63964
1267 2 0.416589 0.458309 0.659722
1268 4 0.433321 0.439789 0.658225
943 2 0.0402769 0.0648762 0.671942
944 4 0.0536836 0.0780843 0.688404
1075 2 0.0650156 0.0789399 0.730087
1076 4 0.0516678 0.0797849 0.708962
1077 4 0.0783635 0.0780949 0.751213
1058 4 0.0976817 0.0247106 0.667589
1203 4 0.0931823 0.0657613 0.750122
830 4 0.314073 0.0583287 0.745178
829 2 0.319687 0.0725892 0.725421
3387 4 0.0132697 0.130642 0.714675
32 3 0.106536 0.157618 0.723053
31 1 0.100495 0.158908 0.745211
1211 4 0.24376 0.141554 0.673855
886 2 0.279454 0.12727 0.664754
831 4 0.325301 0.0868498 0.705665
888 4 0.263944 0.145153 0.672805
1208 4 0.076631 0.246537 0.709337
821 4 0.0898452 0.253506 0.721321
822 4 0.126656 0.223708 0.737378
1278 4 0.136678 0.207441 0.73
820 2 0.10825 0.238607 0.729349
1276 2 0.156483 0.204392 0.744954
35 3 0.0825277 0.172745 0.747294
977 4 0.315483 0.207965 0.741099
916 2 0.317209 0.237697 0.709228
918 4 0.322073 0.221389 0.727546
3121 2 0.470077 0.244191 0.671662
1207 2 0.0528706 0.252815 0.713942
1243 2 0.00872681 0.302165 0.724268
3188 4 0.0301071 0.255895 0.73766
1209 4 0.0291101 0.259093 0.718548
1244 4 0.0154662 0.323713 0.735012
1245 4 0.00198745 0.280617 0.713524
1241 4 0.23934 0.309077 0.718134
1240 2 0.241717 0.297565 0.740202
1064 4 0.275124 0.307738 0.6762
1098 4 0.294438 0.310668 0.671843
917 4 0.312346 0.254006 0.69091
1097 4 0.317737 0.273032 0.695111
1096 2 0.306087 0.29185 0.683477
3123 4 0.464967 0.267514 0.679085
1262 4 0.454646 0.253521 0.754074
1194 4 0.457735 0.273061 0.749337
1281 4 0.0728663 0.342718 0.668094
1279 2 0.0590046 0.352262 0.686586
3275 4 0.0539597 0.376415 0.71377
1280 4 0.0451428 0.361806 0.705077
3274 2 0.0619707 0.388663 0.734043
940 2 0.16419 0.39881 0.728367
942 4 0.152703 0.417999 0.739547
1068 4 0.215154 0.35883 0.683787
1067 4 0.18511 0.363672 0.723469
1066 2 0.200132 0.361251 0.703628
941 4 0.175677 0.379621 0.717186
1229 4 0.336601 0.397502 0.688262
1228 2 0.340685 0.407734 0.710708
2021 4 0.0427352 0.46422 0.699331
1981 2 0.0368293 0.489396 0.733609
2020 2 0.0354287 0.469923 0.676109
1983 4 0.0456376 0.473143 0.716774
1080 4 0.144724 0.437817 0.748845
1138 2 0.267173 0.43074 0.673725
1140 4 0.280984 0.445432 0.688509
1989 4 0.283657 0.446496 0.708295
1987 2 0.28588 0.453882 0.732079
1230 4 0.34477 0.417965 0.733153
1250 4 0.454835 0.494783 0.746548
1100 4 0.441132 0.486213 0.733031
862 2 0.0764809 0.0695869 0.811723
1283 4 0.145238 0.0593194 0.751081
1282 2 0.156609 0.080586 0.757685
2047 2 0.162796 0.0246994 0.756853
864 4 0.0842354 0.0483772 0.822456
1201 2 0.108312 0.0522139 0.764707
2049 4 0.159881 0.049268 0.760468
1202 4 0.123442 0.0386666 0.779292
1147 2 0.202554 0.0521212 0.838014
1149 4 0.22057 0.0562672 0.821179
1049 4 0.23496 0.0685171 0.820353
1048 2 0.258226 0.0701236 0.829371
818 4 0.353722 0.0743584 0.792851
965 4 0.372823 0.076649 0.791044
846 4 0.48609 0.0130265 0.763343
1106 4 0.0691498 0.161844 0.758283
863 4 0.0687264 0.0907965 0.80099
832 2 0.0717539 0.126991 0.779673
833 4 0.0641911 0.110019 0.796404
834 4 0.0793166 0.143963 0.762942
33 3 0.0950338 0.137652 0.752747
34 3 0.118386 0.167275 0.757388
1073 4 0.116362 0.157663 0.775487
1072 2 0.112579 0.16466 0.799191
1074 4 0.108795 0.171657 0.822896
1284 4 0.167981 0.101853 0.764288
1227 4 0.178908 0.115043 0.753952
1130 4 0.175333 0.131698 0.766162
1225 2 0.203455 0.110543 0.755489
1226 4 0.228003 0.106043 0.757026
840 4 0.240312 0.106405 0.771716
1129 2 0.174516 0.156578 0.76382
838 2 0.252814 0.12644 0.779929
817 2 0.334685 0.0891937 0.799384
839 4 0.265317 0.146476 0.788142
959 4 0.266717 0.155427 0.806183
819 4 0.315648 0.104029 0.805917
1085 4 0.309448 0.120024 0.813916
1084 2 0.323703 0.140562 0.813507
964 2 0.38895 0.082358 0.809279
966 4 0.405076 0.088067 0.827515
1038 4 0.400785 0.108048 0.828926
1299 4 0.355101 0.153862 0.803353
3270 4 0.496355 0.159467 0.783622
1146 4 0.481262 0.155013 0.772147
3268 2 0.505682 0.14348 0.800432
1107 4 0.0239621 0.182699 0.7534
1105 2 0.046556 0.172272 0.755842
779 4 0.0681223 0.218682 0.837053
1214 4 0.0540689 0.229164 0.828339
1213 2 0.0358348 0.239536 0.814733