ITEM: TIMESTEP
2870000
ITEM: NUMBER OF ATOMS
4590
ITEM: BOX BOUNDS pp pp pp
-9.9985700000000008e+00 9.9985700000000008e+00
-9.9985700000000008e+00 9.9985700000000008e+00
-9.9985700000000008e+00 9.9985700000000008e+00
ITEM: ATOMS id type xs ys zs
463 2 0.0266771 0.0413915 0.00977577
464 4 0.0415118 0.0216687 0.0137906
1668 4 0.05987 0.0449272 0.0485908
1666 2 0.0428237 0.0457336 0.0668651
3290 4 0.074657 0.032977 0.0544867
701 4 0.0286927 0.0687487 0.999258
3289 2 0.0876268 0.0332448 0.0331117
565 2 0.167886 0.0423192 0.0192116
566 4 0.151952 0.0482896 0.000891419
3291 4 0.100597 0.0335126 0.0117367
567 4 0.18382 0.0363487 0.0375318
490 2 0.296514 0.0116964 0.0561839
491 4 0.29669 0.0316601 0.0411307
985 2 0.297194 0.040993 0.00985908
987 4 0.306174 0.0472063 0.032352
745 2 0.464496 0.0367937 0.0601466
746 4 0.446376 0.0482859 0.0473101
747 4 0.482616 0.0253015 0.0729831
1826 4 0.480529 0.00567406 0.0695105
460 2 0.300538 0.158913 0.0549532
462 4 0.318965 0.148285 0.0418124
2724 4 0.478331 0.0841058 0.0705705
422 4 0.0518417 0.182612 0.0104487
421 2 0.0756154 0.179057 0.00356701
505 2 0.143023 0.253831 0.0531259
506 4 0.167777 0.250558 0.0544321
737 4 0.183125 0.236539 0.0527104
736 2 0.200871 0.219883 0.0469773
738 4 0.218616 0.203227 0.0412441
354 4 0.22381 0.183226 0.0391289
352 2 0.247824 0.181492 0.0458735
461 4 0.282112 0.169542 0.0680939
353 4 0.271839 0.179758 0.0526181
665 4 0.331362 0.210847 0.0211274
1069 2 0.379832 0.241135 0.00420911
828 4 0.489402 0.223019 0.0224188
519 4 0.505992 0.246674 0.0601783
826 2 0.492607 0.207229 0.00329867
324 4 0.453287 0.270562 0.0282663
2807 4 0.013152 0.261797 0.0107684
292 2 0.0944624 0.288763 0.0682005
293 4 0.103422 0.270695 0.0534205
507 4 0.118269 0.257104 0.0518196
612 4 0.288024 0.296055 0.05698
610 2 0.276684 0.278805 0.0710871
609 4 0.272942 0.308962 0.0596642
482 4 0.304478 0.299246 0.996953
481 2 0.284443 0.284332 0.998113
1071 4 0.359798 0.249394 0.0166829
573 4 0.361797 0.270111 0.0187412
571 2 0.348425 0.288756 0.00880603
323 4 0.486881 0.243937 0.0540199
322 2 0.470084 0.257249 0.0411431
630 4 0.419108 0.252359 0.090928
1288 2 0.193186 0.416714 0.00939999
1289 4 0.181501 0.395618 0.016003
988 2 0.180596 0.360691 0.00741903
989 4 0.18548 0.378048 0.0247409
741 4 0.335605 0.345727 0.00966269
739 2 0.329127 0.354459 0.0321784
250 2 0.288301 0.392018 0.0515731
252 4 0.278245 0.369851 0.0458554
607 2 0.275032 0.331022 0.0480815
608 4 0.277122 0.353082 0.0364989
740 4 0.322649 0.363192 0.0546941
386 4 0.334319 0.365197 0.0704466
226 2 0.393304 0.388688 0.0269437
228 4 0.384215 0.411357 0.0323009
227 4 0.402393 0.366019 0.0215866
671 4 0.420316 0.358947 0.0705139
525 4 0.363461 0.411875 0.0364857
281 4 0.436355 0.347549 0.0730747
280 2 0.461063 0.344745 0.0704564
282 4 0.485771 0.341941 0.067838
1047 4 0.50164 0.333207 0.0576185
104 3 0.492293 0.351858 0.0846234
552 4 0.0291156 0.462801 0.0633531
314 4 0.0182464 0.450108 0.0744596
550 2 0.0117274 0.475061 0.0502187
313 2 0.0153162 0.427677 0.085112
1956 4 0.982399 0.50205 0.029724
1786 2 0.161487 0.48727 0.0646638
243 4 0.235427 0.464707 0.0589126
1440 4 0.238581 0.463147 0.0797762
241 2 0.212336 0.468486 0.050098
242 4 0.189245 0.472264 0.0412834
1787 4 0.170068 0.47756 0.0432796
1290 4 0.204871 0.43781 0.00279695
251 4 0.298356 0.414185 0.0572908
524 4 0.314091 0.415036 0.0437875
271 2 0.272558 0.482763 0.0772156
272 4 0.283622 0.461643 0.0847439
523 2 0.338776 0.413456 0.0401366
1583 4 0.458776 0.44357 0.0506619
1582 2 0.453398 0.463217 0.0651614
1584 4 0.448019 0.482865 0.0796608
1667 4 0.0257774 0.04654 0.0851395
16 1 0.0388815 0.0504996 0.125561
2480 4 0.0147759 0.0629102 0.156182
18 3 0.0494994 0.07077 0.129405
19 3 0.0231122 0.0465521 0.142119
17 3 0.0282133 0.0514363 0.105203
20 3 0.0541941 0.0336453 0.125237
1422 4 0.0113119 0.0430619 0.162162
652 2 0.23518 0.0396342 0.164694
654 4 0.231842 0.0271061 0.143315
1476 4 0.250293 0.026339 0.138183
1475 4 0.281785 0.0360091 0.100561
1474 2 0.266039 0.031174 0.119372
297 4 0.367878 0.0459518 0.129679
295 2 0.389265 0.0583325 0.125872
296 4 0.410652 0.0707131 0.122066
484 2 0.354697 0.0131435 0.12472
485 4 0.357732 0.0364735 0.116254
557 4 0.424925 0.0813594 0.113575
556 2 0.448657 0.0869265 0.119142
450 4 0.0957003 0.0895364 0.099698
236 4 0.143198 0.132638 0.116957
449 4 0.124068 0.12614 0.11857
448 2 0.109884 0.107838 0.109134
235 2 0.161465 0.148561 0.110793
237 4 0.179731 0.164483 0.104629
580 2 0.317817 0.12544 0.150185
582 4 0.333099 0.108929 0.139275
581 4 0.302535 0.14195 0.161096
30 3 0.288153 0.152367 0.171057
758 4 0.342265 0.0943999 0.149299
558 4 0.472389 0.0924935 0.124709
771 4 0.489085 0.0931183 0.136255
769 2 0.489171 0.110805 0.153928
370 2 0.16708 0.216644 0.164236
371 4 0.188274 0.209162 0.15328
476 4 0.19278 0.197367 0.168282
456 4 0.0958955 0.314304 0.099242
704 4 0.0319261 0.300311 0.168279
339 4 0.0459575 0.286695 0.162967
294 4 0.0855031 0.306832 0.0829804
611 4 0.265344 0.261554 0.0851943
279 4 0.267065 0.253857 0.14833
277 2 0.259971 0.258517 0.124812
278 4 0.252876 0.263178 0.101293
285 4 0.276687 0.249621 0.163766
254 4 0.400368 0.25725 0.0836147
754 2 0.356706 0.257948 0.150374
756 4 0.35652 0.253242 0.125818
253 2 0.378021 0.257711 0.0948208
255 4 0.355674 0.258172 0.106027
624 4 0.443507 0.24922 0.142379
629 4 0.451455 0.260478 0.12819
628 2 0.435281 0.256419 0.109559
622 2 0.44069 0.25272 0.166975
619 2 0.0393861 0.380804 0.110351
620 4 0.0618035 0.374645 0.119555
621 4 0.0169687 0.386964 0.101148
315 4 0.012386 0.405247 0.0957645
454 2 0.0904677 0.338641 0.097396
455 4 0.0850399 0.362978 0.0955501
537 4 0.141919 0.385919 0.159604
535 2 0.14581 0.386734 0.134919
536 4 0.149701 0.38755 0.110233
625 2 0.228901 0.402838 0.134767
627 4 0.220178 0.415458 0.115023
626 4 0.237625 0.390219 0.154511
301 2 0.331743 0.418377 0.129117
670 2 0.40678 0.364694 0.0907358
385 2 0.3474 0.376547 0.0884807
387 4 0.360482 0.387896 0.106515
12 3 0.402763 0.385911 0.120291
11 1 0.389197 0.397654 0.134687
15 3 0.368167 0.39869 0.12601
672 4 0.393244 0.370441 0.110958
302 4 0.347718 0.402646 0.118049
13 3 0.388783 0.38676 0.15517
596 4 0.344499 0.36028 0.187726
1466 4 0.00624883 0.487283 0.114695
1431 4 0.164487 0.491159 0.159096
1438 2 0.231429 0.448968 0.0990889
1439 4 0.224278 0.434789 0.118402
1574 4 0.274362 0.498729 0.121956
639 4 0.269245 0.491985 0.14029
638 4 0.288521 0.451923 0.163186
637 2 0.278883 0.471954 0.151738
303 4 0.315767 0.434108 0.140185
659 4 0.318837 0.444146 0.157673
1559 4 0.363052 0.487837 0.135538
14 3 0.397758 0.419065 0.137274
494 4 0.406626 0.473776 0.102759
495 4 0.410432 0.432974 0.13142
493 2 0.408529 0.453375 0.11709
658 2 0.337092 0.455504 0.170437
2479 2 0.0181713 0.0864268 0.163968
674 4 0.153664 0.0758925 0.207734
673 2 0.155611 0.081467 0.23203
689 4 0.177971 0.0308798 0.175281
690 4 0.168883 0.0761432 0.194499
1505 4 0.195379 0.0218866 0.175369
653 4 0.238518 0.0521623 0.186074
688 2 0.173427 0.0535115 0.18489
693 4 0.257652 0.0507924 0.186174
691 2 0.273823 0.061875 0.201693
1699 2 0.326773 0.0765901 0.219988
692 4 0.289994 0.0729576 0.217213
1701 4 0.304192 0.0793378 0.230367
1700 4 0.349354 0.0738424 0.209608
22 3 0.389837 0.0500014 0.222688
698 4 0.40466 0.0577787 0.234522
21 1 0.382125 0.0693313 0.212888
333 4 0.412442 0.0731506 0.223233
23 3 0.36362 0.0768581 0.22469
25 3 0.376334 0.0649992 0.191293
759 4 0.359379 0.0757683 0.192435
697 2 0.411815 0.0362095 0.244951
351 4 0.508595 0.061993 0.237036
2481 4 0.0215668 0.109943 0.171754
513 4 0.0236348 0.14625 0.224455
578 4 0.0368035 0.161656 0.224411
511 2 0.00091833 0.136332 0.221173
28 3 0.25561 0.146437 0.189042
27 3 0.275001 0.178146 0.194624
26 1 0.269248 0.162288 0.178985
757 2 0.350822 0.0850841 0.170867
24 3 0.398954 0.0852934 0.213522
349 2 0.493102 0.0790916 0.227404
770 4 0.489257 0.128492 0.171602
312 4 0.474942 0.13601 0.183574
310 2 0.481469 0.135898 0.207711
350 4 0.477609 0.0961901 0.217771
331 2 0.435159 0.0834519 0.221511
332 4 0.457877 0.0937531 0.219789
311 4 0.487995 0.135786 0.231847
577 2 0.033897 0.185795 0.230246
529 2 0.0135916 0.241025 0.218497
530 4 0.0220613 0.227922 0.238036
579 4 0.0309904 0.209933 0.236081
372 4 0.145886 0.224125 0.175191
362 4 0.143041 0.232209 0.194152
361 2 0.118313 0.235022 0.191751
29 3 0.257871 0.172657 0.161623
475 2 0.215821 0.188462 0.16441
477 4 0.238862 0.179557 0.160538
337 2 0.068555 0.287198 0.173657
531 4 0.00512185 0.254128 0.198959
2483 4 0.00972629 0.250418 0.179571
703 2 0.0206866 0.312318 0.187112
705 4 0.00944715 0.324325 0.205945
2615 4 0.0116799 0.324746 0.225708
338 4 0.0911524 0.287702 0.184347
395 4 0.092249 0.298492 0.201723
396 4 0.0935701 0.293935 0.251505
394 2 0.0929095 0.296214 0.226614
363 4 0.0935841 0.237835 0.189351
283 2 0.289706 0.268925 0.172878
284 4 0.302725 0.288229 0.18199
755 4 0.356892 0.262653 0.17493
528 4 0.432869 0.318448 0.218002
623 4 0.437874 0.256221 0.191572
527 4 0.437198 0.275295 0.193106
526 2 0.435033 0.296871 0.205554
263 4 0.042191 0.427427 0.231977
647 4 0.151335 0.381553 0.17684
300 4 0.105844 0.353422 0.20562
646 2 0.128443 0.376328 0.185431
648 4 0.10555 0.371103 0.194022
298 2 0.100502 0.356545 0.229845
289 2 0.223388 0.409916 0.242664
416 4 0.210825 0.423488 0.207501
290 4 0.208352 0.410093 0.222687
345 4 0.340475 0.366936 0.207076
645 4 0.395474 0.401775 0.172209
597 4 0.373385 0.395789 0.16759
595 2 0.358942 0.378034 0.177658
343 2 0.345902 0.361711 0.230918
542 4 0.438177 0.323541 0.237778
1430 4 0.161657 0.45748 0.195953
417 4 0.16333 0.439075 0.206098
1429 2 0.163072 0.47432 0.177524
415 2 0.187077 0.431282 0.206799
438 4 0.281274 0.461518 0.221405
643 2 0.397107 0.421991 0.186831
229 2 0.360293 0.499735 0.210117
644 4 0.39874 0.442208 0.201454
660 4 0.355347 0.466863 0.183201
231 4 0.364109 0.484202 0.190898
447 4 0.405049 0.437469 0.218991
445 2 0.418296 0.441343 0.239841
1403 4 0.0111188 0.00628567 0.272989
233 4 0.0107662 0.0241 0.281979
232 2 0.0184995 0.0478483 0.280799
234 4 0.0262328 0.0715966 0.279618
317 4 0.0453198 0.064699 0.282533
316 2 0.0658742 0.0781005 0.287339
318 4 0.0864287 0.0915019 0.292145
1407 4 0.247179 0.0151085 0.292192
722 4 0.173745 0.0868166 0.268575
1405 2 0.224111 0.0168326 0.2827
1406 4 0.201044 0.0185567 0.273209
684 4 0.301704 0.0522789 0.339356
249 4 0.319174 0.0505731 0.329263
1518 4 0.421041 0.0164441 0.27517
1516 2 0.432851 0.996379 0.284285
699 4 0.418969 0.0146404 0.25538
425 4 0.489219 0.0376097 0.284439
424 2 0.473404 0.0486625 0.300342
258 4 0.467941 0.0757899 0.323551
426 4 0.457589 0.0597153 0.316245
743 4 0.500945 0.029223 0.269001
393 4 0.0918644 0.139183 0.317625
675 4 0.157558 0.0870415 0.256327
391 2 0.0952778 0.14104 0.292926
392 4 0.0986913 0.142897 0.268226
544 2 0.136377 0.123257 0.262475
545 4 0.118 0.138933 0.268937
546 4 0.154754 0.107582 0.256014
399 4 0.10342 0.133384 0.332053
721 2 0.190455 0.0785427 0.285232
723 4 0.207166 0.0702687 0.30189
599 4 0.205782 0.068024 0.321325
404 4 0.237617 0.0974333 0.280287
403 2 0.230017 0.120992 0.283807
405 4 0.222417 0.144552 0.287326
256 2 0.481028 0.0970472 0.324974
401 4 0.229028 0.16235 0.279838
400 2 0.245897 0.180461 0.276287
402 4 0.262766 0.198572 0.272735
765 4 0.422792 0.186742 0.320179
763 2 0.441258 0.197659 0.307333
764 4 0.459723 0.208576 0.294487
2769 4 0.503713 0.251593 0.33063
442 2 0.0683987 0.26572 0.270087
444 4 0.0496445 0.249422 0.272888
749 4 0.0676897 0.326195 0.298298
748 2 0.0850942 0.33627 0.28344
443 4 0.0871529 0.282018 0.267287
497 4 0.320319 0.282067 0.3053
496 2 0.3376 0.269087 0.317873
615 4 0.415521 0.311698 0.296522
541 2 0.434983 0.314875 0.261013
543 4 0.431788 0.306209 0.284249
613 2 0.422001 0.324391 0.317066
366 4 0.0576002 0.34394 0.295015
365 4 0.0118246 0.362397 0.303056
364 2 0.0347124 0.353168 0.299035
601 2 0.0814977 0.387359 0.323937
299 4 0.0951604 0.359668 0.254071
750 4 0.102499 0.346345 0.268582
602 4 0.0814011 0.396411 0.30063
777 4 0.0896541 0.402899 0.283489
735 4 0.164301 0.380293 0.295177
733 2 0.154436 0.35755 0.298437
734 4 0.144571 0.334807 0.301698
677 4 0.168581 0.4 0.298141
291 4 0.238424 0.409738 0.26264
414 4 0.246902 0.396006 0.274096
412 2 0.259703 0.40281 0.294469
413 4 0.272504 0.409614 0.314841
5 3 0.276737 0.417896 0.332703
309 4 0.352272 0.361476 0.274539
344 4 0.351328 0.356487 0.25476
307 2 0.348485 0.36844 0.298253
729 4 0.333063 0.36943 0.339078
308 4 0.344698 0.375404 0.321967
2924 4 0.485876 0.372102 0.321814
2923 2 0.466964 0.357446 0.329073
2862 4 0.470487 0.397901 0.278083
2860 2 0.482827 0.387411 0.259034
120 3 0.482491 0.410866 0.304475
614 4 0.428481 0.337084 0.337611
262 2 0.033849 0.428059 0.25554
264 4 0.0255069 0.428692 0.279102
1757 4 0.116534 0.45795 0.277489
776 4 0.108471 0.448418 0.29213
775 2 0.0990624 0.425658 0.28781
1756 2 0.11204 0.482298 0.280973
1640 4 0.22852 0.500744 0.260565
767 4 0.213288 0.486843 0.261845
676 2 0.172974 0.41966 0.28333
678 4 0.177366 0.43932 0.268519
768 4 0.187773 0.449533 0.283237
766 2 0.20053 0.468188 0.272541
504 4 0.222738 0.434777 0.306774
502 2 0.214526 0.441312 0.329469
1436 4 0.250659 0.491863 0.323404
437 4 0.282166 0.466203 0.271184
436 2 0.28172 0.463861 0.246295
1437 4 0.264312 0.474284 0.278624
1435 2 0.257485 0.483074 0.301014
433 2 0.316768 0.457443 0.327495
435 4 0.322604 0.479868 0.3181
713 4 0.469071 0.414151 0.289863
446 4 0.431542 0.445217 0.26069
712 2 0.447638 0.425297 0.283416
714 4 0.426204 0.436444 0.27697
731 4 0.0811202 0.053513 0.400727
368 4 0.0658584 0.0626373 0.410168
730 2 0.100742 0.0681698 0.395692
604 2 0.140501 0.0839977 0.357733
732 4 0.120363 0.0828266 0.390657
606 4 0.162034 0.0826845 0.345093
682 2 0.282971 0.0625771 0.352325
321 4 0.273896 0.0698533 0.381417
683 4 0.264237 0.0728754 0.365293
247 2 0.338732 0.0519714 0.344777
248 4 0.358291 0.0533697 0.360291
633 4 0.355838 0.070499 0.371729
631 2 0.355333 0.0754429 0.396234
2586 4 0.00692397 0.150161 0.405934
2584 2 0.00612576 0.126047 0.412496
397 2 0.116165 0.144006 0.350759
605 4 0.118967 0.0853109 0.370373
398 4 0.128911 0.154628 0.369465
598 2 0.208799 0.0883125 0.335623
600 4 0.211817 0.108601 0.349922
685 2 0.206777 0.13783 0.375211
687 4 0.203909 0.127147 0.352787
686 4 0.209646 0.148513 0.397635
410 4 0.221421 0.149226 0.415136
319 2 0.269645 0.0800466 0.403849
760 2 0.486222 0.142143 0.357247
762 4 0.482641 0.164305 0.368256
761 4 0.489804 0.119981 0.346238
390 4 0.0953773 0.22404 0.417055
388 2 0.110387 0.239972 0.404971
473 4 0.22999 0.205372 0.347743
474 4 0.187386 0.23091 0.341961
472 2 0.208688 0.218141 0.344852
708 4 0.241392 0.198179 0.361625
651 4 0.261105 0.247031 0.406411
649 2 0.258633 0.22232 0.40932
275 4 0.170305 0.241173 0.349762
706 2 0.260678 0.196655 0.345785
707 4 0.279964 0.195131 0.329945
419 4 0.363324 0.177629 0.411309
716 4 0.379845 0.17026 0.400494
377 4 0.382215 0.199811 0.355928
717 4 0.395179 0.184871 0.355194
715 2 0.387512 0.177566 0.377844
376 2 0.372093 0.221907 0.350057
2654 4 0.987523 0.261557 0.411549
618 4 0.00748972 0.256508 0.414618
274 2 0.153384 0.253037 0.363838
276 4 0.136464 0.264901 0.377913
389 4 0.125397 0.255905 0.392886
1258 2 0.141503 0.31245 0.400481
1259 4 0.146466 0.317879 0.376584
508 2 0.23253 0.327506 0.364086
509 4 0.229428 0.30431 0.372889
487 2 0.247564 0.270141 0.374564
488 4 0.236269 0.288824 0.362377
489 4 0.25886 0.251458 0.386751
378 4 0.36197 0.244004 0.344185
498 4 0.354881 0.256107 0.330445
266 4 0.352742 0.300716 0.383272
585 4 0.36993 0.303486 0.394958
583 2 0.375123 0.279871 0.401326
265 2 0.339475 0.321401 0.378658
269 4 0.497808 0.239007 0.344361
268 2 0.491322 0.253442 0.36372
270 4 0.484836 0.267876 0.383079
306 4 0.475014 0.254162 0.394626
304 2 0.479591 0.26023 0.418447
603 4 0.0815942 0.378306 0.347245
547 2 0.0906348 0.412206 0.375203
549 4 0.0873289 0.390866 0.362598
510 4 0.235632 0.350702 0.355283
375 4 0.229321 0.404052 0.364795
374 4 0.235109 0.361857 0.338588
373 2 0.232215 0.382954 0.351692
3 3 0.272764 0.409976 0.369297
267 4 0.326209 0.342087 0.374043
727 2 0.326599 0.393327 0.342587
2925 4 0.448051 0.34279 0.336332
407 4 0.0508935 0.422516 0.393429
680 4 0.0539779 0.481871 0.398209
406 2 0.0475667 0.445775 0.401982
569 4 0.104145 0.427737 0.403583
548 4 0.0939407 0.433545 0.387808
635 4 0.166349 0.470289 0.389114
634 2 0.185952 0.468866 0.373657
636 4 0.205554 0.467443 0.358201
503 4 0.206315 0.447846 0.352164
434 4 0.310932 0.435019 0.336889
669 4 0.302509 0.502575 0.371773
2 3 0.303646 0.427356 0.356772
1 1 0.280928 0.425243 0.353848
668 4 0.271313 0.466007 0.357978
4 3 0.270982 0.445945 0.357153
667 2 0.286911 0.484291 0.364876
728 4 0.320135 0.417225 0.346096
1401 4 0.329554 0.46071 0.412239
336 4 0.350585 0.423245 0.399959
752 4 0.506454 0.418355 0.407055
751 2 0.505651 0.41704 0.382099
718 2 0.0372759 0.0519911 0.490213
719 4 0.0454292 0.0560858 0.466933
369 4 0.05095 0.071936 0.456987
367 2 0.0584042 0.0672867 0.433578
341 4 0.180594 0.0668027 0.480233
2430 4 0.180957 0.0577044 0.462748
2428 2 0.193932 0.036397 0.464432
2429 4 0.206906 0.0150896 0.466116
632 4 0.354828 0.0803868 0.420739
2879 4 0.424192 0.996971 0.425074
641 4 0.500134 0.0702406 0.434537
2878 2 0.448293 0.00362782 0.424976
2880 4 0.472394 0.010285 0.424878
642 4 0.476549 0.0288072 0.419447
640 2 0.488342 0.0495239 0.426992
2757 4 0.00135001 0.083112 0.415895
2585 4 0.00532755 0.101934 0.419059
340 2 0.192092 0.0890018 0.479813
1152 4 0.196262 0.125998 0.489987
342 4 0.20359 0.111201 0.479393
1150 2 0.198498 0.141852 0.509192
320 4 0.265394 0.09024 0.426282
725 4 0.253448 0.0881098 0.442614
724 2 0.271544 0.0971968 0.457281
432 4 0.289397 0.117469 0.487948
726 4 0.28964 0.106284 0.471949
418 2 0.354448 0.155741 0.419512
420 4 0.345572 0.133852 0.427716
467 4 0.360228 0.118196 0.471256
466 2 0.356893 0.0990393 0.455537
468 4 0.353558 0.0798826 0.439818
574 2 0.395039 0.142523 0.456331
576 4 0.375455 0.129317 0.46453
575 4 0.414623 0.15573 0.448132
260 4 0.0748488 0.189623 0.47425
259 2 0.0724969 0.176024 0.4951
469 2 0.0712614 0.207121 0.446628
471 4 0.0603957 0.190371 0.46168
470 4 0.0821272 0.223871 0.431577
409 2 0.23184 0.171246 0.420771
650 4 0.256161 0.19761 0.412228
411 4 0.242259 0.193266 0.426405
2455 2 0.383825 0.220661 0.436677
2457 4 0.386671 0.201873 0.452929
516 4 0.423822 0.159259 0.429905
514 2 0.446673 0.162141 0.439635
515 4 0.469525 0.165024 0.449365
616 2 0.0134389 0.265709 0.437093
617 4 0.019388 0.27491 0.459568
695 4 0.0839009 0.271905 0.442484
1260 4 0.136539 0.30702 0.424378
694 2 0.10175 0.28892 0.438349
696 4 0.119599 0.305934 0.434214
584 4 0.380316 0.256257 0.407694
2456 4 0.38098 0.239448 0.420425
2507 4 0.471371 0.330058 0.476306
1009 2 0.480159 0.29429 0.46163
1011 4 0.487172 0.270293 0.462026
305 4 0.484167 0.266298 0.442267
326 4 0.0955865 0.3889 0.462735
325 2 0.113716 0.371681 0.462915
7 3 0.150169 0.359938 0.471295
327 4 0.131845 0.354463 0.463096
6 1 0.157571 0.365623 0.49232
8 3 0.155568 0.388581 0.495025
10 3 0.179369 0.35941 0.494533
1189 2 0.219809 0.351295 0.496853
1190 4 0.242998 0.356631 0.504532
803 4 0.260772 0.364081 0.500478
238 2 0.344329 0.374848 0.464928
240 4 0.3423 0.388782 0.444267
239 4 0.346359 0.360913 0.485589
2506 2 0.477781 0.353499 0.470426
559 2 0.50408 0.394749 0.43972
2508 4 0.484191 0.376941 0.464546
1881 4 0.987806 0.504951 0.500096
408 4 0.04424 0.469033 0.410535
540 4 0.0427483 0.490929 0.473307
1382 4 0.03168 0.473179 0.471905
1381 2 0.0111049 0.460167 0.477609
773 4 0.141131 0.501526 0.48259
570 4 0.121921 0.435121 0.449737
772 2 0.123378 0.500815 0.464998
709 2 0.136188 0.415992 0.478445
774 4 0.105625 0.500103 0.447405
384 4 0.137384 0.491832 0.499966
568 2 0.113033 0.431429 0.42666
710 4 0.134706 0.436824 0.464696
1446 4 0.245384 0.488811 0.481806
1394 4 0.225814 0.493296 0.484022
334 2 0.3501 0.415367 0.423684
1400 4 0.328434 0.495831 0.447819
1399 2 0.328994 0.478271 0.430029
335 4 0.349616 0.407489 0.447409
561 4 0.507425 0.41563 0.426378
1127 4 0.0131727 0.0588867 0.514588
720 4 0.0291226 0.0478964 0.513492
1031 4 0.161945 0.0739721 0.566238
949 2 0.194632 0.0486785 0.562694
950 4 0.217944 0.0399039 0.564867
1182 4 0.23442 0.0471223 0.575595
951 4 0.17132 0.0574532 0.560521
961 2 0.303818 0.000617157 0.562222
1180 2 0.253704 0.0355888 0.564628
963 4 0.291567 0.0224048 0.561593
1181 4 0.272988 0.0240553 0.553661
1216 2 0.393407 0.0610665 0.512191
1218 4 0.404178 0.0392166 0.506557
2283 4 0.456414 0.991585 0.579455
1035 4 0.0768802 0.147665 0.578336
1033 2 0.080257 0.150802 0.553761
1034 4 0.0836339 0.153939 0.529185
1030 2 0.145753 0.0915253 0.573645
938 4 0.138325 0.161996 0.550008
937 2 0.161113 0.166343 0.540679
1151 4 0.200735 0.157705 0.528398
843 4 0.327766 0.0959167 0.533136
431 4 0.314579 0.109731 0.530453
857 4 0.333265 0.129456 0.57753
856 2 0.313076 0.143269 0.582706
430 2 0.301988 0.1136 0.509201
899 4 0.345488 0.125178 0.561104
1217 4 0.382636 0.0829164 0.517825
841 2 0.352534 0.0928583 0.534662
842 4 0.377303 0.0897999 0.536187
898 2 0.363995 0.141926 0.559632
900 4 0.382501 0.158675 0.55816
261 4 0.0701451 0.162424 0.515949
879 4 0.109707 0.229225 0.551873
877 2 0.109753 0.242094 0.530436
1272 4 0.104751 0.243025 0.566346
878 4 0.1098 0.254964 0.508999
1270 2 0.120862 0.234319 0.58337
939 4 0.1839 0.17069 0.53135
811 2 0.329395 0.232136 0.579766
812 4 0.306786 0.231399 0.590418
872 4 0.389821 0.177047 0.556212
813 4 0.352004 0.232874 0.569114
873 4 0.357932 0.214594 0.564815
871 2 0.373877 0.19582 0.560514
1239 4 0.25813 0.298231 0.572765
1205 4 0.400274 0.289691 0.556159
1204 2 0.378442 0.301808 0.55486
954 4 0.418734 0.289411 0.564919
1206 4 0.356609 0.313926 0.55356
930 4 0.345432 0.330556 0.55378
952 2 0.43105 0.275465 0.581622
9 3 0.144566 0.354626 0.508079
711 4 0.137669 0.395161 0.492193
896 4 0.189848 0.345706 0.511922
1135 2 0.163417 0.382253 0.579441
1137 4 0.172909 0.35981 0.573838
1191 4 0.196619 0.345959 0.489174
897 4 0.174418 0.343616 0.559443
895 2 0.182133 0.344661 0.535682
802 2 0.282524 0.358629 0.511537
804 4 0.304276 0.353177 0.522596
929 4 0.305835 0.358901 0.54241
928 2 0.325633 0.344729 0.548095
1001 4 0.477485 0.387952 0.559566
926 4 0.471779 0.393717 0.540828
925 2 0.484709 0.37517 0.53015
1000 2 0.464389 0.39886 0.57786
934 2 0.0107284 0.479536 0.568207
936 4 0.0298991 0.491557 0.578845
382 2 0.129235 0.488721 0.523399
2242 2 0.135843 0.505547 0.57599
2244 4 0.120755 0.503662 0.556141
383 4 0.121086 0.485609 0.546831
882 4 0.27283 0.473643 0.573084
880 2 0.278571 0.488237 0.55361
1172 4 0.260677 0.458659 0.579335
1155 4 0.0826454 0.0826608 0.612457
1185 4 0.0267176 0.0548974 0.649337
945 4 0.03951 0.0607902 0.663328
1059 4 0.0855374 0.0674808 0.626297
825 4 0.113821 0.0063418 0.635604
1058 4 0.114753 0.0276575 0.634124
1057 2 0.100145 0.0475691 0.63021
1005 4 0.291282 0.0804608 0.607833
1925 4 0.391241 0.989782 0.669346
2282 4 0.457373 0.0367172 0.600969
2281 2 0.456893 0.0141511 0.590212
43 3 0.461895 0.0490651 0.615862
41 1 0.475707 0.0620599 0.629233
44 3 0.464867 0.0817308 0.63506
45 3 0.495018 0.0668217 0.618141
42 3 0.480668 0.0503454 0.648398
1082 4 0.0701414 0.147259 0.597535
1081 2 0.0453788 0.15007 0.599558
1083 4 0.0206162 0.152881 0.601581
1199 4 0.00310996 0.14756 0.612486
1032 4 0.129561 0.109079 0.581053
1153 2 0.0968925 0.0930686 0.594741
1154 4 0.11114 0.103476 0.577024
1221 4 0.163145 0.0808845 0.621606
1219 2 0.174521 0.0958281 0.638112
1220 4 0.185897 0.110772 0.654618
1212 4 0.202393 0.119646 0.658686
1283 4 0.182351 0.0944824 0.667409
1004 4 0.296787 0.0971954 0.654635
1003 2 0.294034 0.0888281 0.631234
887 4 0.303556 0.116384 0.659489
1143 4 0.373011 0.149514 0.655328
1025 4 0.388269 0.14726 0.641642
1271 4 0.136973 0.225612 0.600394
909 4 0.14378 0.207498 0.605542
907 2 0.152945 0.214367 0.627768
947 4 0.173686 0.236343 0.640874
908 4 0.162109 0.221236 0.649994
946 2 0.175114 0.253801 0.658716
798 4 0.291653 0.218999 0.59388
858 4 0.292888 0.157083 0.587881
796 2 0.284842 0.194996 0.592254
797 4 0.278031 0.170992 0.590627
1024 2 0.384202 0.167824 0.628013
1026 4 0.380134 0.188388 0.614385
1237 2 0.278149 0.297504 0.587729
792 4 0.305468 0.288846 0.620514
790 2 0.328895 0.296848 0.624028
1238 4 0.298168 0.296777 0.602692
791 4 0.352322 0.304849 0.627541
905 4 0.459209 0.252225 0.606119
953 4 0.443367 0.261518 0.598325
904 2 0.480902 0.24293 0.597861
982 2 0.033686 0.391444 0.584499
984 4 0.00889182 0.391499 0.587728
983 4 0.0584801 0.391389 0.58127
1041 4 0.0671182 0.403099 0.595315
1039 2 0.0860027 0.419434 0.593994
1136 4 0.153926 0.404696 0.585043
1002 4 0.451292 0.409768 0.596154
3330 4 0.49587 0.407926 0.66474
2022 4 0.0318056 0.49498 0.654336
992 4 0.15441 0.421496 0.573358
991 2 0.137411 0.434706 0.586075
993 4 0.120412 0.447916 0.598791
1040 4 0.104887 0.435768 0.592672
2243 4 0.150931 0.507432 0.595839
1161 4 0.163658 0.492806 0.592788
1171 2 0.237572 0.453857 0.587598
1160 4 0.205917 0.466141 0.590809
1159 2 0.184788 0.479473 0.591799
1173 4 0.214467 0.449055 0.595862
1267 2 0.420397 0.468072 0.658229
1952 4 0.354607 0.500112 0.622376
1910 4 0.458213 0.406983 0.614719
1911 4 0.431892 0.446264 0.630995
1909 2 0.445052 0.426623 0.622857
1268 4 0.432174 0.447072 0.651485
943 2 0.0515069 0.0600501 0.685253
1076 4 0.0576826 0.040326 0.711685
944 4 0.0635037 0.05931 0.707178
1075 2 0.0742658 0.0384638 0.730305
1077 4 0.090849 0.0366017 0.748925
831 4 0.319743 0.0876449 0.7171
1163 4 0.49243 0.0606107 0.659895
3387 4 0.0142489 0.106142 0.754086
1106 4 0.0695154 0.154628 0.758227
32 3 0.105366 0.123824 0.741034
35 3 0.0864862 0.155021 0.748985
1227 4 0.170226 0.110931 0.727064
31 1 0.0949931 0.135786 0.757722
1284 4 0.173836 0.0948119 0.716685
1282 2 0.178094 0.0946472 0.692047
1210 2 0.225631 0.123109 0.667241
1211 4 0.248869 0.126571 0.675795
830 4 0.298632 0.0856052 0.671813
888 4 0.26372 0.140037 0.678314
886 2 0.283638 0.128211 0.668901
829 2 0.309188 0.086625 0.694457
1141 2 0.356545 0.134606 0.666808
1142 4 0.340079 0.119697 0.678288
1107 4 0.0418684 0.190313 0.73671
851 4 0.0233113 0.195511 0.739772
850 2 0.000733288 0.201272 0.730704
1207 2 0.0626079 0.239814 0.691397
1105 2 0.0556919 0.172471 0.747469
1208 4 0.0822616 0.224564 0.693915
822 4 0.139788 0.21007 0.69787
1278 4 0.15035 0.198654 0.710269
820 2 0.117642 0.216271 0.688058
821 4 0.0954961 0.222471 0.678245
1276 2 0.1515 0.19221 0.7344
976 2 0.286535 0.19575 0.746209
977 4 0.3068 0.204115 0.734187
916 2 0.313529 0.241973 0.718509
918 4 0.305409 0.218631 0.722298
3122 4 0.499754 0.222069 0.694571
3121 2 0.47701 0.230763 0.688888
1262 4 0.436733 0.252422 0.752336
3123 4 0.454266 0.239457 0.683205
1261 2 0.440938 0.227889 0.749966
1263 4 0.445143 0.203356 0.747595
1209 4 0.0429542 0.255065 0.688879
1244 4 0.036029 0.271521 0.680434
1243 2 0.015703 0.275319 0.694491
3188 4 0.0124537 0.265787 0.749049
1064 4 0.227788 0.307692 0.680997
1063 2 0.208851 0.292176 0.686077
1065 4 0.189913 0.276659 0.691157
948 4 0.176541 0.271259 0.676559
1240 2 0.243224 0.315672 0.728486
1242 4 0.235763 0.317643 0.752269
917 4 0.32165 0.265316 0.71472
1097 4 0.30577 0.27685 0.710348
1241 4 0.250685 0.313701 0.704703
1096 2 0.286456 0.290645 0.702486
1098 4 0.267141 0.30444 0.694623
1008 4 0.354061 0.24801 0.729187
1006 2 0.362205 0.263559 0.746994
1194 4 0.437217 0.26872 0.740314
1279 2 0.0546615 0.362936 0.709487
3275 4 0.037329 0.386726 0.738585
1280 4 0.0387771 0.369993 0.727461
1281 4 0.0705459 0.355879 0.691513
3274 2 0.0520315 0.405494 0.74612
894 4 0.0897721 0.357015 0.686449
893 4 0.130536 0.343917 0.712285
892 2 0.110154 0.350466 0.699367
940 2 0.149707 0.379111 0.743319
942 4 0.128026 0.391506 0.744542
815 4 0.129065 0.407992 0.755164
1028 4 0.236901 0.354773 0.694946
941 4 0.171388 0.366717 0.742095
1068 4 0.228976 0.369227 0.705701
1067 4 0.18331 0.370408 0.726048
1066 2 0.206143 0.369818 0.715875
1029 4 0.275922 0.382438 0.680362
1139 4 0.285609 0.40077 0.683095
1027 2 0.256412 0.368605 0.687654
1229 4 0.370711 0.390058 0.692588
1228 2 0.370611 0.415057 0.693011
2020 2 0.0284016 0.502919 0.6778
1079 4 0.17291 0.481062 0.746713
1078 2 0.177588 0.456506 0.746153
2214 4 0.259526 0.49017 0.75738
1138 2 0.290133 0.425294 0.684897
1140 4 0.294658 0.449819 0.6867
1989 4 0.291952 0.455399 0.706458
1987 2 0.299217 0.466257 0.727777
1988 4 0.306482 0.477115 0.749097
1230 4 0.370511 0.440057 0.693435
1269 4 0.40862 0.489072 0.664974
1100 4 0.487927 0.490195 0.70732
1250 4 0.483674 0.489777 0.727737
1203 4 0.0962172 0.0260003 0.765241
1201 2 0.114799 0.0127512 0.775457
2049 4 0.153114 0.00354029 0.787806
1202 4 0.13338 0.999502 0.785673
1148 4 0.186998 0.0844193 0.777398
1147 2 0.197511 0.0621386 0.781667
1149 4 0.208024 0.0398579 0.785936
1049 4 0.221036 0.0318402 0.798936
1048 2 0.244353 0.036749 0.791359
1050 4 0.267669 0.0416578 0.783782
818 4 0.347745 0.0653356 0.826514
965 4 0.363678 0.0618268 0.837251
817 2 0.3516 0.0809548 0.807374
975 4 0.366846 0.00241313 0.823657
846 4 0.499359 0.00953864 0.741725
832 2 0.0433975 0.127438 0.778439
863 4 0.0211068 0.104945 0.805595
833 4 0.0243161 0.118071 0.791604
33 3 0.0778871 0.122907 0.766661
834 4 0.0624789 0.136805 0.765273
862 2 0.0358565 0.0884066 0.817175
34 3 0.110578 0.140777 0.774172
1073 4 0.128029 0.151508 0.775359
1225 2 0.183254 0.11561 0.747886
1226 4 0.196281 0.120288 0.768709
840 4 0.209643 0.112979 0.781526
838 2 0.228863 0.128616 0.784875
839 4 0.248084 0.144254 0.788224
959 4 0.241087 0.151886 0.80578
819 4 0.355456 0.0965741 0.788233
1084 2 0.358792 0.136914 0.802027
1085 4 0.357364 0.116697 0.787385
1086 4 0.36022 0.157132 0.816669
3268 2 0.493588 0.144968 0.801329
3270 4 0.4743 0.13886 0.786637
1146 4 0.474827 0.157335 0.776382
778 2 0.0794898 0.198669 0.806266
779 4 0.0588129 0.207721 0.817023
1214 4 0.0427279 0.219911 0.820182
1213 2 0.0243031 0.236242 0.815823
1277 4 0.15265 0.185765 0.758532
1072 2 0.123426 0.174484 0.784083
1074 4 0.118824 0.19746 0.792807
780 4 0.100167 0.189617 0.795509
1131 4 0.168303 0.188653 0.771201
1130 4 0.210636 0.173315 0.792958
1129 2 0.18947 0.180984 0.782079
978 4 0.266269 0.187386 0.758231
958 2 0.259713 0.16192 0.819104
1299 4 0.361407 0.174534 0.807342