ITEM: TIMESTEP
1770000
ITEM: NUMBER OF ATOMS
4590
ITEM: BOX BOUNDS pp pp pp
-9.9985700000000008e+00 9.9985700000000008e+00
-9.9985700000000008e+00 9.9985700000000008e+00
-9.9985700000000008e+00 9.9985700000000008e+00
ITEM: ATOMS id type xs ys zs
463 2 0.0547117 0.0731603 0.0112413
464 4 0.0625034 0.0518381 0.000761331
1666 2 0.0720066 0.000207422 0.0745897
3290 4 0.0704004 0.0328095 0.00186193
1668 4 0.0904435 0.0109484 0.0615555
566 4 0.191424 0.0428264 0.0385172
1474 2 0.2397 0.0166886 0.0748501
565 2 0.203185 0.0611805 0.0507646
1475 4 0.241142 0.0277057 0.0524509
492 4 0.254386 0.0451859 0.0545169
567 4 0.214945 0.0795346 0.063012
490 2 0.266016 0.0449669 0.0323841
491 4 0.277647 0.044748 0.0102514
745 2 0.460926 0.0697375 0.0126956
2724 4 0.48417 0.0436771 0.0806194
747 4 0.48426 0.0719391 0.0214055
2722 2 0.461269 0.0535416 0.0787744
1826 4 0.502213 0.0384114 0.0719641
746 4 0.437592 0.0675359 0.00398574
589 2 0.998045 0.0892996 0.0845592
465 4 0.0469199 0.0944825 0.0217213
701 4 0.046824 0.113392 0.0180395
700 2 0.0527189 0.137316 0.0137876
702 4 0.0586139 0.161239 0.00953566
423 4 0.0766714 0.178596 0.00907122
1133 4 0.179225 0.151938 0.00266194
360 4 0.195754 0.151481 0.0130665
358 2 0.213293 0.139916 0.0266248
359 4 0.230832 0.128352 0.0401831
828 4 0.440127 0.160163 0.00847603
555 4 0.040401 0.172364 0.00551866
553 2 0.0399765 0.197318 0.00703333
554 4 0.039552 0.222272 0.008548
422 4 0.113766 0.199724 0.0351157
421 2 0.0952186 0.18916 0.0220934
3234 4 0.0821239 0.160117 0.998374
737 4 0.200337 0.224043 0.0416557
736 2 0.214912 0.204247 0.046222
354 4 0.245031 0.179769 0.0624175
738 4 0.229487 0.18445 0.0507883
506 4 0.204082 0.242978 0.0494911
353 4 0.282656 0.192915 0.0926212
352 2 0.263843 0.186342 0.0775193
1069 2 0.397008 0.227898 0.99859
1071 4 0.386727 0.246335 0.0119916
1170 4 0.0897245 0.335106 0.000219985
2807 4 0.0137584 0.283138 0.0539904
294 4 0.149854 0.332841 0.0420051
507 4 0.193591 0.290048 0.0362615
293 4 0.178179 0.294772 0.0262211
292 2 0.164017 0.313806 0.0341131
505 2 0.198836 0.266513 0.0428763
481 2 0.298535 0.288973 0.00799257
482 4 0.311087 0.291656 0.0294499
573 4 0.370694 0.255686 0.0199396
571 2 0.365349 0.274483 0.0355366
572 4 0.360003 0.29328 0.0511336
741 4 0.366214 0.298918 0.0697317
739 2 0.359773 0.319807 0.081871
324 4 0.45358 0.277535 0.0517367
323 4 0.432127 0.266741 0.00787356
322 2 0.442854 0.272138 0.0298051
1168 2 0.0724541 0.353094 0.998389
1169 4 0.0551837 0.371081 0.996558
456 4 0.149657 0.327703 0.0611129
454 2 0.151079 0.350722 0.0707711
455 4 0.152501 0.373741 0.0804293
608 4 0.234523 0.376428 0.0690278
252 4 0.254516 0.379892 0.0698676
250 2 0.274564 0.389801 0.0586851
251 4 0.294612 0.39971 0.0475026
226 2 0.389584 0.396844 0.0338611
228 4 0.37893 0.40252 0.0557579
671 4 0.411026 0.348961 0.0586769
227 4 0.400237 0.391168 0.0119643
670 2 0.399575 0.35823 0.0788792
281 4 0.429593 0.35557 0.0639901
280 2 0.453759 0.35116 0.0593276
282 4 0.477925 0.346749 0.0546651
104 3 0.484611 0.350755 0.073552
1045 2 0.489743 0.34587 0.0151204
1047 4 0.486419 0.338226 0.0386935
552 4 0.00149548 0.436764 0.0407823
314 4 0.0161829 0.435323 0.0547287
313 2 0.030865 0.420549 0.0685613
795 4 0.174554 0.455813 0.009615
244 2 0.226707 0.473813 0.00158257
243 4 0.212866 0.473847 0.0577253
793 2 0.166053 0.478981 0.00559268
245 4 0.206169 0.459669 0.99976
241 2 0.207537 0.498273 0.0573639
246 4 0.247245 0.487956 0.00340522
272 4 0.255082 0.478294 0.0620156
1440 4 0.238806 0.480837 0.073311
524 4 0.305998 0.415776 0.0464331
523 2 0.32612 0.425581 0.0575753
271 2 0.272102 0.496096 0.0577035
40 3 0.363835 0.4415 0.00615869
525 4 0.346243 0.435385 0.0687176
19 3 0.0298752 0.994681 0.137661
1422 4 0.0326846 0.0115249 0.152761
16 1 0.0494518 0.991025 0.125753
17 3 0.0440776 0.982813 0.104948
2480 4 0.0234988 0.0178868 0.134026
18 3 0.061005 0.0109835 0.123184
652 2 0.223813 0.0496595 0.143453
654 4 0.224355 0.0593303 0.120402
1476 4 0.238258 0.00567157 0.0972493
484 2 0.354093 0.000196816 0.13516
297 4 0.366249 0.0278474 0.119322
485 4 0.369049 0.00941529 0.117369
295 2 0.382226 0.0455225 0.111739
296 4 0.398204 0.0631976 0.104157
557 4 0.417544 0.0662874 0.0999772
2723 4 0.438368 0.0634061 0.0769295
1759 2 0.457685 0.00449629 0.135967
1760 4 0.482332 0.0071738 0.132715
2744 4 0.495121 0.0215315 0.138592
1761 4 0.433039 0.00181879 0.139219
590 4 0.00625556 0.0814421 0.106831
237 4 0.120283 0.155882 0.131458
235 2 0.125934 0.143398 0.152372
556 2 0.424352 0.0902888 0.0983143
771 4 0.447662 0.124347 0.100523
558 4 0.431159 0.11429 0.0966513
769 2 0.444987 0.149109 0.102726
476 4 0.172916 0.226498 0.158302
477 4 0.176262 0.235398 0.109207
475 2 0.174589 0.230948 0.133755
461 4 0.28362 0.180825 0.108389
460 2 0.308232 0.183134 0.11214
279 4 0.302564 0.239582 0.169774
254 4 0.377472 0.218828 0.0972963
630 4 0.397086 0.21229 0.0975128
462 4 0.332845 0.185443 0.11589
253 2 0.370292 0.240951 0.0881206
770 4 0.442313 0.173871 0.104929
628 2 0.420028 0.220551 0.103045
624 4 0.448373 0.242133 0.123117
629 4 0.44297 0.228812 0.108577
622 2 0.440412 0.255232 0.142871
338 4 0.0482544 0.265044 0.13066
337 2 0.0703029 0.268395 0.141965
339 4 0.0923513 0.271746 0.153271
363 4 0.112167 0.286733 0.172781
612 4 0.240204 0.329778 0.11825
611 4 0.261677 0.288811 0.137259
754 2 0.323437 0.268404 0.0978584
610 2 0.25094 0.309294 0.127755
755 4 0.300677 0.26585 0.107891
278 4 0.295239 0.261863 0.125609
277 2 0.298901 0.250723 0.147691
756 4 0.346196 0.270958 0.0878259
255 4 0.363111 0.263074 0.078945
595 2 0.401547 0.326488 0.154954
596 4 0.396504 0.302249 0.151459
740 4 0.353333 0.340695 0.0940103
623 4 0.43245 0.268331 0.162625
619 2 0.0683445 0.392747 0.109686
620 4 0.0736725 0.38961 0.133913
621 4 0.0630164 0.395885 0.0854592
315 4 0.0455471 0.405775 0.082394
647 4 0.0898146 0.401102 0.140887
537 4 0.122219 0.345023 0.132038
535 2 0.134838 0.366536 0.133805
536 4 0.147457 0.388049 0.135573
607 2 0.23859 0.361069 0.088334
609 4 0.242657 0.34571 0.10764
386 4 0.333736 0.346872 0.0933407
387 4 0.338492 0.378468 0.131809
385 2 0.336114 0.36267 0.112575
302 4 0.346664 0.396852 0.143249
12 3 0.388531 0.377335 0.116474
11 1 0.381218 0.381878 0.137806
15 3 0.358856 0.377763 0.139105
672 4 0.388124 0.367499 0.0990816
14 3 0.385454 0.404183 0.142597
495 4 0.401464 0.416204 0.14148
13 3 0.392653 0.368263 0.152715
626 4 0.179813 0.42987 0.138384
1438 2 0.242318 0.467934 0.0944381
625 2 0.199831 0.435936 0.152083
637 2 0.232208 0.480482 0.161589
1439 4 0.24583 0.455031 0.115565
638 4 0.216278 0.462299 0.167978
1559 4 0.303813 0.483019 0.101131
639 4 0.248137 0.498665 0.155201
1574 4 0.26706 0.499321 0.16379
301 2 0.339574 0.416734 0.156651
493 2 0.417924 0.422656 0.123799
494 4 0.434383 0.429109 0.106117
1583 4 0.470622 0.475653 0.103136
1582 2 0.449522 0.48875 0.106039
1420 2 0.0221184 0.00128944 0.172979
674 4 0.142857 0.00985959 0.219138
690 4 0.161751 0.0141491 0.212647
673 2 0.120026 0.0041119 0.227559
688 2 0.17484 0.00301744 0.194483
653 4 0.223271 0.0399887 0.166505
693 4 0.237076 0.0400059 0.181559
691 2 0.253016 0.0463158 0.19976
692 4 0.268956 0.0526258 0.21796
1700 4 0.322376 0.0607682 0.245536
1699 2 0.299692 0.052183 0.239459
1701 4 0.277009 0.0435978 0.233381
23 3 0.332979 0.0744841 0.233786
21 1 0.355819 0.0714091 0.231084
25 3 0.361481 0.0740671 0.209186
22 3 0.361299 0.0500994 0.237794
759 4 0.355454 0.0759582 0.189837
757 2 0.378778 0.0819181 0.183081
24 3 0.367464 0.0866224 0.244175
698 4 0.377438 0.0538293 0.252094
511 2 0.0161846 0.125596 0.215094
578 4 0.0567672 0.136964 0.223538
513 4 0.0392251 0.125882 0.224801
577 2 0.057869 0.16168 0.219927
449 4 0.122072 0.114231 0.177905
448 2 0.139578 0.0964431 0.176398
236 4 0.131585 0.130913 0.173285
450 4 0.157085 0.0786548 0.174891
28 3 0.2382 0.144138 0.180247
580 2 0.292999 0.107832 0.193051
581 4 0.270426 0.118538 0.194057
30 3 0.26734 0.136935 0.202976
26 1 0.250959 0.151948 0.197985
27 3 0.237332 0.154667 0.216317
582 4 0.315572 0.0971261 0.192045
758 4 0.402102 0.0878779 0.176325
311 4 0.438179 0.138052 0.198829
761 4 0.444568 0.135701 0.270454
529 2 0.0181768 0.197432 0.231824
530 4 0.0414413 0.191766 0.224625
579 4 0.0589707 0.186397 0.216316
372 4 0.157701 0.23517 0.174075
370 2 0.174214 0.23518 0.19285
371 4 0.190726 0.235189 0.211625
29 3 0.260389 0.172438 0.192543
284 4 0.299326 0.240497 0.22737
283 2 0.303713 0.231994 0.204269
285 4 0.3081 0.223491 0.181169
310 2 0.437424 0.161847 0.191187
312 4 0.436669 0.185642 0.183544
520 2 0.494187 0.181016 0.237392
396 4 0.0715983 0.305623 0.217028
443 4 0.0619661 0.309445 0.233231
394 2 0.0835271 0.301489 0.195446
395 4 0.095456 0.297355 0.173864
362 4 0.143077 0.248628 0.182443
361 2 0.127622 0.26768 0.177612
527 4 0.445825 0.26418 0.175186
526 2 0.458729 0.272697 0.194837
528 4 0.471632 0.281213 0.214487
264 4 0.0239013 0.393387 0.212755
262 2 0.041239 0.410415 0.21864
646 2 0.0981184 0.394464 0.163519
648 4 0.106422 0.387826 0.18615
300 4 0.119211 0.375891 0.193355
298 2 0.116196 0.36525 0.215779
299 4 0.113181 0.354609 0.238203
345 4 0.261514 0.364042 0.232491
343 2 0.284466 0.355666 0.237803
344 4 0.307418 0.34729 0.243115
309 4 0.316985 0.33862 0.257592
597 4 0.40659 0.350727 0.158449
645 4 0.41124 0.370459 0.165497
643 2 0.413703 0.376655 0.189595
644 4 0.416166 0.382851 0.213693
447 4 0.410983 0.383742 0.234646
445 2 0.41913 0.407163 0.23785
263 4 0.0585768 0.427443 0.224526
627 4 0.219848 0.442001 0.165783
1430 4 0.195339 0.508255 0.203922
417 4 0.201464 0.489545 0.202784
290 4 0.215246 0.42468 0.219347
416 4 0.206417 0.442426 0.218783
415 2 0.20394 0.465986 0.210783
289 2 0.221274 0.413438 0.240852
303 4 0.332483 0.436616 0.170054
659 4 0.338451 0.452721 0.181477
658 2 0.353581 0.471069 0.189199
660 4 0.368711 0.489416 0.196921
2861 4 0.477446 0.440349 0.244341
446 4 0.427276 0.430584 0.241054
232 2 0.052753 0.0406527 0.292305
234 4 0.0519531 0.0650248 0.286779
317 4 0.0326602 0.0742726 0.28318
233 4 0.0535529 0.0162806 0.297832
675 4 0.0971962 0.998364 0.235981
723 4 0.223224 0.0655289 0.256871
721 2 0.209087 0.0861512 0.257074
249 4 0.335449 0.0599879 0.32376
697 2 0.382938 0.030181 0.258068
699 4 0.388437 0.00653273 0.264042
333 4 0.374979 0.0724154 0.258537
331 2 0.395148 0.0805564 0.27087
743 4 0.450849 0.0322995 0.284582
742 2 0.455554 0.0101657 0.273946
351 4 0.463887 0.0464357 0.289318
349 2 0.449139 0.0656622 0.283152
350 4 0.434391 0.0848888 0.276987
480 4 0.484783 0.00108752 0.325365
316 2 0.0399998 0.0948727 0.271058
318 4 0.0473394 0.115473 0.258936
393 4 0.1197 0.140338 0.321932
399 4 0.12476 0.121002 0.31659
391 2 0.135729 0.147415 0.304094
392 4 0.151757 0.154491 0.286256
545 4 0.160283 0.137565 0.28084
722 4 0.194949 0.106773 0.257277
546 4 0.189495 0.120874 0.243842
544 2 0.174889 0.12922 0.262341
599 4 0.213948 0.131998 0.31731
404 4 0.229518 0.140198 0.326897
598 2 0.192386 0.124877 0.327777
403 2 0.234553 0.1551 0.307462
600 4 0.170824 0.117756 0.338245
762 4 0.396518 0.121968 0.272262
332 4 0.415318 0.0886974 0.283202
760 2 0.420543 0.128834 0.271358
401 4 0.244626 0.184403 0.274544
400 2 0.230998 0.197212 0.257948
402 4 0.217371 0.210021 0.241353
405 4 0.239589 0.170003 0.288027
765 4 0.423455 0.208089 0.260647
763 2 0.439193 0.192045 0.249688
764 4 0.454931 0.176002 0.238729
521 4 0.473189 0.172711 0.248128
442 2 0.0668671 0.293788 0.252099
444 4 0.071768 0.278131 0.270967
735 4 0.148666 0.33759 0.295311
496 2 0.322052 0.293927 0.329356
497 4 0.332471 0.304122 0.309041
541 2 0.468605 0.288833 0.302274
542 4 0.481923 0.269428 0.293833
615 4 0.448416 0.315996 0.328539
613 2 0.425935 0.325666 0.323411
543 4 0.455288 0.308238 0.310715
749 4 0.0556564 0.36988 0.263922
365 4 0.0235779 0.342853 0.314
364 2 0.0354777 0.357431 0.297536
366 4 0.0473774 0.372009 0.281072
603 4 0.0838473 0.374598 0.337391
601 2 0.0934276 0.381887 0.315476
734 4 0.119288 0.351976 0.257487
750 4 0.105303 0.363903 0.264411
748 2 0.0804795 0.366891 0.264166
733 2 0.133977 0.344783 0.276399
602 4 0.103008 0.389177 0.293561
677 4 0.149939 0.354865 0.304162
777 4 0.107364 0.409379 0.293933
676 2 0.169139 0.361116 0.318908
414 4 0.230286 0.399413 0.281647
291 4 0.227302 0.402196 0.262356
307 2 0.313011 0.341047 0.282158
727 2 0.319633 0.384213 0.317734
308 4 0.309037 0.343473 0.306724
728 4 0.324284 0.408723 0.319414
729 4 0.314983 0.359703 0.316054
614 4 0.403454 0.335336 0.318284
1757 4 0.124374 0.473102 0.29486
776 4 0.127718 0.454145 0.303012
775 2 0.117541 0.431762 0.298473
1756 2 0.124612 0.49788 0.291518
413 4 0.220909 0.434502 0.316021
412 2 0.225598 0.416958 0.298834
1436 4 0.22443 0.473814 0.325134
1435 2 0.248287 0.468108 0.320288
768 4 0.213561 0.490661 0.248316
3 3 0.279067 0.411982 0.324446
438 4 0.312575 0.46351 0.266422
437 4 0.278313 0.476193 0.300569
436 2 0.295444 0.469851 0.283496
1437 4 0.272144 0.462403 0.315442
5 3 0.284466 0.448227 0.315797
2 3 0.313132 0.427521 0.327729
434 4 0.330202 0.428493 0.312078
712 2 0.422938 0.447909 0.277381
713 4 0.423307 0.450254 0.302272
433 2 0.353553 0.428577 0.321016
435 4 0.376905 0.42866 0.329953
714 4 0.42257 0.445564 0.252491
2860 2 0.496317 0.435799 0.2601
368 4 0.0837641 0.0548001 0.412875
428 4 0.0760897 0.0342692 0.343364
427 2 0.0764934 0.013524 0.357315
731 4 0.0968728 0.0530229 0.396562
606 4 0.146372 0.0588294 0.410732
730 2 0.105552 0.0715706 0.382216
604 2 0.155942 0.0376057 0.401613
605 4 0.165512 0.016382 0.392494
682 2 0.240019 0.0415918 0.362239
683 4 0.237833 0.0663788 0.35979
684 4 0.242206 0.0168047 0.364689
1406 4 0.236722 0.00771715 0.318364
247 2 0.335132 0.0764177 0.342606
2879 4 0.484382 0.0460361 0.39355
1749 4 0.48014 0.990065 0.342247
424 2 0.430102 0.0510808 0.381594
426 4 0.431291 0.0757192 0.377506
425 4 0.428914 0.0264424 0.385682
732 4 0.114232 0.0901183 0.367869
397 2 0.123572 0.102697 0.333581
398 4 0.122385 0.0843919 0.350572
686 4 0.162305 0.123512 0.4061
685 2 0.163817 0.118699 0.381611
687 4 0.165329 0.113887 0.357122
410 4 0.235392 0.150121 0.406812
321 4 0.243554 0.11924 0.375539
319 2 0.252888 0.107577 0.395589
248 4 0.334815 0.0928475 0.361451
633 4 0.348079 0.10585 0.356722
632 4 0.388092 0.133497 0.368352
631 2 0.368085 0.119674 0.362537
420 4 0.39633 0.151412 0.374586
258 4 0.439534 0.0902692 0.367926
257 4 0.479839 0.114828 0.351402
256 2 0.459686 0.102549 0.359664
515 4 0.43064 0.161004 0.37848
514 2 0.440874 0.16681 0.400542
2654 4 0.00288734 0.22432 0.380851
618 4 0.0130475 0.237225 0.370174
274 2 0.158438 0.239492 0.358409
275 4 0.172579 0.219817 0.352237
474 4 0.177127 0.208798 0.368163
472 2 0.195756 0.195792 0.357722
473 4 0.214384 0.182787 0.347281
708 4 0.23403 0.189013 0.35024
706 2 0.258401 0.187091 0.355486
707 4 0.282772 0.185169 0.360732
717 4 0.321522 0.238952 0.379794
377 4 0.314194 0.251171 0.394683
418 2 0.384614 0.17324 0.3712
419 4 0.372898 0.195068 0.367815
716 4 0.363083 0.21193 0.373226
715 2 0.342303 0.225441 0.37651
306 4 0.506664 0.247387 0.39767
390 4 0.0879804 0.270061 0.335788
616 2 0.0342593 0.249534 0.375044
617 4 0.055471 0.261843 0.379914
276 4 0.144298 0.259168 0.364581
389 4 0.12536 0.266219 0.368784
388 2 0.10667 0.26814 0.352286
374 4 0.242131 0.332536 0.33907
510 4 0.260728 0.328219 0.345906
508 2 0.266952 0.313006 0.364747
509 4 0.273176 0.297792 0.383589
376 2 0.304605 0.267625 0.378481
488 4 0.260109 0.291169 0.39781
487 2 0.251398 0.271679 0.410827
378 4 0.295016 0.284079 0.362279
498 4 0.311633 0.283732 0.349671
267 4 0.351121 0.31089 0.357471
265 2 0.359241 0.29968 0.378293
266 4 0.367361 0.28847 0.399116
269 4 0.451562 0.259093 0.367024
268 2 0.472683 0.261543 0.38018
2493 4 0.0203669 0.350482 0.332478
2491 2 2.91739e-05 0.361812 0.3416
549 4 0.0754122 0.387753 0.34948
547 2 0.0675936 0.405971 0.364718
678 4 0.18834 0.367366 0.333654
502 2 0.189156 0.390082 0.377449
504 4 0.20409 0.37501 0.364222
373 2 0.23289 0.353476 0.349135
375 4 0.223649 0.374415 0.3592
503 4 0.174222 0.405155 0.390677
334 2 0.35171 0.396891 0.411413
669 4 0.327406 0.415014 0.398697
336 4 0.347814 0.417592 0.397942
2925 4 0.490615 0.362471 0.364938
548 4 0.059775 0.424188 0.379955
407 4 0.0562763 0.44381 0.384034
406 2 0.0496006 0.466508 0.392122
408 4 0.042925 0.489206 0.40021
1543 2 0.19068 0.496963 0.340518
1545 4 0.208485 0.486576 0.326366
636 4 0.188632 0.418122 0.396846
634 2 0.191155 0.440139 0.408425
1 1 0.290559 0.431395 0.329875
668 4 0.292917 0.423512 0.363497
4 3 0.286033 0.437403 0.351826
667 2 0.310161 0.419263 0.381097
593 4 0.496415 0.493404 0.346968
119 3 0.502687 0.438143 0.329517
561 4 0.483497 0.4228 0.40945
752 4 0.47686 0.430722 0.393197
753 4 0.490114 0.441778 0.346263
751 2 0.483487 0.43625 0.36973
718 2 0.0486038 0.0497949 0.48065
719 4 0.0583155 0.0299723 0.468905
369 4 0.0629836 0.0279637 0.449599
367 2 0.0733739 0.0413819 0.431237
720 4 0.0388921 0.0696175 0.492394
2430 4 0.229942 0.0620313 0.462667
2428 2 0.237135 0.0409387 0.451329
2429 4 0.244327 0.0198462 0.439991
1182 4 0.245267 0.0935892 0.506586
441 4 0.239405 0.0113985 0.421117
726 4 0.305911 0.0842293 0.463712
432 4 0.314187 0.0808475 0.482173
724 2 0.289014 0.0830373 0.44532
725 4 0.272118 0.0818453 0.426928
2878 2 0.484103 0.0624804 0.412383
2880 4 0.483824 0.0789247 0.431216
341 4 0.221329 0.0778194 0.453393
340 2 0.208066 0.0928379 0.468351
1152 4 0.186093 0.104856 0.500078
342 4 0.194803 0.107856 0.483308
320 4 0.262222 0.0959134 0.41564
467 4 0.375827 0.100157 0.426986
466 2 0.373294 0.123934 0.434295
468 4 0.370761 0.147711 0.441604
576 4 0.41491 0.146309 0.471221
642 4 0.471879 0.0864994 0.44457
641 4 0.496787 0.115261 0.47702
640 2 0.484333 0.10088 0.460795
3158 4 0.49462 0.132848 0.467696
574 2 0.431457 0.152066 0.453381
516 4 0.451109 0.172616 0.422604
469 2 0.0652853 0.246553 0.455877
471 4 0.0739118 0.223598 0.460758
260 4 0.085625 0.213829 0.473357
259 2 0.0936511 0.199513 0.49222
261 4 0.101677 0.185197 0.511083
409 2 0.22951 0.169542 0.421421
650 4 0.222061 0.204808 0.447124
649 2 0.222418 0.227807 0.437321
411 4 0.223628 0.188962 0.43603
575 4 0.448003 0.157823 0.435542
348 4 0.988675 0.308354 0.448327
470 4 0.0566587 0.269508 0.450997
2812 2 0.0058652 0.316557 0.486658
695 4 0.099514 0.316656 0.448258
694 2 0.113229 0.295985 0.451386
696 4 0.126945 0.275314 0.454514
1260 4 0.142904 0.274619 0.468243
1258 2 0.165796 0.283019 0.473772
651 4 0.222775 0.250806 0.427517
1259 4 0.188688 0.291419 0.4793
489 4 0.242687 0.252189 0.423843
585 4 0.365037 0.284385 0.419204
583 2 0.387733 0.276495 0.426117
584 4 0.41043 0.268606 0.43303
2456 4 0.430366 0.274008 0.435757
2457 4 0.457263 0.316165 0.436094
2455 2 0.443815 0.295087 0.435925
10 3 0.13823 0.342175 0.454742
7 3 0.118783 0.370373 0.46956
327 4 0.114739 0.389565 0.465301
325 2 0.0930753 0.40153 0.461738
6 1 0.13911 0.364111 0.460802
8 3 0.143658 0.377274 0.442243
711 4 0.157385 0.390365 0.433605
9 3 0.155504 0.367218 0.476926
709 2 0.146161 0.411672 0.426878
239 4 0.378423 0.370568 0.478159
335 4 0.355607 0.37619 0.424883
238 2 0.362347 0.376023 0.459803
240 4 0.34627 0.381478 0.441446
2712 4 0.488641 0.39699 0.475083
559 2 0.497803 0.404402 0.418506
680 4 0.00499997 0.487081 0.446856
679 2 0.00601472 0.490341 0.422087
1383 4 0.0147882 0.468399 0.442255
1381 2 0.0178433 0.458677 0.465087
326 4 0.0714116 0.413496 0.458174
1382 4 0.0208983 0.448956 0.48792
773 4 0.158436 0.478387 0.471688
568 2 0.121305 0.45718 0.444621
569 4 0.126063 0.473214 0.463206
384 4 0.141118 0.469017 0.476401
710 4 0.134937 0.432978 0.420152
570 4 0.116547 0.441145 0.426035
772 2 0.174936 0.477326 0.452932
635 4 0.193679 0.462157 0.420003
774 4 0.191435 0.476264 0.434175
1401 4 0.298119 0.457431 0.49247
1400 4 0.332609 0.475479 0.461078
1399 2 0.315364 0.466455 0.476774
588 4 0.34546 0.48897 0.470476
586 2 0.351386 0.504501 0.451799
1126 2 0.0257132 0.0641092 0.530326
1127 4 0.0272623 0.0745995 0.507682
1128 4 0.0241641 0.053619 0.55297
4509 4 0.00871507 0.0544367 0.567007
1059 4 0.0930489 0.0646464 0.585701
951 4 0.201893 0.0584143 0.543935
1031 4 0.204481 0.0391771 0.545897
1030 2 0.191531 0.0292534 0.564844
949 2 0.21554 0.0694067 0.5261
1032 4 0.178581 0.0193296 0.583792
961 2 0.289324 0.0388472 0.532332
1180 2 0.267586 0.0823566 0.507515
430 2 0.327976 0.0677065 0.498369
963 4 0.29865 0.0564811 0.517258
1181 4 0.289906 0.071124 0.508444
962 4 0.279998 0.0212133 0.547407
2195 4 0.274048 0.0175026 0.566777
431 4 0.341766 0.0545655 0.514566
841 2 0.378421 0.0543279 0.525911
843 4 0.355369 0.0639932 0.526522
842 4 0.401472 0.0446626 0.525299
1217 4 0.40685 0.0392259 0.542436
1218 4 0.443888 0.0634398 0.565731
1216 2 0.425369 0.0513329 0.554084
1033 2 0.0745546 0.168228 0.53188
1034 4 0.09577 0.154997 0.53172
950 4 0.229186 0.080399 0.508264
939 4 0.161126 0.154133 0.524601
1151 4 0.178883 0.151064 0.517786
1150 2 0.182488 0.12796 0.508932
857 4 0.304645 0.137898 0.555483
899 4 0.321598 0.129267 0.563774
856 2 0.283782 0.149412 0.563054
858 4 0.262919 0.160927 0.570625
898 2 0.34154 0.13909 0.552328
900 4 0.361482 0.148913 0.540881
1035 4 0.0533391 0.181459 0.53204
1082 4 0.0529508 0.198468 0.540969
1081 2 0.0410193 0.197593 0.562925
937 2 0.138473 0.164455 0.522265
938 4 0.11582 0.174778 0.519929
878 4 0.103479 0.250841 0.555715
877 2 0.0907194 0.250547 0.577216
797 4 0.265714 0.18059 0.574599
813 4 0.330174 0.231611 0.541796
811 2 0.306141 0.235641 0.547395
812 4 0.282108 0.239672 0.552994
796 2 0.26536 0.203735 0.565144
798 4 0.265006 0.226879 0.555689
873 4 0.341042 0.216521 0.535879
871 2 0.348436 0.19273 0.537998
872 4 0.35583 0.168939 0.540116
906 4 0.484683 0.232744 0.582201
2813 4 0.0182358 0.315915 0.508378
896 4 0.205758 0.328396 0.544111
904 2 0.466556 0.248323 0.574863
905 4 0.448428 0.263903 0.567525
952 2 0.419436 0.285206 0.573529
953 4 0.43339 0.27478 0.555591
1137 4 0.144832 0.359522 0.537937
897 4 0.161277 0.351112 0.546588
1135 2 0.126682 0.37672 0.537978
1136 4 0.108532 0.393917 0.538018
895 2 0.183518 0.339754 0.545349
1189 2 0.238073 0.351202 0.532524
1191 4 0.222644 0.331544 0.53334
1190 4 0.253502 0.37086 0.531707
803 4 0.271353 0.369084 0.524418
802 2 0.292031 0.376469 0.53638
804 4 0.312708 0.383853 0.548342
928 2 0.367261 0.383579 0.557382
929 4 0.366219 0.392501 0.534048
930 4 0.368303 0.374657 0.580716
925 2 0.44368 0.393205 0.534726
927 4 0.42946 0.40294 0.516609
1001 4 0.46702 0.398979 0.565117
926 4 0.4579 0.383469 0.552842
936 4 0.00813166 0.449719 0.55244
538 2 0.0406856 0.468442 0.514231
540 4 0.0292234 0.447945 0.505649
539 4 0.0521478 0.488939 0.522813
383 4 0.148058 0.446839 0.520681
382 2 0.144588 0.457928 0.498541
2242 2 0.152785 0.461335 0.580118
2244 4 0.149056 0.470029 0.556973
1173 4 0.223365 0.427992 0.551058
1171 2 0.242221 0.443609 0.545984
1172 4 0.261077 0.459226 0.54091
882 4 0.279191 0.451628 0.544182
880 2 0.290726 0.473808 0.5446
881 4 0.30226 0.495988 0.545019
1000 2 0.46784 0.421241 0.576472
1910 4 0.449799 0.448715 0.59512
663 4 0.494268 0.439419 0.535839
1185 4 0.0196731 0.0342462 0.644649
945 4 0.0329545 0.049537 0.643392
825 4 0.0773226 0.0186314 0.619269
1057 2 0.0824324 0.0431011 0.592649
1058 4 0.0718158 0.0215559 0.599597
823 2 0.0839877 0.999176 0.633491
1005 4 0.314979 0.0290558 0.643107
1003 2 0.332312 0.0467555 0.646494
1004 4 0.349645 0.0644552 0.649881
4467 4 0.426471 5.88135e-05 0.586515
2283 4 0.428689 0.00439826 0.606027
2282 4 0.459111 0.0193619 0.642787
2281 2 0.4439 0.0118801 0.624407
43 3 0.465201 0.0355291 0.651354
45 3 0.484199 0.0679726 0.649317
41 1 0.472939 0.0538961 0.663236
1198 2 0.01463 0.155831 0.588008
1155 4 0.0781108 0.0791948 0.589141
1153 2 0.0954419 0.0964962 0.594188
1154 4 0.112773 0.113798 0.599235
1221 4 0.121259 0.102853 0.614193
1219 2 0.132571 0.10703 0.636097
1220 4 0.143883 0.111207 0.658
1210 2 0.256796 0.158679 0.647242
1211 4 0.280392 0.157209 0.655382
888 4 0.275275 0.146418 0.671004
1083 4 0.0290877 0.196717 0.58488
1199 4 0.026268 0.177445 0.592762
1272 4 0.0862402 0.237274 0.612472
1270 2 0.102166 0.223389 0.625842
1271 4 0.118092 0.209504 0.639212
909 4 0.135266 0.203082 0.631383
907 2 0.15534 0.21265 0.642815
879 4 0.0779602 0.250254 0.598718
1212 4 0.2332 0.160148 0.639102
908 4 0.175413 0.222218 0.654246
947 4 0.17922 0.238692 0.643597
1025 4 0.397798 0.185105 0.654713
1024 2 0.413814 0.18918 0.635949
1143 4 0.382241 0.17343 0.661617
1141 2 0.361267 0.186469 0.665518
1142 4 0.340292 0.199509 0.669419
1026 4 0.429829 0.193255 0.617185
3123 4 0.458299 0.245939 0.647036
3121 2 0.477994 0.235429 0.658297
946 2 0.178616 0.263294 0.639176
948 4 0.178013 0.287896 0.634756
1237 2 0.237581 0.319551 0.594216
1238 4 0.249862 0.307738 0.612514
792 4 0.260697 0.292903 0.60512
791 4 0.310511 0.289131 0.602887
790 2 0.285604 0.291017 0.604003
1205 4 0.399571 0.314475 0.597411
954 4 0.405483 0.295633 0.591467
982 2 0.00765995 0.392981 0.602779
983 4 0.0288432 0.397843 0.615141
1041 4 0.0313918 0.402187 0.63464
992 4 0.135631 0.410813 0.620582
1239 4 0.225301 0.331364 0.575918
1204 2 0.388451 0.335269 0.589096
1206 4 0.37733 0.356063 0.580781
1039 2 0.0506776 0.416529 0.627744
1040 4 0.0699633 0.430871 0.620848
993 4 0.0894813 0.430051 0.621487
991 2 0.112556 0.420432 0.621034
2170 2 0.139891 0.488668 0.646373
2172 4 0.160347 0.474291 0.6465
2243 4 0.156513 0.45264 0.603263
2171 4 0.119434 0.503045 0.646246
1161 4 0.175559 0.44766 0.60093
1160 4 0.219788 0.46253 0.618912
1159 2 0.197674 0.455095 0.609921
890 4 0.320766 0.42422 0.630717
889 2 0.323176 0.448272 0.624321
891 4 0.325586 0.472323 0.617925
1176 4 0.272708 0.498514 0.661689
1174 2 0.250213 0.509051 0.664536
1187 4 0.312954 0.485477 0.622952
1186 2 0.299945 0.499243 0.639275
1952 4 0.342486 0.483493 0.616392
1002 4 0.468661 0.443502 0.587826
1909 2 0.441376 0.472234 0.594077
1268 4 0.434907 0.473164 0.659911
1911 4 0.432952 0.495753 0.593035
943 2 0.0421358 0.0598613 0.664231
944 4 0.0513172 0.0701855 0.685071
1075 2 0.0547429 0.0684457 0.724425
1076 4 0.0545697 0.0803166 0.70242
2319 4 0.030869 0.0129046 0.732544
2317 2 0.00700056 0.0202482 0.733789
2285 4 0.0467048 0.0100291 0.720057
1077 4 0.054916 0.0565748 0.74643
2284 2 0.0640927 0.992493 0.723973
44 3 0.455124 0.0650529 0.673061
1163 4 0.498152 0.0544488 0.695252
42 3 0.487173 0.046599 0.679768
32 3 0.0932365 0.144785 0.753377
1283 4 0.163999 0.115437 0.658574
1282 2 0.183657 0.125278 0.670486
1284 4 0.203315 0.13512 0.682397
1227 4 0.217521 0.14915 0.684454
1225 2 0.226892 0.162531 0.703382
886 2 0.282663 0.142226 0.694521
887 4 0.29005 0.138033 0.718037
830 4 0.305284 0.13657 0.731883
829 2 0.319959 0.116603 0.728549
978 4 0.304014 0.149861 0.747122
831 4 0.334635 0.0966354 0.725215
1146 4 0.494638 0.149743 0.754271
1144 2 0.479248 0.164321 0.741012
1107 4 0.0189345 0.190345 0.732601
1105 2 0.0338254 0.179032 0.749197
851 4 0.0113316 0.206061 0.723428
822 4 0.130249 0.223336 0.720678
1278 4 0.150704 0.225175 0.724934
820 2 0.110501 0.23761 0.715069
821 4 0.0907528 0.251883 0.709459
1226 4 0.236264 0.175912 0.722311
1276 2 0.173985 0.219194 0.731819
1130 4 0.242408 0.183889 0.738378
916 2 0.295491 0.227001 0.726763
918 4 0.29472 0.202201 0.72367
977 4 0.314294 0.19366 0.72529
976 2 0.309154 0.17176 0.736206
1192 2 0.39885 0.232669 0.743614
1194 4 0.404541 0.212901 0.7294
1145 4 0.463859 0.1789 0.727753
1262 4 0.424531 0.217428 0.731746
1261 2 0.446345 0.206817 0.725685
1263 4 0.46816 0.196207 0.719625
1209 4 0.0398578 0.253334 0.681453
1207 2 0.0639551 0.257315 0.686805
1208 4 0.0880525 0.261296 0.692157
1065 4 0.203172 0.258208 0.699647
1064 4 0.228271 0.301 0.705938
1063 2 0.215721 0.279604 0.702793
917 4 0.296262 0.2518 0.729857
1097 4 0.301333 0.27022 0.737607
1008 4 0.317689 0.267516 0.745907
806 4 0.434146 0.301051 0.744662
805 2 0.423717 0.322754 0.737922
893 4 0.0704658 0.369554 0.664826
1244 4 0.029308 0.329131 0.709088
892 2 0.0721289 0.386933 0.682726
894 4 0.073792 0.404311 0.700625
1028 4 0.236557 0.410885 0.68963
1066 2 0.197618 0.416792 0.709981
1067 4 0.175131 0.415887 0.720876
1027 2 0.257836 0.419509 0.679729
1029 4 0.279115 0.428132 0.669829
807 4 0.413288 0.344456 0.731181
1230 4 0.370275 0.403746 0.742744
1020 4 0.406381 0.357524 0.743385
1281 4 0.073214 0.4155 0.716849
1279 2 0.0718941 0.433157 0.734502
2020 2 0.0601423 0.506131 0.729313
1983 4 0.0295139 0.48368 0.753883
942 4 0.11629 0.420724 0.740264
940 2 0.140044 0.413548 0.737193
941 4 0.163798 0.406372 0.734122
1068 4 0.220105 0.417696 0.699085
1139 4 0.299667 0.426412 0.668854
1138 2 0.311944 0.424827 0.690579
1140 4 0.324221 0.423243 0.712303
1228 2 0.354217 0.422184 0.747974
1269 4 0.430474 0.497562 0.703337
3328 2 0.471328 0.4368 0.675483
3329 4 0.449314 0.445092 0.683957
1267 2 0.43269 0.485363 0.681624
3330 4 0.493342 0.428509 0.667008
1203 4 0.070887 0.0534949 0.756945
1201 2 0.0784633 0.033349 0.76967
1202 4 0.0860396 0.0132031 0.782395
2049 4 0.103661 0.00621564 0.788518
1148 4 0.197004 0.0471297 0.774002
1147 2 0.220466 0.0556633 0.775381
1149 4 0.243928 0.064197 0.77676
1049 4 0.261804 0.0633619 0.785893
1257 4 0.276807 0.0340817 0.759905
1255 2 0.298489 0.0216649 0.760863
1256 4 0.32017 0.00924816 0.761822
1048 2 0.265537 0.054015 0.808782
1050 4 0.269269 0.0446682 0.83167
819 4 0.356718 0.0722581 0.810886
846 4 0.456881 0.0385465 0.802385
1113 4 0.457001 0.01885 0.80507
844 2 0.479008 0.05013 0.801209
845 4 0.501136 0.0617135 0.800032
862 2 0.0378948 0.0866132 0.820742
832 2 0.0357458 0.131813 0.785003
863 4 0.0310063 0.0995632 0.800493
833 4 0.0205277 0.115371 0.796106
33 3 0.0678647 0.140027 0.780695
834 4 0.0509639 0.148254 0.7739
31 1 0.0811874 0.155553 0.769747
840 4 0.211701 0.132843 0.80881
838 2 0.233159 0.120067 0.807576
839 4 0.254618 0.107292 0.806343
959 4 0.266966 0.100928 0.820048
1084 2 0.369626 0.109532 0.795382
1085 4 0.354521 0.0908004 0.802176
1086 4 0.384731 0.128264 0.788589
1299 4 0.382508 0.144877 0.779933
1297 2 0.387293 0.163195 0.796265
3269 4 0.499845 0.147548 0.817056
3270 4 0.483302 0.148312 0.769871
3268 2 0.491573 0.14793 0.793464
1106 4 0.0487163 0.167719 0.765794
1214 4 0.028221 0.227076 0.763166
35 3 0.0681594 0.171582 0.760155
780 4 0.0935151 0.220167 0.79729
778 2 0.0736022 0.232471 0.806079