ITEM: TIMESTEP
1960000
ITEM: NUMBER OF ATOMS
4590
ITEM: BOX BOUNDS pp pp pp
-9.9985700000000008e+00 9.9985700000000008e+00
-9.9985700000000008e+00 9.9985700000000008e+00
-9.9985700000000008e+00 9.9985700000000008e+00
ITEM: ATOMS id type xs ys zs
1668 4 0.0617811 0.0463292 0.0467786
1666 2 0.0602408 0.0315973 0.0669225
566 4 0.173351 0.0235203 0.0565048
565 2 0.187389 0.0429296 0.049336
567 4 0.201427 0.0623388 0.0421671
492 4 0.267249 0.0302218 0.0676897
1475 4 0.278387 0.0137911 0.0710276
490 2 0.266798 0.0297778 0.0426941
491 4 0.266347 0.0293339 0.0176986
2264 4 0.30022 0.0659532 0.0036026
986 4 0.308757 0.0464575 0.00328027
2145 4 0.376535 0.992667 0.0472526
2143 2 0.370296 0.00609661 0.027106
745 2 0.47234 0.048306 0.0265284
2724 4 0.498887 0.0522253 0.062511
747 4 0.490257 0.0486604 0.0439651
2722 2 0.490543 0.0652538 0.0821529
746 4 0.454423 0.0479516 0.00909157
2469 4 0.497677 0.0661941 0.0381871
701 4 0.0666149 0.121812 0.00850607
700 2 0.0554583 0.144153 0.00724705
702 4 0.0443017 0.166494 0.00598803
358 2 0.226408 0.15556 0.0227587
359 4 0.246882 0.150184 0.0360662
360 4 0.205934 0.160936 0.00945128
665 4 0.364056 0.165389 0.0161242
555 4 0.0505231 0.1849 0.0128928
553 2 0.0397914 0.205342 0.00329417
422 4 0.0934573 0.208016 0.0258108
421 2 0.0947807 0.186913 0.0124666
1133 4 0.198691 0.178403 0.00361949
737 4 0.221835 0.241508 0.0567157
736 2 0.226183 0.221115 0.0705131
354 4 0.238291 0.180463 0.0833539
738 4 0.23053 0.200721 0.0843106
664 2 0.347773 0.181685 0.00640341
323 4 0.456956 0.241057 0.0531815
2807 4 0.00924475 0.28722 0.0144971
2806 2 0.999084 0.302743 0.0312599
292 2 0.162818 0.313602 0.0502033
294 4 0.139692 0.322559 0.0533882
506 4 0.22347 0.251987 0.040006
507 4 0.189434 0.286608 0.0519911
293 4 0.185943 0.304644 0.0470184
505 2 0.206452 0.269298 0.0459986
481 2 0.295123 0.285373 0.00597189
482 4 0.309468 0.303781 0.0149459
740 4 0.334237 0.329985 0.080277
1069 2 0.39323 0.248777 0.000818445
1071 4 0.381389 0.259165 0.0202357
573 4 0.373332 0.263569 0.0384817
571 2 0.366265 0.287273 0.0348262
572 4 0.359198 0.310977 0.0311708
741 4 0.339951 0.280321 0.0790189
739 2 0.337094 0.305153 0.079648
255 4 0.352291 0.268042 0.0888015
324 4 0.444451 0.286933 0.0376979
322 2 0.450704 0.263995 0.0454397
315 4 0.0568542 0.403747 0.0837743
456 4 0.133421 0.338973 0.0617457
454 2 0.123655 0.359962 0.0522991
455 4 0.113889 0.380952 0.0428525
608 4 0.237968 0.382598 0.0530955
607 2 0.237972 0.360181 0.064171
609 4 0.237977 0.337764 0.0752465
252 4 0.249481 0.389202 0.03798
250 2 0.269084 0.404541 0.0403458
251 4 0.288688 0.41988 0.0427116
524 4 0.304239 0.411471 0.0522693
226 2 0.404887 0.387367 0.0289788
228 4 0.401875 0.41192 0.0326205
227 4 0.407899 0.362814 0.0253371
670 2 0.412191 0.354905 0.0844406
1305 4 0.415098 0.360042 0.0066708
671 4 0.434918 0.356936 0.0742177
281 4 0.430723 0.34587 0.0568073
280 2 0.454742 0.342193 0.0509141
282 4 0.478761 0.338516 0.0450209
104 3 0.483105 0.34124 0.0637397
1045 2 0.499505 0.336623 0.0095585
1047 4 0.495587 0.334932 0.0341952
313 2 0.0452178 0.415199 0.0648369
552 4 0.028068 0.444974 0.0529867
314 4 0.0335813 0.426651 0.0458994
550 2 0.00703661 0.455843 0.0449418
244 2 0.240741 0.468147 0.0114647
243 4 0.224379 0.495517 0.0588759
245 4 0.226587 0.447547 0.0121691
1440 4 0.25621 0.475681 0.0848237
523 2 0.323883 0.426791 0.054407
272 4 0.266828 0.492071 0.0827213
246 4 0.254895 0.488747 0.0107603
37 3 0.347022 0.472793 0.0158822
525 4 0.343528 0.442111 0.0565448
1667 4 0.0587005 0.0168654 0.0870664
1422 4 0.0214997 0.99857 0.151609
2480 4 0.0183305 0.0130882 0.133381
18 3 0.0604488 0.0233798 0.141716
16 1 0.0552456 0.00655665 0.126606
19 3 0.0350006 0.996763 0.132317
17 3 0.0533984 0.0157411 0.105596
2479 2 0.00358788 0.0287177 0.120592
652 2 0.236138 0.0477131 0.150564
654 4 0.241056 0.0470295 0.126058
1474 2 0.278195 0.0150824 0.0959971
1476 4 0.278003 0.0163737 0.120967
296 4 0.391907 0.0730602 0.0858999
297 4 0.365599 0.037851 0.109752
295 2 0.378753 0.0554556 0.097826
485 4 0.362799 0.0201093 0.120268
1759 2 0.456792 0.00216447 0.15056
1760 4 0.470755 0.0180274 0.163925
2744 4 0.489936 0.0238841 0.165962
235 2 0.119127 0.159539 0.140168
236 4 0.137358 0.148568 0.153301
237 4 0.100896 0.17051 0.127036
449 4 0.134329 0.136023 0.168866
557 4 0.398457 0.0878078 0.0968974
758 4 0.332086 0.106026 0.176546
556 2 0.413215 0.107927 0.0952902
2723 4 0.482198 0.0782822 0.101795
771 4 0.445991 0.123925 0.0987758
558 4 0.427974 0.128046 0.0936831
769 2 0.464029 0.138405 0.10827
770 4 0.482067 0.152885 0.117765
338 4 0.0499472 0.235895 0.139399
476 4 0.203936 0.182802 0.147438
477 4 0.203429 0.215914 0.109968
475 2 0.203682 0.199358 0.128703
352 2 0.251754 0.183376 0.104221
353 4 0.265217 0.186289 0.125088
461 4 0.278236 0.199954 0.118328
460 2 0.300739 0.209239 0.112622
462 4 0.323242 0.218524 0.106915
279 4 0.272836 0.240262 0.157777
254 4 0.390892 0.237351 0.0805078
630 4 0.400223 0.24028 0.0994485
628 2 0.410955 0.244685 0.121598
624 4 0.431792 0.235749 0.154567
629 4 0.421687 0.24909 0.143748
337 2 0.0467346 0.25719 0.152103
339 4 0.0435221 0.278485 0.164807
612 4 0.23143 0.324232 0.0890698
610 2 0.242131 0.308048 0.104842
611 4 0.252832 0.291865 0.120614
755 4 0.292902 0.266808 0.104624
278 4 0.276484 0.268334 0.116553
277 2 0.27466 0.254298 0.137165
754 2 0.316541 0.260709 0.0992234
253 2 0.371591 0.252697 0.0846546
756 4 0.34018 0.25461 0.0938227
619 2 0.0752704 0.40081 0.116782
621 4 0.0670023 0.414998 0.0979272
647 4 0.073045 0.377391 0.149582
620 4 0.0835386 0.386623 0.135638
537 4 0.10001 0.377234 0.130107
535 2 0.123889 0.377232 0.122691
536 4 0.147767 0.37723 0.115275
646 2 0.0903034 0.380652 0.167377
386 4 0.330648 0.337282 0.100494
387 4 0.34369 0.382916 0.116249
385 2 0.337169 0.360099 0.108372
302 4 0.342292 0.393496 0.136111
12 3 0.389086 0.368546 0.106725
11 1 0.38538 0.379646 0.126529
15 3 0.363176 0.384326 0.128463
672 4 0.389463 0.352873 0.0946635
14 3 0.397649 0.399341 0.126498
495 4 0.397603 0.417548 0.117674
13 3 0.392178 0.366106 0.144103
597 4 0.37964 0.355702 0.159339
301 2 0.343572 0.411963 0.152919
645 4 0.397538 0.367694 0.166906
626 4 0.180709 0.44219 0.117808
1438 2 0.235963 0.464265 0.0940382
625 2 0.195082 0.447518 0.137562
1439 4 0.215715 0.45285 0.103253
638 4 0.229571 0.454766 0.155408
637 2 0.236883 0.478327 0.159478
627 4 0.209454 0.452846 0.157316
1559 4 0.337123 0.486409 0.103107
493 2 0.419288 0.422432 0.106226
494 4 0.440974 0.427315 0.0947782
1583 4 0.483803 0.478847 0.10406
1582 2 0.463812 0.492882 0.0987153
1420 2 0.0221245 0.0021848 0.176342
690 4 0.176034 0.0152757 0.243312
674 4 0.155883 0.0136945 0.241289
688 2 0.186088 0.00355495 0.223646
653 4 0.23122 0.0483967 0.17507
693 4 0.239681 0.0408266 0.193146
691 2 0.264231 0.0386232 0.197345
692 4 0.288781 0.0364198 0.201544
1699 2 0.310828 0.0625921 0.227188
1701 4 0.293521 0.0538202 0.211417
1700 4 0.328135 0.0713639 0.242958
21 1 0.367438 0.0678645 0.231414
25 3 0.374901 0.0709926 0.210126
23 3 0.344925 0.0733117 0.232791
24 3 0.379681 0.0810043 0.246106
22 3 0.37011 0.045764 0.237208
511 2 0.013841 0.123277 0.22794
578 4 0.0424901 0.14511 0.221609
513 4 0.0349178 0.133946 0.236133
577 2 0.0498445 0.168706 0.217828
448 2 0.143412 0.113714 0.175573
450 4 0.152495 0.0914044 0.18228
28 3 0.231056 0.147069 0.183812
27 3 0.240479 0.143746 0.220045
26 1 0.248148 0.141481 0.198476
546 4 0.185443 0.125389 0.240955
580 2 0.290982 0.109811 0.173931
581 4 0.267839 0.117133 0.179929
30 3 0.254598 0.119912 0.195034
582 4 0.314125 0.102489 0.167933
29 3 0.266201 0.15573 0.195398
759 4 0.373047 0.0870603 0.198068
757 2 0.352567 0.0965433 0.187307
312 4 0.406451 0.150589 0.20392
311 4 0.453192 0.14585 0.221054
310 2 0.429822 0.148219 0.212487
529 2 0.0198561 0.213918 0.223947
530 4 0.0388967 0.198055 0.220634
579 4 0.057199 0.192303 0.214047
372 4 0.14798 0.240659 0.185202
362 4 0.129265 0.247647 0.184967
370 2 0.162914 0.226 0.198886
371 4 0.177848 0.211341 0.212571
401 4 0.239 0.178485 0.247795
284 4 0.2903 0.223298 0.220548
283 2 0.280873 0.226957 0.197681
285 4 0.271446 0.230616 0.174813
521 4 0.47048 0.170578 0.236958
520 2 0.493823 0.170224 0.228004
396 4 0.0585875 0.294337 0.217735
443 4 0.0713002 0.289862 0.232685
394 2 0.0680303 0.292453 0.19466
395 4 0.077473 0.290568 0.171585
363 4 0.0893986 0.274312 0.170811
361 2 0.109332 0.26098 0.177889
596 4 0.383155 0.311861 0.183137
595 2 0.381398 0.333781 0.171238
622 2 0.440528 0.254578 0.168507
623 4 0.449263 0.273408 0.182447
527 4 0.455699 0.28395 0.166945
526 2 0.472055 0.300829 0.175475
528 4 0.488411 0.317708 0.184005
264 4 0.0388355 0.408486 0.217397
648 4 0.107562 0.383913 0.185173
300 4 0.102446 0.370083 0.198336
298 2 0.108512 0.357012 0.218769
299 4 0.114578 0.343941 0.239203
345 4 0.290515 0.326027 0.217025
343 2 0.287545 0.333158 0.240806
643 2 0.40161 0.383511 0.185838
644 4 0.405682 0.399328 0.204769
447 4 0.40714 0.389235 0.223851
445 2 0.410594 0.409959 0.237407
108 3 0.503994 0.400838 0.225386
262 2 0.0447796 0.431298 0.225729
263 4 0.0507237 0.454111 0.234062
766 2 0.181638 0.500136 0.246712
289 2 0.219547 0.437873 0.234719
417 4 0.169297 0.495448 0.19078
290 4 0.211395 0.444165 0.211935
416 4 0.19965 0.456952 0.200656
415 2 0.184473 0.4762 0.195718
768 4 0.180529 0.47614 0.239772
303 4 0.344852 0.43043 0.169727
659 4 0.350618 0.447445 0.174905
658 2 0.35629 0.466127 0.190525
660 4 0.361962 0.48481 0.206144
231 4 0.371873 0.486612 0.223929
1403 4 0.0330767 0.998397 0.289642
232 2 0.0360008 0.0335848 0.298587
234 4 0.0496541 0.0542977 0.301708
317 4 0.0471622 0.0723935 0.292839
233 4 0.0223475 0.0128718 0.295466
673 2 0.144362 0.0333688 0.251554
675 4 0.132841 0.0530432 0.261819
1406 4 0.21858 0.00770982 0.288189
684 4 0.262048 0.0428675 0.332341
1518 4 0.383063 0.996213 0.282526
698 4 0.377995 0.0509532 0.25594
697 2 0.376407 0.0319471 0.272109
699 4 0.37482 0.012941 0.288278
333 4 0.3917 0.0655519 0.251787
331 2 0.412439 0.0753402 0.261751
743 4 0.484933 0.0285688 0.263019
742 2 0.479599 0.00455277 0.267487
351 4 0.486173 0.0483298 0.261961
349 2 0.467868 0.0628049 0.270937
350 4 0.449562 0.07728 0.279913
318 4 0.0777316 0.0904739 0.257635
316 2 0.0624469 0.0814337 0.275237
393 4 0.147583 0.139713 0.327783
391 2 0.145171 0.149699 0.304988
392 4 0.142759 0.159685 0.282192
545 4 0.156115 0.147214 0.275075
723 4 0.234967 0.0935598 0.248314
721 2 0.221167 0.0977039 0.268748
722 4 0.207367 0.101848 0.289183
544 2 0.170779 0.136302 0.258015
599 4 0.209362 0.116347 0.302137
404 4 0.216637 0.13338 0.292999
598 2 0.198837 0.127018 0.32215
403 2 0.224083 0.152682 0.278957
405 4 0.231529 0.171984 0.264916
762 4 0.423863 0.121323 0.305165
332 4 0.433177 0.0851286 0.271716
761 4 0.471474 0.132075 0.29429
760 2 0.447668 0.126699 0.299728
257 4 0.479418 0.0946844 0.330182
402 4 0.230083 0.224886 0.26417
400 2 0.234542 0.201685 0.255983
765 4 0.419316 0.179115 0.267858
763 2 0.442303 0.18163 0.258347
764 4 0.46529 0.184145 0.248837
442 2 0.0682821 0.290938 0.257482
444 4 0.0652641 0.292014 0.282279
496 2 0.335585 0.282852 0.316428
309 4 0.291343 0.32382 0.275942
344 4 0.284574 0.34029 0.264586
497 4 0.340609 0.290141 0.293044
613 2 0.406961 0.325893 0.320551
541 2 0.45781 0.296376 0.296986
542 4 0.472349 0.289097 0.277991
615 4 0.424858 0.308743 0.317273
543 4 0.443271 0.303655 0.315981
749 4 0.0609666 0.352722 0.286439
365 4 0.011386 0.35736 0.311277
364 2 0.0282749 0.351175 0.293908
366 4 0.0451638 0.344989 0.276539
748 2 0.0837876 0.347596 0.277602
735 4 0.154721 0.367094 0.283151
734 4 0.123489 0.338336 0.256728
750 4 0.106609 0.34247 0.268764
733 2 0.139105 0.352715 0.269939
602 4 0.126812 0.393114 0.32275
777 4 0.117571 0.404031 0.309376
676 2 0.162216 0.377374 0.318416
677 4 0.160245 0.359728 0.300812
412 2 0.241889 0.414779 0.294209
413 4 0.250379 0.410243 0.317285
307 2 0.304442 0.336523 0.293036
727 2 0.327802 0.381032 0.319834
728 4 0.326113 0.405637 0.315714
308 4 0.317541 0.349227 0.31013
729 4 0.32949 0.356428 0.323953
614 4 0.389064 0.343043 0.32383
2924 4 0.500275 0.382297 0.320058
1757 4 0.127337 0.457197 0.290764
776 4 0.110365 0.447212 0.285206
775 2 0.113968 0.425622 0.297291
1756 2 0.135799 0.480694 0.289569
414 4 0.233398 0.419315 0.271133
291 4 0.227698 0.431581 0.257504
1436 4 0.234263 0.480263 0.324671
434 4 0.329699 0.428625 0.313817
2 3 0.309213 0.418929 0.312736
1435 2 0.255088 0.47048 0.314884
438 4 0.315421 0.463811 0.255658
437 4 0.295727 0.451034 0.299813
436 2 0.305574 0.457423 0.277735
1437 4 0.275913 0.460697 0.305097
5 3 0.28636 0.447678 0.319382
1 1 0.297922 0.430595 0.329033
446 4 0.414048 0.430683 0.250963
433 2 0.352064 0.437823 0.320172
435 4 0.374429 0.447021 0.326527
714 4 0.423456 0.42543 0.268094
713 4 0.435692 0.435982 0.315419
712 2 0.429574 0.430706 0.291757
429 4 0.0794526 0.0068886 0.373357
428 4 0.0411358 0.0388321 0.376842
427 2 0.0602942 0.0228603 0.3751
606 4 0.155797 0.0185698 0.371638
730 2 0.100399 0.0754135 0.398192
604 2 0.167385 0.0393456 0.363939
605 4 0.178972 0.0601214 0.356241
683 4 0.236122 0.044781 0.37506
682 2 0.249085 0.0438242 0.353701
321 4 0.231391 0.09585 0.397218
249 4 0.312694 0.0712023 0.360596
247 2 0.334772 0.0818132 0.355579
1748 4 0.441095 0.99953 0.346199
424 2 0.439873 0.0508227 0.382791
426 4 0.451465 0.0699873 0.371677
425 4 0.428281 0.031658 0.393905
258 4 0.462579 0.0856386 0.376392
399 4 0.133412 0.134323 0.339855
732 4 0.0978512 0.0888307 0.377248
398 4 0.107718 0.104476 0.370672
397 2 0.120565 0.119399 0.355263
686 4 0.185726 0.145376 0.399921
600 4 0.188311 0.13769 0.342163
685 2 0.18471 0.134553 0.377404
687 4 0.183694 0.12373 0.354887
319 2 0.247508 0.0943577 0.416276
410 4 0.254079 0.131479 0.388656
409 2 0.250856 0.153852 0.399344
707 4 0.268808 0.139212 0.335247
706 2 0.26478 0.162082 0.344516
248 4 0.356849 0.0924241 0.350562
633 4 0.368592 0.102402 0.362975
632 4 0.401872 0.139724 0.363482
631 2 0.385232 0.121063 0.363229
420 4 0.393746 0.158689 0.360923
466 2 0.361358 0.0915352 0.415559
468 4 0.37716 0.091688 0.396182
256 2 0.470998 0.0901615 0.353287
617 4 0.0538826 0.237033 0.393179
274 2 0.160609 0.22693 0.354445
390 4 0.0945316 0.228293 0.388366
388 2 0.115422 0.241081 0.383343
276 4 0.144144 0.243428 0.363498
473 4 0.241671 0.189831 0.347424
275 4 0.177073 0.210433 0.345393
474 4 0.194636 0.2046 0.355812
472 2 0.218153 0.197216 0.351618
411 4 0.247634 0.176225 0.410033
708 4 0.260751 0.184952 0.353785
489 4 0.254774 0.248464 0.400102
717 4 0.324969 0.239391 0.374784
651 4 0.258716 0.230975 0.409687
418 2 0.380051 0.17488 0.374169
419 4 0.366356 0.191072 0.387415
716 4 0.357619 0.201614 0.372031
715 2 0.341294 0.220502 0.373407
515 4 0.460214 0.180522 0.369507
514 2 0.458912 0.165965 0.389795
516 4 0.457611 0.151409 0.410083
618 4 0.0100279 0.260608 0.388523
616 2 0.0319552 0.248821 0.390851
389 4 0.136312 0.25387 0.378321
498 4 0.330561 0.275562 0.339812
488 4 0.251117 0.288235 0.370007
377 4 0.321495 0.254328 0.387258
487 2 0.252945 0.268349 0.385054
508 2 0.268441 0.310465 0.350145
509 4 0.267786 0.286833 0.358287
376 2 0.317721 0.269098 0.367439
378 4 0.313947 0.283867 0.347619
267 4 0.364826 0.32916 0.351066
265 2 0.36384 0.306919 0.362447
266 4 0.362853 0.284677 0.373828
585 4 0.36431 0.276575 0.39145
583 2 0.381155 0.276084 0.409921
2456 4 0.4115 0.275949 0.413757
270 4 0.490735 0.267023 0.397885
306 4 0.500291 0.257156 0.41347
269 4 0.460789 0.267948 0.357847
268 2 0.475762 0.267485 0.377866
2455 2 0.433798 0.286417 0.418046
2493 4 0.998582 0.355728 0.328591
2491 2 0.994567 0.375613 0.343209
547 2 0.0665956 0.396683 0.380363
549 4 0.0827635 0.378623 0.37423
601 2 0.109938 0.386862 0.34011
603 4 0.0930635 0.38061 0.357469
678 4 0.164187 0.395021 0.33602
374 4 0.250806 0.337127 0.345764
502 2 0.192376 0.395935 0.371631
504 4 0.203903 0.377399 0.359435
373 2 0.235964 0.357175 0.347487
375 4 0.221122 0.377223 0.349211
510 4 0.269096 0.334097 0.342004
3 3 0.283251 0.416181 0.339775
681 4 0.00472327 0.505115 0.386028
679 2 0.00118682 0.493995 0.408142
548 4 0.0504277 0.414742 0.386497
407 4 0.043211 0.434103 0.390675
406 2 0.0448834 0.458473 0.39601
408 4 0.0465558 0.482844 0.401346
710 4 0.150741 0.420483 0.405724
570 4 0.13435 0.432542 0.406787
568 2 0.112664 0.441122 0.415802
1543 2 0.218105 0.49632 0.352872
1545 4 0.237029 0.482523 0.344113
503 4 0.18085 0.41447 0.383827
636 4 0.192973 0.426679 0.395363
634 2 0.193292 0.448617 0.407355
635 4 0.193611 0.470554 0.419347
668 4 0.319112 0.450392 0.359721
4 3 0.313292 0.43903 0.344231
667 2 0.328527 0.434356 0.376437
336 4 0.339967 0.421427 0.412806
669 4 0.337942 0.41832 0.393152
559 2 0.501037 0.415596 0.414778
753 4 0.487532 0.435919 0.339034
561 4 0.505591 0.434025 0.398506
752 4 0.493219 0.445771 0.38773
751 2 0.490375 0.440845 0.363382
718 2 0.0407656 0.0544687 0.496949
719 4 0.0627386 0.0584877 0.485714
369 4 0.075736 0.0531966 0.470661
731 4 0.102946 0.0619963 0.419137
367 2 0.0853638 0.0483546 0.448099
368 4 0.0949915 0.0435127 0.425537
2430 4 0.212751 0.0737346 0.44971
2428 2 0.21434 0.0507483 0.44
2429 4 0.215929 0.0277621 0.43029
441 4 0.228767 0.0134643 0.43289
950 4 0.234867 0.0537147 0.498715
341 4 0.220362 0.0889832 0.460708
432 4 0.296914 0.0873572 0.494036
430 2 0.319115 0.0758735 0.494683
843 4 0.351402 0.0491443 0.486013
431 4 0.341316 0.0643898 0.495329
2879 4 0.455463 0.0337254 0.430494
2878 2 0.454831 0.0577966 0.437229
2880 4 0.4542 0.0818677 0.443964
2584 2 0.998881 0.0866474 0.434822
2586 4 0.0194158 0.10051 0.438183
340 2 0.209007 0.111254 0.461224
1152 4 0.193196 0.129584 0.481958
342 4 0.197653 0.133525 0.46174
726 4 0.29214 0.0852526 0.475075
320 4 0.263624 0.0928654 0.435335
724 2 0.284209 0.0970227 0.45449
725 4 0.276279 0.108793 0.433904
467 4 0.345557 0.0913825 0.434936
642 4 0.466421 0.0906027 0.456166
576 4 0.421917 0.141368 0.465656
640 2 0.487629 0.0977788 0.467296
574 2 0.430678 0.145182 0.44255
575 4 0.439439 0.148997 0.419445
469 2 0.0808447 0.229881 0.457353
471 4 0.0923751 0.207741 0.455934
260 4 0.0912283 0.187435 0.453267
259 2 0.103861 0.181648 0.474054
261 4 0.116494 0.17586 0.494841
650 4 0.260736 0.182977 0.423573
649 2 0.259726 0.206976 0.41663
470 4 0.0693143 0.252022 0.458772
2814 4 0.988502 0.317078 0.480273
695 4 0.112595 0.275909 0.418994
694 2 0.124498 0.290505 0.435439
696 4 0.136401 0.305101 0.451884
1260 4 0.152348 0.30995 0.462794
1258 2 0.17499 0.299719 0.459987
1259 4 0.197631 0.289489 0.45718
584 4 0.397999 0.275594 0.428393
2457 4 0.456096 0.296885 0.422336
2812 2 0.00521549 0.331003 0.492599
326 4 0.0656402 0.38224 0.451382
10 3 0.124083 0.343099 0.453574
709 2 0.154384 0.398515 0.417096
325 2 0.089666 0.379072 0.457538
7 3 0.133827 0.376226 0.467737
327 4 0.113692 0.375904 0.463695
6 1 0.141712 0.356317 0.459332
8 3 0.154754 0.360702 0.440649
9 3 0.154481 0.34583 0.475622
711 4 0.158027 0.376548 0.428468
334 2 0.349516 0.402422 0.425951
335 4 0.359065 0.383417 0.439096
238 2 0.352738 0.376128 0.475911
240 4 0.367692 0.376348 0.455873
239 4 0.337784 0.375907 0.495948
560 4 0.496483 0.397166 0.431051
2712 4 0.481871 0.392844 0.490051
1382 4 0.0335255 0.449847 0.469741
1381 2 0.0144236 0.459108 0.45653
540 4 0.0449796 0.447132 0.485874
384 4 0.137882 0.477051 0.462626
772 2 0.154748 0.479677 0.436947
382 2 0.127412 0.470152 0.484258
773 4 0.130668 0.481438 0.443445
569 4 0.0909781 0.449702 0.424818
774 4 0.178828 0.477916 0.43045
1399 2 0.32286 0.459212 0.462504
1401 4 0.303856 0.448666 0.474866
1400 4 0.341864 0.469757 0.450142
588 4 0.338596 0.489322 0.450218
1126 2 0.99612 0.0517386 0.534796
1127 4 0.00398542 0.062141 0.513463
720 4 0.0187926 0.0504498 0.508183
1059 4 0.0689062 0.0738476 0.575169
1128 4 0.988254 0.0413362 0.556129
951 4 0.196134 0.0279388 0.517047
1031 4 0.179766 0.0383654 0.521859
1030 2 0.172002 0.0269222 0.54269
949 2 0.2155 0.0408267 0.507881
1032 4 0.164237 0.015479 0.563522
1182 4 0.246459 0.0675098 0.506487
961 2 0.306101 0.030835 0.554735
1180 2 0.268851 0.0584872 0.512995
963 4 0.302658 0.0452276 0.534581
1181 4 0.291243 0.0494645 0.519504
962 4 0.309544 0.0164423 0.574889
2195 4 0.292692 0.00518309 0.581158
841 2 0.370408 0.0487589 0.502256
842 4 0.389413 0.0483736 0.518498
1217 4 0.393164 0.0420909 0.537833
1216 2 0.412597 0.0530992 0.549074
1218 4 0.43203 0.0641075 0.560315
1155 4 0.0732274 0.0907681 0.586305
1034 4 0.0999409 0.162366 0.521341
939 4 0.149371 0.142941 0.524407
937 2 0.131449 0.159533 0.51905
1151 4 0.163 0.12872 0.52181
1150 2 0.178098 0.129152 0.501884
857 4 0.30246 0.147225 0.580555
899 4 0.320308 0.138893 0.58405
856 2 0.286773 0.164508 0.57159
898 2 0.338504 0.144972 0.568014
900 4 0.356699 0.151052 0.551978
1033 2 0.082245 0.179804 0.524159
1035 4 0.064549 0.197243 0.526977
1082 4 0.0573226 0.208921 0.542614
1081 2 0.0490211 0.202613 0.56534
938 4 0.113528 0.176125 0.513692
797 4 0.250738 0.18642 0.561255
811 2 0.310327 0.23262 0.540038
812 4 0.287636 0.232057 0.550524
796 2 0.259984 0.207941 0.552506
798 4 0.269229 0.229462 0.543757
858 4 0.271085 0.181791 0.562626
872 4 0.349082 0.168426 0.544962
813 4 0.333018 0.233183 0.529551
873 4 0.342365 0.215296 0.528875
871 2 0.345723 0.191861 0.536919
904 2 0.457531 0.237291 0.563684
878 4 0.0837155 0.281493 0.573454
954 4 0.411466 0.30964 0.559739
1205 4 0.411825 0.31887 0.577786
905 4 0.44446 0.257199 0.556071
952 2 0.428501 0.292304 0.55387
953 4 0.445536 0.274968 0.548001
2813 4 0.0219287 0.344929 0.504924
1135 2 0.154379 0.400958 0.546705
1137 4 0.174963 0.38687 0.54498
896 4 0.215926 0.346928 0.546215
1191 4 0.217088 0.349882 0.525084
897 4 0.171815 0.369169 0.553981
895 2 0.19387 0.358049 0.550098
1189 2 0.24179 0.34686 0.522661
1190 4 0.266492 0.343838 0.520238
803 4 0.281282 0.35613 0.515385
802 2 0.300084 0.368094 0.526722
804 4 0.318886 0.380059 0.538058
929 4 0.329973 0.384499 0.553702
928 2 0.346459 0.369875 0.565516
930 4 0.362944 0.355252 0.57733
925 2 0.473418 0.402345 0.532563
927 4 0.479561 0.394683 0.509568
1001 4 0.47214 0.406759 0.574024
926 4 0.467275 0.410007 0.555557
539 4 0.0538068 0.471162 0.528832
936 4 0.0114808 0.471694 0.546444
1938 4 0.0595132 0.487772 0.517407
538 2 0.0493932 0.459147 0.507353
1136 4 0.133794 0.415047 0.54843
383 4 0.116942 0.463252 0.50589
2244 4 0.172034 0.486086 0.536378
2242 2 0.176001 0.481111 0.560558
1171 2 0.245893 0.446834 0.571148
2243 4 0.179969 0.476136 0.584739
1172 4 0.260995 0.455276 0.553096
882 4 0.278985 0.462442 0.555042
880 2 0.287477 0.485959 0.554851
1185 4 0.0211531 0.0592519 0.646177
945 4 0.0331445 0.0492916 0.659875
825 4 0.0912916 0.0342655 0.616736
1057 2 0.0754827 0.0523514 0.586117
1058 4 0.0820593 0.0308552 0.597064
1183 2 0.00186957 0.072053 0.636719
823 2 0.0965092 0.0102113 0.621135
1005 4 0.306486 0.0319435 0.664136
1003 2 0.312659 0.0556038 0.658915
1004 4 0.318832 0.0792642 0.653693
2283 4 0.437782 0.00623796 0.605659
2282 4 0.451293 0.0316804 0.646535
2281 2 0.444538 0.0189592 0.626097
43 3 0.463165 0.044011 0.655124
45 3 0.496328 0.0614118 0.651235
41 1 0.478906 0.0576137 0.665401
44 3 0.469163 0.0777561 0.671547
1198 2 0.0129994 0.161623 0.594193
1153 2 0.0925179 0.106545 0.588337
1154 4 0.111808 0.122323 0.59037
1221 4 0.126272 0.117665 0.602872
1219 2 0.138777 0.119871 0.624411
1220 4 0.151281 0.122077 0.645951
1212 4 0.240957 0.144374 0.621402
1210 2 0.249731 0.143521 0.6448
1211 4 0.258505 0.142668 0.668198
1083 4 0.0407196 0.196304 0.588065
1199 4 0.0287305 0.180898 0.596677
879 4 0.0756291 0.242265 0.603395
1272 4 0.0793664 0.231618 0.619676
1270 2 0.103043 0.224092 0.622495
1271 4 0.12672 0.216566 0.625314
909 4 0.141171 0.205066 0.631468
907 2 0.163535 0.216044 0.629349
908 4 0.185899 0.227023 0.627229
1025 4 0.402567 0.209979 0.648328
1024 2 0.407911 0.210712 0.623914
1026 4 0.413256 0.211446 0.599499
906 4 0.470602 0.217382 0.571298
3123 4 0.45076 0.210029 0.665082
877 2 0.0796723 0.261879 0.588425
1209 4 0.0471681 0.24677 0.660906
948 4 0.174553 0.288234 0.652828
947 4 0.187881 0.242448 0.637773
946 2 0.181217 0.265341 0.6453
1237 2 0.245484 0.337384 0.592284
792 4 0.271129 0.302583 0.585081
791 4 0.301133 0.289839 0.623003
790 2 0.286131 0.296211 0.604042
1238 4 0.260767 0.319822 0.583163
983 4 0.0133472 0.397996 0.649062
1041 4 0.0200044 0.397852 0.630036
1039 2 0.0449229 0.399855 0.629549
1040 4 0.0698413 0.401858 0.629062
992 4 0.129461 0.410628 0.629658
991 2 0.105971 0.40832 0.621409
993 4 0.0824802 0.406013 0.61316
1239 4 0.230201 0.354946 0.601404
1206 4 0.374174 0.348492 0.592126
1204 2 0.392999 0.333681 0.584956
1173 4 0.230792 0.438391 0.589199
1161 4 0.176152 0.470386 0.604321
1160 4 0.206934 0.445189 0.634625
1159 2 0.191543 0.457788 0.619473
1175 4 0.2178 0.492605 0.649175
890 4 0.310624 0.440911 0.631513
889 2 0.325052 0.460262 0.638036
891 4 0.339479 0.479614 0.644558
1952 4 0.349618 0.492289 0.633579
1000 2 0.455789 0.417603 0.589524
1911 4 0.420457 0.49125 0.584624
1910 4 0.429569 0.443098 0.59458
1002 4 0.439438 0.428446 0.605024
1909 2 0.425013 0.467174 0.589602
3328 2 0.485924 0.43417 0.655
3329 4 0.481678 0.450954 0.636959
1268 4 0.45461 0.498838 0.658063
4335 4 0.496577 0.452269 0.623082
943 2 0.0507871 0.0457319 0.677232
944 4 0.0684297 0.0421721 0.694588
1075 2 0.0650421 0.0395627 0.734164
1076 4 0.0672241 0.030477 0.710972
2319 4 0.0438688 0.0087405 0.722912
2317 2 0.0190727 0.0115805 0.724418
2285 4 0.0538832 0.991788 0.722264
1148 4 0.198114 0.0478892 0.742687
42 3 0.486671 0.047038 0.684296
1163 4 0.483479 0.0505084 0.703654
1283 4 0.160039 0.127015 0.663187
1282 2 0.183221 0.124456 0.672201
1284 4 0.206403 0.121898 0.681214
1227 4 0.205717 0.123176 0.702036
1225 2 0.213695 0.140642 0.71805
1226 4 0.221674 0.158108 0.734065
888 4 0.267717 0.153888 0.682412
886 2 0.278217 0.139326 0.699816
887 4 0.288717 0.124763 0.717219
830 4 0.305091 0.130802 0.727588
829 2 0.329451 0.12632 0.724174
831 4 0.353812 0.121838 0.72076
1107 4 0.0241233 0.183139 0.726665
851 4 0.00353479 0.186723 0.722461
1105 2 0.0427422 0.175981 0.74174
1208 4 0.0750753 0.251598 0.70212
822 4 0.142909 0.234113 0.701558
1278 4 0.151864 0.215771 0.701716
820 2 0.118436 0.238992 0.703134
821 4 0.0939638 0.24387 0.704711
1276 2 0.170679 0.220735 0.717418
1130 4 0.2333 0.174994 0.734711
1277 4 0.189494 0.225698 0.73312
1129 2 0.219185 0.195346 0.738138
1131 4 0.20507 0.215698 0.741565
916 2 0.285221 0.213647 0.740732
918 4 0.278559 0.189701 0.738013
977 4 0.283317 0.170185 0.743353
917 4 0.291883 0.237593 0.743452
1143 4 0.388663 0.207912 0.662329
1141 2 0.367009 0.208328 0.674823
1142 4 0.345354 0.208745 0.687316
1194 4 0.412547 0.218085 0.740632
1192 2 0.394065 0.230852 0.751613
3121 2 0.473389 0.210368 0.675713
3122 4 0.496018 0.210706 0.686343
1262 4 0.416151 0.218954 0.719862
1145 4 0.45972 0.177843 0.731012
1261 2 0.429206 0.197633 0.720278
1263 4 0.442261 0.176313 0.720694
1243 2 0.0133651 0.318778 0.712034
1207 2 0.0611217 0.249184 0.681513
1244 4 0.0380104 0.322989 0.712261
1065 4 0.196822 0.302023 0.69599
1064 4 0.22755 0.276821 0.726345
1063 2 0.212186 0.289422 0.711167
1097 4 0.285121 0.254423 0.738234
1008 4 0.324998 0.262935 0.736923
805 2 0.415769 0.314913 0.746623
806 4 0.423385 0.291804 0.740866
894 4 0.0894351 0.398645 0.713708
893 4 0.0788853 0.359608 0.684289
892 2 0.0841602 0.379127 0.698999
941 4 0.152493 0.410129 0.71188
1067 4 0.168147 0.40411 0.700332
1066 2 0.190966 0.406877 0.690493
1068 4 0.213785 0.409645 0.680653
1027 2 0.256582 0.414831 0.689186
1029 4 0.281164 0.419247 0.690374
807 4 0.408153 0.338022 0.75238
3330 4 0.49017 0.417387 0.673041
3113 4 0.497864 0.337234 0.728869
1983 4 0.0348518 0.480662 0.739836
2021 4 0.0544503 0.478272 0.741211
2020 2 0.0702887 0.486456 0.723679
940 2 0.144151 0.418885 0.733764
1279 2 0.089793 0.431923 0.727574
1281 4 0.097517 0.41611 0.709813
2022 4 0.086127 0.494639 0.706148
2016 4 0.170873 0.494108 0.743772
1028 4 0.232 0.410414 0.687997
1139 4 0.295167 0.430999 0.682087
1138 2 0.307995 0.43761 0.702506
1140 4 0.320822 0.444221 0.722924
1989 4 0.311932 0.449149 0.739679
1229 4 0.332657 0.427232 0.725825
1228 2 0.355035 0.42814 0.736941
1250 4 0.496362 0.470388 0.742416
1100 4 0.494122 0.490653 0.746655
1269 4 0.454213 0.466823 0.696476
1267 2 0.454412 0.48283 0.677269
1077 4 0.06286 0.0486484 0.757356
1203 4 0.0661848 0.037381 0.773483
1201 2 0.0843896 0.0220493 0.781145
2049 4 0.118353 0.00469515 0.776792
1202 4 0.102594 0.00671758 0.788807
1147 2 0.212184 0.0602543 0.75925
1149 4 0.226254 0.0726194 0.775812
1049 4 0.241804 0.0824121 0.784138
1048 2 0.259079 0.0656249 0.790842
1050 4 0.276354 0.0488377 0.797546
819 4 0.395716 0.0828748 0.815687
846 4 0.470828 0.0303138 0.79155
1113 4 0.465455 0.0156002 0.779359
844 2 0.491897 0.0426515 0.796941
832 2 0.0468739 0.137691 0.783556
863 4 0.0274643 0.111818 0.811507
833 4 0.0338257 0.119247 0.794267
33 3 0.0780134 0.155415 0.782238
834 4 0.0599221 0.156136 0.772844
1106 4 0.0613611 0.168822 0.756816
862 2 0.0375116 0.097854 0.829652
31 1 0.0920383 0.163409 0.76557
32 3 0.103586 0.145725 0.756454
1073 4 0.119083 0.163892 0.782048
840 4 0.206375 0.121669 0.766389
838 2 0.226717 0.112782 0.777896
839 4 0.24706 0.103896 0.789402
978 4 0.302692 0.151051 0.785296
976 2 0.293005 0.160618 0.764324
959 4 0.26587 0.114731 0.792239
958 2 0.273107 0.112152 0.816033
1084 2 0.384548 0.115007 0.79441
1085 4 0.394833 0.0924284 0.797507
1086 4 0.374263 0.137586 0.791313
1299 4 0.382405 0.154103 0.781578
1144 2 0.473692 0.171724 0.750824
1146 4 0.487664 0.165605 0.770636
3270 4 0.476805 0.160587 0.786496
3268 2 0.491846 0.153525 0.805179
1214 4 0.0267297 0.236479 0.800062
35 3 0.0797629 0.173546 0.749285
778 2 0.0650627 0.22514 0.816217
1213 2 0.00661066 0.248939 0.808135
779 4 0.0464584 0.232132 0.801045
34 3 0.10724 0.178462 0.774554
780 4 0.0836669 0.218148 0.831388
1072 2 0.1319 0.167239 0.803255
1074 4 0.144716 0.170587 0.824461
1193 4 0.375583 0.243619 0.762594
1297 2 0.394145 0.17353 0.792064
1298 4 0.405886 0.192956 0.80255
47 3 0.398833 0.209627 0.811965
1043 4 0.399442 0.242506 0.819431
46 1 0.407421 0.213299 0.832987
48 3 0.430476 0.210792 0.832214
1240 2 0.224081 0.285153 0.776397
1242 4 0.20103 0.275543 0.775175