ITEM: TIMESTEP
2260000
ITEM: NUMBER OF ATOMS
4590
ITEM: BOX BOUNDS pp pp pp
-9.9985700000000008e+00 9.9985700000000008e+00
-9.9985700000000008e+00 9.9985700000000008e+00
-9.9985700000000008e+00 9.9985700000000008e+00
ITEM: ATOMS id type xs ys zs
463 2 0.059581 0.0516701 0.0164224
3290 4 0.075071 0.0143971 0.0299186
464 4 0.0727084 0.0316056 0.0235123
567 4 0.153734 0.0767935 0.0577025
3289 2 0.0876187 0.00431358 0.010786
566 4 0.181694 0.036844 0.0466134
565 2 0.167714 0.0568187 0.052158
490 2 0.29519 0.0165411 0.0526952
491 4 0.311108 0.0197629 0.0336842
986 4 0.318104 0.0298702 0.0165855
2263 2 0.288841 0.058375 0.00440348
2265 4 0.276208 0.079414 0.999614
492 4 0.279272 0.0133193 0.0717062
2264 4 0.301475 0.0373361 0.00919287
557 4 0.401966 0.0611481 0.0741903
745 2 0.461182 0.059757 0.0466129
747 4 0.484395 0.062521 0.055483
746 4 0.437968 0.056993 0.0377427
2724 4 0.487138 0.057038 0.0739855
1826 4 0.50064 0.042661 0.0747048
465 4 0.0464536 0.0717345 0.00933252
701 4 0.0530955 0.0898652 0.013561
700 2 0.0400552 0.110216 0.00715872
359 4 0.230147 0.153946 0.0344556
358 2 0.20891 0.160246 0.0228584
1254 4 0.261462 0.0885851 0.989761
828 4 0.456385 0.159291 0.0031666
836 4 0.0553284 0.249489 0.0180289
422 4 0.0910622 0.202046 0.0453257
421 2 0.0959519 0.192815 0.0226088
360 4 0.187673 0.166546 0.0112613
737 4 0.180025 0.211769 0.0704103
736 2 0.189157 0.195496 0.0870531
506 4 0.195079 0.226587 0.0732704
665 4 0.368212 0.177694 0.0250566
664 2 0.345461 0.179742 0.014889
323 4 0.476837 0.230526 0.039322
322 2 0.466784 0.240107 0.0601139
324 4 0.456731 0.249689 0.0809059
826 2 0.444477 0.180007 0.995804
2807 4 0.0133923 0.260834 0.0471476
2806 2 0.998456 0.280745 0.0447699
294 4 0.136754 0.3133 0.0494453
292 2 0.151317 0.293262 0.052846
456 4 0.1236 0.326088 0.041256
507 4 0.183552 0.274308 0.0637565
293 4 0.16588 0.273223 0.0562468
505 2 0.189316 0.250447 0.0685134
739 2 0.341415 0.329367 0.0820114
356 4 0.277978 0.274022 0.00167981
254 4 0.389689 0.27802 0.0619314
573 4 0.387406 0.261626 0.0123186
571 2 0.36447 0.270631 0.0080745
741 4 0.346847 0.326767 0.0577439
1071 4 0.398204 0.25492 0.998298
630 4 0.405192 0.267769 0.0697426
253 2 0.36988 0.273378 0.0764663
315 4 0.0517673 0.405712 0.0895285
621 4 0.0687676 0.396834 0.0919556
454 2 0.110676 0.346082 0.0488978
455 4 0.0977528 0.366076 0.0565396
607 2 0.249793 0.354785 0.085194
608 4 0.255156 0.369079 0.0653927
252 4 0.272695 0.362901 0.0606667
250 2 0.287003 0.373164 0.0429149
251 4 0.301311 0.383427 0.025163
524 4 0.317505 0.393848 0.028832
523 2 0.340038 0.404389 0.0313523
226 2 0.393863 0.396161 0.00880326
228 4 0.374588 0.401851 0.0236796
525 4 0.36257 0.41493 0.0338726
670 2 0.410584 0.375165 0.0867035
671 4 0.423731 0.379023 0.0657885
281 4 0.441847 0.390057 0.0645496
280 2 0.46256 0.376586 0.0607208
282 4 0.483274 0.363115 0.0568919
104 3 0.484513 0.354122 0.0748794
1047 4 0.49552 0.3538 0.0439272
1045 2 0.494502 0.352537 0.0189762
313 2 0.0536196 0.425305 0.0741056
552 4 0.0374087 0.440949 0.0508821
314 4 0.0554718 0.444898 0.0586828
550 2 0.0183075 0.454247 0.0417459
551 4 0.999206 0.467546 0.0326097
243 4 0.221917 0.475364 0.053111
241 2 0.210085 0.495751 0.0447709
1440 4 0.230903 0.461175 0.06237
1583 4 0.476143 0.467064 0.0746086
16 1 0.0513789 0.00303431 0.116764
1422 4 0.0289125 0.0162158 0.139715
2480 4 0.0250888 0.0345819 0.126514
18 3 0.0743677 0.00319814 0.113619
19 3 0.0444262 0.0233983 0.125446
2479 2 0.0119365 0.0555779 0.123143
2481 4 0.998784 0.076574 0.119772
1420 2 0.0144807 0.00576623 0.157256
652 2 0.233971 0.0388689 0.147698
654 4 0.236412 0.0274891 0.125568
1476 4 0.239625 0.0181422 0.106583
653 4 0.23153 0.0502487 0.169828
1474 2 0.25464 0.0071869 0.0898587
296 4 0.382799 0.0554257 0.0805757
485 4 0.352638 0.999368 0.10212
297 4 0.366965 0.014346 0.104292
295 2 0.374882 0.0348859 0.0924339
236 4 0.134061 0.146756 0.137244
449 4 0.152668 0.140081 0.137982
450 4 0.140549 0.095562 0.157266
448 2 0.146608 0.117822 0.147624
28 3 0.219542 0.127788 0.181519
556 2 0.411701 0.0764086 0.0914393
558 4 0.421436 0.0916691 0.108688
758 4 0.337377 0.118142 0.17262
771 4 0.440098 0.0989807 0.112223
769 2 0.4424 0.110271 0.134413
770 4 0.444701 0.121562 0.156603
338 4 0.0472336 0.240498 0.133557
235 2 0.13876 0.171314 0.137192
237 4 0.143459 0.195872 0.137139
362 4 0.141952 0.231842 0.177016
738 4 0.198289 0.179223 0.103696
354 4 0.217342 0.184349 0.107972
476 4 0.204244 0.221035 0.155088
477 4 0.235914 0.18315 0.14719
475 2 0.220079 0.202092 0.151139
352 2 0.241328 0.189019 0.102676
279 4 0.255772 0.240666 0.157124
353 4 0.265314 0.19369 0.0973798
461 4 0.280444 0.202026 0.0893108
460 2 0.304265 0.203035 0.0968419
462 4 0.328086 0.204043 0.104373
628 2 0.419384 0.257823 0.0877664
629 4 0.433576 0.247877 0.10579
624 4 0.425055 0.24026 0.123036
337 2 0.051542 0.257497 0.151379
395 4 0.0615511 0.292019 0.163427
704 4 0.00342643 0.322322 0.146172
612 4 0.240378 0.323286 0.113131
755 4 0.311479 0.263878 0.14686
610 2 0.246476 0.299095 0.111459
611 4 0.252574 0.274904 0.109787
278 4 0.256652 0.255442 0.109358
277 2 0.256212 0.248054 0.133241
754 2 0.327991 0.268096 0.128564
756 4 0.344503 0.272314 0.110269
740 4 0.335983 0.331967 0.106279
255 4 0.350072 0.268736 0.0910012
622 2 0.428905 0.253886 0.143644
623 4 0.432754 0.267512 0.164252
527 4 0.447116 0.280059 0.169589
619 2 0.0829939 0.385712 0.10925
620 4 0.0972203 0.374591 0.126545
647 4 0.106132 0.386344 0.144879
537 4 0.125287 0.382772 0.131998
535 2 0.14391 0.387726 0.116066
536 4 0.162533 0.39268 0.100134
646 2 0.100556 0.370033 0.16299
609 4 0.24443 0.340491 0.104995
386 4 0.323029 0.346754 0.111193
385 2 0.331597 0.366518 0.123886
387 4 0.340165 0.386283 0.13658
12 3 0.391939 0.390714 0.110475
11 1 0.380347 0.397972 0.128972
15 3 0.358634 0.391308 0.127308
672 4 0.397436 0.371307 0.107618
13 3 0.390014 0.38879 0.147962
302 4 0.347549 0.408131 0.135357
597 4 0.374799 0.374681 0.158611
626 4 0.186877 0.44185 0.157702
1438 2 0.229713 0.457733 0.0871068
625 2 0.204867 0.451979 0.143598
1439 4 0.228522 0.45429 0.111844
638 4 0.2369 0.473979 0.13794
637 2 0.246173 0.497199 0.138036
627 4 0.222858 0.462108 0.129494
272 4 0.263609 0.500239 0.0975562
1559 4 0.326454 0.48889 0.117374
301 2 0.332191 0.42308 0.148233
303 4 0.316832 0.43803 0.16111
14 3 0.381471 0.421129 0.129918
494 4 0.390269 0.480233 0.114705
495 4 0.385866 0.430464 0.112603
493 2 0.388068 0.455349 0.113654
1584 4 0.447128 0.4929 0.106094
1582 2 0.461635 0.479982 0.0903512
689 4 0.204784 0.00464634 0.227433
690 4 0.176141 0.0455761 0.225186
688 2 0.190462 0.0251112 0.22631
693 4 0.231911 0.0515028 0.189862
1505 4 0.219195 0.00412651 0.214542
691 2 0.251607 0.0604019 0.202433
692 4 0.271303 0.069301 0.215005
1699 2 0.309983 0.0691365 0.232507
1701 4 0.287318 0.0622936 0.224468
1700 4 0.332649 0.0759794 0.240545
21 1 0.369047 0.0734188 0.225512
25 3 0.373048 0.0720073 0.203137
22 3 0.370028 0.0523649 0.234727
23 3 0.347919 0.0822593 0.229235
759 4 0.36686 0.0797137 0.18506
1760 4 0.49257 0.994671 0.178882
511 2 0.00913134 0.145743 0.206125
578 4 0.0382135 0.153972 0.235311
513 4 0.0248682 0.15913 0.220208
546 4 0.167083 0.152226 0.250331
27 3 0.239888 0.125329 0.213025
26 1 0.238113 0.136019 0.192734
29 3 0.235677 0.158794 0.196442
582 4 0.320433 0.106364 0.172302
580 2 0.298374 0.118005 0.174054
581 4 0.276315 0.129645 0.175806
30 3 0.256932 0.132103 0.180521
24 3 0.385114 0.0867786 0.2356
757 2 0.352118 0.0989277 0.17884
333 4 0.391565 0.0747172 0.249888
312 4 0.445105 0.123259 0.177443
311 4 0.482136 0.149765 0.198104
310 2 0.463621 0.136512 0.187773
521 4 0.488438 0.141335 0.217228
577 2 0.0417666 0.177344 0.243455
529 2 0.00951079 0.222373 0.240155
579 4 0.0453197 0.200715 0.251599
361 2 0.126261 0.248604 0.167117
372 4 0.145452 0.214864 0.185779
371 4 0.186342 0.212765 0.157067
370 2 0.165897 0.213814 0.171423
339 4 0.0558503 0.274497 0.169201
396 4 0.0591461 0.317598 0.206329
443 4 0.0551148 0.30646 0.22306
394 2 0.0603486 0.304809 0.184878
442 2 0.0455293 0.308518 0.246061
363 4 0.11057 0.265366 0.157218
299 4 0.100218 0.344149 0.245691
285 4 0.264853 0.256859 0.163658
284 4 0.286334 0.290281 0.194026
283 2 0.275594 0.27357 0.178842
345 4 0.281015 0.312051 0.238651
526 2 0.444716 0.295857 0.188821
528 4 0.442316 0.311654 0.208053
703 2 0.00437981 0.331715 0.169325
648 4 0.0949807 0.353722 0.181102
300 4 0.0879537 0.34388 0.197212
298 2 0.0940859 0.344015 0.221452
596 4 0.352424 0.340557 0.187519
595 2 0.363612 0.357619 0.173065
645 4 0.392026 0.386284 0.169906
643 2 0.40315 0.393581 0.191077
644 4 0.414274 0.400878 0.212247
447 4 0.410739 0.412009 0.229492
109 3 0.493777 0.369779 0.216272
2861 4 0.50821 0.41356 0.232392
264 4 0.0496728 0.411983 0.222675
262 2 0.0332581 0.412122 0.241535
1430 4 0.181432 0.49226 0.19201
289 2 0.221946 0.41295 0.244412
417 4 0.192112 0.47511 0.195481
290 4 0.209362 0.418874 0.223634
416 4 0.21045 0.430136 0.207385
415 2 0.201281 0.452623 0.201433
659 4 0.329472 0.452571 0.168019
658 2 0.34233 0.464198 0.186037
660 4 0.355189 0.475824 0.204055
231 4 0.361372 0.487705 0.219138
445 2 0.412106 0.429224 0.247574
232 2 0.0328487 0.0235546 0.294474
234 4 0.0446331 0.0456054 0.294735
317 4 0.0505632 0.0494564 0.276563
233 4 0.0210643 0.00150379 0.294213
316 2 0.047235 0.0717041 0.265648
673 2 0.143157 0.0503452 0.255387
675 4 0.127243 0.0524922 0.274553
674 4 0.159071 0.0481982 0.236222
1406 4 0.199348 0.00308357 0.277651
698 4 0.388172 0.055504 0.244918
1518 4 0.383299 0.0058813 0.270097
697 2 0.391384 0.0380274 0.262508
699 4 0.394595 0.0205508 0.280099
425 4 0.41428 0.0381682 0.333147
743 4 0.497585 0.051063 0.255876
351 4 0.479832 0.0490585 0.266671
349 2 0.463785 0.0682034 0.265595
350 4 0.447739 0.0873483 0.26452
256 2 0.475325 0.0831065 0.320108
424 2 0.438262 0.0418866 0.327131
318 4 0.0439067 0.0939517 0.254732
391 2 0.141029 0.150391 0.325804
392 4 0.146404 0.148286 0.301476
545 4 0.139985 0.134374 0.28838
544 2 0.153534 0.1433 0.269355
723 4 0.236354 0.0914039 0.260385
722 4 0.189337 0.080045 0.273077
721 2 0.212845 0.0857244 0.266731
599 4 0.220695 0.120121 0.309191
404 4 0.21442 0.140065 0.310505
598 2 0.213595 0.108414 0.330112
403 2 0.21762 0.162414 0.299761
331 2 0.413323 0.0868735 0.251894
332 4 0.43508 0.0990297 0.253899
762 4 0.435472 0.150473 0.302578
761 4 0.47404 0.119824 0.311174
760 2 0.454756 0.135148 0.306876
257 4 0.476619 0.107321 0.326203
530 4 0.0328308 0.217332 0.247635
405 4 0.220821 0.184764 0.289017
401 4 0.223007 0.182975 0.269142
400 2 0.233728 0.205184 0.265013
402 4 0.244449 0.227392 0.260884
473 4 0.217477 0.215178 0.334787
269 4 0.509857 0.21694 0.336261
765 4 0.419012 0.214829 0.299015
764 4 0.455424 0.198799 0.329313
763 2 0.437218 0.206814 0.314164
444 4 0.0359438 0.310576 0.269062
750 4 0.102436 0.333453 0.261881
734 4 0.1796 0.320704 0.30094
374 4 0.22755 0.326466 0.333416
343 2 0.28987 0.320037 0.260628
309 4 0.317421 0.322458 0.282058
344 4 0.298725 0.328022 0.282606
496 2 0.354939 0.279993 0.320637
497 4 0.367261 0.29525 0.305126
613 2 0.406203 0.331189 0.314177
615 4 0.4286 0.32649 0.324249
541 2 0.45254 0.320159 0.285958
542 4 0.468024 0.316412 0.266687
543 4 0.437055 0.323906 0.305228
365 4 0.0143698 0.343042 0.323861
366 4 0.045625 0.341631 0.28485
749 4 0.0638021 0.349404 0.289335
364 2 0.0299974 0.342336 0.304356
748 2 0.0831192 0.341429 0.275608
602 4 0.119602 0.403016 0.309894
777 4 0.109527 0.408328 0.292776
677 4 0.173435 0.387195 0.293932
735 4 0.168037 0.369337 0.299582
733 2 0.173819 0.34502 0.300261
676 2 0.174865 0.406183 0.310138
413 4 0.269258 0.411423 0.307871
291 4 0.234529 0.407027 0.265191
728 4 0.335068 0.413738 0.318868
2 3 0.312301 0.418505 0.318922
614 4 0.383806 0.335889 0.304105
307 2 0.334192 0.337998 0.292177
727 2 0.337018 0.388993 0.315857
729 4 0.338968 0.364249 0.312845
308 4 0.350964 0.353537 0.302297
2924 4 0.501875 0.382127 0.320129
2537 4 0.493986 0.388604 0.300065
118 3 0.489963 0.400457 0.319089
263 4 0.0168433 0.412261 0.260396
1757 4 0.115664 0.472458 0.273088
776 4 0.123153 0.455248 0.28212
775 2 0.11634 0.431788 0.287448
1756 2 0.114378 0.496416 0.280125
678 4 0.176294 0.42517 0.326343
768 4 0.190096 0.457087 0.251603
412 2 0.24835 0.41444 0.294494
766 2 0.195823 0.481272 0.248871
414 4 0.227443 0.417458 0.281117
438 4 0.284972 0.47429 0.253656
1435 2 0.254029 0.467509 0.32307
437 4 0.27369 0.442489 0.290562
436 2 0.279331 0.458389 0.272109
1437 4 0.268815 0.451354 0.311005
5 3 0.278427 0.429772 0.308034
1 1 0.290809 0.422876 0.325861
434 4 0.327288 0.430033 0.30519
433 2 0.341022 0.449853 0.311801
435 4 0.354756 0.469674 0.318411
446 4 0.413472 0.446439 0.265656
116 1 0.499949 0.421301 0.317035
2860 2 0.497597 0.420272 0.254013
714 4 0.431451 0.443479 0.274285
119 3 0.490514 0.436132 0.332181
2862 4 0.486984 0.426985 0.275635
120 3 0.497299 0.429129 0.295814
713 4 0.475679 0.432661 0.294961
712 2 0.453565 0.43807 0.284623
428 4 0.0487775 0.0358624 0.338825
427 2 0.0538498 0.0130725 0.347774
605 4 0.146373 0.0696432 0.371488
732 4 0.122883 0.085573 0.388348
730 2 0.111559 0.0708147 0.405056
604 2 0.160968 0.0549189 0.357511
606 4 0.175563 0.0401947 0.343534
683 4 0.241686 0.0381514 0.389376
682 2 0.245664 0.0208318 0.371787
321 4 0.234772 0.0565862 0.384212
319 2 0.226854 0.0607324 0.407563
684 4 0.249642 0.00351227 0.354198
249 4 0.307409 0.0606329 0.336442
247 2 0.331806 0.0587423 0.341582
248 4 0.356202 0.0568516 0.346722
633 4 0.369204 0.0720184 0.346162
480 4 0.489755 0.0122333 0.335918
426 4 0.462245 0.0456051 0.321116
258 4 0.47403 0.0588918 0.314012
393 4 0.135654 0.152496 0.350133
399 4 0.126884 0.140541 0.362332
398 4 0.109192 0.0998555 0.385406
397 2 0.118038 0.120198 0.373869
686 4 0.218906 0.115539 0.409165
600 4 0.206496 0.096706 0.351034
685 2 0.217591 0.113211 0.384305
687 4 0.216276 0.110883 0.359444
410 4 0.232324 0.127468 0.41786
632 4 0.386029 0.0945988 0.387487
631 2 0.377616 0.0833086 0.366824
420 4 0.378015 0.11831 0.384968
468 4 0.385566 0.109998 0.406617
418 2 0.367581 0.140753 0.388523
419 4 0.357147 0.163195 0.392077
2654 4 0.00662198 0.240273 0.394321
390 4 0.0692662 0.234789 0.380838
470 4 0.0689378 0.222347 0.396575
469 2 0.0745441 0.208905 0.416899
388 2 0.0913939 0.240113 0.370485
389 4 0.113521 0.245437 0.360131
474 4 0.173166 0.236115 0.344728
472 2 0.195322 0.225646 0.339758
708 4 0.218341 0.200141 0.347333
706 2 0.240459 0.190829 0.354351
489 4 0.216569 0.248769 0.412705
707 4 0.262577 0.181516 0.361369
377 4 0.340681 0.239814 0.389438
717 4 0.350085 0.227198 0.402279
716 4 0.360293 0.178286 0.404306
715 2 0.355189 0.202742 0.403293
268 2 0.497771 0.231602 0.352513
514 2 0.453627 0.168732 0.415358
515 4 0.472827 0.164132 0.400016
618 4 0.0150149 0.258907 0.396949
616 2 0.0368197 0.254386 0.408319
274 2 0.145088 0.253808 0.362807
276 4 0.123183 0.253238 0.37485
275 4 0.166993 0.254378 0.350765
510 4 0.225891 0.310381 0.345377
487 2 0.234277 0.26582 0.408134
488 4 0.251985 0.282871 0.403564
508 2 0.236186 0.299655 0.36548
509 4 0.24648 0.288928 0.385584
376 2 0.334388 0.253897 0.36976
378 4 0.328096 0.267981 0.350082
498 4 0.342617 0.264737 0.336149
265 2 0.355236 0.322217 0.365628
266 4 0.364153 0.310108 0.385604
585 4 0.361532 0.290338 0.386804
583 2 0.377633 0.282051 0.404045
584 4 0.393735 0.273764 0.421286
306 4 0.486025 0.259297 0.383794
270 4 0.485685 0.246264 0.368765
601 2 0.113712 0.394758 0.332748
547 2 0.0823306 0.41885 0.371688
549 4 0.0925688 0.397911 0.362638
603 4 0.107823 0.386499 0.355601
373 2 0.225969 0.351282 0.336034
502 2 0.208097 0.400698 0.369534
504 4 0.223026 0.390068 0.352525
375 4 0.224388 0.376098 0.338652
3 3 0.281718 0.403483 0.334788
267 4 0.346319 0.334326 0.345652
2923 2 0.489864 0.367797 0.336728
2925 4 0.477852 0.353466 0.353327
680 4 0.000602077 0.478391 0.407035
548 4 0.0720923 0.43979 0.380738
407 4 0.0560305 0.443914 0.393879
406 2 0.0385254 0.461151 0.39853
408 4 0.0210204 0.478388 0.403182
570 4 0.124232 0.43131 0.416877
1436 4 0.239243 0.483665 0.335134
635 4 0.18455 0.465624 0.417161
503 4 0.193168 0.411328 0.386543
636 4 0.204863 0.42639 0.393736
634 2 0.194706 0.446007 0.405448
1401 4 0.329514 0.475935 0.396771
668 4 0.302506 0.443584 0.356858
4 3 0.291381 0.439522 0.342016
667 2 0.320437 0.435107 0.372084
669 4 0.338368 0.42663 0.387309
336 4 0.339295 0.428114 0.406409
593 4 0.478865 0.5005 0.367952
752 4 0.484174 0.41371 0.391488
561 4 0.477017 0.423627 0.40802
753 4 0.487067 0.442435 0.350656
751 2 0.485621 0.428072 0.371072
718 2 0.0296632 0.0492767 0.478406
719 4 0.052964 0.0518188 0.469701
369 4 0.0683388 0.056885 0.4817
367 2 0.0785981 0.0614534 0.459361
731 4 0.100235 0.0560565 0.421764
368 4 0.0888574 0.0660218 0.437021
2430 4 0.189664 0.0601142 0.443395
2428 2 0.182919 0.0360588 0.444408
2429 4 0.176174 0.0120035 0.44542
341 4 0.203345 0.0739557 0.440344
320 4 0.218937 0.0648787 0.430915
725 4 0.236964 0.0651185 0.443256
724 2 0.257037 0.067958 0.457892
430 2 0.308594 0.0769315 0.494436
432 4 0.284172 0.0795974 0.489784
726 4 0.277109 0.0707975 0.472528
843 4 0.349423 0.070056 0.488316
467 4 0.395113 0.0829191 0.44756
2879 4 0.437652 0.0135235 0.436937
2878 2 0.452665 0.0315892 0.445505
2880 4 0.467678 0.0496549 0.454074
642 4 0.465088 0.0519468 0.474199
640 2 0.480966 0.0711401 0.472035
2584 2 0.998983 0.0929261 0.435177
2586 4 0.00255785 0.10657 0.455823
409 2 0.242879 0.150133 0.417689
340 2 0.204406 0.094409 0.454687
1152 4 0.196206 0.132273 0.472227
342 4 0.205468 0.114862 0.469029
1150 2 0.183455 0.131227 0.49371
466 2 0.39034 0.0964583 0.427089
576 4 0.416753 0.120183 0.466092
574 2 0.422443 0.137085 0.448567
575 4 0.428134 0.153988 0.431043
471 4 0.0801503 0.195464 0.437223
617 4 0.0586245 0.249864 0.419689
261 4 0.0929039 0.169267 0.499853
259 2 0.0881918 0.177099 0.47658
260 4 0.0834797 0.184931 0.453307
411 4 0.253434 0.172799 0.417518
651 4 0.213964 0.229986 0.417375
649 2 0.229621 0.210587 0.415441
650 4 0.245278 0.191189 0.413508
516 4 0.434426 0.173333 0.430699
695 4 0.125561 0.285544 0.456999
694 2 0.140534 0.296016 0.43993
696 4 0.155507 0.306488 0.422862
1260 4 0.173852 0.305314 0.429655
1258 2 0.192693 0.310405 0.445285
1259 4 0.211534 0.315496 0.460914
2456 4 0.410695 0.272498 0.432606
2455 2 0.435386 0.274239 0.436145
2457 4 0.460076 0.275979 0.439683
326 4 0.0739334 0.400933 0.46213
325 2 0.09057 0.383028 0.456855
10 3 0.144228 0.347023 0.449956
709 2 0.140021 0.409668 0.444274
7 3 0.112322 0.354593 0.467777
327 4 0.107207 0.365124 0.45158
6 1 0.135266 0.354747 0.469415
8 3 0.142362 0.376492 0.473316
9 3 0.14162 0.341059 0.487041
711 4 0.14273 0.388123 0.456671
238 2 0.323113 0.414289 0.482529
240 4 0.344071 0.42548 0.474738
2508 4 0.493994 0.374175 0.441042
559 2 0.490377 0.407338 0.421487
560 4 0.503737 0.391048 0.434953
1382 4 0.0337311 0.461555 0.466924
1381 2 0.0157072 0.458827 0.449811
540 4 0.0407272 0.456356 0.484452
538 2 0.0507835 0.458395 0.507254
384 4 0.156697 0.498312 0.470155
568 2 0.109465 0.45147 0.416043
569 4 0.0946983 0.471631 0.41521
772 2 0.155877 0.485928 0.435592
774 4 0.166206 0.472831 0.416966
382 2 0.163448 0.490943 0.493075
710 4 0.137312 0.431212 0.431878
1400 4 0.322329 0.496739 0.441674
1399 2 0.325922 0.486337 0.419223
588 4 0.334362 0.495165 0.45924
334 2 0.338168 0.42417 0.431074
335 4 0.337041 0.420226 0.455739
720 4 0.00636242 0.0467346 0.487112
1059 4 0.0819108 0.0600898 0.581447
1032 4 0.129637 0.0892641 0.570517
1030 2 0.152382 0.0871358 0.560352
951 4 0.187002 0.0802418 0.534956
1031 4 0.175126 0.0850074 0.550187
949 2 0.206249 0.0709321 0.521992
1182 4 0.243284 0.0612263 0.517708
950 4 0.225497 0.0616223 0.509029
961 2 0.309657 0.0242976 0.559039
1180 2 0.264325 0.0502244 0.525544
963 4 0.299767 0.0434016 0.546295
1181 4 0.285366 0.0392225 0.53338
431 4 0.333016 0.0742657 0.499088
842 4 0.391368 0.0747295 0.51514
1217 4 0.408565 0.0841578 0.516577
841 2 0.370396 0.0723927 0.501728
939 4 0.156301 0.143554 0.510264
937 2 0.133814 0.153013 0.504782
1151 4 0.170704 0.130181 0.515193
938 4 0.111328 0.162473 0.4993
898 2 0.350485 0.165226 0.577943
1216 2 0.431459 0.0897061 0.524958
1218 4 0.454353 0.0952544 0.53334
1035 4 0.0625742 0.179393 0.559133
1082 4 0.0721568 0.17783 0.576106
1081 2 0.0532808 0.165319 0.586705
1033 2 0.0724599 0.180315 0.536185
1034 4 0.0823455 0.181236 0.513237
877 2 0.0958186 0.246459 0.577237
797 4 0.257383 0.174775 0.582689
811 2 0.301936 0.236019 0.540031
812 4 0.279942 0.231263 0.550932
796 2 0.264036 0.197077 0.573549
798 4 0.270689 0.219379 0.56441
813 4 0.32393 0.240776 0.529131
900 4 0.36412 0.179487 0.562584
872 4 0.372091 0.193471 0.550187
873 4 0.33813 0.226503 0.53418
871 2 0.355111 0.209987 0.542184
878 4 0.10004 0.267661 0.564673
896 4 0.207182 0.331947 0.538117
1191 4 0.223606 0.319618 0.534334
1189 2 0.242592 0.329018 0.521056
1239 4 0.254206 0.31912 0.57388
1190 4 0.261578 0.338419 0.507777
954 4 0.409012 0.299841 0.578137
1205 4 0.394175 0.303533 0.591502
905 4 0.439355 0.263336 0.594644
952 2 0.427792 0.283349 0.577426
953 4 0.446572 0.266858 0.576714
1137 4 0.170711 0.378418 0.55503
897 4 0.168076 0.362633 0.543573
895 2 0.187629 0.34729 0.540845
803 4 0.279806 0.33076 0.511292
802 2 0.30087 0.343508 0.515648
804 4 0.321934 0.356257 0.520003
929 4 0.321923 0.360428 0.539873
239 4 0.302155 0.403097 0.490319
928 2 0.340296 0.355226 0.556014
930 4 0.358669 0.350023 0.572155
925 2 0.502645 0.401498 0.528715
926 4 0.502131 0.413303 0.55075
1001 4 0.486955 0.414208 0.563703
1000 2 0.466746 0.40975 0.577735
539 4 0.0608398 0.460435 0.530055
936 4 0.0272543 0.465782 0.538146
1938 4 0.047055 0.470612 0.540103
1936 2 0.0580206 0.489388 0.552449
934 2 0.00258786 0.462113 0.539957
383 4 0.170199 0.483574 0.515994
2244 4 0.157042 0.469631 0.520736
2242 2 0.161187 0.47341 0.545102
2243 4 0.165332 0.477189 0.569469
1172 4 0.251998 0.454969 0.560505
882 4 0.257507 0.472654 0.553924
1161 4 0.175812 0.486102 0.584359
880 2 0.26342 0.490834 0.537809
1155 4 0.0939974 0.0712281 0.592387
1057 2 0.0713896 0.0470183 0.599984
1185 4 0.0264946 0.0741668 0.645891
945 4 0.0370283 0.0584175 0.652513
825 4 0.0565188 0.0282259 0.636934
1058 4 0.0608684 0.0339467 0.618521
823 2 0.0642301 0.0073167 0.64827
1183 2 0.00185857 0.0730592 0.641766
1003 2 0.315497 0.0785233 0.649372
1004 4 0.327189 0.0745967 0.627621
2282 4 0.458235 0.0279372 0.631364
2281 2 0.453034 0.00571174 0.621158
43 3 0.469007 0.0389911 0.643512
41 1 0.475314 0.0572503 0.656366
44 3 0.458399 0.0731339 0.656403
1199 4 0.0191794 0.145688 0.608315
1083 4 0.0344048 0.152807 0.597304
1153 2 0.109486 0.0892612 0.600139
1154 4 0.124974 0.107294 0.607891
1221 4 0.132679 0.120901 0.619674
1219 2 0.144433 0.118133 0.641568
1220 4 0.156187 0.115366 0.663462
1283 4 0.161891 0.131996 0.673185
1212 4 0.247872 0.167035 0.635348
1210 2 0.26589 0.150493 0.640534
856 2 0.296357 0.15633 0.594459
857 4 0.318397 0.144939 0.597566
1211 4 0.283909 0.133951 0.64572
888 4 0.290486 0.145643 0.660708
899 4 0.336849 0.150966 0.593301
879 4 0.091597 0.225258 0.589801
1272 4 0.104696 0.211377 0.582173
1270 2 0.125506 0.203304 0.59344
1271 4 0.146315 0.19523 0.604708
909 4 0.163195 0.205471 0.602614
907 2 0.171769 0.211375 0.625348
908 4 0.180342 0.217278 0.648081
947 4 0.175235 0.234616 0.655838
858 4 0.274317 0.167722 0.591352
1025 4 0.380877 0.1913 0.655904
1024 2 0.384031 0.20303 0.634049
1143 4 0.362012 0.195869 0.662891
1026 4 0.387185 0.21476 0.612194
904 2 0.447555 0.246128 0.610826
906 4 0.455756 0.228921 0.627007
3122 4 0.485901 0.215888 0.660863
946 2 0.190686 0.251985 0.665045
1237 2 0.271508 0.311608 0.590293
792 4 0.28397 0.310084 0.625219
791 4 0.323255 0.315983 0.655593
790 2 0.303613 0.313034 0.640406
1238 4 0.28881 0.304095 0.606706
1204 2 0.376204 0.320836 0.589813
1206 4 0.358233 0.338139 0.588123
983 4 0.0326351 0.393334 0.621328
1041 4 0.052068 0.39535 0.621333
1039 2 0.0741384 0.406202 0.62584
982 2 0.00937588 0.391709 0.630358
1136 4 0.169729 0.40554 0.597031
1135 2 0.17022 0.391979 0.576031
993 4 0.112969 0.426599 0.627056
1002 4 0.446537 0.405291 0.591766
992 4 0.157727 0.41861 0.606232
991 2 0.135348 0.422604 0.616644
1040 4 0.0962087 0.417054 0.630347
1160 4 0.212671 0.489031 0.618028
1159 2 0.194242 0.487567 0.601194
1175 4 0.227016 0.47725 0.62286
1174 2 0.243331 0.488927 0.637781
1171 2 0.254159 0.46289 0.584122
1173 4 0.25632 0.470811 0.607739
889 2 0.342291 0.486269 0.642018
891 4 0.341748 0.484487 0.617084
1951 2 0.349818 0.504414 0.586697
1952 4 0.352911 0.499609 0.611039
3330 4 0.497273 0.414862 0.651997
1911 4 0.422215 0.455444 0.629678
1910 4 0.431401 0.419282 0.596382
1909 2 0.426808 0.437363 0.61303
3328 2 0.49329 0.434236 0.636701
943 2 0.0431843 0.0561822 0.676643
944 4 0.0493403 0.0539469 0.700774
1075 2 0.0507119 0.0432959 0.736441
1076 4 0.0414835 0.0585416 0.718903
1077 4 0.0599402 0.0280502 0.753979
1005 4 0.303806 0.0824498 0.671122
831 4 0.33504 0.0730537 0.728943
42 3 0.478972 0.0502319 0.677965
1163 4 0.489917 0.0627029 0.691007
32 3 0.0961766 0.148296 0.744433
1282 2 0.160825 0.12496 0.697155
1284 4 0.159759 0.117925 0.721124
1227 4 0.177151 0.122787 0.728673
1225 2 0.191476 0.133814 0.745946
1226 4 0.205802 0.144841 0.763219
886 2 0.301012 0.137661 0.681937
887 4 0.311538 0.12968 0.703166
830 4 0.316786 0.112041 0.703496
829 2 0.325913 0.0925471 0.716219
1105 2 0.0375937 0.179817 0.751139
1107 4 0.0221333 0.197325 0.742217
851 4 0.0176198 0.20294 0.723008
822 4 0.140283 0.223178 0.700679
1278 4 0.155841 0.220028 0.713278
820 2 0.117148 0.232653 0.700263
1276 2 0.174589 0.223758 0.729395
1277 4 0.193338 0.227488 0.745511
916 2 0.299696 0.212014 0.72684
918 4 0.305688 0.187931 0.723796
917 4 0.293704 0.236098 0.729885
1142 4 0.323458 0.187834 0.693708
1008 4 0.338851 0.233242 0.732021
1141 2 0.342735 0.191851 0.678299
1194 4 0.400372 0.239318 0.74201
1262 4 0.416616 0.228286 0.733066
3123 4 0.442005 0.199849 0.678656
3121 2 0.463953 0.207868 0.66976
1261 2 0.431018 0.210588 0.743291
1209 4 0.0361562 0.269427 0.680834
1207 2 0.0554877 0.258832 0.692633
1208 4 0.0748192 0.248238 0.704433
1245 4 0.00559275 0.298344 0.715527
821 4 0.0940128 0.242127 0.699847
948 4 0.206138 0.269354 0.674251
1065 4 0.218254 0.282807 0.683955
1064 4 0.230321 0.324775 0.708323
1063 2 0.224288 0.303791 0.696139
1098 4 0.242603 0.272846 0.740196
1241 4 0.242796 0.286899 0.753705
1097 4 0.277092 0.242118 0.721038
1096 2 0.259848 0.257482 0.730617
1192 2 0.405124 0.261883 0.751675
893 4 0.0649318 0.339424 0.684289
1279 2 0.0961055 0.402628 0.71484
892 2 0.0827002 0.356742 0.68738
894 4 0.100469 0.37406 0.690471
1281 4 0.110415 0.389071 0.699458
940 2 0.155928 0.406338 0.723879
941 4 0.159472 0.39605 0.701367
1067 4 0.171231 0.4107 0.694532
1028 4 0.231257 0.407834 0.674713
1029 4 0.277204 0.389072 0.680846
1027 2 0.254231 0.398453 0.67778
1139 4 0.289225 0.404261 0.685636
1230 4 0.355792 0.40968 0.716245
3183 4 0.498317 0.418223 0.673031
1981 2 0.995649 0.498603 0.729786
2021 4 0.0236719 0.500727 0.710668
2020 2 0.0457951 0.504107 0.699518
1983 4 0.0170685 0.486639 0.724963
1280 4 0.0817956 0.416185 0.730222
3275 4 0.0831039 0.42878 0.744913
942 4 0.152385 0.416626 0.746391
1080 4 0.15609 0.432301 0.759639
1066 2 0.194048 0.415904 0.68573
1068 4 0.216865 0.421109 0.676927
890 4 0.342834 0.48805 0.666953
1138 2 0.300851 0.418823 0.702308
1140 4 0.312477 0.433386 0.71898
1989 4 0.29913 0.439868 0.73149
1228 2 0.354989 0.42389 0.695687
1229 4 0.354186 0.438099 0.675129
1268 4 0.431118 0.48203 0.642198
1267 2 0.434536 0.496053 0.662614
1100 4 0.475862 0.474279 0.721952
1099 2 0.472461 0.497076 0.712262
1250 4 0.483393 0.481412 0.739561
1203 4 0.0740478 0.0423389 0.760608
911 4 0.0444589 0.0762498 0.843066
1201 2 0.0939421 0.0303727 0.769893
2049 4 0.128016 0.00679807 0.788005
1202 4 0.113836 0.0184065 0.779178
1148 4 0.177926 0.0482403 0.770276
1147 2 0.197386 0.0634867 0.774018
1149 4 0.216847 0.0787332 0.77776
1049 4 0.232923 0.066498 0.783199
1048 2 0.253175 0.0559046 0.793339
1050 4 0.273427 0.0453112 0.803479
817 2 0.376923 0.0748487 0.81621
819 4 0.380826 0.0889259 0.795918
846 4 0.471958 0.0380971 0.778272
1113 4 0.477223 0.0182778 0.77276
844 2 0.494774 0.0478001 0.775042
832 2 0.0347105 0.133749 0.7849
863 4 0.00828961 0.107291 0.80652
833 4 0.0165372 0.12218 0.797592
33 3 0.0710625 0.136746 0.769899
834 4 0.0528838 0.145317 0.772208
31 1 0.0839155 0.154716 0.762807
862 2 0.0167604 0.0910489 0.823539
1073 4 0.105092 0.179212 0.782227
34 3 0.0984903 0.161174 0.779667
1130 4 0.213794 0.162028 0.756214
840 4 0.204174 0.152174 0.782801
838 2 0.220703 0.145023 0.800146
839 4 0.237232 0.137873 0.817491
959 4 0.25537 0.130029 0.819926
978 4 0.299561 0.149104 0.778497
958 2 0.27243 0.113629 0.828001
960 4 0.289489 0.0972288 0.836075
1084 2 0.377265 0.12725 0.790716
1085 4 0.367495 0.104287 0.792264
1086 4 0.387035 0.150214 0.789167
1299 4 0.390926 0.162614 0.773231
3268 2 0.492925 0.145365 0.810064
3270 4 0.474279 0.144904 0.793412
1146 4 0.484636 0.157917 0.781826
35 3 0.0704201 0.17215 0.757101
1106 4 0.0530541 0.162308 0.760061
778 2 0.0510899 0.227064 0.807658
779 4 0.0265026 0.228468 0.803336
780 4 0.0756771 0.225659 0.811979
1072 2 0.126736 0.191296 0.778956
1074 4 0.14838 0.20338 0.775684
869 4 0.0877695 0.222032 0.826832
1129 2 0.207856 0.186231 0.754192
1131 4 0.201917 0.210435 0.75217
977 4 0.298322 0.181023 0.740021
976 2 0.298942 0.165064 0.759259
1006 2 0.348117 0.248624 0.74942
1297 2 0.392284 0.17956 0.791566
1298 4 0.393643 0.196505 0.809901
47 3 0.403458 0.202101 0.826652
49 3 0.394682 0.238623 0.82799
1263 4 0.44542 0.192891 0.753516
1145 4 0.464497 0.18992 0.749101
1144 2 0.474567 0.173918 0.765463
1213 2 0.000413072 0.25819 0.801267
1214 4 0.017767 0.243104 0.791448
1240 2 0.21905 0.28469 0.761216
1242 4 0.195304 0.282481 0.768728
801 4 0.294374 0.334285 0.826088
1166 4 0.400399 0.254362 0.814064
1043 4 0.378935 0.254491 0.821129
1042 2 0.368611 0.266251 0.801628
1007 4 0.357383 0.264006 0.766819
1044 4 0.358287 0.27801 0.782126
1193 4 0.409875 0.284449 0.76134
806 4 0.421537 0.324979 0.773448
1167 4 0.447643 0.259345 0.798448
1165 2 0.424021 0.256853 0.806256