ITEM: TIMESTEP
2410000
ITEM: NUMBER OF ATOMS
4590
ITEM: BOX BOUNDS pp pp pp
-9.9985700000000008e+00 9.9985700000000008e+00
-9.9985700000000008e+00 9.9985700000000008e+00
-9.9985700000000008e+00 9.9985700000000008e+00
ITEM: ATOMS id type xs ys zs
463 2 0.0513545 0.0546918 0.0233685
3290 4 0.0818107 0.0230834 0.0295203
464 4 0.0665606 0.0349342 0.025264
465 4 0.0361484 0.0744493 0.021473
1667 4 0.0414527 0.0118371 0.0808175
1668 4 0.0717355 0.0111215 0.0410287
1666 2 0.0565941 0.0114793 0.0609231
3289 2 0.0938831 0.0216872 0.00766885
565 2 0.144155 0.063699 0.0630372
567 4 0.123392 0.07427 0.0721108
566 4 0.164918 0.0531281 0.0539636
490 2 0.284105 0.998952 0.0350854
986 4 0.298584 0.0329161 0.00513984
2264 4 0.279652 0.0281724 0.999349
492 4 0.289936 0.0112865 0.0560387
985 2 0.32121 0.0320617 0.994532
296 4 0.39078 0.0508487 0.0870705
295 2 0.377002 0.0310541 0.0804743
745 2 0.47656 0.0470673 0.0504402
747 4 0.499342 0.0489832 0.0605621
746 4 0.453777 0.0451514 0.0403184
701 4 0.0453417 0.0850991 0.00802657
700 2 0.0488503 0.109093 0.00193067
702 4 0.0523588 0.133087 0.995835
555 4 0.0476891 0.145698 0.0110516
359 4 0.250886 0.169142 0.0202597
358 2 0.226123 0.170573 0.0171081
461 4 0.290558 0.184899 0.0740721
836 4 0.0318742 0.233682 0.999144
422 4 0.0874922 0.22366 0.0313588
421 2 0.10344 0.205913 0.0238829
423 4 0.119387 0.188166 0.016407
737 4 0.188561 0.21943 0.0694728
506 4 0.184317 0.237925 0.0751913
505 2 0.16224 0.249651 0.0747067
736 2 0.20853 0.204836 0.073137
738 4 0.2285 0.190243 0.0768011
354 4 0.230045 0.177214 0.0914694
352 2 0.254164 0.17342 0.0860783
353 4 0.278283 0.169626 0.0806871
460 2 0.31528 0.182375 0.0768315
356 4 0.283695 0.25037 0.00576253
665 4 0.366428 0.181584 0.032063
664 2 0.346987 0.177995 0.0167552
1071 4 0.393808 0.233697 0.016003
828 4 0.486519 0.218517 0.0187566
323 4 0.49619 0.248783 0.0646185
826 2 0.462229 0.212674 0.0177355
322 2 0.472492 0.240982 0.0662701
324 4 0.448794 0.233182 0.0679216
827 4 0.437939 0.206832 0.0167143
2807 4 0.994082 0.261484 0.0204955
294 4 0.123915 0.312408 0.0490782
292 2 0.137789 0.295071 0.0605725
456 4 0.107005 0.321446 0.0436139
293 4 0.151662 0.277734 0.0720668
507 4 0.140162 0.261378 0.0742221
739 2 0.328106 0.326955 0.0642027
254 4 0.390024 0.272136 0.0745635
573 4 0.378876 0.245949 0.0143666
741 4 0.326707 0.306726 0.0495736
253 2 0.365862 0.270178 0.0806915
571 2 0.365947 0.258619 0.997118
454 2 0.105825 0.344501 0.0532208
455 4 0.104644 0.367555 0.0628276
608 4 0.264204 0.359347 0.0765236
252 4 0.282868 0.363842 0.0709714
250 2 0.29935 0.380482 0.0622166
251 4 0.315831 0.397122 0.0534618
524 4 0.322409 0.41607 0.0539712
740 4 0.329505 0.347184 0.0788317
523 2 0.336985 0.412958 0.0338953
226 2 0.390975 0.400256 0.0125664
228 4 0.371019 0.415269 0.0113324
227 4 0.410932 0.385243 0.0138003
1305 4 0.416068 0.365562 0.0163513
671 4 0.427024 0.370605 0.0747785
281 4 0.43671 0.364834 0.0591814
280 2 0.460484 0.357174 0.0603271
282 4 0.484258 0.349515 0.0614727
104 3 0.485591 0.339548 0.0795725
313 2 0.0546499 0.438354 0.0787473
552 4 0.0375526 0.447914 0.045585
314 4 0.0517806 0.453365 0.058958
550 2 0.0255848 0.466496 0.0338941
551 4 0.013617 0.485077 0.0222031
243 4 0.211062 0.462685 0.0533747
1440 4 0.215378 0.46908 0.0716087
1290 4 0.204553 0.441737 0.00814885
241 2 0.207967 0.486482 0.0463534
244 2 0.232348 0.467302 0.993876
1288 2 0.20722 0.418042 0.000625173
245 4 0.20975 0.459562 0.00126479
525 4 0.351561 0.409847 0.0138193
1583 4 0.471021 0.472299 0.0666565
16 1 0.0374795 0.0230718 0.116227
1422 4 0.00744061 0.0295168 0.143097
2480 4 0.022768 0.0458769 0.147239
18 3 0.0587197 0.0286134 0.123746
19 3 0.0217274 0.0370381 0.125985
2479 2 0.0194306 0.0705712 0.145181
17 3 0.0367224 0.0258119 0.0933996
652 2 0.243949 0.0464305 0.144685
654 4 0.246438 0.0443711 0.119891
653 4 0.24146 0.0484899 0.169479
1476 4 0.265406 0.0399868 0.120489
1474 2 0.271749 0.0206928 0.105905
557 4 0.405309 0.0526735 0.10173
297 4 0.363224 0.0112594 0.073878
556 2 0.419342 0.0726177 0.10725
2481 4 0.0160932 0.0952654 0.143123
236 4 0.158385 0.145939 0.119326
449 4 0.159959 0.125814 0.126392
450 4 0.136181 0.0844688 0.141423
448 2 0.14807 0.105141 0.133907
235 2 0.153605 0.160617 0.138995
580 2 0.301911 0.132691 0.174607
581 4 0.278823 0.141629 0.171106
558 4 0.433375 0.0925619 0.11277
771 4 0.425775 0.0902707 0.130301
769 2 0.436184 0.101225 0.150222
237 4 0.148824 0.175296 0.158663
371 4 0.190893 0.201317 0.159492
279 4 0.249028 0.233931 0.152835
277 2 0.251502 0.23596 0.128037
278 4 0.253977 0.237989 0.103239
630 4 0.397251 0.258318 0.0862332
462 4 0.340003 0.17985 0.0795908
338 4 0.0407421 0.266455 0.12391
337 2 0.044404 0.281029 0.143893
611 4 0.260945 0.257126 0.1054
609 4 0.250664 0.312494 0.0875757
612 4 0.266951 0.301868 0.083887
610 2 0.263948 0.279497 0.0946435
755 4 0.338745 0.264519 0.15354
754 2 0.335531 0.266949 0.128863
756 4 0.332316 0.269379 0.104186
628 2 0.41921 0.25666 0.0980749
255 4 0.341701 0.268219 0.0868195
624 4 0.449642 0.267582 0.123392
629 4 0.441169 0.255001 0.109917
622 2 0.445589 0.267471 0.148065
704 4 0.0311 0.350153 0.163093
621 4 0.0602913 0.411274 0.113491
619 2 0.0639225 0.391767 0.128704
620 4 0.0675537 0.372259 0.143917
647 4 0.108381 0.381879 0.14651
537 4 0.126162 0.389137 0.145496
535 2 0.141037 0.381991 0.126712
536 4 0.155912 0.374844 0.107928
607 2 0.257434 0.335921 0.0820497
670 2 0.420549 0.371509 0.0989122
386 4 0.324597 0.348617 0.0986207
385 2 0.332402 0.362862 0.117629
387 4 0.340208 0.377108 0.136637
12 3 0.395628 0.378155 0.126632
11 1 0.380797 0.390149 0.139491
15 3 0.359524 0.384742 0.133419
672 4 0.414073 0.372413 0.123046
13 3 0.384245 0.384859 0.161819
302 4 0.337368 0.394645 0.146879
14 3 0.384498 0.412797 0.136054
315 4 0.0575191 0.423343 0.0985366
1438 2 0.223681 0.459114 0.0929843
625 2 0.220679 0.444142 0.155462
1439 4 0.231983 0.449147 0.11436
638 4 0.244606 0.464341 0.142713
627 4 0.228908 0.455179 0.134589
637 2 0.254748 0.486338 0.136513
303 4 0.323536 0.441411 0.157938
301 2 0.330452 0.418028 0.152408
272 4 0.295098 0.506628 0.0922958
659 4 0.330671 0.457006 0.167789
494 4 0.360879 0.471549 0.105792
495 4 0.37585 0.428041 0.125378
493 2 0.368364 0.449795 0.115585
1584 4 0.450648 0.49235 0.107688
1582 2 0.460834 0.482325 0.0871723
1674 4 0.431606 0.497571 0.110181
674 4 0.154623 0.0409456 0.235547
690 4 0.155517 0.0360904 0.216122
689 4 0.199262 0.0210874 0.197095
688 2 0.17739 0.0285889 0.206609
693 4 0.236835 0.0634486 0.182869
1505 4 0.205114 0.00744878 0.184494
691 2 0.254481 0.0608118 0.200386
692 4 0.272127 0.0581751 0.217903
1699 2 0.311489 0.0760403 0.218451
1701 4 0.291496 0.0624887 0.211985
1700 4 0.331483 0.0895919 0.224917
21 1 0.369504 0.0847142 0.22826
25 3 0.373092 0.0825099 0.205879
22 3 0.369091 0.063859 0.237957
333 4 0.395915 0.080758 0.245851
698 4 0.387001 0.0629997 0.249076
511 2 0.00445212 0.138333 0.214004
578 4 0.0399917 0.147656 0.237238
513 4 0.0238352 0.148268 0.226282
28 3 0.237696 0.117891 0.191747
26 1 0.247246 0.138607 0.187496
29 3 0.230657 0.154693 0.185385
27 3 0.26089 0.144264 0.20513
582 4 0.324998 0.123754 0.178108
30 3 0.259644 0.137679 0.168415
23 3 0.349118 0.0951397 0.23202
758 4 0.341715 0.130049 0.17023
759 4 0.364588 0.0907869 0.19111
24 3 0.386624 0.0971043 0.23784
757 2 0.353152 0.110418 0.18067
331 2 0.41831 0.0886722 0.253662
770 4 0.446593 0.11218 0.170142
312 4 0.438545 0.129086 0.178619
311 4 0.470504 0.133291 0.21685
310 2 0.454524 0.131189 0.197734
521 4 0.483293 0.145774 0.225162
577 2 0.03916 0.172218 0.241846
529 2 0.00297363 0.221277 0.230887
530 4 0.0217852 0.206705 0.238566
372 4 0.148208 0.218653 0.178937
362 4 0.152087 0.233442 0.190897
370 2 0.169551 0.209985 0.169214
476 4 0.20365 0.20234 0.175558
477 4 0.241944 0.171299 0.18397
475 2 0.222797 0.186819 0.179764
283 2 0.274814 0.242679 0.185614
284 4 0.294426 0.248423 0.200021
395 4 0.061361 0.285651 0.173715
339 4 0.048066 0.295604 0.163877
396 4 0.0809433 0.302104 0.216687
443 4 0.0633144 0.297601 0.22638
394 2 0.0711522 0.293878 0.195201
442 2 0.0477246 0.294228 0.245635
2615 4 0.995723 0.321429 0.204749
361 2 0.137132 0.251219 0.181651
363 4 0.122177 0.268996 0.172404
285 4 0.255203 0.236934 0.171207
623 4 0.441536 0.26736 0.172737
527 4 0.429843 0.277503 0.184775
526 2 0.420069 0.28992 0.204152
528 4 0.410295 0.302337 0.223528
542 4 0.41913 0.314099 0.236808
705 4 0.00315422 0.316409 0.1872
703 2 0.0171271 0.333281 0.175146
646 2 0.103013 0.369517 0.167571
299 4 0.0910456 0.3435 0.238094
648 4 0.0976447 0.357156 0.188632
300 4 0.109964 0.340462 0.191903
298 2 0.100505 0.341981 0.214998
289 2 0.216831 0.398013 0.252737
290 4 0.199968 0.406087 0.236136
597 4 0.39263 0.367843 0.175406
596 4 0.349015 0.350716 0.192876
595 2 0.370822 0.359279 0.184141
645 4 0.403926 0.387219 0.172249
643 2 0.415006 0.402747 0.188414
447 4 0.416542 0.412546 0.220844
264 4 0.0402231 0.432981 0.246022
1429 2 0.16853 0.484189 0.169163
626 4 0.212451 0.433106 0.176334
1430 4 0.171848 0.465837 0.185818
417 4 0.184421 0.448237 0.186152
416 4 0.205379 0.419528 0.221327
415 2 0.1949 0.433882 0.20374
658 2 0.347405 0.468306 0.182535
660 4 0.364139 0.479606 0.197281
231 4 0.351366 0.493759 0.20461
644 4 0.426087 0.418275 0.204578
445 2 0.42792 0.423447 0.240258
233 4 0.0235527 0.017543 0.275811
232 2 0.0301217 0.0401505 0.284233
234 4 0.0366908 0.062758 0.292654
317 4 0.038361 0.0785651 0.278947
316 2 0.0569526 0.0839321 0.263113
428 4 0.0338042 0.0246502 0.33052
673 2 0.151091 0.0535846 0.25683
675 4 0.147559 0.0662236 0.278113
1406 4 0.195336 0.0254252 0.303441
1518 4 0.403277 0.0201573 0.290163
697 2 0.391276 0.0411122 0.260382
699 4 0.395552 0.0192246 0.271688
742 2 0.502709 0.0291611 0.260622
425 4 0.434847 0.0485798 0.289571
351 4 0.489941 0.0644444 0.255299
349 2 0.473769 0.0834755 0.254096
424 2 0.451246 0.053582 0.30777
258 4 0.471581 0.0776944 0.322736
426 4 0.467646 0.0585841 0.325969
318 4 0.0755441 0.0892992 0.247279
391 2 0.133208 0.158019 0.307651
392 4 0.145455 0.155436 0.286006
393 4 0.12096 0.160603 0.329296
544 2 0.162698 0.160259 0.261105
546 4 0.170074 0.148583 0.240262
723 4 0.234964 0.0896342 0.27034
722 4 0.186075 0.0856531 0.280073
721 2 0.21052 0.0876437 0.275206
599 4 0.236996 0.121812 0.317813
404 4 0.220203 0.133173 0.315065
403 2 0.220447 0.150241 0.296795
350 4 0.457597 0.102507 0.252893
256 2 0.474893 0.102478 0.322785
332 4 0.440705 0.0965864 0.261473
761 4 0.465661 0.138413 0.311778
760 2 0.446533 0.151459 0.321218
257 4 0.478206 0.127261 0.322833
579 4 0.0383283 0.196779 0.246453
545 4 0.155322 0.171934 0.281948
405 4 0.22069 0.167309 0.278524
401 4 0.224876 0.184835 0.269368
400 2 0.221236 0.209214 0.265176
402 4 0.217596 0.233594 0.260984
762 4 0.427405 0.164504 0.330657
765 4 0.434033 0.208084 0.306706
763 2 0.445985 0.20753 0.328661
444 4 0.0321348 0.290854 0.26489
366 4 0.0605367 0.343161 0.305202
734 4 0.155846 0.330926 0.288817
345 4 0.291458 0.308119 0.255223
343 2 0.306 0.327946 0.25976
309 4 0.325886 0.337097 0.281357
496 2 0.352735 0.277175 0.334358
497 4 0.371252 0.292655 0.327829
613 2 0.414789 0.337249 0.308859
541 2 0.429794 0.314746 0.259413
543 4 0.440459 0.315393 0.282019
615 4 0.431908 0.330443 0.291953
262 2 0.037304 0.413798 0.261791
263 4 0.034385 0.394615 0.27756
365 4 0.0151034 0.363335 0.310638
749 4 0.0789523 0.336661 0.303357
364 2 0.03782 0.353248 0.30792
748 2 0.0869745 0.335795 0.279692
750 4 0.0949968 0.334928 0.256026
602 4 0.113235 0.385043 0.303587
777 4 0.125126 0.401946 0.301609
735 4 0.145936 0.379279 0.296846
601 2 0.10557 0.378085 0.326347
677 4 0.162858 0.384739 0.303636
733 2 0.150891 0.355102 0.292831
676 2 0.18167 0.4004 0.298534
291 4 0.233695 0.389938 0.269339
412 2 0.249485 0.410123 0.298015
414 4 0.237453 0.390363 0.288532
678 4 0.200482 0.416061 0.293432
375 4 0.201156 0.395503 0.344951
344 4 0.320543 0.347773 0.264297
728 4 0.334742 0.413325 0.332563
2 3 0.315142 0.409332 0.323268
1 1 0.29347 0.412257 0.330406
614 4 0.397671 0.344055 0.325766
307 2 0.343089 0.344084 0.298103
727 2 0.344195 0.390678 0.327778
729 4 0.353648 0.36803 0.322993
308 4 0.360291 0.351071 0.314849
2924 4 0.482953 0.387796 0.307692
2537 4 0.504056 0.378174 0.311097
1757 4 0.114664 0.462355 0.280592
776 4 0.129269 0.450501 0.290385
775 2 0.127198 0.426223 0.295997
1756 2 0.108722 0.486586 0.282243
768 4 0.203736 0.459105 0.27717
766 2 0.204501 0.483531 0.271881
413 4 0.261518 0.429883 0.307498
438 4 0.294499 0.450905 0.251053
1435 2 0.25908 0.458614 0.331234
437 4 0.271409 0.441106 0.294314
436 2 0.282954 0.446005 0.272684
1437 4 0.270613 0.436774 0.32734
5 3 0.280907 0.420237 0.313169
434 4 0.325196 0.429689 0.318656
433 2 0.329126 0.450925 0.306056
435 4 0.333056 0.472161 0.293456
446 4 0.439298 0.434347 0.259672
714 4 0.437868 0.442307 0.278178
2862 4 0.495708 0.437555 0.272569
713 4 0.485574 0.441395 0.293144
712 2 0.461721 0.441851 0.285661
119 3 0.494888 0.43477 0.328438
2757 4 0.0158714 0.0624228 0.41685
427 2 0.0530251 0.0157269 0.343791
429 4 0.072246 0.00680371 0.357061
605 4 0.138642 0.0745219 0.365828
730 2 0.109964 0.0764566 0.391295
604 2 0.15401 0.0625179 0.350178
731 4 0.0983916 0.0692586 0.412257
606 4 0.169378 0.050514 0.334529
319 2 0.244818 0.0574132 0.413044
684 4 0.270982 0.0455947 0.335722
683 4 0.261752 0.0566617 0.383608
682 2 0.266367 0.0511282 0.359665
321 4 0.262522 0.0459288 0.399633
249 4 0.31863 0.0572788 0.342252
247 2 0.342683 0.0618803 0.347297
248 4 0.366736 0.0664818 0.352341
633 4 0.379206 0.0726151 0.368142
1749 4 0.49047 0.0105916 0.330689
480 4 0.501813 0.0189013 0.345172
732 4 0.121537 0.0836545 0.370332
399 4 0.124119 0.147327 0.343985
398 4 0.101686 0.142702 0.388438
397 2 0.112903 0.145015 0.366212
598 2 0.227288 0.110851 0.338081
686 4 0.224568 0.133712 0.415645
600 4 0.217581 0.0998905 0.358349
685 2 0.224349 0.119003 0.395427
687 4 0.22413 0.104294 0.375209
631 2 0.379323 0.0921446 0.383755
632 4 0.37944 0.111674 0.399368
420 4 0.364694 0.121368 0.409767
418 2 0.364443 0.143552 0.398235
2654 4 0.998375 0.24494 0.41798
470 4 0.0755039 0.209096 0.403385
617 4 0.0655786 0.247603 0.412667
616 2 0.0406734 0.246221 0.410935
618 4 0.0157682 0.244839 0.409203
390 4 0.0827679 0.210443 0.383544
388 2 0.0943978 0.232539 0.382234
389 4 0.106028 0.254634 0.380923
473 4 0.204831 0.193409 0.345157
474 4 0.172387 0.231138 0.350125
472 2 0.188609 0.212273 0.347641
708 4 0.224905 0.195207 0.343114
706 2 0.249616 0.191464 0.342374
651 4 0.229734 0.23797 0.410133
649 2 0.226983 0.213766 0.415769
489 4 0.237766 0.239159 0.391864
707 4 0.274326 0.187722 0.341634
419 4 0.364191 0.165736 0.386703
377 4 0.332964 0.234369 0.394208
717 4 0.3516 0.229487 0.390829
716 4 0.371278 0.184256 0.3826
715 2 0.361439 0.206872 0.386715
764 4 0.457938 0.206977 0.350616
515 4 0.452771 0.178745 0.39885
268 2 0.490348 0.23283 0.360085
270 4 0.474111 0.247448 0.372245
514 2 0.450539 0.173628 0.423222
276 4 0.119491 0.262493 0.367381
274 2 0.142592 0.252996 0.366248
696 4 0.146311 0.323413 0.410321
275 4 0.165694 0.243498 0.365114
510 4 0.22211 0.337362 0.359812
487 2 0.23928 0.263825 0.395675
488 4 0.240793 0.28849 0.399486
508 2 0.223548 0.317859 0.375393
509 4 0.224986 0.298356 0.390973
378 4 0.320311 0.261755 0.354325
376 2 0.326638 0.248062 0.374267
498 4 0.334217 0.261694 0.340886
265 2 0.334258 0.31348 0.377443
266 4 0.355796 0.301462 0.381545
585 4 0.35369 0.287702 0.396543
583 2 0.373587 0.272599 0.397635
2456 4 0.409535 0.247443 0.408184
584 4 0.393484 0.257497 0.398727
304 2 0.484799 0.2689 0.407226
306 4 0.472792 0.253632 0.391481
547 2 0.0874934 0.397718 0.379365
549 4 0.0877392 0.375816 0.367306
603 4 0.0979051 0.371127 0.349106
374 4 0.210638 0.346443 0.346948
373 2 0.205897 0.370973 0.34595
504 4 0.21703 0.398828 0.356946
267 4 0.312719 0.325498 0.373341
3 3 0.285091 0.391819 0.337512
2923 2 0.469581 0.379146 0.326968
2925 4 0.456208 0.370495 0.346243
679 2 0.0151212 0.4907 0.399618
680 4 0.0161036 0.465898 0.3966
548 4 0.0872476 0.41962 0.391424
407 4 0.0806241 0.43914 0.400742
406 2 0.0572824 0.447854 0.398643
408 4 0.0339407 0.456568 0.396543
569 4 0.0891788 0.457732 0.405695
568 2 0.112271 0.455924 0.415111
502 2 0.21128 0.422792 0.361172
503 4 0.20553 0.446755 0.365398
1543 2 0.221069 0.500446 0.342816
636 4 0.195082 0.454512 0.38095
634 2 0.176657 0.46006 0.396917
1545 4 0.245539 0.50046 0.337676
1436 4 0.247546 0.480454 0.335128
1401 4 0.3293 0.461126 0.409126
668 4 0.287522 0.445576 0.354979
4 3 0.293341 0.427411 0.347977
667 2 0.302577 0.450188 0.374402
669 4 0.317632 0.454799 0.393826
336 4 0.323126 0.448625 0.424143
561 4 0.48845 0.425873 0.413078
593 4 0.478082 0.475704 0.363013
752 4 0.489253 0.428602 0.392653
753 4 0.481498 0.432589 0.343412
751 2 0.485375 0.430595 0.368033
718 2 0.0251479 0.054838 0.469776
719 4 0.0468832 0.0447958 0.462571
369 4 0.0655709 0.0523791 0.457063
367 2 0.0783297 0.067209 0.441492
720 4 0.0034126 0.0648802 0.47698
441 4 0.186101 0.00878372 0.447932
2430 4 0.207579 0.0701106 0.432493
2428 2 0.19522 0.0490685 0.43794
2429 4 0.182861 0.0280264 0.443386
320 4 0.227114 0.0688977 0.426455
725 4 0.240085 0.0721845 0.442124
430 2 0.311649 0.0858174 0.492075
432 4 0.28829 0.0865701 0.483188
431 4 0.335007 0.0850647 0.500962
841 2 0.367364 0.0669348 0.50103
843 4 0.342392 0.0668035 0.50228
2879 4 0.428637 0.0240755 0.430483
2878 2 0.445538 0.0285926 0.448346
2880 4 0.46244 0.0331097 0.46621
642 4 0.470021 0.0465354 0.478857
640 2 0.485382 0.064424 0.470536
368 4 0.0910885 0.082039 0.425921
341 4 0.201898 0.0862644 0.44253
410 4 0.232639 0.138941 0.432594
409 2 0.23411 0.163776 0.435095
340 2 0.200922 0.103893 0.460235
1152 4 0.209834 0.126751 0.493989
342 4 0.199946 0.121522 0.477939
724 2 0.253789 0.0802868 0.461405
726 4 0.267493 0.0883892 0.480685
468 4 0.386495 0.0979512 0.413154
467 4 0.395579 0.0775562 0.4579
466 2 0.391037 0.0877537 0.435527
576 4 0.412131 0.124713 0.473687
574 2 0.427624 0.144032 0.470231
575 4 0.443116 0.163351 0.466776
516 4 0.448306 0.16851 0.447594
469 2 0.0724233 0.194736 0.423621
260 4 0.0694794 0.166594 0.458683
471 4 0.0693427 0.180376 0.443857
259 2 0.08036 0.169762 0.480971
650 4 0.224231 0.189562 0.421404
411 4 0.235581 0.18861 0.437596
695 4 0.112484 0.317557 0.446683
694 2 0.129398 0.320485 0.428502
1260 4 0.163176 0.331527 0.419383
1258 2 0.187574 0.32619 0.420576
1259 4 0.211972 0.320854 0.421769
305 4 0.496806 0.284168 0.422971
2455 2 0.420949 0.257335 0.42811
2457 4 0.432364 0.267227 0.448035
326 4 0.0872747 0.401207 0.446413
325 2 0.0945917 0.37901 0.455296
10 3 0.154261 0.351196 0.465113
7 3 0.11968 0.36172 0.474405
327 4 0.101909 0.356812 0.464179
6 1 0.142062 0.364708 0.478797
8 3 0.147562 0.386919 0.474944
711 4 0.150564 0.403691 0.466201
335 4 0.353541 0.410592 0.435509
238 2 0.353357 0.406571 0.480383
240 4 0.351834 0.410858 0.455796
239 4 0.35488 0.402284 0.504969
560 4 0.491098 0.380297 0.433488
2508 4 0.485369 0.371643 0.450844
559 2 0.489774 0.403085 0.423283
1382 4 0.0111664 0.455471 0.472282
1381 2 0.00353635 0.455687 0.448473
540 4 0.0295097 0.463232 0.475081
772 2 0.15786 0.475017 0.446856
384 4 0.134745 0.480298 0.479124
773 4 0.148631 0.470124 0.469573
710 4 0.131204 0.440046 0.437842
709 2 0.140884 0.421869 0.452021
570 4 0.135364 0.454117 0.424526
382 2 0.146026 0.480719 0.501434
635 4 0.158232 0.465608 0.412883
774 4 0.16709 0.47991 0.424139
1400 4 0.322679 0.504154 0.433732
1399 2 0.325989 0.48264 0.421429
586 2 0.344528 0.497149 0.471607
334 2 0.338333 0.429608 0.429826
587 4 0.36189 0.4955 0.489524
588 4 0.327167 0.498798 0.45369
1030 2 0.156168 0.079349 0.572493
1032 4 0.137352 0.0827955 0.588595
951 4 0.193996 0.0747355 0.555641
1031 4 0.174984 0.0759024 0.556392
949 2 0.216101 0.0641708 0.550649
950 4 0.238207 0.0536062 0.545657
1182 4 0.243241 0.0571125 0.525494
961 2 0.313044 0.0289335 0.556028
1180 2 0.266836 0.0489867 0.523932
963 4 0.298888 0.0423846 0.540412
1181 4 0.290431 0.0408609 0.522371
962 4 0.3272 0.0154824 0.571644
842 4 0.392336 0.067066 0.499779
1217 4 0.402209 0.076576 0.514607
939 4 0.167432 0.161979 0.528767
937 2 0.14323 0.163831 0.522768
938 4 0.119027 0.165684 0.516769
1151 4 0.18779 0.160334 0.523771
1150 2 0.198812 0.143542 0.50888
898 2 0.358187 0.158678 0.579817
1216 2 0.415598 0.0874844 0.532688
1218 4 0.428987 0.0983928 0.550769
1035 4 0.0902689 0.180647 0.569542
1082 4 0.0724081 0.179342 0.575661
1081 2 0.0506556 0.169925 0.583619
1033 2 0.0943993 0.174617 0.545631
1034 4 0.0985296 0.168587 0.521719
1272 4 0.119789 0.229874 0.569229
879 4 0.101222 0.222744 0.568458
261 4 0.0912406 0.172929 0.503259
811 2 0.32018 0.230286 0.554569
812 4 0.300137 0.230554 0.569516
796 2 0.286386 0.197902 0.579915
798 4 0.284619 0.217775 0.564844
813 4 0.340222 0.230017 0.539622
900 4 0.378543 0.169931 0.570641
872 4 0.385631 0.186571 0.561399
873 4 0.358871 0.226255 0.546914
871 2 0.372251 0.206413 0.554156
877 2 0.0929776 0.245091 0.560854
878 4 0.0847326 0.267438 0.55325
1189 2 0.233524 0.337715 0.524181
1191 4 0.209387 0.33335 0.529033
1190 4 0.25766 0.34208 0.519328
1205 4 0.396983 0.304091 0.557001
1204 2 0.382972 0.318556 0.571822
954 4 0.40884 0.291559 0.566946
952 2 0.429927 0.282237 0.576621
953 4 0.451015 0.272916 0.586296
1137 4 0.173363 0.374867 0.553146
9 3 0.146144 0.35927 0.500982
1135 2 0.166468 0.391141 0.570832
896 4 0.201242 0.346874 0.516203
897 4 0.161728 0.36076 0.543526
895 2 0.181485 0.353817 0.529864
803 4 0.273814 0.332497 0.511037
802 2 0.290367 0.346977 0.522935
804 4 0.306919 0.361456 0.534832
929 4 0.324306 0.364043 0.54469
928 2 0.337725 0.351118 0.561365
930 4 0.351144 0.338194 0.57804
1001 4 0.462823 0.407421 0.554469
926 4 0.468567 0.405668 0.535013
925 2 0.487319 0.392072 0.525594
539 4 0.0290683 0.467939 0.524864
936 4 0.018062 0.492589 0.530678
1938 4 0.0353711 0.494528 0.542239
538 2 0.029289 0.465585 0.499973
383 4 0.157306 0.48114 0.523744
2242 2 0.1648 0.494126 0.554549
2243 4 0.171736 0.48821 0.577831
1172 4 0.265054 0.451598 0.560101
882 4 0.281096 0.459182 0.548661
880 2 0.278907 0.476985 0.531241
1000 2 0.443755 0.410996 0.570244
1185 4 0.0206402 0.0835521 0.649496
945 4 0.0318884 0.0746648 0.665169
825 4 0.0480973 0.00738567 0.637997
1058 4 0.0549317 0.0163752 0.620366
1057 2 0.0754938 0.0278949 0.612019
1059 4 0.096056 0.0394147 0.603672
1155 4 0.0875546 0.056839 0.600744
1153 2 0.0968029 0.0793698 0.606402
1003 2 0.302785 0.0733269 0.638183
1004 4 0.321766 0.0636304 0.625111
1005 4 0.283805 0.0830235 0.651256
2282 4 0.449806 0.0362877 0.632955
2281 2 0.447935 0.0214014 0.612953
43 3 0.463797 0.0405298 0.645039
41 1 0.478507 0.0556007 0.65478
44 3 0.471163 0.0773102 0.651151
45 3 0.499351 0.0528821 0.646018
2283 4 0.446065 0.00651508 0.592951
1199 4 0.0197352 0.143359 0.595995
1083 4 0.028903 0.160507 0.591576
1198 2 0.997329 0.137509 0.586565
1154 4 0.106051 0.101901 0.61206
1221 4 0.116008 0.0983215 0.629338
1219 2 0.135934 0.107879 0.641034
1220 4 0.15586 0.117437 0.652729
1212 4 0.236202 0.133619 0.633294
1210 2 0.251646 0.142074 0.651047
856 2 0.30558 0.145803 0.58886
857 4 0.325942 0.133557 0.581074
1211 4 0.26709 0.15053 0.6688
858 4 0.285219 0.158048 0.596647
899 4 0.337831 0.147425 0.588992
1270 2 0.135995 0.217425 0.583636
1271 4 0.152201 0.204975 0.598043
909 4 0.16842 0.194444 0.604432
907 2 0.169298 0.203473 0.627732
908 4 0.170177 0.212502 0.651032
947 4 0.173134 0.232509 0.653104
797 4 0.288152 0.178029 0.594985
1025 4 0.360828 0.189661 0.648049
1024 2 0.367245 0.213558 0.644454
1143 4 0.355157 0.180815 0.663661
1026 4 0.373663 0.237455 0.640858
906 4 0.464625 0.229461 0.616723
3357 4 0.485896 0.21895 0.665308
1239 4 0.260849 0.297144 0.578787
1237 2 0.277664 0.293101 0.596844
792 4 0.312004 0.298241 0.612977
790 2 0.312417 0.310948 0.634507
1238 4 0.29448 0.289058 0.614902
1206 4 0.368961 0.333021 0.586642
904 2 0.463973 0.253531 0.609986
905 4 0.463321 0.277602 0.60325
983 4 0.0338275 0.391109 0.624488
1041 4 0.0541375 0.396107 0.629263
1039 2 0.0743634 0.410084 0.633817
982 2 0.00890429 0.392581 0.625847
893 4 0.0958022 0.344642 0.635826
992 4 0.147085 0.418448 0.600609
892 2 0.0943616 0.357218 0.657389
1136 4 0.159573 0.407415 0.588518
1028 4 0.226965 0.394118 0.659165
1068 4 0.215594 0.399455 0.675448
791 4 0.31283 0.323655 0.656037
2129 4 0.992265 0.482494 0.638509
1040 4 0.0945894 0.424061 0.638371
993 4 0.115245 0.421421 0.639054
991 2 0.131165 0.419935 0.619831
1161 4 0.184729 0.488127 0.59357
1160 4 0.233198 0.482984 0.604752
1159 2 0.208964 0.485556 0.599161
1175 4 0.243725 0.496245 0.614534
1173 4 0.245336 0.466864 0.603447
1171 2 0.255195 0.459231 0.581774
1174 2 0.264918 0.499443 0.627411
889 2 0.346523 0.498789 0.642805
891 4 0.35753 0.503232 0.620799
890 4 0.335516 0.494346 0.664812
1002 4 0.424688 0.414571 0.586018
1911 4 0.421018 0.453878 0.641018
1910 4 0.422571 0.419598 0.604643
1909 2 0.421794 0.436738 0.622831
1268 4 0.414823 0.471372 0.647654
1267 2 0.422117 0.49486 0.652161
3329 4 0.512441 0.436993 0.61204
943 2 0.0387495 0.0804535 0.688506
944 4 0.0456106 0.0862421 0.711842
1075 2 0.0602886 0.0539905 0.735572
1076 4 0.0577825 0.0760371 0.724046
1077 4 0.0627947 0.0319438 0.747098
831 4 0.340208 0.0923378 0.729533
42 3 0.479242 0.0516884 0.677436
1163 4 0.483005 0.0624967 0.694343
1283 4 0.149957 0.113433 0.670926
1282 2 0.160352 0.114023 0.693659
1284 4 0.170747 0.114613 0.716391
1227 4 0.179517 0.120483 0.734075
1225 2 0.200854 0.126134 0.745821
888 4 0.274601 0.16023 0.68388
886 2 0.29424 0.145384 0.688248
887 4 0.313879 0.130537 0.692617
829 2 0.323854 0.102121 0.713347
830 4 0.307499 0.111904 0.697161
1107 4 0.0278936 0.193639 0.731935
851 4 0.0087921 0.196397 0.73738
1208 4 0.0779761 0.228815 0.679414
822 4 0.139355 0.212514 0.694434
1278 4 0.150264 0.22807 0.698622
820 2 0.117309 0.21611 0.683197
821 4 0.0952644 0.219706 0.671961
1276 2 0.157948 0.226865 0.722385
946 2 0.187338 0.247596 0.667097
1277 4 0.165632 0.225661 0.746149
1131 4 0.177136 0.210616 0.73922
916 2 0.307478 0.203829 0.729612
918 4 0.306076 0.17901 0.732309
917 4 0.308879 0.228647 0.726916
1008 4 0.328602 0.232691 0.733827
1097 4 0.294747 0.240689 0.717601
977 4 0.312734 0.170187 0.74926
1142 4 0.35028 0.15024 0.702931
1141 2 0.352719 0.165527 0.683296
1194 4 0.415407 0.25959 0.733648
1006 2 0.347608 0.236652 0.749584
1262 4 0.428515 0.243923 0.735636
3122 4 0.479763 0.223497 0.683123
3123 4 0.430379 0.221481 0.675512
3121 2 0.455071 0.222489 0.679317
1261 2 0.436804 0.220345 0.734911
1263 4 0.445094 0.196767 0.734186
1145 4 0.457906 0.185519 0.743645
1244 4 0.0142691 0.322333 0.71434
1243 2 0.996192 0.307689 0.723503
1209 4 0.0652258 0.277152 0.680716
1207 2 0.071601 0.252984 0.680065
948 4 0.201542 0.262683 0.681091
1065 4 0.208259 0.279058 0.669939
1064 4 0.209351 0.328703 0.675842
1063 2 0.208805 0.303881 0.67289
1241 4 0.263018 0.277479 0.73868
1240 2 0.243189 0.292033 0.743172
1096 2 0.280112 0.251871 0.734511
1098 4 0.265478 0.263052 0.751422
1192 2 0.410273 0.279603 0.74773
1193 4 0.405138 0.299616 0.761811
1281 4 0.0789184 0.381064 0.689368
1279 2 0.0789018 0.396271 0.709216
1280 4 0.0788851 0.411478 0.729063
3275 4 0.0626613 0.404945 0.738745
894 4 0.092921 0.369794 0.678951
940 2 0.158641 0.408702 0.72956
941 4 0.166843 0.396844 0.709133
1067 4 0.185232 0.398332 0.715167
1027 2 0.250239 0.393597 0.668286
1066 2 0.200413 0.398894 0.695308
1029 4 0.273514 0.393077 0.677407
1139 4 0.267608 0.410773 0.68598
1230 4 0.377815 0.40863 0.723891
1228 2 0.363604 0.409264 0.703329
1229 4 0.349393 0.409898 0.682766
1983 4 0.0328431 0.490616 0.712225
1981 2 0.0189883 0.492706 0.732934
816 4 0.088189 0.41077 0.746728
2016 4 0.187149 0.483016 0.763735
1138 2 0.278477 0.422389 0.70527
1140 4 0.289347 0.434004 0.72456
1989 4 0.306962 0.441683 0.723255
1987 2 0.308184 0.461491 0.738464
1988 4 0.309406 0.4813 0.753673
1100 4 0.448464 0.468196 0.732652
1099 2 0.457855 0.487603 0.719989
1203 4 0.0662255 0.0289556 0.766446
864 4 0.0386853 0.071558 0.844327
1201 2 0.0888269 0.0260784 0.776745
2049 4 0.126573 0.0149928 0.773461
1202 4 0.111428 0.0232013 0.787045
1148 4 0.180156 0.0659993 0.759107
1147 2 0.200016 0.0517924 0.764488
1149 4 0.219875 0.0375856 0.76987
1049 4 0.232944 0.0512776 0.77595
1048 2 0.251205 0.0538808 0.792829
1050 4 0.269467 0.0564839 0.809709
817 2 0.371264 0.0874535 0.803988
818 4 0.37901 0.0758831 0.824756
846 4 0.48437 0.0258922 0.765739
1113 4 0.464815 0.019647 0.769479
3387 4 0.0112104 0.150808 0.765089
832 2 0.0345211 0.130279 0.782481
863 4 0.0168905 0.0993439 0.80892
833 4 0.0200412 0.113416 0.793933
33 3 0.0657758 0.139188 0.780298
834 4 0.049001 0.147142 0.771028
862 2 0.0277879 0.085451 0.826623
1106 4 0.0562868 0.16147 0.75762
35 3 0.0760486 0.162523 0.752593
31 1 0.0834312 0.146772 0.767292
32 3 0.0922143 0.129019 0.755595
1226 4 0.222192 0.131784 0.757567
840 4 0.227063 0.121216 0.77259
838 2 0.235635 0.125825 0.795622
839 4 0.244207 0.130435 0.818653
978 4 0.315859 0.120645 0.755301
976 2 0.314297 0.145416 0.75228
960 4 0.292307 0.12156 0.846361
819 4 0.363517 0.0990239 0.78322
1084 2 0.36219 0.139791 0.782792
1085 4 0.354746 0.116117 0.779739
1086 4 0.369634 0.163465 0.785846
1299 4 0.373905 0.177891 0.771002
3268 2 0.479469 0.154112 0.815153
3270 4 0.464909 0.144794 0.797088
1146 4 0.469146 0.161317 0.785938
1105 2 0.0420902 0.177554 0.744778
778 2 0.0621901 0.219198 0.821918
779 4 0.0424541 0.219641 0.806573
780 4 0.0819262 0.218755 0.837263
1214 4 0.0283041 0.227132 0.793332
1213 2 0.00820933 0.241414 0.797505
34 3 0.0999819 0.155742 0.780857
1073 4 0.119471 0.157028 0.777754
1072 2 0.139124 0.169498 0.768618
1074 4 0.158776 0.181969 0.759483
869 4 0.0996899 0.215768 0.82683
1130 4 0.196424 0.182641 0.775909
1129 2 0.18678 0.196628 0.757565
1297 2 0.385662 0.19143 0.788428
1298 4 0.397418 0.204969 0.805854
47 3 0.396508 0.206948 0.824935
49 3 0.405 0.243208 0.830012
1007 4 0.366614 0.240613 0.76534
1044 4 0.35877 0.238335 0.783811
1144 2 0.463526 0.173418 0.764792
1242 4 0.223359 0.306586 0.747665
1043 4 0.393008 0.256622 0.81534
1042 2 0.375889 0.247478 0.799575
805 2 0.399165 0.328751 0.771387
806 4 0.418321 0.312751 0.769882