ITEM: TIMESTEP
2310000
ITEM: NUMBER OF ATOMS
4590
ITEM: BOX BOUNDS pp pp pp
-9.9985700000000008e+00 9.9985700000000008e+00
-9.9985700000000008e+00 9.9985700000000008e+00
-9.9985700000000008e+00 9.9985700000000008e+00
ITEM: ATOMS id type xs ys zs
463 2 0.0554961 0.0533439 0.0154807
3290 4 0.0719113 0.0153372 0.0218754
464 4 0.0629896 0.0296959 0.0123506
465 4 0.0480027 0.076992 0.0186107
1667 4 0.0461979 0.00492229 0.0818349
567 4 0.154909 0.0800821 0.060184
3289 2 0.0897727 0.00981936 0.00527104
565 2 0.162188 0.0564488 0.0564876
566 4 0.169467 0.0328154 0.0527912
490 2 0.29868 0.00765109 0.0528345
491 4 0.306293 0.999273 0.0305402
986 4 0.314291 0.0267904 0.0224042
2264 4 0.302465 0.0370711 0.0104977
557 4 0.404226 0.0630957 0.0948769
296 4 0.39065 0.0499934 0.0891635
745 2 0.455085 0.0575641 0.0555925
747 4 0.4726 0.0502689 0.0718775
746 4 0.437571 0.0648592 0.0393075
2724 4 0.489603 0.0612638 0.0771403
1826 4 0.501163 0.0451915 0.0755586
701 4 0.0441937 0.090343 0.00483063
700 2 0.044865 0.115248 0.00271667
555 4 0.0316224 0.154032 0.00290771
359 4 0.235527 0.14859 0.0251892
358 2 0.213444 0.158576 0.0190395
828 4 0.46999 0.173815 0.0175455
836 4 0.0412489 0.253943 0.0141319
422 4 0.0974902 0.212506 0.0534404
421 2 0.103074 0.198656 0.0333863
423 4 0.108657 0.184805 0.0133322
360 4 0.191362 0.168563 0.0128899
737 4 0.176972 0.202659 0.0790809
506 4 0.184575 0.221573 0.0847237
505 2 0.172592 0.239059 0.0714627
666 4 0.326598 0.199396 0.000507443
665 4 0.359193 0.178859 0.0323903
664 2 0.342896 0.189127 0.0164489
1071 4 0.405263 0.251955 0.00337371
323 4 0.485812 0.24554 0.0406038
322 2 0.466262 0.251613 0.0549605
324 4 0.446713 0.257687 0.0693173
2807 4 0.0063134 0.257151 0.0255408
294 4 0.134967 0.314652 0.0525385
292 2 0.14324 0.292537 0.0607641
456 4 0.114699 0.314747 0.0570422
293 4 0.151514 0.270422 0.0689897
507 4 0.160609 0.256544 0.0582016
483 4 0.293063 0.27634 0.00387801
739 2 0.347059 0.328483 0.0778427
254 4 0.384044 0.269908 0.0650707
573 4 0.387552 0.262007 0.00710043
741 4 0.356129 0.322181 0.0554103
630 4 0.400746 0.261441 0.0758178
253 2 0.362695 0.264038 0.0766862
454 2 0.102227 0.335917 0.0524142
455 4 0.089755 0.357088 0.0477862
608 4 0.265553 0.368485 0.0759703
252 4 0.279831 0.377493 0.0653384
250 2 0.29603 0.381822 0.0467903
251 4 0.31223 0.386151 0.0282423
524 4 0.319151 0.401728 0.0178608
523 2 0.340887 0.407593 0.0287373
226 2 0.39255 0.395279 0.0148755
228 4 0.37125 0.405482 0.0230842
525 4 0.362624 0.413458 0.0396139
670 2 0.404637 0.372284 0.0753616
671 4 0.420624 0.375241 0.0563657
281 4 0.438081 0.372836 0.0472566
280 2 0.460704 0.362903 0.0510898
282 4 0.483328 0.352969 0.054923
104 3 0.487078 0.348446 0.0737491
1047 4 0.499609 0.355322 0.0422
1045 2 0.504285 0.3504 0.0181359
313 2 0.0550043 0.417305 0.0675231
552 4 0.0365771 0.452308 0.0575513
314 4 0.0543512 0.441603 0.0616592
550 2 0.0163143 0.463602 0.0482218
551 4 0.996052 0.474896 0.0388924
1224 4 0.159715 0.461964 0.990993
243 4 0.218673 0.467652 0.0506929
1440 4 0.217585 0.47543 0.0696164
1290 4 0.228982 0.436031 0.0103064
1583 4 0.471382 0.467732 0.0799724
16 1 0.0455371 0.00333767 0.122944
1422 4 0.0248499 0.026358 0.150101
2480 4 0.0236253 0.0384129 0.133369
18 3 0.064779 0.0150262 0.128559
19 3 0.0267799 0.0156646 0.128828
2479 2 0.00997199 0.0574064 0.124537
1420 2 0.00864335 0.0159918 0.166072
17 3 0.0453178 0.999859 0.100206
652 2 0.237123 0.0423589 0.152919
654 4 0.245294 0.0296462 0.132999
1476 4 0.242344 0.0166963 0.117508
492 4 0.291068 0.0160292 0.0751288
1474 2 0.258881 0.0110998 0.0996089
485 4 0.346206 0.99993 0.0976128
297 4 0.36003 0.0105169 0.0869932
295 2 0.37534 0.0302552 0.0880783
556 2 0.420744 0.0817424 0.0970294
236 4 0.135632 0.151328 0.122229
449 4 0.137419 0.139431 0.138841
450 4 0.147316 0.0911764 0.130223
448 2 0.142368 0.115304 0.134532
582 4 0.320666 0.120113 0.170265
558 4 0.437262 0.100389 0.0991819
771 4 0.436401 0.099898 0.121816
769 2 0.434635 0.103328 0.14652
770 4 0.432869 0.106758 0.171224
338 4 0.0332376 0.243324 0.138699
235 2 0.142492 0.171187 0.135784
237 4 0.149351 0.191046 0.14934
361 2 0.11749 0.250928 0.169763
372 4 0.143582 0.217741 0.171173
736 2 0.193076 0.186666 0.089572
738 4 0.209181 0.170674 0.100063
354 4 0.224506 0.176364 0.0897169
476 4 0.212494 0.214097 0.160045
477 4 0.246373 0.180814 0.175702
475 2 0.229434 0.197455 0.167874
352 2 0.248292 0.184018 0.0906098
371 4 0.192798 0.217328 0.16232
370 2 0.16819 0.217535 0.166747
279 4 0.25171 0.234643 0.153315
353 4 0.272079 0.191671 0.0915026
461 4 0.288958 0.19567 0.0797885
460 2 0.309658 0.192973 0.0935516
462 4 0.330358 0.190275 0.107315
277 2 0.249765 0.242738 0.129738
624 4 0.435455 0.239977 0.130572
337 2 0.04547 0.261223 0.151156
395 4 0.0632192 0.297036 0.156384
704 4 0.0112059 0.331336 0.151836
339 4 0.0577024 0.279123 0.163613
363 4 0.108917 0.273862 0.16469
612 4 0.257119 0.314769 0.107372
755 4 0.321273 0.2589 0.146106
610 2 0.258409 0.290123 0.103357
611 4 0.259698 0.265478 0.0993412
278 4 0.24782 0.250833 0.106161
754 2 0.333124 0.264484 0.124809
756 4 0.344974 0.270069 0.103512
628 2 0.4135 0.251553 0.0949162
255 4 0.341345 0.258168 0.0883018
629 4 0.426253 0.241664 0.114015
622 2 0.435245 0.25532 0.150313
315 4 0.0556575 0.393008 0.0733869
621 4 0.0599698 0.386919 0.0915173
619 2 0.0775988 0.388957 0.109131
620 4 0.0952278 0.390995 0.126745
647 4 0.105687 0.385335 0.143367
537 4 0.120879 0.393167 0.136426
535 2 0.137054 0.386213 0.118673
536 4 0.15323 0.379258 0.10092
646 2 0.0987716 0.370789 0.162492
609 4 0.244663 0.330387 0.100726
607 2 0.255108 0.349436 0.0883482
386 4 0.325271 0.349227 0.108329
385 2 0.332199 0.370511 0.119472
740 4 0.33799 0.334785 0.100275
387 4 0.339126 0.391795 0.130616
12 3 0.388831 0.377855 0.113092
11 1 0.384083 0.392688 0.130021
15 3 0.361504 0.394108 0.132636
672 4 0.38865 0.369328 0.0943576
13 3 0.39386 0.385065 0.149635
302 4 0.346494 0.408977 0.123459
14 3 0.392728 0.41348 0.124421
626 4 0.197927 0.432583 0.160968
1438 2 0.220436 0.461102 0.0899079
625 2 0.214454 0.441808 0.144629
1439 4 0.223288 0.446773 0.110199
638 4 0.246239 0.464307 0.128864
637 2 0.248868 0.489066 0.131163
627 4 0.23098 0.451033 0.128291
272 4 0.280443 0.497673 0.0918688
303 4 0.324238 0.440674 0.155093
1559 4 0.342928 0.498687 0.115739
301 2 0.335366 0.424826 0.139276
494 4 0.369873 0.475429 0.102275
495 4 0.385972 0.432284 0.121768
493 2 0.377923 0.453856 0.112021
1584 4 0.455018 0.490382 0.121444
1582 2 0.4632 0.479057 0.100708
674 4 0.149642 0.0425862 0.243384
653 4 0.228952 0.0550715 0.172839
689 4 0.199752 0.0238887 0.208213
690 4 0.157489 0.0264642 0.23482
688 2 0.17862 0.0251764 0.221516
693 4 0.229809 0.0579531 0.191931
1505 4 0.209064 0.0123458 0.195985
691 2 0.250738 0.0633665 0.204495
692 4 0.271667 0.0687799 0.217058
1699 2 0.306646 0.0863769 0.226653
1701 4 0.282461 0.0835504 0.22097
21 1 0.368981 0.0760696 0.227236
25 3 0.373508 0.0779781 0.204998
22 3 0.375835 0.0553881 0.234615
23 3 0.34616 0.078149 0.230877
333 4 0.393678 0.0794453 0.246081
698 4 0.38971 0.060674 0.250658
1784 4 0.436803 0.999324 0.175966
511 2 0.00550021 0.151391 0.215069
578 4 0.0388968 0.155711 0.239494
513 4 0.0185694 0.155646 0.235956
318 4 0.0501519 0.0874511 0.247783
28 3 0.218297 0.136363 0.180923
27 3 0.241066 0.135973 0.210824
26 1 0.239411 0.142035 0.188696
29 3 0.242608 0.16495 0.186937
758 4 0.340935 0.125484 0.170978
580 2 0.297198 0.124448 0.177723
581 4 0.27373 0.128783 0.18518
30 3 0.255327 0.131025 0.176691
1700 4 0.33083 0.0892033 0.232336
759 4 0.372639 0.0945669 0.19421
24 3 0.380415 0.0924259 0.239074
757 2 0.356787 0.110025 0.182594
312 4 0.431887 0.125236 0.181169
311 4 0.476596 0.138095 0.199512
310 2 0.454241 0.131665 0.19034
521 4 0.484309 0.148356 0.214971
577 2 0.0366582 0.178118 0.250362
529 2 0.00686881 0.22645 0.241283
530 4 0.0199653 0.212444 0.25733
362 4 0.126063 0.227995 0.174837
396 4 0.0636379 0.322236 0.199576
443 4 0.0677004 0.308968 0.214138
394 2 0.0634285 0.309636 0.17798
442 2 0.054483 0.304936 0.234976
703 2 0.00843419 0.333837 0.176559
705 4 0.00566252 0.336338 0.201282
285 4 0.262834 0.240274 0.169004
284 4 0.279333 0.277372 0.198197
283 2 0.271083 0.258823 0.1836
345 4 0.281707 0.315158 0.245096
623 4 0.435034 0.270664 0.170054
527 4 0.438032 0.288116 0.181673
526 2 0.442547 0.294905 0.20531
528 4 0.447062 0.301694 0.228947
264 4 0.0309865 0.424619 0.219484
262 2 0.0267681 0.410611 0.239761
263 4 0.0225497 0.396604 0.260038
2615 4 0.0034355 0.351961 0.212858
299 4 0.107508 0.336028 0.245616
648 4 0.0918563 0.356243 0.181617
300 4 0.0978517 0.346695 0.197723
298 2 0.10268 0.341361 0.221669
289 2 0.215349 0.404514 0.243239
597 4 0.381953 0.373 0.165148
596 4 0.354279 0.332234 0.173692
595 2 0.368116 0.352617 0.16942
645 4 0.402152 0.379074 0.17121
643 2 0.409319 0.398233 0.185587
644 4 0.416486 0.417393 0.199965
447 4 0.411332 0.418079 0.220163
1430 4 0.18783 0.479683 0.176403
417 4 0.199565 0.46452 0.17983
290 4 0.204147 0.4179 0.225336
416 4 0.20518 0.436363 0.220774
415 2 0.202373 0.450442 0.200302
659 4 0.328781 0.453639 0.169278
658 2 0.343214 0.46526 0.186065
660 4 0.357648 0.47688 0.202853
231 4 0.35931 0.491746 0.216064
445 2 0.415728 0.426853 0.24316
232 2 0.0352721 0.023091 0.290249
234 4 0.037121 0.0458646 0.280094
317 4 0.0233362 0.0606867 0.280422
316 2 0.036744 0.0740689 0.264103
673 2 0.145747 0.0568004 0.263582
675 4 0.141852 0.0710146 0.28378
1406 4 0.193447 0.00565702 0.302123
1518 4 0.389918 0.00385811 0.278375
697 2 0.396635 0.0397529 0.262471
699 4 0.403559 0.0188319 0.274284
425 4 0.412521 0.0336854 0.317758
351 4 0.490412 0.0566659 0.255206
349 2 0.472778 0.0742813 0.253224
424 2 0.436809 0.0367629 0.32284
426 4 0.461096 0.0398403 0.327922
258 4 0.470531 0.0578018 0.326669
391 2 0.137238 0.146602 0.322646
392 4 0.15007 0.140604 0.302042
545 4 0.137868 0.144904 0.286257
544 2 0.15347 0.14382 0.266748
546 4 0.169071 0.142736 0.247239
723 4 0.235091 0.0973693 0.266861
722 4 0.185525 0.0928276 0.271682
721 2 0.210308 0.0950985 0.269271
599 4 0.240976 0.121001 0.317896
404 4 0.227929 0.134489 0.309191
598 2 0.225054 0.109086 0.333052
403 2 0.218507 0.154044 0.296781
331 2 0.416217 0.0902683 0.246294
350 4 0.455145 0.0918968 0.251243
256 2 0.47585 0.0819419 0.322908
332 4 0.438756 0.101091 0.246507
762 4 0.444419 0.15691 0.291187
761 4 0.469754 0.119023 0.311763
760 2 0.457086 0.137967 0.301475
257 4 0.481169 0.106082 0.319147
579 4 0.0344196 0.200525 0.26123
405 4 0.209085 0.173599 0.284371
401 4 0.220507 0.179024 0.26849
400 2 0.222984 0.203747 0.271287
402 4 0.225461 0.22847 0.274084
765 4 0.435422 0.229325 0.327267
764 4 0.476238 0.201152 0.320866
763 2 0.45583 0.215238 0.324067
444 4 0.0412656 0.300904 0.255814
750 4 0.0933074 0.331101 0.259181
734 4 0.154597 0.327241 0.300508
343 2 0.298141 0.316321 0.263905
309 4 0.333738 0.321948 0.290059
344 4 0.314574 0.317485 0.282713
496 2 0.350183 0.285769 0.324601
497 4 0.352988 0.305131 0.309031
541 2 0.44397 0.319818 0.270215
542 4 0.447347 0.307618 0.248653
543 4 0.440592 0.332018 0.291777
2493 4 0.99403 0.357875 0.329621
365 4 0.0076958 0.354427 0.315438
366 4 0.0491155 0.326611 0.312061
749 4 0.0647692 0.326788 0.300018
364 2 0.0284056 0.340519 0.31375
748 2 0.0790383 0.328944 0.279599
602 4 0.106248 0.389329 0.305566
777 4 0.119795 0.402613 0.301534
735 4 0.176427 0.370388 0.28776
601 2 0.103219 0.384477 0.329907
677 4 0.175464 0.380177 0.304743
733 2 0.165512 0.348814 0.294134
676 2 0.184678 0.403411 0.305431
291 4 0.226551 0.391128 0.261141
412 2 0.251992 0.404636 0.292238
414 4 0.23689 0.402098 0.272473
2 3 0.313572 0.419567 0.324636
613 2 0.406701 0.334133 0.313815
728 4 0.33387 0.412826 0.328401
614 4 0.382703 0.329438 0.319035
307 2 0.350457 0.338436 0.298648
727 2 0.345063 0.391548 0.321532
729 4 0.356256 0.370271 0.314664
308 4 0.367176 0.354925 0.307237
615 4 0.430698 0.338828 0.308595
2924 4 0.484952 0.389742 0.319429
2537 4 0.500416 0.381761 0.308096
118 3 0.503154 0.404236 0.313307
1757 4 0.114271 0.461665 0.292296
776 4 0.127391 0.447941 0.281828
775 2 0.123593 0.425277 0.291681
1756 2 0.112282 0.485889 0.286432
678 4 0.193892 0.426645 0.30612
768 4 0.204759 0.464301 0.278858
766 2 0.197023 0.482633 0.263716
413 4 0.267095 0.407173 0.312003
438 4 0.28328 0.459429 0.25291
1435 2 0.265974 0.469744 0.324416
437 4 0.277385 0.439807 0.298527
436 2 0.280332 0.449618 0.275719
1437 4 0.2803 0.453106 0.312453
5 3 0.278079 0.424428 0.314172
1 1 0.291694 0.41947 0.331742
434 4 0.329421 0.433914 0.320506
433 2 0.34311 0.454005 0.314665
435 4 0.3568 0.474096 0.308824
446 4 0.420123 0.435627 0.266157
714 4 0.438238 0.435317 0.275417
2862 4 0.496496 0.442311 0.268368
120 3 0.496641 0.430559 0.287185
713 4 0.484744 0.452529 0.281868
712 2 0.461491 0.443923 0.278643
428 4 0.0505766 0.0289133 0.330274
427 2 0.0571738 0.00605903 0.337977
605 4 0.132774 0.0747355 0.364867
730 2 0.10555 0.0761066 0.40177
604 2 0.151645 0.0629682 0.353439
606 4 0.170515 0.0512009 0.342011
683 4 0.237034 0.0399108 0.373217
682 2 0.247501 0.0318467 0.351989
321 4 0.237074 0.0481781 0.39152
319 2 0.233312 0.063048 0.411267
684 4 0.257968 0.0237826 0.330762
249 4 0.310452 0.0501828 0.349311
247 2 0.333582 0.0588784 0.345495
248 4 0.356712 0.067574 0.34168
633 4 0.372864 0.0701715 0.354441
631 2 0.381901 0.0859049 0.371645
1749 4 0.484128 0.000538049 0.356434
480 4 0.49772 0.0133136 0.354456
732 4 0.119798 0.0779047 0.381302
393 4 0.124405 0.1526 0.34325
399 4 0.104706 0.14497 0.348603
398 4 0.106975 0.108516 0.382761
397 2 0.10584 0.126743 0.365682
686 4 0.218987 0.123415 0.412132
600 4 0.209131 0.0971712 0.348207
685 2 0.213665 0.111846 0.390615
687 4 0.208343 0.100276 0.369098
410 4 0.236021 0.132919 0.41648
632 4 0.390937 0.101638 0.388849
420 4 0.385462 0.121352 0.388536
468 4 0.392328 0.0946482 0.407569
418 2 0.383058 0.145412 0.394903
419 4 0.380654 0.169472 0.40127
515 4 0.462392 0.167331 0.394767
2654 4 0.0156272 0.251686 0.393683
390 4 0.0814293 0.213756 0.3902
470 4 0.0646864 0.217234 0.399983
617 4 0.0633411 0.233454 0.412732
388 2 0.0977861 0.230086 0.380662
389 4 0.114143 0.246416 0.371125
276 4 0.130585 0.249993 0.382083
473 4 0.203624 0.203779 0.329386
474 4 0.171041 0.23375 0.352641
472 2 0.187333 0.218764 0.341014
708 4 0.211151 0.188075 0.338908
706 2 0.229165 0.180184 0.354347
651 4 0.216853 0.235437 0.401543
649 2 0.227907 0.214308 0.40906
707 4 0.24718 0.172292 0.369787
650 4 0.238962 0.193178 0.416577
377 4 0.333522 0.245229 0.400699
717 4 0.347939 0.231296 0.40494
716 4 0.368646 0.185783 0.404249
715 2 0.358293 0.20854 0.404595
268 2 0.498746 0.238653 0.353967
270 4 0.485811 0.256865 0.365201
618 4 0.0313153 0.263479 0.388784
616 2 0.0473282 0.248466 0.400758
274 2 0.148107 0.251328 0.364297
275 4 0.165629 0.252662 0.34651
374 4 0.224212 0.327861 0.333306
489 4 0.215352 0.249224 0.416278
510 4 0.228651 0.325324 0.352663
487 2 0.226991 0.271021 0.412457
488 4 0.238631 0.292818 0.408636
508 2 0.235644 0.309978 0.371123
509 4 0.242637 0.294631 0.389583
378 4 0.333748 0.261313 0.35335
376 2 0.333635 0.253271 0.377025
498 4 0.347379 0.266407 0.340171
265 2 0.342212 0.315079 0.37274
266 4 0.361674 0.305162 0.384908
585 4 0.37385 0.289877 0.385256
583 2 0.386069 0.275294 0.401481
267 4 0.32275 0.324997 0.360573
304 2 0.491582 0.272643 0.40561
306 4 0.48561 0.258142 0.386136
547 2 0.0823976 0.41268 0.376315
549 4 0.0903725 0.391292 0.366112
603 4 0.10019 0.379625 0.354247
373 2 0.22236 0.352516 0.337034
502 2 0.203184 0.408232 0.365562
504 4 0.216326 0.393998 0.349755
375 4 0.220508 0.377171 0.340762
503 4 0.190041 0.422465 0.381369
3 3 0.286588 0.398402 0.340016
2923 2 0.472966 0.369224 0.327208
2925 4 0.460979 0.348705 0.334987
680 4 0.993663 0.46252 0.408903
548 4 0.0744227 0.434069 0.386518
407 4 0.0609449 0.447876 0.382733
406 2 0.0427173 0.456464 0.397538
408 4 0.0244897 0.465053 0.412342
569 4 0.0908385 0.457847 0.406139
568 2 0.111561 0.445257 0.412241
1543 2 0.227266 0.494711 0.355794
1436 4 0.251649 0.486382 0.33638
635 4 0.18295 0.475984 0.41965
636 4 0.189119 0.430762 0.399214
634 2 0.186035 0.453373 0.409432
1545 4 0.250335 0.485168 0.357195
1401 4 0.320152 0.468042 0.397204
668 4 0.305719 0.440259 0.358413
4 3 0.289164 0.43537 0.348451
667 2 0.323171 0.435587 0.375699
669 4 0.340623 0.430916 0.392984
336 4 0.346154 0.437532 0.410695
119 3 0.490749 0.438691 0.323473
593 4 0.466731 0.496042 0.373051
752 4 0.475769 0.413939 0.381216
561 4 0.48231 0.416315 0.400141
753 4 0.498225 0.436565 0.342687
751 2 0.486997 0.425252 0.361951
718 2 0.0319568 0.0559345 0.481543
719 4 0.0568412 0.055685 0.483968
369 4 0.0774715 0.0579866 0.48871
367 2 0.0823645 0.0643235 0.465023
720 4 0.0070723 0.0561839 0.479118
731 4 0.0913019 0.0743086 0.422238
368 4 0.0872575 0.0706604 0.441336
441 4 0.192812 0.999113 0.449654
2430 4 0.183053 0.0627376 0.429395
2428 2 0.188804 0.0388288 0.43392
2429 4 0.194555 0.01492 0.438445
341 4 0.194257 0.0787269 0.431709
320 4 0.229549 0.0779179 0.431013
725 4 0.236611 0.0787943 0.450307
724 2 0.259585 0.0803582 0.46005
430 2 0.303422 0.0769308 0.497346
432 4 0.280299 0.0805097 0.488532
726 4 0.282559 0.081922 0.469794
2879 4 0.438244 0.00823766 0.425904
2878 2 0.447337 0.0212273 0.445237
2880 4 0.456429 0.0342169 0.464571
642 4 0.465659 0.0491152 0.474789
640 2 0.479909 0.0688395 0.469038
2586 4 0.0151184 0.102823 0.459802
938 4 0.118832 0.164909 0.499987
409 2 0.244302 0.156459 0.41805
340 2 0.198082 0.0909521 0.453182
1152 4 0.202341 0.119953 0.48563
342 4 0.201908 0.103177 0.474655
1150 2 0.187967 0.130226 0.503322
467 4 0.36514 0.0977681 0.449423
466 2 0.378734 0.0962082 0.428496
576 4 0.410667 0.131583 0.481836
641 4 0.494159 0.0885638 0.463288
514 2 0.456944 0.164726 0.419031
574 2 0.421718 0.145318 0.464104
575 4 0.432768 0.159052 0.446372
469 2 0.0702666 0.202024 0.419028
260 4 0.0772996 0.1717 0.451305
471 4 0.0758469 0.186813 0.438072
261 4 0.0938216 0.177429 0.498155
259 2 0.0855606 0.174564 0.47473
411 4 0.252582 0.179999 0.41962
516 4 0.451497 0.162121 0.443295
695 4 0.126342 0.272033 0.454416
694 2 0.136081 0.293492 0.446059
696 4 0.14582 0.314951 0.437702
1260 4 0.161071 0.317957 0.425176
1258 2 0.185791 0.321225 0.427027
1259 4 0.210511 0.324494 0.428878
584 4 0.398287 0.260711 0.417705
2456 4 0.408388 0.244377 0.417137
2455 2 0.4264 0.254062 0.431523
2457 4 0.444412 0.263746 0.445909
326 4 0.0777907 0.397947 0.458495
325 2 0.0924702 0.377903 0.455674
10 3 0.159707 0.353514 0.461462
709 2 0.138138 0.413183 0.451918
7 3 0.122934 0.347766 0.458701
327 4 0.10715 0.35786 0.452853
6 1 0.139828 0.355156 0.472453
8 3 0.135733 0.377275 0.478145
9 3 0.140238 0.342004 0.491565
711 4 0.13982 0.392637 0.466068
238 2 0.343505 0.410422 0.486712
240 4 0.348716 0.404428 0.463004
2508 4 0.490161 0.376261 0.457782
559 2 0.486133 0.402235 0.420447
1382 4 0.0209607 0.466779 0.470042
1381 2 0.0142896 0.468904 0.446038
540 4 0.0400373 0.460804 0.474204
1383 4 0.00761849 0.471029 0.422035
710 4 0.136456 0.433729 0.437768
382 2 0.155076 0.501616 0.499145
774 4 0.166668 0.485579 0.415871
570 4 0.132284 0.432667 0.418343
772 2 0.153364 0.492137 0.436
1399 2 0.322384 0.484983 0.415458
1400 4 0.324615 0.501923 0.433713
335 4 0.336699 0.418301 0.455877
334 2 0.341426 0.427917 0.433286
951 4 0.188686 0.0631933 0.554666
1031 4 0.173794 0.0605748 0.56772
949 2 0.211772 0.0665276 0.54566
1182 4 0.244241 0.0588276 0.522109
950 4 0.234858 0.0698619 0.536655
961 2 0.314485 0.026779 0.555432
1180 2 0.26198 0.0442467 0.532003
963 4 0.297959 0.0373169 0.539907
1181 4 0.27972 0.0296658 0.541897
431 4 0.326545 0.0733519 0.506161
962 4 0.331011 0.0162411 0.570957
842 4 0.387365 0.0630303 0.502206
1217 4 0.398163 0.070163 0.517883
841 2 0.363818 0.0698812 0.497328
843 4 0.340271 0.0767321 0.492449
1032 4 0.142558 0.0974224 0.580656
1030 2 0.158176 0.0789986 0.574188
939 4 0.166597 0.158714 0.513435
937 2 0.142714 0.161811 0.506711
1151 4 0.173592 0.140499 0.521015
898 2 0.350849 0.166825 0.579317
1216 2 0.419275 0.082132 0.523899
1218 4 0.440387 0.0941011 0.529916
1035 4 0.0725382 0.168914 0.563381
1082 4 0.0622074 0.184029 0.571204
1033 2 0.0809913 0.16874 0.53985
1034 4 0.0894445 0.168567 0.516319
877 2 0.0946988 0.242775 0.580122
1272 4 0.112504 0.215887 0.58126
811 2 0.305953 0.221505 0.534423
812 4 0.283228 0.214288 0.54195
796 2 0.271806 0.198071 0.580035
798 4 0.275042 0.213575 0.560687
813 4 0.328679 0.228723 0.526896
900 4 0.364862 0.185296 0.569956
872 4 0.372618 0.190564 0.551985
873 4 0.348809 0.226991 0.527349
871 2 0.360714 0.208778 0.539667
878 4 0.0935535 0.264882 0.568497
896 4 0.202905 0.334545 0.537469
1191 4 0.220142 0.32819 0.533222
1189 2 0.241991 0.332919 0.522022
1239 4 0.263738 0.314045 0.575986
1205 4 0.394837 0.295057 0.558043
1204 2 0.377978 0.310808 0.567679
954 4 0.414431 0.301727 0.560474
952 2 0.432588 0.290831 0.57377
1137 4 0.178328 0.378719 0.559289
897 4 0.190307 0.382512 0.543889
895 2 0.196606 0.358529 0.540679
1135 2 0.171621 0.396663 0.575358
1190 4 0.26384 0.337649 0.510822
803 4 0.280659 0.341172 0.501491
802 2 0.298515 0.354391 0.512963
804 4 0.31637 0.36761 0.524435
929 4 0.31761 0.357616 0.540488
239 4 0.338294 0.416416 0.510421
928 2 0.337268 0.351975 0.554873
930 4 0.356927 0.346334 0.569257
1000 2 0.464786 0.409883 0.570038
539 4 0.054362 0.477666 0.519051
936 4 0.0249774 0.483901 0.542834
1938 4 0.0442418 0.482428 0.53712
1936 2 0.05102 0.503864 0.548063
934 2 0.0033831 0.473765 0.550326
538 2 0.0471996 0.469235 0.496628
383 4 0.165798 0.499887 0.521667
2244 4 0.156582 0.485961 0.530601
2242 2 0.167363 0.488527 0.553015
2243 4 0.178144 0.491093 0.575428
1172 4 0.257615 0.446878 0.558538
882 4 0.256953 0.460054 0.543945
880 2 0.266164 0.48086 0.53358
1001 4 0.483487 0.411531 0.553524
1057 2 0.0812532 0.0410686 0.606357
1185 4 0.0226753 0.0695382 0.65206
945 4 0.040398 0.0694289 0.662479
825 4 0.0546065 0.0166137 0.625829
1058 4 0.06796 0.0309474 0.624959
823 2 0.0613911 0.00440053 0.646565
1059 4 0.0945465 0.0511898 0.587756
1155 4 0.10322 0.0685086 0.595928
1003 2 0.304885 0.0783619 0.655471
1004 4 0.321082 0.0766723 0.636498
1005 4 0.288687 0.0800515 0.674444
2282 4 0.461257 0.0344905 0.63269
2281 2 0.45185 0.0186363 0.615798
43 3 0.455569 0.0410989 0.649721
41 1 0.473455 0.0544987 0.65596
44 3 0.46617 0.0762152 0.659665
45 3 0.489361 0.054312 0.639662
1081 2 0.0474608 0.171542 0.587071
1199 4 0.0218889 0.143453 0.600254
1083 4 0.0327142 0.159054 0.602938
1198 2 0.999841 0.142772 0.58848
1153 2 0.110708 0.0904848 0.60521
1154 4 0.118195 0.112461 0.614493
1221 4 0.133621 0.106607 0.626398
1219 2 0.152564 0.113033 0.6414
1220 4 0.171506 0.11946 0.656402
1212 4 0.233152 0.1516 0.632894
1210 2 0.256534 0.153345 0.641579
856 2 0.299433 0.155884 0.601584
857 4 0.32299 0.147724 0.603495
1211 4 0.279915 0.155091 0.650265
858 4 0.275877 0.164045 0.599673
899 4 0.336836 0.148354 0.588679
879 4 0.0958442 0.220668 0.591748
1270 2 0.132699 0.202888 0.588214
1271 4 0.152894 0.189889 0.595168
909 4 0.163015 0.196745 0.610262
907 2 0.16641 0.209369 0.631576
908 4 0.169805 0.221992 0.65289
947 4 0.164786 0.241338 0.656062
797 4 0.268571 0.182567 0.599383
1025 4 0.385891 0.19246 0.654943
1024 2 0.386717 0.212914 0.640584
1143 4 0.370002 0.187958 0.665896
1026 4 0.387544 0.233367 0.626226
904 2 0.447885 0.24853 0.609921
906 4 0.452614 0.225048 0.617092
946 2 0.184285 0.256583 0.659602
1237 2 0.274228 0.309801 0.598282
792 4 0.300329 0.299458 0.631078
791 4 0.317848 0.341562 0.651597
790 2 0.309088 0.32051 0.641337
1238 4 0.284718 0.305556 0.620579
1206 4 0.361119 0.32656 0.577314
905 4 0.443156 0.272012 0.60275
953 4 0.450745 0.279935 0.587066
983 4 0.0325465 0.401002 0.632695
1041 4 0.0520446 0.395627 0.631098
1039 2 0.0745267 0.406479 0.629698
982 2 0.0082842 0.39545 0.635081
1040 4 0.0970089 0.417331 0.628298
1136 4 0.164914 0.414607 0.591427
1002 4 0.446084 0.408236 0.586553
3330 4 0.490459 0.414301 0.649217
993 4 0.116057 0.4115 0.635588
992 4 0.156556 0.422616 0.608441
991 2 0.136307 0.417058 0.622015
1161 4 0.180258 0.500893 0.593968
1160 4 0.226007 0.483632 0.604447
1159 2 0.203132 0.492263 0.599208
1175 4 0.229636 0.471512 0.619329
1174 2 0.24923 0.483482 0.629226
1171 2 0.256591 0.453867 0.582523
1173 4 0.255567 0.460856 0.606508
1176 4 0.268825 0.495452 0.639123
889 2 0.344572 0.474136 0.645318
891 4 0.34355 0.480998 0.621297
1952 4 0.351913 0.484753 0.603658
1911 4 0.437369 0.464232 0.624719
1910 4 0.448331 0.421916 0.60043
1909 2 0.44285 0.443074 0.612575
3328 2 0.493555 0.430248 0.630209
3183 4 0.500298 0.420984 0.666213
1268 4 0.437164 0.480899 0.63585
1267 2 0.434267 0.48728 0.659851
3329 4 0.49665 0.446194 0.6112
943 2 0.0486453 0.0730411 0.685805
944 4 0.0568926 0.0766532 0.709131
1075 2 0.0511661 0.0554129 0.737919
1076 4 0.0440382 0.0745875 0.723541
831 4 0.341383 0.0666761 0.730089
42 3 0.48248 0.0462564 0.675448
1163 4 0.487433 0.0544022 0.692684
1283 4 0.158591 0.120008 0.672729
32 3 0.095577 0.130008 0.760805
1282 2 0.159158 0.118834 0.697698
1284 4 0.159726 0.117659 0.722668
1227 4 0.173702 0.122744 0.736744
1225 2 0.193083 0.124714 0.752418
888 4 0.288671 0.146201 0.666594
886 2 0.303641 0.129992 0.678357
887 4 0.318611 0.113784 0.69012
830 4 0.332644 0.107379 0.702383
829 2 0.337013 0.0870274 0.716236
1107 4 0.0257231 0.191765 0.73718
851 4 0.0271666 0.198155 0.718267
850 2 0.00851127 0.214762 0.71943
822 4 0.135198 0.220019 0.696286
1278 4 0.149856 0.222081 0.70974
820 2 0.112636 0.226472 0.687655
821 4 0.0900744 0.232926 0.679024
1276 2 0.168592 0.221977 0.726297
1277 4 0.187327 0.221873 0.742854
1131 4 0.190497 0.202088 0.745727
916 2 0.304368 0.212949 0.721065
918 4 0.307669 0.188476 0.724983
917 4 0.301067 0.237422 0.717147
1142 4 0.322123 0.188831 0.680302
1008 4 0.324911 0.23475 0.73941
1097 4 0.282563 0.24309 0.718593
977 4 0.312206 0.172078 0.734651
1141 2 0.346063 0.188394 0.673099
1194 4 0.395165 0.240464 0.738172
3122 4 0.49099 0.216665 0.670566
1262 4 0.405053 0.223118 0.734819
3123 4 0.443581 0.210436 0.685204
3121 2 0.467286 0.213551 0.677885
1261 2 0.426766 0.2135 0.742646
1263 4 0.448478 0.203883 0.750472
1145 4 0.464502 0.192432 0.751462
1209 4 0.0409571 0.273118 0.704404
1207 2 0.0573895 0.256238 0.696024
1208 4 0.073822 0.239358 0.687643
948 4 0.203785 0.271828 0.663143
1065 4 0.220214 0.27774 0.673257
1064 4 0.22342 0.322927 0.694437
1063 2 0.221817 0.300333 0.683847
1098 4 0.252817 0.262138 0.753991
1096 2 0.26769 0.252614 0.736292
1192 2 0.397612 0.264888 0.742934
893 4 0.0679081 0.328793 0.658629
1279 2 0.0828826 0.397227 0.707121
892 2 0.0780032 0.348709 0.669881
894 4 0.0880983 0.368625 0.681134
1281 4 0.0756348 0.376713 0.694799
940 2 0.161617 0.399151 0.723491
942 4 0.157965 0.406348 0.747157
941 4 0.165269 0.391955 0.699826
1067 4 0.172751 0.399759 0.682737
1028 4 0.225407 0.416336 0.670766
1029 4 0.268736 0.391432 0.668994
1027 2 0.247071 0.403884 0.66988
1139 4 0.284811 0.402278 0.676433
1983 4 0.032299 0.505489 0.720733
1280 4 0.0901303 0.417742 0.719442
1066 2 0.193284 0.414018 0.682265
1068 4 0.213818 0.428277 0.681792
1138 2 0.292665 0.420319 0.691859
1140 4 0.300519 0.438361 0.707286
1989 4 0.304713 0.449562 0.723069
1987 2 0.315267 0.461719 0.7422
1230 4 0.380932 0.414916 0.710169
890 4 0.345594 0.467274 0.66934
1228 2 0.364503 0.421348 0.692452
1229 4 0.348074 0.427779 0.674734
1100 4 0.447899 0.482091 0.727205
1099 2 0.458672 0.500767 0.714543
1250 4 0.452494 0.480326 0.746951
1077 4 0.0582939 0.0362382 0.752296
1203 4 0.0752227 0.042944 0.759928
864 4 0.0297461 0.069753 0.836786
1201 2 0.0956894 0.033159 0.770442
2049 4 0.129719 0.00944631 0.774774
1202 4 0.116156 0.0233741 0.780956
1148 4 0.173867 0.066195 0.779548
1147 2 0.198225 0.0627324 0.775092
1149 4 0.222584 0.0592697 0.770637
1049 4 0.231675 0.0485631 0.786148
1048 2 0.247634 0.0408057 0.803764
1050 4 0.263593 0.0330483 0.821379
817 2 0.364618 0.0762335 0.810103
818 4 0.367999 0.0589051 0.827809
846 4 0.478056 0.0287545 0.770425
1113 4 0.478836 0.00864703 0.76903
844 2 0.495349 0.04664 0.767927
832 2 0.0358058 0.136142 0.789773
863 4 0.0273491 0.105062 0.801456
833 4 0.0207358 0.123177 0.804938
33 3 0.0690523 0.144281 0.783286
834 4 0.0508757 0.149107 0.774607
862 2 0.0285476 0.0874074 0.819121
1106 4 0.0578106 0.160128 0.758865
31 1 0.0855972 0.149491 0.767874
34 3 0.101669 0.162992 0.777765
1226 4 0.212464 0.126683 0.768092
1130 4 0.207194 0.174019 0.783595
840 4 0.214269 0.143774 0.777599
838 2 0.224697 0.141297 0.800189
839 4 0.235125 0.138821 0.822779
959 4 0.251227 0.143619 0.832985
978 4 0.295545 0.142238 0.771157
958 2 0.263854 0.122468 0.837271
960 4 0.276481 0.101317 0.841556
819 4 0.361237 0.0935618 0.792398
1084 2 0.378013 0.132308 0.779674
1085 4 0.371529 0.108441 0.783345
1086 4 0.384498 0.156176 0.776002
3268 2 0.487519 0.147853 0.809673
3270 4 0.478561 0.137837 0.788587
1146 4 0.465903 0.147915 0.774201
1105 2 0.0417668 0.175947 0.748023
35 3 0.0764445 0.16016 0.749956
778 2 0.05772 0.222762 0.8015
779 4 0.0363278 0.227195 0.789339
780 4 0.0791121 0.218328 0.813662
1214 4 0.0231325 0.241746 0.78304
1073 4 0.113233 0.179447 0.782137
1072 2 0.13434 0.192687 0.784225
1074 4 0.155448 0.205927 0.786313
869 4 0.088326 0.218843 0.83164
1129 2 0.198846 0.188053 0.764661
976 2 0.303875 0.157158 0.752904
1299 4 0.390203 0.174577 0.772653
1006 2 0.336097 0.246935 0.75816
1297 2 0.388861 0.183197 0.796086
1298 4 0.387519 0.191816 0.819518
47 3 0.39905 0.205449 0.827052
49 3 0.403966 0.242695 0.828159
1144 2 0.465202 0.170173 0.762832
1213 2 0.00466165 0.254423 0.794144
1241 4 0.249169 0.278238 0.764795
1240 2 0.22831 0.28676 0.753958
1242 4 0.207451 0.295282 0.74312
801 4 0.314711 0.334259 0.827425
1166 4 0.412468 0.254425 0.811265
1043 4 0.389514 0.251866 0.814263
1042 2 0.376773 0.261388 0.794971
1007 4 0.347283 0.25912 0.77691
1044 4 0.364031 0.27091 0.77568
1193 4 0.400058 0.289312 0.747696
806 4 0.414148 0.322174 0.769488
805 2 0.392111 0.331982 0.762902
1167 4 0.461411 0.246309 0.804983
1165 2 0.43694 0.250367 0.808124
1306 2 0.490579 0.2734 0.810617
1307 4 0.474735 0.258573 0.798195
848 4 2.68091e-05 0.384982 0.825274
847 2 0.0209652 0.39521 0.834338