ITEM: TIMESTEP
670000
ITEM: NUMBER OF ATOMS
4590
ITEM: BOX BOUNDS pp pp pp
-9.9985700000000008e+00 9.9985700000000008e+00
-9.9985700000000008e+00 9.9985700000000008e+00
-9.9985700000000008e+00 9.9985700000000008e+00
ITEM: ATOMS id type xs ys zs
463 2 0.0210363 0.0532369 0.0506899
465 4 0.0213989 0.0724988 0.0666281
464 4 0.0206738 0.033975 0.0347517
3290 4 0.0370652 0.0412754 0.025505
591 4 0.032044 0.0856999 0.0780804
3289 2 0.0387725 0.0236553 0.00784726
1476 4 0.195401 0.0231796 0.0548861
1474 2 0.21639 0.010594 0.0497615
567 4 0.179562 0.0977007 0.0570322
490 2 0.269974 0.0177932 0.0272522
491 4 0.283466 0.0325786 0.0122678
492 4 0.256482 0.00300782 0.0422366
745 2 0.458115 0.0646066 0.0248501
1826 4 0.464896 0.0163417 0.0550752
746 4 0.445196 0.0737502 0.0442068
1825 2 0.480622 0.997262 0.0587941
747 4 0.471034 0.0554629 0.00549353
701 4 0.0646966 0.128373 0.0132761
700 2 0.0774355 0.121721 0.0337373
589 2 0.0487479 0.104275 0.0791413
590 4 0.0654517 0.12285 0.0802023
423 4 0.0675673 0.14843 0.0101577
3234 4 0.0622647 0.116062 0.997777
702 4 0.0901743 0.11507 0.0541984
565 2 0.17707 0.111576 0.0776828
358 2 0.285269 0.140504 0.0121465
359 4 0.306541 0.153629 0.0127774
556 2 0.366255 0.0961386 0.0684395
558 4 0.349163 0.110559 0.0572534
421 2 0.0659461 0.173336 0.00866383
553 2 0.0480361 0.211111 0.0439345
554 4 0.0385086 0.211847 0.06704
422 4 0.064325 0.198243 0.00716993
555 4 0.0575636 0.210374 0.020829
506 4 0.170649 0.237645 0.0758223
1133 4 0.213887 0.181317 0.015397
505 2 0.170111 0.253604 0.0565813
738 4 0.22229 0.209697 0.0821825
1132 2 0.21585 0.190321 0.992154
353 4 0.290688 0.219982 0.0838549
352 2 0.266179 0.215463 0.0818303
461 4 0.310248 0.217389 0.0840485
665 4 0.387333 0.204004 0.0032227
1069 2 0.382256 0.239814 0.0211298
324 4 0.4164 0.233884 0.0728568
573 4 0.35208 0.255525 0.0382783
1071 4 0.360188 0.238078 0.0327555
828 4 0.442269 0.187253 0.00681089
770 4 0.450804 0.177923 0.0594933
771 4 0.485472 0.188863 0.0251535
769 2 0.468138 0.183393 0.0423234
1014 4 0.466163 0.207213 0.00341379
292 2 0.157373 0.304531 0.0284283
294 4 0.141717 0.323849 0.0310538
456 4 0.128791 0.320993 0.0471759
293 4 0.173029 0.285213 0.0258028
507 4 0.169573 0.269562 0.0373402
481 2 0.236092 0.284047 0.04152
482 4 0.233365 0.307828 0.0487466
483 4 0.238819 0.260267 0.0342934
572 4 0.354373 0.292164 0.072235
571 2 0.353226 0.273845 0.0552566
281 4 0.435992 0.331386 0.0599725
671 4 0.418758 0.33446 0.0697665
328 2 0.0247649 0.394571 0.00235058
330 4 0.00660483 0.411513 0.999461
315 4 0.0274293 0.402723 0.0753451
1168 2 0.045332 0.343791 0.0133187
1169 4 0.0508967 0.367307 0.0197382
329 4 0.0429251 0.377629 0.00524009
454 2 0.13444 0.338949 0.0636326
287 4 0.153605 0.362047 0.0034449
252 4 0.291553 0.377973 0.0576681
250 2 0.281575 0.397067 0.0449777
251 4 0.271597 0.416161 0.0322872
608 4 0.297377 0.37674 0.0761024
280 2 0.460597 0.329262 0.0638766
282 4 0.485202 0.327137 0.0677807
227 4 0.474278 0.405703 0.0336272
1047 4 0.493964 0.348153 0.0190302
551 4 0.0641762 0.462736 0.0666867
313 2 0.0189224 0.426076 0.0726184
314 4 0.0104155 0.44943 0.0698916
550 2 0.081426 0.480609 0.0638305
552 4 0.0986758 0.498483 0.0609744
244 2 0.218117 0.474568 0.00586109
246 4 0.24264 0.473322 0.0105767
272 4 0.248912 0.474651 0.0308238
271 2 0.266271 0.492545 0.0289093
226 2 0.470563 0.426409 0.0201132
228 4 0.466848 0.447116 0.00659918
563 4 0.456097 0.493967 0.0429606
19 3 0.0426141 0.0223088 0.153957
20 3 0.0593338 0.0303348 0.121189
1422 4 0.0275781 0.00556442 0.154871
16 1 0.0557512 0.0376038 0.142473
17 3 0.0447905 0.0578178 0.141831
1666 2 0.0613755 0.0464312 0.0885162
1668 4 0.0503417 0.0245131 0.0837172
18 3 0.0760279 0.0404092 0.153399
1667 4 0.0724092 0.0683494 0.0933151
450 4 0.163479 0.0650675 0.176298
652 2 0.306642 0.0711393 0.132292
654 4 0.308346 0.0679184 0.107555
653 4 0.304938 0.0743602 0.157029
582 4 0.29379 0.0869082 0.167739
296 4 0.376894 0.0639811 0.0835311
557 4 0.383346 0.0817186 0.0796256
295 2 0.37522 0.0449258 0.099633
297 4 0.373545 0.0258706 0.115735
485 4 0.370757 0.00761019 0.1254
484 2 0.349297 0.00412513 0.13775
758 4 0.412132 0.0532876 0.151528
1759 2 0.467141 0.00975339 0.156017
1760 4 0.486642 0.0237162 0.14895
566 4 0.174578 0.125451 0.0983333
477 4 0.126704 0.155791 0.13668
339 4 0.0677068 0.232702 0.116682
337 2 0.069955 0.245036 0.138315
476 4 0.158877 0.182726 0.163886
475 2 0.142791 0.169258 0.150283
354 4 0.241671 0.210945 0.0798057
737 4 0.176073 0.208579 0.101248
736 2 0.199182 0.209138 0.091715
460 2 0.317255 0.201649 0.102168
462 4 0.324262 0.185909 0.120288
255 4 0.345828 0.180901 0.121551
254 4 0.389015 0.188147 0.145698
630 4 0.405927 0.198045 0.145197
253 2 0.367421 0.184524 0.133625
628 2 0.414822 0.211471 0.126071
624 4 0.406312 0.245946 0.121198
629 4 0.423717 0.224897 0.106945
2590 2 0.494654 0.216252 0.162229
2591 4 0.484858 0.193819 0.167325
2592 4 0.504451 0.238685 0.157133
338 4 0.0722032 0.257371 0.159948
611 4 0.23759 0.314637 0.133462
277 2 0.255483 0.265182 0.156976
756 4 0.297358 0.300566 0.0948545
754 2 0.287443 0.283501 0.110206
755 4 0.277528 0.266437 0.125557
278 4 0.276075 0.259602 0.143937
741 4 0.365561 0.307976 0.079929
622 2 0.389767 0.261795 0.131212
623 4 0.373222 0.277643 0.141226
739 2 0.355636 0.327626 0.0917843
322 2 0.426331 0.256762 0.0746228
323 4 0.436263 0.279641 0.0763888
527 4 0.462545 0.281292 0.152289
526 2 0.449612 0.277063 0.173266
621 4 0.040551 0.40218 0.0896459
619 2 0.0397825 0.38114 0.103133
620 4 0.0390139 0.3601 0.11662
647 4 0.0609649 0.359825 0.138347
646 2 0.0735037 0.37089 0.156935
455 4 0.14009 0.356906 0.0800894
537 4 0.160623 0.391327 0.144385
535 2 0.171875 0.374223 0.158738
626 4 0.196185 0.410915 0.118423
609 4 0.278217 0.367234 0.121305
607 2 0.287797 0.371987 0.0987035
612 4 0.261583 0.358163 0.127931
610 2 0.249587 0.3364 0.130696
387 4 0.337974 0.384569 0.15476
385 2 0.336726 0.365984 0.13808
740 4 0.34571 0.347276 0.10364
15 3 0.400957 0.348127 0.168871
386 4 0.335478 0.347399 0.121401
495 4 0.39771 0.400354 0.156295
14 3 0.405107 0.382683 0.154508
672 4 0.41273 0.343607 0.118559
493 2 0.403774 0.412914 0.135543
11 1 0.414957 0.361859 0.157292
670 2 0.415744 0.339034 0.0941628
12 3 0.419079 0.352753 0.136574
13 3 0.435069 0.364064 0.168653
625 2 0.198524 0.435723 0.120491
627 4 0.200862 0.460531 0.12256
1438 2 0.234814 0.497467 0.116627
639 4 0.246964 0.472966 0.149271
1439 4 0.245538 0.487755 0.137019
523 2 0.334222 0.481318 0.108703
525 4 0.348978 0.480324 0.128864
659 4 0.376942 0.448292 0.166926
524 4 0.319467 0.482313 0.0885418
494 4 0.409838 0.425475 0.114791
2480 4 0.0215909 0.0278369 0.156619
2479 2 0.996607 0.0273018 0.15745
690 4 0.152755 0.0280842 0.243324
674 4 0.144585 0.0425967 0.254049
1505 4 0.205769 0.0121387 0.20421
1504 2 0.207959 0.00161431 0.181635
689 4 0.19004 0.0103476 0.215111
688 2 0.171397 0.0192159 0.229218
693 4 0.212872 0.0583517 0.174439
691 2 0.232738 0.0613482 0.189323
692 4 0.252604 0.0643447 0.204208
21 1 0.377064 0.0626922 0.22367
23 3 0.372456 0.0402574 0.219948
24 3 0.358275 0.0733354 0.232161
25 3 0.383501 0.0726338 0.204218
759 4 0.384426 0.0553714 0.193106
757 2 0.398279 0.0543295 0.172317
22 3 0.394116 0.0643345 0.239022
744 4 0.480312 0.0173572 0.227244
742 2 0.476719 0.0302494 0.248364
381 4 0.0121328 0.166828 0.206299
513 4 0.0566928 0.159136 0.242602
577 2 0.0960458 0.144904 0.23085
579 4 0.116173 0.131599 0.224287
448 2 0.159151 0.0867472 0.187979
449 4 0.154822 0.108427 0.199659
235 2 0.166484 0.14417 0.201916
236 4 0.165686 0.122023 0.190339
580 2 0.285064 0.103275 0.184506
581 4 0.276337 0.119643 0.201274
30 3 0.295147 0.124339 0.207149
26 1 0.292864 0.136206 0.226453
29 3 0.308701 0.153146 0.227251
28 3 0.27153 0.145241 0.227717
27 3 0.296073 0.122175 0.244397
333 4 0.396348 0.0813544 0.249879
311 4 0.463702 0.144541 0.188161
312 4 0.442575 0.0992971 0.185449
310 2 0.453139 0.121919 0.186805
578 4 0.0759189 0.158209 0.237412
511 2 0.0377694 0.169883 0.23029
512 4 0.018846 0.18063 0.217978
237 4 0.167282 0.166318 0.213494
285 4 0.285541 0.21829 0.190067
284 4 0.281465 0.215597 0.239835
283 2 0.283503 0.216944 0.214951
764 4 0.440727 0.232683 0.236887
763 2 0.42352 0.244547 0.223164
520 2 0.477435 0.238677 0.243776
521 4 0.456208 0.226071 0.24774
395 4 0.065269 0.26122 0.187097
394 2 0.0617525 0.266816 0.211212
396 4 0.0582359 0.272412 0.235326
443 4 0.0713799 0.274143 0.251095
749 4 0.0869116 0.300206 0.20446
363 4 0.0804884 0.26572 0.176337
361 2 0.10453 0.272454 0.174973
362 4 0.128571 0.279187 0.173609
372 4 0.141584 0.268599 0.185355
748 2 0.10249 0.319558 0.207282
370 2 0.15822 0.266053 0.203846
279 4 0.234891 0.270762 0.170015
371 4 0.174856 0.263507 0.222338
345 4 0.229393 0.277436 0.21173
343 2 0.253054 0.285357 0.213345
344 4 0.276715 0.293279 0.214959
309 4 0.283635 0.303791 0.229499
765 4 0.406313 0.256412 0.20944
528 4 0.436678 0.272834 0.194242
750 4 0.118068 0.338911 0.210104
300 4 0.110551 0.34813 0.224366
648 4 0.0860426 0.381955 0.175523
298 2 0.119113 0.365752 0.239902
536 4 0.183126 0.357118 0.173092
289 2 0.220877 0.401998 0.219721
290 4 0.24013 0.387082 0.22538
291 4 0.201623 0.416913 0.214062
302 4 0.351206 0.395087 0.165704
595 2 0.473813 0.376614 0.164545
597 4 0.456144 0.378524 0.182133
643 2 0.435126 0.377934 0.209523
644 4 0.434598 0.378026 0.23452
645 4 0.435655 0.377841 0.184525
447 4 0.450642 0.387642 0.24184
263 4 0.0420298 0.497144 0.195003
262 2 0.0441173 0.473069 0.201426
264 4 0.0462047 0.448995 0.207849
1430 4 0.15589 0.483213 0.182913
417 4 0.164028 0.464781 0.186075
637 2 0.247386 0.483246 0.172059
416 4 0.193363 0.426249 0.198542
415 2 0.178695 0.445515 0.192308
638 4 0.247807 0.493525 0.194848
766 2 0.214418 0.489461 0.221168
768 4 0.198951 0.485045 0.240311
767 4 0.229885 0.493876 0.202025
1429 2 0.175638 0.497825 0.178256
301 2 0.35432 0.419881 0.164856
303 4 0.357434 0.444676 0.164009
660 4 0.376854 0.493898 0.187441
658 2 0.376898 0.471095 0.177184
231 4 0.36839 0.48882 0.204184
232 2 0.0423952 0.0316325 0.295398
233 4 0.0664324 0.0256156 0.292053
1403 4 0.0635441 0.00655001 0.291709
234 4 0.018358 0.0376493 0.298743
2756 4 0.0172424 0.0422102 0.317962
1402 2 0.0820221 0.991818 0.299876
675 4 0.119885 0.083088 0.269896
673 2 0.132235 0.0628424 0.261972
1701 4 0.282512 0.040544 0.273669
1699 2 0.285909 0.0160156 0.277131
1700 4 0.289307 0.991487 0.280594
1518 4 0.361275 0.0177033 0.304305
697 2 0.388639 0.0449476 0.302837
699 4 0.370368 0.0320189 0.291693
698 4 0.40691 0.0578763 0.313981
1749 4 0.471051 0.0168183 0.325687
743 4 0.473125 0.0431416 0.269484
257 4 0.436257 0.0839971 0.316634
351 4 0.482673 0.0557338 0.281305
349 2 0.463111 0.0690854 0.28932
531 4 0.99084 0.176954 0.276401
399 4 0.0960458 0.157708 0.306236
397 2 0.101215 0.135192 0.315801
398 4 0.106385 0.112676 0.325365
732 4 0.122406 0.100525 0.3274
722 4 0.175562 0.134612 0.247479
546 4 0.17868 0.154736 0.251593
721 2 0.193396 0.119331 0.256058
723 4 0.211231 0.10405 0.264638
403 2 0.234115 0.165803 0.301095
599 4 0.230077 0.127685 0.327292
404 4 0.235389 0.144967 0.314859
249 4 0.252172 0.137653 0.320505
248 4 0.295597 0.117848 0.305581
247 2 0.273885 0.127751 0.313043
632 4 0.357177 0.0949328 0.285563
631 2 0.369848 0.0960054 0.307092
633 4 0.382519 0.097078 0.32862
331 2 0.413233 0.0852989 0.267894
350 4 0.443549 0.082437 0.297335
332 4 0.430118 0.0892435 0.285908
762 4 0.43107 0.108558 0.288003
760 2 0.44993 0.124757 0.285344
761 4 0.46879 0.140956 0.282685
529 2 0.0117851 0.187616 0.284934
530 4 0.0327301 0.198278 0.293466
393 4 0.0966066 0.177847 0.307673
544 2 0.160491 0.165165 0.265216
390 4 0.0917174 0.222188 0.306647
392 4 0.129143 0.187911 0.271056
391 2 0.112875 0.182879 0.289364
545 4 0.142302 0.175594 0.278839
388 2 0.108857 0.237856 0.315917
405 4 0.232841 0.186639 0.287332
401 4 0.176467 0.207039 0.293853
400 2 0.196682 0.211967 0.307718
402 4 0.216898 0.216895 0.321582
708 4 0.249385 0.200396 0.333
418 2 0.402526 0.221056 0.328302
419 4 0.412098 0.242052 0.31867
444 4 0.0574628 0.309762 0.283319
442 2 0.0644214 0.291952 0.267207
389 4 0.125997 0.253523 0.325187
307 2 0.297001 0.306285 0.250482
308 4 0.310367 0.308779 0.271465
496 2 0.322139 0.321294 0.306289
497 4 0.311583 0.324327 0.283826
498 4 0.332695 0.318261 0.328751
615 4 0.415008 0.319006 0.318696
543 4 0.424546 0.301642 0.319776
541 2 0.438079 0.301168 0.298757
542 4 0.451612 0.300695 0.277737
366 4 0.0237542 0.358768 0.242289
2493 4 0.000280981 0.383476 0.296633
364 2 0.00960032 0.369576 0.25984
365 4 0.995446 0.380384 0.277391
603 4 0.0827375 0.346915 0.318297
299 4 0.127674 0.383373 0.255438
601 2 0.0924437 0.369868 0.316275
734 4 0.129105 0.401293 0.266421
733 2 0.138975 0.397421 0.289065
602 4 0.10215 0.392822 0.314252
735 4 0.148845 0.39355 0.31171
677 4 0.159049 0.37813 0.318736
777 4 0.0873739 0.406667 0.315359
676 2 0.182444 0.372653 0.31182
678 4 0.20584 0.367175 0.304903
729 4 0.268323 0.382529 0.276571
727 2 0.288732 0.384899 0.290819
434 4 0.322265 0.395931 0.316521
728 4 0.309142 0.387269 0.305067
613 2 0.395166 0.334152 0.32014
433 2 0.341026 0.3895 0.331747
614 4 0.375324 0.349297 0.321584
2537 4 0.514798 0.368154 0.310983
445 2 0.460167 0.399794 0.261506
446 4 0.469693 0.411947 0.281172
1756 2 0.0741194 0.482975 0.280241
1757 4 0.0629066 0.460668 0.281599
776 4 0.0768561 0.447865 0.289037
775 2 0.082115 0.427266 0.302198
414 4 0.190301 0.480682 0.257612
413 4 0.184043 0.441112 0.287541
412 2 0.187172 0.460897 0.272576
437 4 0.259321 0.456051 0.283366
436 2 0.279279 0.470393 0.278763
438 4 0.299236 0.484735 0.274159
713 4 0.400498 0.437803 0.297586
712 2 0.417025 0.455688 0.291912
714 4 0.433552 0.473572 0.286238
2862 4 0.500907 0.429554 0.283804
2585 4 0.00698305 0.054415 0.377375
429 4 0.0743272 0.0094231 0.350323
2757 4 0.00505301 0.0654322 0.360539
2755 2 0.0111477 0.0538212 0.33925
317 4 0.0750556 0.0856239 0.336964
427 2 0.0883347 0.0298517 0.353735
428 4 0.102342 0.0502802 0.357147
731 4 0.0938206 0.0626761 0.343245
606 4 0.170275 0.0372705 0.379475
604 2 0.185237 0.043804 0.360538
605 4 0.200199 0.0503375 0.341601
683 4 0.259166 0.0463363 0.383512
682 2 0.275052 0.0643253 0.390527
725 4 0.345899 0.0538569 0.406609
480 4 0.48427 0.0253456 0.337527
478 2 0.488397 0.0500024 0.337094
424 2 0.441859 0.0445333 0.402193
426 4 0.445926 0.053254 0.379115
256 2 0.438272 0.071636 0.338274
258 4 0.440287 0.0592749 0.359915
2879 4 0.490056 0.0663203 0.40183
316 2 0.0570608 0.0951368 0.351485
318 4 0.039066 0.10465 0.366007
730 2 0.108113 0.0816006 0.335322
686 4 0.17402 0.168296 0.385801
685 2 0.171142 0.147927 0.371589
687 4 0.168263 0.127557 0.357376
600 4 0.182542 0.124778 0.342545
598 2 0.20631 0.126231 0.334918
684 4 0.290937 0.0823143 0.397542
320 4 0.288317 0.101172 0.391384
466 2 0.35667 0.15257 0.417154
514 2 0.450923 0.162674 0.410318
451 2 0.486682 0.164179 0.362613
515 4 0.456749 0.170033 0.387143
2654 4 0.0155536 0.221586 0.368629
2653 2 0.992296 0.220575 0.377753
275 4 0.156814 0.233934 0.366959
274 2 0.168263 0.252259 0.37954
474 4 0.221141 0.224637 0.383147
472 2 0.22732 0.218979 0.359589
276 4 0.179713 0.270584 0.39212
473 4 0.2335 0.21332 0.336031
706 2 0.273571 0.19705 0.327614
707 4 0.297757 0.193703 0.322227
420 4 0.392955 0.200061 0.337933
467 4 0.336298 0.166893 0.419398
716 4 0.361117 0.235747 0.373293
453 4 0.463902 0.158469 0.371195
618 4 0.053967 0.301553 0.39975
616 2 0.0543566 0.287854 0.378836
617 4 0.0547462 0.274156 0.357923
510 4 0.25545 0.306656 0.387542
374 4 0.263522 0.324077 0.393024
508 2 0.263717 0.297076 0.365977
509 4 0.271984 0.287496 0.344411
488 4 0.300057 0.271225 0.384183
376 2 0.32267 0.299283 0.360203
377 4 0.305774 0.287487 0.374366
378 4 0.339565 0.31108 0.346041
487 2 0.291179 0.264167 0.406467
715 2 0.354363 0.251554 0.39145
717 4 0.347609 0.26736 0.409608
267 4 0.3293 0.277997 0.410745
269 4 0.467653 0.267307 0.353745
268 2 0.46527 0.261595 0.377971
270 4 0.462887 0.255883 0.402196
306 4 0.479304 0.245216 0.40372
406 2 0.0645126 0.41715 0.385109
408 4 0.0819482 0.402141 0.394902
373 2 0.24984 0.344753 0.396263
502 2 0.213422 0.388373 0.404718
503 4 0.196239 0.402572 0.39339
435 4 0.359787 0.383069 0.346974
334 2 0.355531 0.410051 0.407668
561 4 0.463028 0.380372 0.407745
752 4 0.470239 0.392186 0.391247
751 2 0.479007 0.407056 0.373158
559 2 0.438051 0.37996 0.408828
753 4 0.487775 0.421926 0.35507
549 4 0.0632675 0.478636 0.336526
407 4 0.0470771 0.432158 0.375315
547 2 0.0610507 0.45621 0.347359
548 4 0.058834 0.433784 0.358192
681 4 0.0274915 0.425326 0.416809
500 4 0.127576 0.464354 0.338199
499 2 0.133001 0.48782 0.344913
570 4 0.117035 0.451446 0.425757
1435 2 0.246669 0.497911 0.348065
3 3 0.288159 0.436874 0.33636
1437 4 0.270073 0.489189 0.346903
668 4 0.298082 0.457995 0.382842
5 3 0.271072 0.469964 0.341911
1 1 0.287313 0.455945 0.34955
2 3 0.307658 0.466628 0.348489
4 3 0.28303 0.45014 0.371604
667 2 0.309121 0.45919 0.405245
593 4 0.407946 0.468402 0.353159
336 4 0.34715 0.429249 0.394016
592 2 0.410572 0.489144 0.339446
119 3 0.491704 0.417721 0.336305
718 2 0.0481865 0.062629 0.491754
719 4 0.0699196 0.056834 0.480833
720 4 0.0264534 0.068424 0.502675
368 4 0.11908 0.0424641 0.431379
367 2 0.131012 0.0632658 0.438457
369 4 0.142944 0.0840675 0.445534
2429 4 0.240994 0.00821302 0.473573
2428 2 0.218349 0.0182538 0.470171
341 4 0.195066 0.0422245 0.481741
340 2 0.189948 0.0666941 0.481273
2430 4 0.195705 0.0282945 0.46677
1180 2 0.244302 0.070048 0.485296
439 2 0.269989 0.00166938 0.448914
441 4 0.261413 0.011762 0.470121
724 2 0.329211 0.0656117 0.421049
726 4 0.312523 0.0773665 0.435489
430 2 0.310396 0.0796728 0.496422
425 4 0.437793 0.0358126 0.425271
2878 2 0.48164 0.0808485 0.420358
2880 4 0.473223 0.0953767 0.438886
342 4 0.184829 0.0911637 0.480806
1034 4 0.0992599 0.146156 0.468733
1182 4 0.232887 0.0868586 0.470726
1152 4 0.176288 0.0969231 0.497281
319 2 0.277952 0.115237 0.409271
321 4 0.267588 0.129302 0.427157
431 4 0.329524 0.0951047 0.501022
468 4 0.377041 0.138247 0.41491
576 4 0.409793 0.124117 0.46392
843 4 0.344117 0.0822646 0.505756
574 2 0.424588 0.143181 0.457376
642 4 0.468558 0.0923221 0.458299
516 4 0.445097 0.155314 0.433492
641 4 0.463941 0.127887 0.493148
640 2 0.466249 0.110105 0.475723
575 4 0.439383 0.162246 0.450831
457 2 0.995304 0.167173 0.449915
458 4 0.0167602 0.171361 0.437779
471 4 0.000679137 0.202055 0.477229
261 4 0.0864103 0.200443 0.479589
259 2 0.0839116 0.221019 0.465605
1035 4 0.0765305 0.185762 0.489114
469 2 0.0160303 0.201638 0.496961
1033 2 0.0878952 0.165959 0.478924
260 4 0.0814129 0.241595 0.45162
411 4 0.244792 0.203079 0.486597
409 2 0.26729 0.192422 0.488929
410 4 0.289788 0.181765 0.49126
304 2 0.486069 0.226424 0.418763
585 4 0.440702 0.248693 0.465665
347 4 0.0491 0.311593 0.416087
346 2 0.0282417 0.301841 0.425834
695 4 0.0920193 0.288248 0.499352
10 3 0.163591 0.321637 0.480724
650 4 0.265927 0.26556 0.489525
489 4 0.282302 0.25711 0.428751
651 4 0.281718 0.272025 0.442519
649 2 0.273823 0.268793 0.466022
266 4 0.357415 0.29514 0.448381
265 2 0.343358 0.286569 0.429563
2455 2 0.502081 0.292568 0.471406
2456 4 0.480298 0.299401 0.461208
583 2 0.451586 0.270489 0.460039
584 4 0.46247 0.292285 0.454412
2814 4 0.00737723 0.344989 0.442228
327 4 0.124773 0.346146 0.478242
7 3 0.140655 0.349526 0.490158
326 4 0.0906347 0.339828 0.442251
325 2 0.107704 0.342987 0.460247
6 1 0.162632 0.343504 0.487013
709 2 0.17025 0.3767 0.43817
711 4 0.160539 0.36993 0.460193
8 3 0.171787 0.356917 0.47044
504 4 0.230605 0.374175 0.416046
710 4 0.17996 0.38347 0.416146
375 4 0.236157 0.365428 0.399501
804 4 0.279615 0.411097 0.478829
238 2 0.375843 0.377451 0.455671
240 4 0.364214 0.374751 0.433701
335 4 0.363912 0.390853 0.42132
239 4 0.387472 0.380152 0.47764
560 4 0.413075 0.379547 0.409911
927 4 0.468626 0.419089 0.506072
680 4 0.0162098 0.464981 0.44511
1381 2 0.00924377 0.484982 0.484492
1383 4 0.0139739 0.476142 0.461587
679 2 0.0218507 0.445153 0.430959
540 4 0.0856279 0.490007 0.485993
568 2 0.117561 0.435547 0.445048
569 4 0.118087 0.419648 0.464338
382 2 0.102727 0.425092 0.504911
384 4 0.110705 0.416549 0.482808
772 2 0.228421 0.439088 0.486757
774 4 0.222453 0.44327 0.462839
636 4 0.165143 0.459957 0.435015
635 4 0.213309 0.450204 0.44427
634 2 0.189226 0.45508 0.439643
669 4 0.32016 0.460385 0.427648
587 4 0.41258 0.452628 0.446629
1399 2 0.355794 0.491206 0.446028
586 2 0.398563 0.439626 0.430515
588 4 0.384546 0.426624 0.414402
1400 4 0.377906 0.480839 0.440664
1126 2 0.018132 0.0595964 0.538227
1127 4 0.0336525 0.0582848 0.518668
1128 4 0.00261163 0.0609081 0.557787
2237 4 0.049725 0.00361605 0.53918
1058 4 0.112297 0.0362861 0.576955
1057 2 0.124166 0.0580454 0.573663
961 2 0.280369 0.0304235 0.511357
962 4 0.283357 0.0080882 0.522191
432 4 0.291268 0.0642409 0.491823
1181 4 0.255717 0.0532375 0.499866
963 4 0.277381 0.0527589 0.500522
1217 4 0.409497 0.0660143 0.520643
842 4 0.392327 0.0775839 0.51819
841 2 0.368222 0.0799242 0.511973
1216 2 0.426301 0.0731309 0.537737
1218 4 0.443104 0.0802474 0.55483
4466 4 0.492622 0.000448323 0.580176
1059 4 0.136035 0.0798047 0.570372
937 2 0.107637 0.174052 0.532898
1153 2 0.159696 0.106494 0.58405
939 4 0.112341 0.16395 0.555281
1154 4 0.167726 0.130111 0.58576
1150 2 0.17663 0.102234 0.521712
1151 4 0.176972 0.107545 0.546142
1032 4 0.235025 0.099428 0.571138
898 2 0.319492 0.160895 0.560238
899 4 0.295779 0.159485 0.552436
857 4 0.266606 0.154476 0.563549
3157 2 0.475453 0.156627 0.51517
3158 4 0.464811 0.147625 0.494411
878 4 0.0765467 0.221561 0.548013
470 4 0.0313815 0.201222 0.516693
1199 4 0.00494427 0.182633 0.550843
938 4 0.102934 0.184155 0.510515
877 2 0.0854302 0.216825 0.570901
797 4 0.253061 0.216511 0.565148
856 2 0.267669 0.179443 0.564389
796 2 0.257528 0.241032 0.563151
858 4 0.268732 0.20441 0.565229
900 4 0.343205 0.162304 0.568039
871 2 0.374888 0.240261 0.523864
872 4 0.392676 0.222901 0.521143
3159 4 0.486095 0.165628 0.535928
1260 4 0.159191 0.278118 0.510096
694 2 0.115674 0.284684 0.506627
696 4 0.139328 0.281119 0.513903
1258 2 0.173875 0.287845 0.527843
1259 4 0.188558 0.297573 0.54559
798 4 0.261996 0.265552 0.561154
791 4 0.323824 0.264469 0.568161
790 2 0.303675 0.278679 0.572316
792 4 0.283526 0.292889 0.576472
1238 4 0.270659 0.30061 0.562221
1237 2 0.264409 0.318445 0.578593
812 4 0.315213 0.302008 0.514325
873 4 0.3571 0.257621 0.526584
813 4 0.337313 0.257952 0.522769
811 2 0.326263 0.27998 0.518547
953 4 0.448102 0.29705 0.585074
1135 2 0.108541 0.356453 0.577513
897 4 0.14458 0.350843 0.567753
1137 4 0.130029 0.363906 0.567126
9 3 0.174161 0.346529 0.506921
895 2 0.168007 0.359222 0.56528
1189 2 0.218997 0.379886 0.533617
896 4 0.191435 0.3676 0.562807
1191 4 0.20147 0.379176 0.551435
1190 4 0.236525 0.380595 0.515799
802 2 0.267048 0.395168 0.493441
803 4 0.25448 0.379239 0.508053
929 4 0.342476 0.387324 0.542011
928 2 0.35836 0.379414 0.559626
930 4 0.374244 0.371503 0.577242
925 2 0.473662 0.40295 0.524493
926 4 0.478699 0.38681 0.542914
1001 4 0.456995 0.426055 0.570426
383 4 0.0947479 0.433635 0.527014
1173 4 0.23018 0.453536 0.563179
773 4 0.23439 0.434905 0.510675
1171 2 0.250745 0.445157 0.551689
1172 4 0.271311 0.436777 0.540199
882 4 0.290249 0.435517 0.549214
880 2 0.302686 0.448457 0.531804
881 4 0.315122 0.461396 0.514395
1000 2 0.43861 0.442026 0.564761
661 2 0.48325 0.483333 0.518745
663 4 0.478395 0.45881 0.519213
1910 4 0.412703 0.471685 0.571361
1909 2 0.422401 0.493529 0.578708
1002 4 0.420224 0.457997 0.559097
2319 4 0.06416 0.01654 0.658121
1185 4 0.0254614 0.036581 0.662764
945 4 0.0749324 0.03378 0.656151
943 2 0.071966 0.0568979 0.665203
2317 2 0.0487214 0.00475411 0.673867
823 2 0.131574 0.0043955 0.606292
825 4 0.121876 0.0151727 0.626663
1030 2 0.233349 0.0814174 0.5884
951 4 0.224208 0.0448539 0.612664
1031 4 0.231673 0.0634069 0.605663
949 2 0.212889 0.0238466 0.605198
950 4 0.20157 0.0028394 0.597731
2282 4 0.454992 0.0311653 0.664993
2281 2 0.455036 0.0148738 0.646025
45 3 0.460981 0.0726466 0.649877
2283 4 0.455079 0.998582 0.627058
810 4 0.474782 0.0781955 0.637121
4465 2 0.473081 0.994942 0.59477
1082 4 0.0445346 0.121158 0.63588
1081 2 0.067379 0.110994 0.636022
1155 4 0.151666 0.0828764 0.582341
1083 4 0.0902233 0.100831 0.636164
1283 4 0.157732 0.12204 0.640399
1282 2 0.169862 0.126758 0.661747
1221 4 0.170455 0.143011 0.601194
1219 2 0.185959 0.161608 0.607435
1005 4 0.361338 0.101041 0.619343
1003 2 0.358284 0.0975782 0.643916
808 2 0.492724 0.0817152 0.620066
879 4 0.0943137 0.212088 0.593788
1272 4 0.102254 0.213878 0.612856
1270 2 0.111003 0.210294 0.636003
1271 4 0.119752 0.206709 0.65915
1212 4 0.207959 0.172845 0.631177
1220 4 0.201464 0.180204 0.613676
1210 2 0.23022 0.179438 0.640457
909 4 0.165424 0.200721 0.663024
1211 4 0.252482 0.186032 0.649737
888 4 0.265882 0.19476 0.661193
1024 2 0.419005 0.216632 0.652171
1026 4 0.41231 0.237026 0.639347
1143 4 0.421067 0.17688 0.662459
1208 4 0.0655523 0.257875 0.655984
1244 4 0.0231345 0.272369 0.620851
1243 2 0.0259018 0.288934 0.639375
1245 4 0.028669 0.305499 0.657899
1207 2 0.0879338 0.269014 0.656398
1209 4 0.110315 0.280153 0.656811
948 4 0.15986 0.290189 0.615497
946 2 0.180091 0.275818 0.618558
947 4 0.200322 0.261447 0.621619
952 2 0.452867 0.310798 0.605407
954 4 0.457632 0.324547 0.62574
3123 4 0.473423 0.287094 0.663046
3121 2 0.489361 0.270697 0.673162
983 4 0.0155623 0.372636 0.616882
1039 2 0.0526032 0.390957 0.61579
1041 4 0.0342144 0.374542 0.611597
1040 4 0.070992 0.407371 0.619983
993 4 0.086181 0.414429 0.630585
1136 4 0.087053 0.349 0.5879
992 4 0.131613 0.406866 0.650065
991 2 0.108897 0.410648 0.640325
1239 4 0.258158 0.33628 0.594964
1204 2 0.387148 0.372672 0.616519
1206 4 0.380118 0.362182 0.594938
1205 4 0.394179 0.383162 0.638099
806 4 0.354239 0.362066 0.669358
2129 4 0.0190433 0.473365 0.635992
1160 4 0.147513 0.461678 0.596421
1159 2 0.171096 0.454025 0.59965
1161 4 0.194679 0.446371 0.60288
1188 4 0.213479 0.504496 0.665811
1952 4 0.335495 0.453754 0.590984
890 4 0.300694 0.413191 0.610785
891 4 0.334634 0.435222 0.581402
889 2 0.317664 0.424206 0.596093
1951 2 0.34818 0.475297 0.591374
1953 4 0.360866 0.49684 0.591764
1269 4 0.486192 0.488168 0.656748
1267 2 0.466757 0.501052 0.647724
1183 2 0.0141923 0.0551774 0.675107
1184 4 0.00292307 0.0737739 0.687451
944 4 0.0689997 0.0800157 0.674255
1075 2 0.0541153 0.0758377 0.714146
1077 4 0.0450432 0.0660894 0.735308
43 3 0.442122 0.0465737 0.669427
41 1 0.454395 0.0662245 0.67071
1163 4 0.492732 0.0628015 0.676275
42 3 0.472993 0.06254 0.683736
1076 4 0.0631874 0.0855859 0.692983
1105 2 0.0639655 0.162779 0.738469
1284 4 0.181993 0.131477 0.683096
1227 4 0.182391 0.148232 0.695016
1225 2 0.19938 0.146435 0.713273
1226 4 0.216369 0.144637 0.73153
908 4 0.196596 0.171199 0.688665
1004 4 0.355231 0.0941158 0.66849
44 3 0.441592 0.082936 0.680469
1142 4 0.417428 0.160955 0.709723
1107 4 0.0570881 0.180066 0.721765
851 4 0.0673782 0.191481 0.707943
852 4 0.0249393 0.196087 0.681896
850 2 0.0461587 0.193784 0.69492
1178 4 0.0173649 0.213806 0.684869
1177 2 0.0089277 0.237224 0.682507
821 4 0.133021 0.242907 0.75074
907 2 0.18101 0.18596 0.675845
829 2 0.323404 0.177629 0.717081
830 4 0.306483 0.163842 0.704883
886 2 0.281015 0.180057 0.674608
887 4 0.296149 0.165353 0.688023
1193 4 0.351511 0.210337 0.677123
1025 4 0.425701 0.196238 0.664995
831 4 0.340326 0.191415 0.729278
1192 2 0.373318 0.213937 0.688814
1194 4 0.395125 0.217536 0.700505
1262 4 0.402648 0.232853 0.711001
1141 2 0.419248 0.168917 0.686091
3356 4 0.474809 0.224509 0.733445
3355 2 0.487231 0.231258 0.712822
1261 2 0.424013 0.226377 0.722261
3357 4 0.499654 0.238008 0.692199
1263 4 0.445377 0.219901 0.733521
1145 4 0.459966 0.219925 0.747282
1065 4 0.276093 0.290874 0.700445
1064 4 0.264892 0.249748 0.726597
1063 2 0.270493 0.270311 0.713521
3122 4 0.505298 0.2543 0.683278
892 2 0.0612094 0.402609 0.708307
894 4 0.0410477 0.396905 0.721951
3276 4 0.0329093 0.38341 0.734632
893 4 0.0813711 0.408312 0.694663
1066 2 0.187207 0.410853 0.690162
1068 4 0.210679 0.40378 0.685242
1027 2 0.249299 0.419226 0.68022
1028 4 0.224344 0.418158 0.681344
1029 4 0.274255 0.420295 0.679095
1139 4 0.282282 0.405352 0.68915
1138 2 0.306901 0.409296 0.687274
807 4 0.372105 0.347214 0.71364
805 2 0.363172 0.35464 0.691499
1018 2 0.378623 0.353018 0.747686
1020 4 0.364566 0.359279 0.727978
1281 4 0.00823568 0.457302 0.71469
1279 2 0.021486 0.436786 0.72005
1983 4 0.0190971 0.471747 0.706054
1280 4 0.0347363 0.416271 0.72541
2170 2 0.110954 0.502298 0.668546
1067 4 0.163735 0.417927 0.695082
941 4 0.145039 0.418957 0.700978
2172 4 0.102402 0.48492 0.684358
940 2 0.126253 0.425981 0.715908
942 4 0.107466 0.433006 0.730837
1176 4 0.209659 0.506123 0.685687
1174 2 0.226957 0.495468 0.700261
1175 4 0.244255 0.484813 0.714836
1140 4 0.33152 0.41324 0.685398
1987 2 0.330538 0.503547 0.736376
1230 4 0.357045 0.427323 0.735384
1228 2 0.3489 0.450948 0.734544
1229 4 0.340755 0.474573 0.733704
1989 4 0.352278 0.491568 0.733371
1101 4 0.490607 0.491021 0.680096
1100 4 0.480378 0.460676 0.718505
1099 2 0.485492 0.475849 0.6993
1250 4 0.464342 0.451515 0.729069
3329 4 0.495788 0.450629 0.725828
1203 4 0.056891 0.0572725 0.748984
1201 2 0.0717399 0.0390575 0.757523
1202 4 0.0865888 0.0208425 0.766061
911 4 0.104796 0.0578117 0.791408
2049 4 0.100524 0.0108018 0.757259
910 2 0.0991799 0.06989 0.812569
1048 2 0.320393 0.00745847 0.759142
1256 4 0.298449 0.0661987 0.79541
1050 4 0.319633 0.0277979 0.773665
817 2 0.35995 0.0641359 0.831436
980 4 0.445141 0.0059295 0.804333
846 4 0.46486 0.0418827 0.792273
1113 4 0.461083 0.0494846 0.810273
844 2 0.481941 0.0384266 0.774344
1111 2 0.437758 0.0577796 0.80676
1112 4 0.414434 0.0660747 0.803247
864 4 0.0444663 0.0829674 0.771953
1106 4 0.070843 0.145491 0.755173
862 2 0.0388899 0.107009 0.775965
863 4 0.0333136 0.13105 0.779977
833 4 0.0151492 0.137003 0.786659
35 3 0.0891399 0.145016 0.761008
912 4 0.0935638 0.0819683 0.833729
33 3 0.11502 0.121964 0.775722
31 1 0.110003 0.143903 0.770072
34 3 0.111182 0.157401 0.788908