ITEM: TIMESTEP
1980000
ITEM: NUMBER OF ATOMS
4590
ITEM: BOX BOUNDS pp pp pp
-9.9985700000000008e+00 9.9985700000000008e+00
-9.9985700000000008e+00 9.9985700000000008e+00
-9.9985700000000008e+00 9.9985700000000008e+00
ITEM: ATOMS id type xs ys zs
1668 4 0.0624314 0.0462449 0.0472599
1666 2 0.0579477 0.0317476 0.0671321
566 4 0.177099 0.0206575 0.0573674
565 2 0.190652 0.0397125 0.0485126
567 4 0.204205 0.0587674 0.0396578
492 4 0.26512 0.0271267 0.0630802
1475 4 0.28018 0.0164691 0.0712137
490 2 0.273999 0.0312012 0.0400639
491 4 0.282877 0.0352756 0.0170475
2264 4 0.30346 0.0690673 0.0014159
986 4 0.311514 0.0512904 0.996523
2145 4 0.374211 0.988694 0.0431093
2143 2 0.365844 0.99941 0.0221252
745 2 0.467759 0.0479878 0.0297447
2724 4 0.498282 0.0522081 0.0599302
747 4 0.483668 0.0602333 0.0446493
2722 2 0.490174 0.0623776 0.081285
746 4 0.451851 0.0357423 0.0148401
2469 4 0.49866 0.0690935 0.0349108
701 4 0.0586435 0.113429 0.0028214
700 2 0.0549486 0.138149 0.00348725
702 4 0.0512538 0.162869 0.00415311
358 2 0.228196 0.157229 0.0234405
359 4 0.247238 0.146311 0.0354144
360 4 0.209154 0.168147 0.0114666
665 4 0.361703 0.167901 0.0176141
555 4 0.0436058 0.178783 0.0161374
553 2 0.0405964 0.200251 0.00367698
422 4 0.109218 0.209475 0.0281592
421 2 0.0985232 0.190146 0.0164456
1133 4 0.196519 0.177013 0.99893
737 4 0.213478 0.236971 0.0552585
736 2 0.226237 0.216645 0.0622752
354 4 0.238189 0.182101 0.0831307
738 4 0.238996 0.196319 0.0692919
664 2 0.344246 0.184892 0.0119811
323 4 0.439297 0.252681 0.0619937
2807 4 0.00353872 0.290111 0.00977246
2806 2 0.996007 0.301211 0.0308734
292 2 0.166786 0.320873 0.0520426
294 4 0.145458 0.333885 0.0530357
506 4 0.225572 0.25087 0.0493889
507 4 0.196411 0.291307 0.0454993
293 4 0.188114 0.307862 0.0510494
505 2 0.210992 0.271089 0.0474441
481 2 0.295269 0.283248 0.0122622
482 4 0.313097 0.296727 0.0234724
740 4 0.334474 0.336006 0.0908945
1069 2 0.3884 0.244238 0.00180171
1071 4 0.371705 0.249787 0.0195682
573 4 0.365428 0.258135 0.03626
571 2 0.36377 0.283061 0.0373332
572 4 0.362112 0.307986 0.0384065
741 4 0.347411 0.290201 0.0755575
739 2 0.340942 0.313104 0.083226
255 4 0.344791 0.270364 0.0818292
324 4 0.454978 0.296884 0.044646
322 2 0.447137 0.274783 0.0533198
315 4 0.052728 0.402092 0.0808863
456 4 0.125014 0.334228 0.0555479
454 2 0.120233 0.35877 0.0554355
455 4 0.115452 0.383312 0.0553231
608 4 0.242373 0.376085 0.0487666
607 2 0.234319 0.357828 0.0638325
609 4 0.226265 0.33957 0.0788983
252 4 0.250327 0.393633 0.0414294
250 2 0.273637 0.402678 0.0412436
251 4 0.296947 0.411722 0.0410579
524 4 0.316685 0.409897 0.0425207
226 2 0.402782 0.384432 0.0245628
228 4 0.399919 0.402124 0.041998
227 4 0.405645 0.36674 0.00712762
670 2 0.408786 0.359944 0.0773813
1305 4 0.423771 0.362573 0.00201609
671 4 0.430413 0.351411 0.0681804
281 4 0.43108 0.337251 0.0547814
280 2 0.455716 0.338434 0.0506788
282 4 0.480352 0.339617 0.0465762
104 3 0.486206 0.343504 0.0659281
1045 2 0.496001 0.337997 0.00566276
1047 4 0.494147 0.336535 0.0305546
313 2 0.0426816 0.415635 0.0624251
552 4 0.0271623 0.445309 0.0538418
314 4 0.0326352 0.429179 0.0439639
550 2 0.00473815 0.453594 0.0465146
244 2 0.243669 0.470888 0.00369901
243 4 0.217216 0.497056 0.0646271
245 4 0.222694 0.457541 0.00635817
1440 4 0.256155 0.472674 0.0780658
523 2 0.331867 0.427958 0.0507942
272 4 0.253652 0.49189 0.0785202
246 4 0.264644 0.484234 0.00103985
37 3 0.343074 0.477981 0.0148303
525 4 0.34705 0.44602 0.0590676
1667 4 0.053464 0.0172502 0.0870042
1422 4 0.0182735 0.0119516 0.148916
2480 4 0.0117621 0.00721561 0.129911
18 3 0.0661303 0.0165739 0.129879
16 1 0.0519158 0.999771 0.12253
19 3 0.032156 0.000231658 0.134685
17 3 0.0470707 0.00331369 0.100323
2479 2 0.00420342 0.0278569 0.117996
652 2 0.238821 0.0483435 0.144149
654 4 0.238694 0.0480772 0.119147
1474 2 0.274438 0.0253556 0.0938685
1476 4 0.268696 0.0342422 0.116523
296 4 0.388849 0.0705165 0.0806581
297 4 0.369513 0.0344278 0.109371
295 2 0.379181 0.0524721 0.0950144
485 4 0.359914 0.0214844 0.121794
1759 2 0.464071 0.996249 0.153441
1760 4 0.47482 0.0170996 0.162096
2744 4 0.491403 0.0236785 0.171477
235 2 0.12265 0.158036 0.142842
236 4 0.132551 0.144134 0.161114
237 4 0.112748 0.171938 0.124569
449 4 0.131739 0.128175 0.174672
557 4 0.398606 0.0822891 0.092975
758 4 0.338946 0.115555 0.173998
556 2 0.410844 0.103955 0.0954242
2723 4 0.482067 0.0725472 0.10264
771 4 0.443082 0.124541 0.0972047
558 4 0.423081 0.125622 0.0978734
769 2 0.46209 0.134436 0.110086
770 4 0.481099 0.144332 0.122968
338 4 0.0595654 0.234576 0.148964
476 4 0.200843 0.171889 0.149884
477 4 0.209124 0.21183 0.120957
475 2 0.204984 0.191859 0.135421
352 2 0.251231 0.186603 0.103983
353 4 0.264274 0.191105 0.124835
461 4 0.283198 0.196229 0.122427
460 2 0.303259 0.208669 0.114183
462 4 0.323321 0.22111 0.10594
279 4 0.268426 0.24375 0.160745
254 4 0.381945 0.237077 0.0853213
630 4 0.396386 0.230547 0.0974954
628 2 0.408919 0.232595 0.119034
624 4 0.419686 0.240389 0.159648
629 4 0.421451 0.234643 0.140573
337 2 0.0483352 0.256011 0.155257
339 4 0.037105 0.277446 0.161551
612 4 0.239166 0.324994 0.0823424
610 2 0.243037 0.305939 0.0980625
611 4 0.246908 0.286885 0.113783
755 4 0.288572 0.265157 0.10537
278 4 0.275565 0.269783 0.118649
277 2 0.271995 0.256767 0.139697
754 2 0.313433 0.26635 0.102984
253 2 0.363368 0.25372 0.0835752
756 4 0.338294 0.267543 0.100598
619 2 0.0718509 0.395649 0.118314
621 4 0.0586936 0.404232 0.0988612
647 4 0.0712721 0.378447 0.150925
620 4 0.0850083 0.387066 0.137766
537 4 0.105669 0.382958 0.137638
535 2 0.124796 0.377856 0.122363
536 4 0.143922 0.372754 0.107088
646 2 0.0831106 0.378942 0.172943
386 4 0.322116 0.337405 0.105791
387 4 0.340711 0.381395 0.120617
385 2 0.331414 0.3594 0.113204
302 4 0.339696 0.396182 0.138818
12 3 0.381202 0.371898 0.106268
11 1 0.38003 0.383346 0.126186
15 3 0.358174 0.386681 0.131647
672 4 0.38716 0.368478 0.0865822
14 3 0.390786 0.403761 0.123748
495 4 0.396496 0.422342 0.128733
13 3 0.390485 0.370804 0.142673
597 4 0.383777 0.360517 0.160561
301 2 0.339654 0.416219 0.153774
645 4 0.40136 0.375581 0.162444
626 4 0.17861 0.448213 0.119267
1438 2 0.240724 0.461386 0.0941799
625 2 0.193733 0.450301 0.139069
1439 4 0.225293 0.450099 0.110294
638 4 0.22667 0.459148 0.164033
637 2 0.238098 0.480906 0.159432
627 4 0.208856 0.452388 0.158871
1559 4 0.34126 0.488332 0.102699
493 2 0.415944 0.428 0.114071
494 4 0.435391 0.433659 0.0994094
1583 4 0.481912 0.474777 0.101355
1582 2 0.465954 0.494025 0.101461
1420 2 0.0145369 0.00612653 0.172943
690 4 0.168593 0.0151666 0.23989
674 4 0.150637 0.0137575 0.231232
688 2 0.18027 0.00564977 0.219934
653 4 0.238947 0.0486098 0.16915
693 4 0.237568 0.0473548 0.188674
691 2 0.260679 0.0406007 0.195415
692 4 0.28379 0.0338466 0.202156
1699 2 0.308045 0.0582475 0.230204
1701 4 0.290271 0.0474377 0.216333
1700 4 0.325819 0.0690573 0.244075
21 1 0.36392 0.0679207 0.230034
25 3 0.369887 0.068521 0.208065
23 3 0.34151 0.073492 0.232306
24 3 0.377029 0.0826987 0.242206
22 3 0.367159 0.0466559 0.238187
511 2 0.0158251 0.119085 0.220813
578 4 0.0357033 0.143565 0.218777
513 4 0.040067 0.124 0.217159
577 2 0.0445088 0.166287 0.224374
448 2 0.140859 0.104895 0.174849
450 4 0.149978 0.0816141 0.175026
28 3 0.239318 0.142147 0.182266
27 3 0.241103 0.139386 0.219707
26 1 0.25305 0.136875 0.200211
546 4 0.180655 0.137384 0.235057
580 2 0.299718 0.110128 0.180313
581 4 0.276598 0.116633 0.187264
30 3 0.260149 0.115305 0.198489
582 4 0.322838 0.103623 0.173362
29 3 0.271298 0.1512 0.200698
759 4 0.370493 0.0854888 0.198523
757 2 0.354719 0.100522 0.186261
312 4 0.412597 0.141892 0.199809
311 4 0.454807 0.141346 0.226618
310 2 0.433702 0.141619 0.213214
529 2 0.0186988 0.214462 0.231791
530 4 0.0401125 0.203073 0.225715
579 4 0.0533143 0.18901 0.229971
372 4 0.146335 0.241846 0.186034
362 4 0.126772 0.2389 0.18484
370 2 0.159805 0.228211 0.202091
371 4 0.173275 0.214576 0.218148
401 4 0.235645 0.177558 0.249541
284 4 0.285779 0.222528 0.222931
283 2 0.282173 0.228016 0.198805
285 4 0.278566 0.233503 0.174679
521 4 0.478296 0.180802 0.237956
520 2 0.497801 0.172875 0.224468
396 4 0.0634353 0.303851 0.213122
443 4 0.0694166 0.298311 0.230767
394 2 0.0713473 0.294539 0.191308
395 4 0.0792593 0.285227 0.169494
363 4 0.0989864 0.278058 0.170864
361 2 0.112879 0.258479 0.177852
596 4 0.384411 0.312003 0.172673
595 2 0.384094 0.33626 0.166617
622 2 0.436933 0.255736 0.169251
623 4 0.454179 0.271083 0.178854
527 4 0.461315 0.284118 0.164764
526 2 0.470317 0.300922 0.180944
528 4 0.479318 0.317725 0.197124
264 4 0.0404756 0.415164 0.216355
648 4 0.094949 0.379438 0.194961
300 4 0.0942788 0.373962 0.212927
298 2 0.105521 0.356645 0.227031
299 4 0.116763 0.339328 0.241134
345 4 0.265764 0.32756 0.224612
343 2 0.280337 0.328764 0.244894
643 2 0.40038 0.388416 0.18388
644 4 0.399401 0.40125 0.205315
447 4 0.407165 0.389157 0.219222
445 2 0.413263 0.408381 0.234001
108 3 0.501206 0.403888 0.220207
262 2 0.0490162 0.437331 0.224156
263 4 0.0575568 0.459498 0.231958
766 2 0.178365 0.490947 0.250799
289 2 0.222457 0.450637 0.236222
417 4 0.167979 0.489643 0.194337
290 4 0.210313 0.459205 0.216115
416 4 0.204008 0.455096 0.197361
415 2 0.185994 0.472369 0.195849
768 4 0.186782 0.468386 0.244068
303 4 0.339612 0.436256 0.16873
659 4 0.350993 0.452597 0.163341
658 2 0.350145 0.465098 0.184979
660 4 0.349297 0.477599 0.206616
231 4 0.364053 0.488265 0.213034
1403 4 0.03627 0.993024 0.285821
232 2 0.0373531 0.0305448 0.298717
234 4 0.0474476 0.0512336 0.308476
317 4 0.050935 0.0669249 0.294651
233 4 0.0272586 0.00985594 0.288957
673 2 0.13904 0.031099 0.245015
675 4 0.127443 0.0484405 0.258797
1406 4 0.227387 0.0241173 0.291407
684 4 0.256672 0.0426556 0.331681
1518 4 0.376234 0.998641 0.284203
698 4 0.375168 0.0530027 0.256067
697 2 0.380363 0.0342472 0.271765
699 4 0.385558 0.0154917 0.287463
333 4 0.388745 0.0685688 0.251637
331 2 0.410721 0.0794061 0.256615
743 4 0.479449 0.0243563 0.247253
742 2 0.476107 0.00686731 0.264807
351 4 0.47715 0.0382427 0.262426
349 2 0.461445 0.0572161 0.266732
350 4 0.44574 0.0761896 0.271038
318 4 0.0729668 0.0807413 0.251938
316 2 0.0619509 0.0738331 0.273295
393 4 0.148062 0.144831 0.335292
391 2 0.143094 0.1482 0.31102
392 4 0.138125 0.151569 0.286748
545 4 0.150972 0.150606 0.273068
723 4 0.230802 0.0863399 0.254678
721 2 0.212493 0.0922271 0.270657
722 4 0.194184 0.0981142 0.286635
544 2 0.165814 0.143995 0.254062
599 4 0.204288 0.114936 0.296079
404 4 0.215042 0.132662 0.291653
598 2 0.194504 0.124399 0.317053
403 2 0.228422 0.147522 0.276641
405 4 0.241802 0.162382 0.26163
762 4 0.420549 0.127027 0.294922
332 4 0.432697 0.0902434 0.261593
761 4 0.468751 0.121329 0.306955
760 2 0.44465 0.124178 0.300938
257 4 0.485023 0.0951655 0.327259
402 4 0.232424 0.227026 0.256114
400 2 0.234034 0.202292 0.252828
765 4 0.420144 0.179457 0.268721
763 2 0.439549 0.179196 0.252955
764 4 0.458954 0.178936 0.237189
442 2 0.0624193 0.296658 0.254715
444 4 0.055422 0.295005 0.278662
496 2 0.331631 0.282123 0.320759
309 4 0.304459 0.321493 0.279124
344 4 0.294911 0.329967 0.265175
497 4 0.348512 0.283439 0.302361
613 2 0.409476 0.321812 0.31545
541 2 0.457448 0.289116 0.301177
542 4 0.478948 0.289794 0.288431
615 4 0.425122 0.303926 0.307673
543 4 0.435948 0.288438 0.313924
749 4 0.0558718 0.348301 0.287852
365 4 0.0023107 0.354301 0.315192
364 2 0.0207541 0.346179 0.300391
366 4 0.0391975 0.338058 0.285591
748 2 0.0788316 0.350308 0.278157
735 4 0.152398 0.365585 0.28785
734 4 0.117085 0.342923 0.260644
750 4 0.101791 0.352314 0.268461
733 2 0.134742 0.354254 0.274247
602 4 0.106113 0.395543 0.31984
777 4 0.114081 0.396829 0.302149
676 2 0.1656 0.381906 0.319598
677 4 0.152224 0.364132 0.308183
412 2 0.236831 0.421816 0.292284
413 4 0.239194 0.416237 0.316542
307 2 0.305489 0.335261 0.299971
727 2 0.326026 0.382022 0.319979
728 4 0.32946 0.405465 0.311989
308 4 0.306518 0.349028 0.320817
729 4 0.322593 0.358579 0.327968
614 4 0.39383 0.339697 0.323227
2924 4 0.498492 0.389575 0.317201
1757 4 0.12701 0.454575 0.305615
776 4 0.108538 0.446503 0.300562
775 2 0.11131 0.421666 0.301355
1756 2 0.134686 0.47631 0.295927
414 4 0.234469 0.427394 0.268025
291 4 0.234601 0.442069 0.256329
1436 4 0.239132 0.491086 0.318607
434 4 0.329406 0.42509 0.313746
2 3 0.308042 0.41254 0.314754
1435 2 0.258147 0.475929 0.312786
438 4 0.315106 0.443663 0.253186
437 4 0.293026 0.455096 0.296573
436 2 0.304066 0.449379 0.274879
1437 4 0.277162 0.460773 0.306965
5 3 0.282617 0.439222 0.308874
1 1 0.294138 0.427821 0.324871
446 4 0.419361 0.427605 0.248781
433 2 0.34784 0.441376 0.309263
435 4 0.366275 0.457663 0.30478
714 4 0.429875 0.441289 0.258116
713 4 0.430311 0.422606 0.304499
712 2 0.430093 0.431947 0.281308
429 4 0.0761289 0.00491763 0.359013
428 4 0.0352467 0.0292745 0.374379
427 2 0.0556878 0.017096 0.366696
606 4 0.156191 0.0142634 0.368435
730 2 0.106315 0.0723708 0.403246
604 2 0.168794 0.0357378 0.366154
605 4 0.181397 0.0572122 0.363873
683 4 0.241187 0.0476752 0.378965
682 2 0.24893 0.0451654 0.355323
321 4 0.227166 0.0917402 0.39307
249 4 0.318408 0.0669394 0.366173
247 2 0.338946 0.0788299 0.358299
1748 4 0.433468 0.995662 0.355753
424 2 0.44154 0.0502298 0.38711
426 4 0.45364 0.0705378 0.378964
425 4 0.42944 0.0299219 0.395256
258 4 0.458558 0.0881049 0.369098
399 4 0.134687 0.130155 0.338257
732 4 0.109229 0.0934705 0.390151
398 4 0.118145 0.100374 0.374866
397 2 0.126416 0.115264 0.356561
686 4 0.197682 0.143333 0.398359
600 4 0.184719 0.133861 0.338027
685 2 0.194413 0.133163 0.375752
687 4 0.191144 0.122993 0.353146
319 2 0.242597 0.09546 0.412389
410 4 0.252524 0.127249 0.391207
409 2 0.253547 0.151327 0.39787
707 4 0.261152 0.141891 0.332982
706 2 0.255156 0.16423 0.34248
248 4 0.359483 0.0907204 0.350426
633 4 0.366581 0.100424 0.365513
632 4 0.400385 0.13718 0.362871
631 2 0.383483 0.118802 0.364192
420 4 0.396055 0.155401 0.368872
466 2 0.360539 0.100742 0.416176
468 4 0.378393 0.100908 0.398671
256 2 0.471791 0.0916352 0.348179
617 4 0.0511669 0.251002 0.396473
274 2 0.161851 0.231246 0.354799
390 4 0.08523 0.243146 0.386281
388 2 0.1092 0.244661 0.37933
276 4 0.148575 0.251158 0.362041
473 4 0.234099 0.195679 0.343702
275 4 0.175128 0.211335 0.347558
474 4 0.190478 0.216514 0.356502
472 2 0.212289 0.206097 0.350102
411 4 0.25457 0.175405 0.404533
708 4 0.24916 0.186569 0.351977
489 4 0.249215 0.241975 0.403764
717 4 0.327479 0.23761 0.376675
651 4 0.250618 0.228718 0.417919
418 2 0.385087 0.174031 0.381433
419 4 0.374118 0.192662 0.393994
716 4 0.35725 0.198248 0.384743
715 2 0.342365 0.217929 0.380709
515 4 0.463187 0.19042 0.37933
514 2 0.459056 0.171601 0.395266
516 4 0.454925 0.152783 0.411203
618 4 0.00369063 0.266379 0.393272
616 2 0.0274288 0.258691 0.394873
389 4 0.13317 0.246176 0.372379
498 4 0.314751 0.280807 0.339157
488 4 0.250127 0.27705 0.368133
377 4 0.313228 0.248122 0.385589
487 2 0.249671 0.259512 0.385948
508 2 0.267235 0.309954 0.350911
509 4 0.264515 0.290413 0.366271
376 2 0.312352 0.268864 0.371653
378 4 0.311476 0.289605 0.357716
267 4 0.368477 0.327692 0.355483
265 2 0.362645 0.30461 0.363125
266 4 0.356813 0.281528 0.370767
585 4 0.363046 0.275509 0.390178
583 2 0.375805 0.276892 0.411637
2456 4 0.405854 0.283546 0.423255
270 4 0.479462 0.253955 0.40082
306 4 0.497513 0.261775 0.402019
269 4 0.461562 0.269145 0.356666
268 2 0.470512 0.26155 0.378743
2455 2 0.430796 0.282557 0.424708
2493 4 0.99634 0.347929 0.331952
2491 2 0.986571 0.369933 0.338702
547 2 0.0657642 0.396628 0.382036
549 4 0.0806608 0.376861 0.378495
601 2 0.0998024 0.383039 0.340553
603 4 0.0934918 0.370535 0.361265
678 4 0.178977 0.399681 0.331014
374 4 0.250749 0.336461 0.341228
502 2 0.198012 0.39516 0.373242
504 4 0.203887 0.373183 0.362865
373 2 0.235736 0.355534 0.347233
375 4 0.220724 0.374606 0.353238
510 4 0.269956 0.329495 0.335552
3 3 0.279358 0.416497 0.338717
681 4 0.00695191 0.507676 0.393918
679 2 0.997403 0.495488 0.413552
548 4 0.0508676 0.416395 0.385577
407 4 0.0462592 0.435043 0.389995
406 2 0.0470321 0.458763 0.397863
408 4 0.047805 0.482484 0.405731
710 4 0.14714 0.420945 0.403912
570 4 0.137428 0.437718 0.401503
568 2 0.117925 0.447794 0.413473
1543 2 0.223691 0.500041 0.350776
1545 4 0.244261 0.493348 0.338235
503 4 0.192136 0.417137 0.383618
636 4 0.19041 0.427502 0.40119
634 2 0.181885 0.449686 0.408961
635 4 0.173359 0.471869 0.416732
668 4 0.317173 0.445255 0.353379
4 3 0.307002 0.442543 0.337369
667 2 0.328827 0.438669 0.374497
336 4 0.345569 0.415089 0.405352
669 4 0.340482 0.432082 0.395615
559 2 0.504569 0.423907 0.418681
753 4 0.49069 0.440504 0.341055
561 4 0.503356 0.442487 0.401993
752 4 0.495769 0.427213 0.388995
751 2 0.49323 0.433859 0.365025
718 2 0.0424786 0.0561025 0.49749
719 4 0.06464 0.059826 0.486528
369 4 0.0609569 0.0510231 0.469022
731 4 0.1034 0.051271 0.416341
367 2 0.0732612 0.0494905 0.447309
368 4 0.0855654 0.047958 0.425597
2430 4 0.210925 0.0810705 0.44165
2428 2 0.211886 0.0566663 0.436294
2429 4 0.212848 0.0322621 0.430938
441 4 0.226966 0.0185533 0.433267
950 4 0.233931 0.0578993 0.504589
341 4 0.224644 0.0914455 0.452587
432 4 0.299583 0.0901435 0.489957
430 2 0.319307 0.0754708 0.494523
843 4 0.350863 0.0571531 0.484579
431 4 0.339031 0.060798 0.49909
2879 4 0.444165 0.0338854 0.435467
2878 2 0.455351 0.0558304 0.439765
2880 4 0.466537 0.0777753 0.444064
2584 2 0.997356 0.0866122 0.438516
2586 4 0.0180101 0.100097 0.442607
340 2 0.208764 0.110693 0.454187
1152 4 0.1945 0.133254 0.476315
342 4 0.192885 0.12994 0.455787
726 4 0.299707 0.0889031 0.470838
320 4 0.258028 0.0991799 0.431708
724 2 0.28895 0.094352 0.448935
725 4 0.278192 0.0998009 0.427031
467 4 0.342686 0.100576 0.43368
642 4 0.469137 0.0901737 0.459174
576 4 0.421108 0.140141 0.466916
640 2 0.489381 0.101028 0.469051
574 2 0.435483 0.149168 0.448558
575 4 0.449859 0.158196 0.4302
469 2 0.0812915 0.226949 0.455698
471 4 0.0998656 0.21071 0.459757
260 4 0.0974323 0.191804 0.453538
259 2 0.110225 0.182798 0.473042
261 4 0.123018 0.173792 0.492546
650 4 0.25764 0.179574 0.423938
649 2 0.254129 0.204146 0.420928
470 4 0.0627173 0.243188 0.451639
2814 4 0.980616 0.320301 0.480606
695 4 0.104293 0.276639 0.426895
694 2 0.120697 0.293352 0.435655
696 4 0.137101 0.310066 0.444416
1260 4 0.149722 0.311222 0.461485
1258 2 0.173689 0.304357 0.459576
1259 4 0.197656 0.297493 0.457667
584 4 0.388564 0.278275 0.433095
2457 4 0.455737 0.281567 0.426161
2812 2 0.000531069 0.332784 0.489134
326 4 0.0690973 0.389123 0.44732
10 3 0.130545 0.340567 0.456598
709 2 0.154115 0.401437 0.417912
325 2 0.0915308 0.378834 0.451326
7 3 0.130373 0.377051 0.464459
327 4 0.113964 0.368545 0.455333
6 1 0.143385 0.359347 0.457647
8 3 0.152166 0.364113 0.436705
9 3 0.16057 0.356344 0.472946
711 4 0.161089 0.38193 0.431912
334 2 0.353828 0.39876 0.422391
335 4 0.362087 0.382431 0.439431
238 2 0.350027 0.374395 0.476031
240 4 0.3671 0.382365 0.459594
239 4 0.332954 0.366424 0.492467
560 4 0.505783 0.405327 0.435369
2712 4 0.484227 0.399434 0.499151
1382 4 0.0382883 0.453723 0.46556
1381 2 0.0207733 0.461289 0.449399
540 4 0.0378398 0.4429 0.482795
384 4 0.141221 0.480387 0.469212
772 2 0.154052 0.488529 0.438423
382 2 0.125577 0.469919 0.48567
773 4 0.133171 0.486882 0.452077
569 4 0.0984226 0.45787 0.425444
774 4 0.174934 0.490177 0.424769
1399 2 0.322794 0.464307 0.460339
1401 4 0.309271 0.449755 0.475522
1400 4 0.336318 0.478858 0.445155
588 4 0.334104 0.496217 0.455588
1126 2 0.993918 0.0496873 0.528019
1127 4 0.00104388 0.0492842 0.504055
720 4 0.0203171 0.0523789 0.508453
1059 4 0.0686218 0.0678985 0.570154
1128 4 0.986792 0.0500904 0.551982
951 4 0.191207 0.032195 0.508417
1031 4 0.179551 0.0403477 0.521033
1030 2 0.172598 0.0300125 0.542713
949 2 0.212569 0.0450472 0.506503
1032 4 0.165645 0.0196774 0.564393
1182 4 0.249486 0.0690665 0.508828
961 2 0.308967 0.0254672 0.548082
1180 2 0.271773 0.0619387 0.51764
963 4 0.305085 0.0384604 0.527075
1181 4 0.294061 0.0548109 0.526451
962 4 0.31285 0.012474 0.569088
2195 4 0.298632 0.00085229 0.577065
841 2 0.370444 0.0566064 0.500118
842 4 0.390026 0.0560597 0.515656
1217 4 0.400879 0.0502491 0.532066
1216 2 0.420714 0.0614164 0.542413
1218 4 0.440549 0.0725837 0.552759
1155 4 0.0809758 0.0851295 0.573946
1034 4 0.100203 0.175866 0.527762
939 4 0.152327 0.144478 0.524731
937 2 0.132839 0.158762 0.518299
1151 4 0.168747 0.134446 0.519164
1150 2 0.181623 0.13385 0.497739
857 4 0.307798 0.156532 0.583104
899 4 0.325655 0.147777 0.589349
856 2 0.288059 0.167861 0.572749
898 2 0.341428 0.155837 0.571702
900 4 0.3572 0.163897 0.554054
1033 2 0.0813714 0.192168 0.52995
1035 4 0.0625397 0.20847 0.532138
1082 4 0.0564013 0.205621 0.550641
1081 2 0.0453641 0.197111 0.5714
938 4 0.113352 0.173047 0.511867
797 4 0.250173 0.183894 0.553604
811 2 0.306395 0.232061 0.534537
812 4 0.285736 0.229021 0.54829
796 2 0.258296 0.207016 0.548646
798 4 0.266418 0.230138 0.543687
858 4 0.268321 0.17919 0.562395
872 4 0.354634 0.174082 0.538194
813 4 0.327054 0.2351 0.520784
873 4 0.341783 0.220538 0.524873
871 2 0.348208 0.19731 0.531534
904 2 0.456673 0.237671 0.567144
878 4 0.0929707 0.27718 0.578041
954 4 0.4238 0.312996 0.56885
1205 4 0.413397 0.312925 0.586653
905 4 0.444318 0.25929 0.56488
952 2 0.428572 0.290168 0.559835
953 4 0.433344 0.26734 0.550819
2813 4 0.0204464 0.345267 0.497662
1135 2 0.153169 0.395449 0.554084
1137 4 0.174874 0.383101 0.555361
896 4 0.205851 0.33882 0.534393
1191 4 0.219032 0.347151 0.522637
897 4 0.171562 0.363933 0.560742
895 2 0.188707 0.351377 0.547568
1189 2 0.243584 0.344123 0.526272
1190 4 0.268136 0.341094 0.529906
803 4 0.282203 0.348707 0.518141
802 2 0.297687 0.363976 0.53048
804 4 0.313172 0.379246 0.542819
929 4 0.324026 0.378827 0.559638
928 2 0.346686 0.370152 0.565673
930 4 0.369347 0.361476 0.571708
925 2 0.470093 0.401542 0.536794
927 4 0.470871 0.395777 0.512477
1001 4 0.478788 0.410755 0.577968
926 4 0.469314 0.407308 0.561111
539 4 0.0497263 0.468662 0.523974
936 4 0.00969465 0.47268 0.540114
1938 4 0.0507691 0.48548 0.512753
538 2 0.0437831 0.455781 0.503385
1136 4 0.131465 0.407796 0.552807
383 4 0.109932 0.459451 0.502128
2244 4 0.162007 0.47736 0.545807
2242 2 0.173808 0.472723 0.567358
1171 2 0.242795 0.450722 0.571535
2243 4 0.185609 0.468086 0.588908
1172 4 0.260779 0.457779 0.555662
882 4 0.278206 0.462848 0.550114
880 2 0.285227 0.486834 0.549368
1185 4 0.0192019 0.0605867 0.650686
945 4 0.0262633 0.0418864 0.655398
825 4 0.0793938 0.0314686 0.622064
1057 2 0.0745349 0.0494474 0.585958
1058 4 0.080448 0.0309962 0.601762
1183 2 0.999102 0.0718096 0.640928
823 2 0.092207 0.0100717 0.620283
1005 4 0.298831 0.0356881 0.665885
1003 2 0.308435 0.0575778 0.65855
1004 4 0.318038 0.0794674 0.651215
2283 4 0.441047 0.00605946 0.599707
2282 4 0.457364 0.0310973 0.639801
2281 2 0.449206 0.0185784 0.619754
43 3 0.472484 0.0417453 0.649147
45 3 0.50476 0.0581083 0.659548
41 1 0.48307 0.0544337 0.665437
44 3 0.472053 0.0746795 0.668109
1198 2 0.00968408 0.156566 0.591837
1153 2 0.0965118 0.102046 0.583827
1154 4 0.112048 0.118963 0.593708
1221 4 0.126573 0.110175 0.607404
1219 2 0.140941 0.121106 0.624703
1220 4 0.155309 0.132038 0.642002
1212 4 0.243619 0.14305 0.622079
1210 2 0.245318 0.140873 0.646929
1211 4 0.247017 0.138695 0.67178
1083 4 0.0343269 0.1886 0.592159
1199 4 0.02863 0.170389 0.600506
879 4 0.0766225 0.235828 0.600922
1272 4 0.0847144 0.23195 0.61871
1270 2 0.105119 0.218829 0.624767
1271 4 0.125523 0.205708 0.630823
909 4 0.143779 0.20033 0.62548
907 2 0.164506 0.213893 0.62889
908 4 0.185233 0.227455 0.632301
1025 4 0.402597 0.202242 0.642114
1024 2 0.41305 0.207564 0.620033
1026 4 0.423504 0.212885 0.597952
906 4 0.469028 0.216051 0.569408
3123 4 0.460183 0.214732 0.658816
877 2 0.0847966 0.256504 0.589482
1209 4 0.0308202 0.243791 0.674332
948 4 0.174806 0.291544 0.651096
947 4 0.177105 0.242571 0.641243
946 2 0.175956 0.267057 0.646169
1237 2 0.234857 0.32967 0.603748
792 4 0.272275 0.309814 0.592967
791 4 0.283805 0.275071 0.627036
790 2 0.27804 0.292442 0.610001
1238 4 0.255851 0.316123 0.604685
983 4 0.00964715 0.396505 0.643721
1041 4 0.0168371 0.401584 0.625149
1039 2 0.041325 0.401131 0.630181
1040 4 0.065813 0.400679 0.635212
992 4 0.133465 0.411942 0.638592
991 2 0.109073 0.408699 0.634151
993 4 0.0846822 0.405455 0.62971
1239 4 0.213862 0.343218 0.602811
1206 4 0.378934 0.34912 0.584944
1204 2 0.396165 0.331023 0.585799
1173 4 0.224812 0.443664 0.587408
1161 4 0.177318 0.469529 0.607615
1160 4 0.208056 0.450925 0.642398
1159 2 0.192687 0.460227 0.625007
1175 4 0.214086 0.490515 0.642937
890 4 0.301049 0.443531 0.643897
889 2 0.320004 0.45979 0.645133
891 4 0.338959 0.476049 0.646369
1952 4 0.348597 0.491814 0.63888
1000 2 0.456889 0.418393 0.587311
1911 4 0.401961 0.479921 0.59407
1910 4 0.438386 0.445875 0.590222
1002 4 0.434991 0.426031 0.596654
1909 2 0.420173 0.462898 0.592146
3328 2 0.487822 0.430499 0.651484
3329 4 0.486522 0.449865 0.635721
1268 4 0.438718 0.494143 0.656863
4335 4 0.496852 0.463178 0.625528
943 2 0.0432542 0.0413767 0.673734
944 4 0.0602452 0.040867 0.692071
1075 2 0.0674799 0.0407695 0.735664
1076 4 0.0641028 0.0451779 0.711285
2319 4 0.0436185 0.00357789 0.731862
2317 2 0.0199401 0.00642037 0.72435
2285 4 0.0591442 0.991902 0.725434
1148 4 0.209795 0.0522578 0.739317
42 3 0.48247 0.0429538 0.685362
1163 4 0.488475 0.0455053 0.704264
1283 4 0.161399 0.127335 0.659668
1282 2 0.17784 0.119462 0.676781
1284 4 0.194282 0.111589 0.693895
1227 4 0.202699 0.123411 0.709169
1225 2 0.216552 0.14258 0.717282
1226 4 0.230405 0.161748 0.725395
888 4 0.26597 0.144708 0.674167
886 2 0.276523 0.136856 0.695431
887 4 0.287077 0.129005 0.716695
830 4 0.305758 0.128206 0.723087
829 2 0.329726 0.122836 0.727766
831 4 0.353693 0.117466 0.732445
1107 4 0.0224188 0.176878 0.729298
851 4 0.00485143 0.184352 0.722641
1105 2 0.0425627 0.17383 0.743793
1208 4 0.0783805 0.249944 0.688505
822 4 0.140633 0.235656 0.705428
1278 4 0.155667 0.223123 0.701445
820 2 0.119042 0.245642 0.697728
821 4 0.0974502 0.255628 0.690029
1276 2 0.172232 0.220141 0.719935
1130 4 0.236021 0.174503 0.740139
1277 4 0.188797 0.217159 0.738425
1129 2 0.217561 0.190301 0.746039
1131 4 0.199101 0.2061 0.751939
916 2 0.28198 0.214721 0.729806
918 4 0.280086 0.189804 0.728934
977 4 0.280037 0.174677 0.742199
917 4 0.283874 0.239637 0.730677
1143 4 0.392663 0.20926 0.659431
1141 2 0.370442 0.21046 0.670831
1142 4 0.348221 0.21166 0.682232
1194 4 0.410046 0.227305 0.731963
1192 2 0.394996 0.238548 0.748464
3121 2 0.480813 0.207505 0.670955
3122 4 0.501443 0.200277 0.683093
1262 4 0.417008 0.212344 0.718601
1145 4 0.458068 0.185804 0.733483
1261 2 0.434662 0.194683 0.717329
1263 4 0.452316 0.177022 0.716056
1243 2 0.0154908 0.319574 0.707944
1207 2 0.0546003 0.246868 0.681419
1244 4 0.0342117 0.335266 0.713278
1065 4 0.187801 0.292896 0.685591
1064 4 0.215168 0.280807 0.725662
1063 2 0.201485 0.286851 0.705626
1097 4 0.284987 0.259557 0.7299
1008 4 0.328707 0.262594 0.741879
805 2 0.416436 0.319992 0.755857
806 4 0.422294 0.296675 0.748989
894 4 0.0843786 0.403138 0.698393
893 4 0.0884319 0.353306 0.69738
892 2 0.0864052 0.378222 0.697887
941 4 0.164212 0.418767 0.715616
1067 4 0.169222 0.419999 0.696388
1066 2 0.192581 0.415742 0.688548
1068 4 0.215939 0.411484 0.680709
1027 2 0.255377 0.410963 0.687611
1029 4 0.279657 0.414245 0.682621
807 4 0.410577 0.343309 0.762725
3330 4 0.489123 0.411134 0.667247
3113 4 0.502393 0.323736 0.721183
1983 4 0.0340707 0.485051 0.736389
2021 4 0.0461184 0.471254 0.727583
2020 2 0.0674991 0.479937 0.717958
940 2 0.151611 0.419021 0.737211
1279 2 0.0916621 0.428051 0.724069
1281 4 0.0993477 0.417086 0.702953
2022 4 0.0888799 0.48862 0.708332
2016 4 0.173672 0.486819 0.748121
1028 4 0.231097 0.407681 0.692602
1139 4 0.299473 0.412498 0.680133
1138 2 0.306564 0.427907 0.698504
1140 4 0.313654 0.443316 0.716874
1989 4 0.315042 0.442169 0.736806
1229 4 0.348996 0.434557 0.709896
1228 2 0.362405 0.434356 0.730999
1250 4 0.495352 0.477101 0.752862
1100 4 0.503403 0.49523 0.747092
1269 4 0.450132 0.475541 0.701857
1267 2 0.444425 0.484842 0.67936
1077 4 0.070857 0.036361 0.760043
1203 4 0.0707315 0.0295805 0.779881
1201 2 0.0918576 0.0162301 0.780677
2049 4 0.126064 0.00805953 0.767572
1202 4 0.112984 0.00287974 0.781472
1147 2 0.21736 0.0603471 0.761734
1149 4 0.224926 0.0684365 0.78415
1049 4 0.24471 0.0636119 0.782616
1048 2 0.267563 0.0548884 0.787794
1050 4 0.290416 0.0461648 0.792973
819 4 0.396107 0.0792483 0.817002
846 4 0.470826 0.0271014 0.793645
1113 4 0.463022 0.0117474 0.782602
844 2 0.493597 0.0365862 0.797729
832 2 0.0504103 0.133871 0.78315
863 4 0.0303312 0.115967 0.813116
833 4 0.0403532 0.115316 0.796557
33 3 0.0784594 0.149336 0.779176
834 4 0.0604674 0.152426 0.769743
1106 4 0.0627065 0.170781 0.758288
862 2 0.0388394 0.103349 0.832954
31 1 0.0923791 0.160027 0.763998
32 3 0.105942 0.14435 0.754026
1073 4 0.116315 0.164826 0.786832
840 4 0.208353 0.115738 0.76154
838 2 0.228777 0.110686 0.775049
839 4 0.249201 0.105635 0.788559
978 4 0.303558 0.163194 0.784809
976 2 0.291798 0.168935 0.763504
959 4 0.268226 0.108829 0.789721
958 2 0.269711 0.108715 0.81468
1084 2 0.379248 0.114384 0.795227
1085 4 0.387647 0.0939742 0.806977
1086 4 0.370849 0.134795 0.783478
1299 4 0.381315 0.152317 0.786133
1144 2 0.472759 0.17519 0.750709
1146 4 0.487449 0.164575 0.767934
3270 4 0.485285 0.165701 0.78761
3268 2 0.487662 0.154368 0.80977
1214 4 0.0248513 0.234415 0.809087
35 3 0.0799223 0.170422 0.748016
778 2 0.0630004 0.230137 0.818209
1213 2 0.00548854 0.248676 0.815934
779 4 0.0438874 0.235753 0.803099
34 3 0.105674 0.175535 0.775004
780 4 0.0821134 0.224522 0.83332
1072 2 0.129326 0.160338 0.807706
1074 4 0.142337 0.15585 0.828581
1193 4 0.379946 0.24979 0.764965
1297 2 0.389766 0.171992 0.799043
1298 4 0.398217 0.191667 0.811952
47 3 0.39025 0.210172 0.815121
1043 4 0.394404 0.250682 0.821851
46 1 0.402612 0.215291 0.833832
48 3 0.424887 0.210268 0.829712
1240 2 0.224776 0.285186 0.779386
1242 4 0.201064 0.280375 0.78569