ITEM: TIMESTEP
1510000
ITEM: NUMBER OF ATOMS
4590
ITEM: BOX BOUNDS pp pp pp
-9.9985700000000008e+00 9.9985700000000008e+00
-9.9985700000000008e+00 9.9985700000000008e+00
-9.9985700000000008e+00 9.9985700000000008e+00
ITEM: ATOMS id type xs ys zs
463 2 0.0599174 0.0700887 0.00815175
464 4 0.0568554 0.0469178 0.999269
1666 2 0.0721169 0.0153048 0.0626547
591 4 0.0493322 0.0843553 0.0673389
3290 4 0.0690834 0.0313785 0.00348149
1668 4 0.0759077 0.0137326 0.0379902
1476 4 0.220346 0.038136 0.0475395
1474 2 0.241053 0.0244513 0.0445199
565 2 0.184718 0.0702853 0.0736367
490 2 0.287664 0.0161915 0.014222
492 4 0.280595 0.0168778 0.0381955
1475 4 0.26176 0.0107666 0.0415002
986 4 0.329858 0.0234525 0.028502
985 2 0.345557 0.0230132 0.0090464
745 2 0.454332 0.0685202 0.0220456
747 4 0.448498 0.0574667 0.0437011
2724 4 0.467259 0.0371397 0.0649769
1826 4 0.476042 0.0199918 0.0681198
1825 2 0.492921 0.00159463 0.0694611
2722 2 0.456154 0.0521192 0.0816343
465 4 0.0629794 0.0932596 0.0170349
701 4 0.0687592 0.111845 0.0156316
700 2 0.0538821 0.130438 0.0232562
702 4 0.0390049 0.149032 0.0308808
2760 4 0.018961 0.144443 0.0381475
589 2 0.0312073 0.0823873 0.0844502
567 4 0.185252 0.0838955 0.0526688
1133 4 0.202745 0.155134 0.0128339
360 4 0.210145 0.14696 0.0290323
358 2 0.230296 0.135715 0.0386578
359 4 0.250448 0.124471 0.0482834
828 4 0.446732 0.159665 0.0103928
553 2 0.0313682 0.183478 0.0177289
422 4 0.0666139 0.183824 0.0394095
555 4 0.0459917 0.168248 0.0311227
423 4 0.110362 0.167462 0.0215446
421 2 0.0884877 0.175643 0.030477
506 4 0.1913 0.242065 0.0405317
737 4 0.193066 0.231487 0.0237222
736 2 0.204846 0.212984 0.0357234
354 4 0.222782 0.181366 0.0612419
738 4 0.216625 0.19448 0.0477246
352 2 0.24665 0.182318 0.0686294
353 4 0.270519 0.183271 0.0760169
461 4 0.287147 0.186067 0.0860704
1170 4 0.0633505 0.324822 0.010981
1056 4 0.0704462 0.307956 0.0213433
1054 2 0.0631991 0.295704 0.000787458
292 2 0.166709 0.327643 0.0453933
507 4 0.164607 0.284102 0.0359414
293 4 0.167141 0.304014 0.0372278
505 2 0.177953 0.263084 0.0382366
481 2 0.29207 0.29956 0.0126314
482 4 0.303945 0.281147 0.0246787
483 4 0.280194 0.317972 0.000584142
323 4 0.404134 0.259667 0.0327548
573 4 0.386497 0.268916 0.0258483
571 2 0.377789 0.276317 0.0480874
572 4 0.369081 0.283718 0.0703266
741 4 0.373339 0.298752 0.0834495
322 2 0.428152 0.261773 0.0261286
324 4 0.452169 0.26388 0.0195025
1168 2 0.061527 0.349639 0.00853018
329 4 0.0514623 0.392801 0.00346921
287 4 0.139884 0.342874 0.00450093
294 4 0.166277 0.351272 0.0535588
456 4 0.151855 0.362342 0.0630495
454 2 0.157271 0.386628 0.0655073
455 4 0.162688 0.410914 0.0679652
252 4 0.250255 0.38486 0.061565
608 4 0.259345 0.369076 0.0707397
250 2 0.271188 0.39569 0.0532171
251 4 0.292121 0.406521 0.0448691
671 4 0.406362 0.36847 0.0602124
226 2 0.405419 0.394121 0.0353576
228 4 0.388783 0.399559 0.0532134
670 2 0.396186 0.365661 0.0828782
281 4 0.423536 0.358917 0.063675
280 2 0.447749 0.357175 0.057688
282 4 0.471963 0.355432 0.051701
104 3 0.480154 0.354728 0.0694412
1045 2 0.502441 0.374879 0.0108808
227 4 0.422055 0.388682 0.0175017
1305 4 0.429533 0.38664 0.999049
552 4 0.0192929 0.463052 0.0366041
314 4 0.0281509 0.447238 0.0467644
313 2 0.0370579 0.433919 0.0659596
795 4 0.165441 0.475624 0.00433503
1440 4 0.249679 0.493969 0.0520504
246 4 0.212606 0.486462 0.013179
1290 4 0.240807 0.446349 0.000167966
272 4 0.264687 0.487456 0.0380006
1438 2 0.2442 0.478795 0.0711536
525 4 0.308727 0.455489 0.0869496
1558 2 0.331019 0.500637 0.0747369
1559 4 0.342876 0.4803 0.066311
37 3 0.339364 0.457144 0.998493
1667 4 0.0683262 0.016877 0.0873192
19 3 0.0390195 0.0163586 0.127061
20 3 0.069306 0.999021 0.141196
1422 4 0.019186 0.0111899 0.136569
16 1 0.0622081 0.0160402 0.127831
17 3 0.0703124 0.0128409 0.106542
2480 4 0.02378 0.0326239 0.133903
18 3 0.0701442 0.0362909 0.135914
652 2 0.243747 0.0480458 0.141761
566 4 0.184183 0.0566751 0.0946047
653 4 0.233838 0.0462829 0.16465
1661 4 0.32211 0.996829 0.146472
654 4 0.253656 0.0498088 0.118873
486 4 0.3178 0.00714863 0.130324
484 2 0.329668 0.0213575 0.113518
297 4 0.357326 0.0389947 0.0860019
485 4 0.341536 0.0355664 0.0967123
295 2 0.374348 0.0547572 0.0953285
296 4 0.39137 0.0705196 0.104655
2723 4 0.445049 0.0670986 0.0982918
590 4 0.0130825 0.0804192 0.101561
237 4 0.124607 0.158822 0.155343
557 4 0.408373 0.0791234 0.112732
771 4 0.439259 0.151047 0.0897973
556 2 0.419522 0.101503 0.112575
558 4 0.43067 0.123883 0.112418
769 2 0.462958 0.155643 0.0963088
477 4 0.159502 0.210141 0.129581
475 2 0.159981 0.216064 0.153868
255 4 0.337533 0.232551 0.0781293
460 2 0.306435 0.190745 0.101278
277 2 0.291487 0.234567 0.132726
278 4 0.294522 0.236131 0.107956
462 4 0.325723 0.195422 0.116485
279 4 0.288452 0.233004 0.157495
755 4 0.288102 0.246129 0.0924604
254 4 0.37661 0.218396 0.105937
630 4 0.394794 0.212612 0.0984958
253 2 0.357072 0.225474 0.0920332
628 2 0.406788 0.222715 0.11797
770 4 0.486658 0.160238 0.10282
624 4 0.433558 0.236841 0.125198
629 4 0.418781 0.232819 0.137444
338 4 0.0703514 0.26785 0.120514
339 4 0.106352 0.273235 0.154802
337 2 0.0883517 0.270542 0.137658
611 4 0.230105 0.305303 0.155354
610 2 0.2318 0.318565 0.134225
612 4 0.233495 0.331826 0.113096
756 4 0.319518 0.284675 0.087176
754 2 0.30381 0.265402 0.0898182
739 2 0.364384 0.316985 0.098028
622 2 0.452433 0.245871 0.138886
596 4 0.442104 0.299385 0.161036
623 4 0.471308 0.254901 0.152573
595 2 0.440182 0.323901 0.156513
527 4 0.470179 0.2627 0.170022
619 2 0.0496695 0.404574 0.114033
620 4 0.0644053 0.403062 0.134176
647 4 0.0809622 0.406663 0.146216
621 4 0.0349338 0.406086 0.0938896
646 2 0.103692 0.401721 0.155387
535 2 0.12792 0.339751 0.126323
537 4 0.10651 0.32834 0.132371
536 4 0.14933 0.351163 0.120275
648 4 0.126422 0.396779 0.164558
607 2 0.244579 0.360193 0.0888567
609 4 0.229813 0.35131 0.106974
524 4 0.320506 0.406907 0.0856328
302 4 0.324054 0.398134 0.15637
387 4 0.324103 0.386762 0.137547
740 4 0.355428 0.335218 0.112606
385 2 0.33253 0.363944 0.131756
386 4 0.340956 0.341127 0.125965
12 3 0.393654 0.356969 0.123264
11 1 0.40239 0.372494 0.137818
15 3 0.387163 0.376833 0.154187
672 4 0.38601 0.362853 0.105544
14 3 0.40715 0.391935 0.126078
495 4 0.411519 0.408959 0.13513
597 4 0.438261 0.348417 0.15199
13 3 0.421825 0.363919 0.147155
315 4 0.0459648 0.4206 0.0851547
626 4 0.166051 0.450065 0.117744
625 2 0.186396 0.446965 0.131944
627 4 0.206741 0.443865 0.146144
638 4 0.225402 0.448449 0.154736
637 2 0.233197 0.472206 0.15468
639 4 0.240992 0.495963 0.154624
1439 4 0.238721 0.463622 0.0902569
523 2 0.314616 0.431198 0.0862912
301 2 0.321877 0.421238 0.165679
493 2 0.420109 0.432088 0.131077
494 4 0.428699 0.455217 0.127023
450 4 0.13824 0.060645 0.184431
693 4 0.231447 0.0377407 0.182307
691 2 0.249652 0.0269853 0.195652
692 4 0.267856 0.0162299 0.208998
1700 4 0.326391 0.0442968 0.233247
1699 2 0.305716 0.0349172 0.222772
1701 4 0.28504 0.0255375 0.212298
23 3 0.334119 0.0629802 0.237924
21 1 0.356828 0.0659466 0.234195
25 3 0.360641 0.0697178 0.212062
22 3 0.367978 0.0468945 0.240666
24 3 0.364644 0.0838363 0.246736
511 2 0.0124056 0.152281 0.19004
578 4 0.0366288 0.164614 0.199927
513 4 0.0331516 0.145661 0.202327
577 2 0.0592173 0.165207 0.210631
449 4 0.131586 0.109639 0.191918
448 2 0.134913 0.0851419 0.188175
236 4 0.141979 0.11607 0.17461
235 2 0.133293 0.137446 0.164976
579 4 0.0818058 0.165799 0.221336
28 3 0.248857 0.140955 0.19082
546 4 0.210621 0.115505 0.240814
580 2 0.313453 0.102372 0.176154
581 4 0.288459 0.102629 0.176778
30 3 0.273418 0.112867 0.185776
26 1 0.265019 0.127693 0.200885
29 3 0.282091 0.140993 0.209256
27 3 0.255381 0.11614 0.218285
582 4 0.338447 0.102115 0.17553
758 4 0.407896 0.0850786 0.168608
759 4 0.365181 0.0752508 0.192683
757 2 0.386539 0.0801647 0.180646
310 2 0.442562 0.15242 0.206521
311 4 0.448595 0.130307 0.216511
529 2 0.0152531 0.198601 0.240951
476 4 0.160459 0.221987 0.178155
362 4 0.155665 0.248175 0.198272
372 4 0.163973 0.229518 0.19744
370 2 0.184657 0.239275 0.207549
283 2 0.289745 0.241693 0.194843
285 4 0.300443 0.237083 0.172719
284 4 0.279047 0.246304 0.216967
312 4 0.436529 0.174533 0.196532
520 2 0.481294 0.188725 0.250443
396 4 0.0564885 0.274139 0.219345
443 4 0.0650189 0.270678 0.238125
394 2 0.0709124 0.272513 0.198986
395 4 0.0853362 0.270888 0.178627
363 4 0.112647 0.260058 0.175712
361 2 0.134156 0.254116 0.186992
371 4 0.20534 0.249032 0.217657
343 2 0.288133 0.325905 0.232297
344 4 0.308324 0.330713 0.246238
345 4 0.267941 0.321097 0.218355
526 2 0.457342 0.267814 0.190861
528 4 0.444506 0.272928 0.2117
264 4 0.0287205 0.41598 0.194161
300 4 0.121266 0.390833 0.182821
298 2 0.123969 0.390508 0.207676
299 4 0.126673 0.390184 0.23253
750 4 0.102684 0.338608 0.246389
643 2 0.437356 0.37331 0.188341
644 4 0.44279 0.386353 0.208969
645 4 0.431923 0.360266 0.167713
447 4 0.438705 0.399552 0.222427
445 2 0.430035 0.414975 0.240094
263 4 0.0451895 0.425767 0.240352
262 2 0.036955 0.420873 0.217256
417 4 0.166481 0.475281 0.185806
1430 4 0.168851 0.494154 0.186242
290 4 0.21386 0.434336 0.212372
416 4 0.197564 0.446681 0.212576
415 2 0.182022 0.460981 0.199191
289 2 0.216798 0.433915 0.237199
768 4 0.228042 0.494973 0.213034
303 4 0.3197 0.444341 0.174988
659 4 0.337589 0.450294 0.179036
660 4 0.349492 0.494103 0.200008
658 2 0.34354 0.472198 0.189522
712 2 0.391552 0.457132 0.246386
713 4 0.369292 0.46472 0.237897
232 2 0.0397006 0.026452 0.296603
234 4 0.0284747 0.0485795 0.29969
317 4 0.0358109 0.0671537 0.298291
233 4 0.0509265 0.00432442 0.293516
675 4 0.127617 0.999624 0.286364
723 4 0.234025 0.0599776 0.275955
697 2 0.374622 0.0333812 0.274715
699 4 0.375185 0.014485 0.291079
698 4 0.37406 0.0522774 0.25835
333 4 0.380323 0.0729968 0.255294
331 2 0.400731 0.0803976 0.2677
743 4 0.473328 0.0233062 0.284654
742 2 0.466041 0.00762228 0.266596
351 4 0.467761 0.0391294 0.295226
349 2 0.449148 0.0551381 0.290487
350 4 0.430535 0.0711468 0.285748
480 4 0.489611 0.0168415 0.332168
316 2 0.0384009 0.0876434 0.284197
318 4 0.0409908 0.108133 0.270103
393 4 0.151012 0.134135 0.318165
399 4 0.13649 0.129126 0.33022
391 2 0.165798 0.146248 0.302046
722 4 0.212942 0.0995537 0.25382
545 4 0.187196 0.149496 0.269037
721 2 0.223484 0.0797657 0.264888
544 2 0.198909 0.132501 0.254925
599 4 0.21616 0.124546 0.309648
404 4 0.233796 0.13023 0.300364
598 2 0.203162 0.11616 0.329292
392 4 0.180584 0.158361 0.285926
403 2 0.233395 0.155109 0.297903
762 4 0.408589 0.126494 0.301712
332 4 0.421139 0.0877985 0.280107
760 2 0.427139 0.13064 0.285468
761 4 0.44569 0.134785 0.269224
530 4 0.0347892 0.20169 0.256247
401 4 0.239486 0.196993 0.302844
400 2 0.222195 0.214687 0.299218
402 4 0.204904 0.232381 0.295593
405 4 0.232993 0.179988 0.295441
765 4 0.403762 0.192398 0.283114
521 4 0.457119 0.187696 0.256739
763 2 0.426152 0.198468 0.273787
764 4 0.448542 0.204539 0.264459
442 2 0.0765215 0.280949 0.257807
444 4 0.0880241 0.29122 0.277489
309 4 0.307104 0.33616 0.265543
543 4 0.42783 0.298184 0.334082
541 2 0.440556 0.285712 0.316541
542 4 0.453281 0.273239 0.299001
748 2 0.0799414 0.344734 0.254782
749 4 0.0571989 0.350859 0.263174
365 4 0.00898927 0.379698 0.289126
364 2 0.0253584 0.362336 0.281657
366 4 0.0417276 0.344974 0.274188
603 4 0.0677958 0.379422 0.336019
734 4 0.111411 0.355315 0.255137
733 2 0.13491 0.349599 0.261487
735 4 0.158408 0.343883 0.267838
601 2 0.0879519 0.390948 0.326742
602 4 0.108108 0.402475 0.317466
777 4 0.120764 0.413485 0.305505
677 4 0.16344 0.352428 0.285737
678 4 0.177754 0.386854 0.319064
676 2 0.170597 0.369641 0.302401
307 2 0.320118 0.343038 0.285755
308 4 0.333132 0.349915 0.305966
729 4 0.318751 0.359804 0.316731
727 2 0.316124 0.384025 0.322353
728 4 0.313496 0.408246 0.327976
497 4 0.312585 0.355237 0.334723
614 4 0.390665 0.349594 0.321445
2924 4 0.501045 0.383663 0.337625
1757 4 0.11309 0.473214 0.284913
1756 2 0.103488 0.495484 0.290999
776 4 0.115381 0.454412 0.277279
775 2 0.118073 0.433948 0.291392
291 4 0.219737 0.433494 0.262026
1545 4 0.213162 0.486575 0.32318
414 4 0.215436 0.426975 0.280525
413 4 0.185807 0.462929 0.298695
412 2 0.200622 0.444952 0.28961
1436 4 0.230991 0.47788 0.322136
1435 2 0.253865 0.469105 0.31714
438 4 0.311964 0.48863 0.26871
437 4 0.292889 0.472995 0.312212
436 2 0.302426 0.480813 0.290461
1437 4 0.276739 0.46033 0.312144
5 3 0.292869 0.458877 0.330033
2 3 0.314265 0.42916 0.32282
434 4 0.333627 0.419103 0.327441
714 4 0.413813 0.449544 0.254874
446 4 0.421365 0.430398 0.257762
2861 4 0.479148 0.47653 0.274662
2860 2 0.494246 0.457014 0.278709
119 3 0.496324 0.438682 0.327656
427 2 0.0830769 0.016866 0.370951
428 4 0.0796419 0.0415313 0.368714
606 4 0.136424 0.0564324 0.388294
731 4 0.0963711 0.065723 0.408223
730 2 0.0929569 0.0776769 0.386529
604 2 0.141893 0.0328643 0.381984
605 4 0.147361 0.00929609 0.375674
368 4 0.102931 0.0475947 0.411597
682 2 0.226519 0.0493225 0.387833
684 4 0.243951 0.0437638 0.370791
683 4 0.209087 0.0548811 0.404874
249 4 0.287593 0.0719874 0.38743
439 2 0.25419 0.00312973 0.408074
247 2 0.308371 0.0789884 0.375413
425 4 0.421626 0.0298615 0.40445
424 2 0.427277 0.050202 0.391052
426 4 0.432927 0.0705425 0.377654
2878 2 0.489375 0.0655884 0.415334
732 4 0.0895427 0.0896308 0.364835
397 2 0.119659 0.115908 0.34315
398 4 0.102828 0.10269 0.35608
600 4 0.190163 0.107774 0.348936
685 2 0.176875 0.135132 0.375729
687 4 0.187951 0.12764 0.354601
686 4 0.1658 0.142624 0.396856
321 4 0.260007 0.105069 0.380766
319 2 0.261196 0.105055 0.405742
248 4 0.32915 0.0859893 0.363396
633 4 0.341342 0.100585 0.353724
632 4 0.381448 0.12781 0.366011
631 2 0.361395 0.114197 0.359867
420 4 0.391709 0.145592 0.365658
257 4 0.478782 0.106788 0.340465
258 4 0.446986 0.0770692 0.365093
256 2 0.462884 0.0919287 0.352779
2653 2 0.998182 0.236763 0.348144
2654 4 0.0178264 0.24259 0.362473
618 4 0.0132007 0.238867 0.381327
274 2 0.13977 0.229212 0.365591
276 4 0.117198 0.237987 0.37181
275 4 0.162342 0.220438 0.359371
389 4 0.114041 0.250656 0.357176
474 4 0.177259 0.225279 0.344838
472 2 0.194972 0.207989 0.348374
473 4 0.212686 0.1907 0.35191
708 4 0.231021 0.185338 0.357798
706 2 0.251781 0.195984 0.366789
707 4 0.272542 0.20663 0.37578
377 4 0.316153 0.242074 0.369364
418 2 0.38212 0.166794 0.374806
419 4 0.372531 0.187997 0.383955
716 4 0.373138 0.206484 0.377879
715 2 0.354266 0.221431 0.371127
717 4 0.335394 0.236379 0.364375
270 4 0.494268 0.251147 0.413685
268 2 0.491651 0.252114 0.388838
515 4 0.484856 0.161057 0.427966
617 4 0.0575209 0.254746 0.398189
616 2 0.0353608 0.246806 0.389758
390 4 0.0713206 0.253432 0.331331
388 2 0.0926808 0.252044 0.344254
374 4 0.247935 0.325161 0.341201
510 4 0.247393 0.323568 0.361578
508 2 0.266284 0.308052 0.366828
509 4 0.285175 0.292536 0.372078
498 4 0.320587 0.307926 0.348806
378 4 0.317622 0.289188 0.352666
496 2 0.316586 0.331582 0.341765
376 2 0.316888 0.265631 0.361015
267 4 0.392336 0.274347 0.371316
265 2 0.386947 0.264859 0.393814
266 4 0.381558 0.255372 0.416311
615 4 0.423236 0.316936 0.340766
269 4 0.489033 0.253081 0.363991
549 4 0.0494623 0.387651 0.336196
547 2 0.0442501 0.401633 0.356259
502 2 0.205001 0.388429 0.372224
504 4 0.211695 0.371193 0.355392
373 2 0.235927 0.347092 0.341038
375 4 0.223919 0.369023 0.340876
503 4 0.198307 0.405665 0.389055
613 2 0.40695 0.333265 0.331105
2925 4 0.480622 0.348904 0.367213
2923 2 0.490833 0.366283 0.352419
561 4 0.477081 0.409724 0.395645
559 2 0.485709 0.412699 0.418923
548 4 0.0390378 0.415616 0.376322
408 4 0.0830114 0.460308 0.394838
407 4 0.0423092 0.433721 0.383126
406 2 0.0626603 0.447015 0.388982
636 4 0.19626 0.423252 0.396984
634 2 0.196339 0.44429 0.410495
3 3 0.278938 0.424204 0.334653
1 1 0.297796 0.437599 0.336483
668 4 0.312532 0.429994 0.374782
4 3 0.305459 0.437539 0.358385
433 2 0.353748 0.426601 0.34025
435 4 0.37387 0.434099 0.353059
667 2 0.329109 0.425257 0.392892
669 4 0.345685 0.42052 0.411002
752 4 0.466122 0.421335 0.383103
753 4 0.478438 0.439539 0.338185
593 4 0.45679 0.471776 0.353074
751 2 0.47228 0.430437 0.360644
592 2 0.453956 0.490815 0.369031
718 2 0.0629784 0.0254951 0.481601
719 4 0.0624903 0.0167797 0.458171
369 4 0.0784957 0.0273668 0.450256
367 2 0.0907132 0.0374808 0.430927
2430 4 0.211267 0.0443874 0.463736
2428 2 0.227252 0.0430873 0.444554
340 2 0.203824 0.0843999 0.474847
341 4 0.208412 0.0632995 0.462241
2429 4 0.243238 0.0417872 0.425372
441 4 0.251529 0.0255095 0.418902
726 4 0.301894 0.0720368 0.470865
963 4 0.284595 0.0316309 0.499505
1181 4 0.27266 0.0471596 0.492446
2880 4 0.475292 0.0684418 0.435796
642 4 0.462871 0.0773426 0.448457
342 4 0.199236 0.1055 0.487452
1152 4 0.19687 0.117629 0.503484
320 4 0.262386 0.105041 0.430717
410 4 0.266123 0.133553 0.454141
432 4 0.31643 0.0821611 0.482342
467 4 0.326219 0.11214 0.442049
724 2 0.28939 0.0824475 0.451879
725 4 0.276887 0.0928582 0.432893
466 2 0.350268 0.11893 0.441213
468 4 0.374318 0.125721 0.440377
641 4 0.48302 0.112727 0.477485
640 2 0.472945 0.095035 0.462971
3158 4 0.494143 0.129366 0.483303
3157 2 0.494072 0.145948 0.464589
575 4 0.428139 0.165955 0.442654
516 4 0.435296 0.166537 0.424156
514 2 0.460076 0.163797 0.426061
469 2 0.0594806 0.231964 0.461731
470 4 0.0477684 0.253677 0.45766
471 4 0.0711928 0.210252 0.465801
260 4 0.0832764 0.217901 0.48118
261 4 0.126828 0.196862 0.493883
259 2 0.105052 0.207381 0.487531
651 4 0.240437 0.240816 0.423036
650 4 0.252964 0.197378 0.444413
649 2 0.2467 0.219097 0.433724
409 2 0.260934 0.157918 0.456276
411 4 0.255744 0.182284 0.45841
489 4 0.262066 0.243374 0.422148
583 2 0.406967 0.244538 0.45059
3159 4 0.494001 0.16253 0.445874
576 4 0.416348 0.176627 0.490065
574 2 0.422244 0.171291 0.46636
584 4 0.420068 0.241113 0.471609
2456 4 0.437325 0.251569 0.473562
695 4 0.0899419 0.283137 0.447914
694 2 0.107768 0.280366 0.465226
696 4 0.125594 0.277595 0.482539
1260 4 0.143745 0.284392 0.48544
488 4 0.278876 0.290173 0.427442
487 2 0.270471 0.266774 0.424795
585 4 0.393866 0.247962 0.429571
2457 4 0.469599 0.289355 0.479159
2455 2 0.453462 0.270462 0.476361
348 4 0.0157242 0.322715 0.440746
2814 4 0.0108667 0.333097 0.457493
2812 2 0.00985528 0.336347 0.482264
326 4 0.0774006 0.406933 0.453631
709 2 0.155099 0.401391 0.431759
10 3 0.158127 0.34941 0.484319
7 3 0.128207 0.371322 0.480132
327 4 0.111041 0.375039 0.472388
325 2 0.094221 0.390986 0.463009
6 1 0.150839 0.369497 0.476442
8 3 0.154866 0.370994 0.45364
9 3 0.161665 0.386756 0.487548
711 4 0.160246 0.377142 0.435027
336 4 0.360543 0.421421 0.423018
239 4 0.398431 0.338307 0.483605
334 2 0.361869 0.397375 0.429744
335 4 0.363195 0.37333 0.43647
238 2 0.387172 0.353614 0.467354
240 4 0.375913 0.368921 0.451102
2710 2 0.50192 0.409167 0.482023
2712 4 0.495419 0.404278 0.45838
2508 4 0.490143 0.386604 0.451706
560 4 0.494337 0.415673 0.442202
680 4 0.0102538 0.457549 0.463816
679 2 0.00935495 0.479699 0.452252
1383 4 0.00643856 0.443422 0.478667
681 4 0.00845607 0.50185 0.440688
1381 2 0.0183226 0.449374 0.499845
710 4 0.149952 0.425639 0.428492
570 4 0.131627 0.433577 0.431104
569 4 0.123916 0.456585 0.47483
568 2 0.127772 0.445081 0.452967
384 4 0.128001 0.441203 0.489645
773 4 0.202171 0.453628 0.485566
635 4 0.196418 0.465328 0.424007
774 4 0.18367 0.466929 0.441052
772 2 0.192921 0.460278 0.463309
1401 4 0.316782 0.461819 0.461143
586 2 0.386309 0.489942 0.441796
588 4 0.381252 0.470349 0.456483
1399 2 0.34164 0.462551 0.463731
1400 4 0.366499 0.463283 0.466319
1126 2 0.0353551 0.0512135 0.527401
1128 4 0.013539 0.0526859 0.539528
1058 4 0.0854872 0.0226918 0.580127
1127 4 0.0571711 0.0497411 0.515273
720 4 0.0634665 0.0342106 0.505032
1059 4 0.111143 0.0649223 0.572441
1057 2 0.0983152 0.043807 0.576284
1155 4 0.126409 0.0745646 0.578787
951 4 0.20378 0.0625488 0.556585
1031 4 0.20482 0.0464894 0.570726
1030 2 0.228451 0.040165 0.575902
949 2 0.192552 0.0691476 0.535241
1182 4 0.24713 0.082696 0.516656
950 4 0.181325 0.0757465 0.513897
961 2 0.297268 0.0223051 0.518937
1032 4 0.252081 0.0338407 0.581079
2194 2 0.29592 0.018111 0.57511
1180 2 0.259895 0.0649278 0.504551
431 4 0.325369 0.0645512 0.528284
962 4 0.309941 0.0129792 0.538369
2195 4 0.298082 0.0222964 0.550555
430 2 0.3209 0.0733562 0.505313
841 2 0.36598 0.0491904 0.525232
843 4 0.34306 0.0577976 0.520156
842 4 0.3889 0.0405832 0.530308
1217 4 0.395268 0.0609385 0.529193
4466 4 0.455056 0.0109267 0.564035
1218 4 0.444087 0.0704637 0.534359
1216 2 0.419677 0.0657011 0.531776
4465 2 0.436427 0.0239415 0.574463
4467 4 0.417797 0.0369562 0.58489
1062 4 0.462478 0.992862 0.569088
1035 4 0.052256 0.163395 0.543816
939 4 0.15909 0.158327 0.521748
1153 2 0.147724 0.0872758 0.581833
1151 4 0.172941 0.149268 0.533933
1150 2 0.184906 0.133449 0.518708
857 4 0.292609 0.14087 0.564325
899 4 0.31137 0.146409 0.565483
856 2 0.277851 0.160869 0.567054
898 2 0.331144 0.159499 0.557559
1033 2 0.0661685 0.174682 0.526374
877 2 0.0842699 0.243572 0.571978
1034 4 0.080081 0.185969 0.508932
937 2 0.146773 0.179404 0.516346
938 4 0.134455 0.200482 0.510945
879 4 0.0945641 0.223776 0.583262
858 4 0.263094 0.180868 0.569783
796 2 0.27767 0.211957 0.584059
797 4 0.260646 0.200595 0.569696
813 4 0.325526 0.246871 0.559163
873 4 0.344553 0.240091 0.559052
900 4 0.350919 0.172589 0.549634
871 2 0.346487 0.215163 0.55882
872 4 0.34842 0.190235 0.558589
904 2 0.479635 0.252589 0.567659
906 4 0.482775 0.231671 0.554327
878 4 0.0739757 0.263368 0.560693
1258 2 0.163072 0.278711 0.500252
1259 4 0.182398 0.27303 0.515064
811 2 0.305814 0.252447 0.544828
812 4 0.286102 0.258024 0.530492
1204 2 0.39425 0.321953 0.569622
905 4 0.476495 0.273508 0.580991
953 4 0.462679 0.288012 0.578613
2813 4 0.00884381 0.339596 0.507035
1137 4 0.137972 0.340883 0.564996
897 4 0.156713 0.346174 0.569005
383 4 0.135088 0.413812 0.530879
1135 2 0.127477 0.356817 0.581155
895 2 0.179649 0.338243 0.562986
1189 2 0.231355 0.355449 0.535063
896 4 0.202585 0.330312 0.556967
1191 4 0.212636 0.340198 0.541558
1190 4 0.250074 0.3707 0.528568
803 4 0.267571 0.37196 0.539098
802 2 0.289927 0.379282 0.530626
804 4 0.312283 0.386604 0.522154
928 2 0.372208 0.375879 0.548018
929 4 0.378225 0.396771 0.535667
930 4 0.36619 0.354988 0.560368
1206 4 0.381657 0.340915 0.559277
925 2 0.455127 0.399365 0.545054
926 4 0.468339 0.4141 0.560335
927 4 0.441915 0.384631 0.529773
538 2 0.0560226 0.482364 0.535234
540 4 0.0361793 0.467162 0.535801
539 4 0.075866 0.497566 0.534667
1382 4 0.0302067 0.455326 0.521023
382 2 0.131545 0.427508 0.510262
2242 2 0.163858 0.489047 0.583933
1173 4 0.245019 0.44136 0.563635
1172 4 0.28848 0.44377 0.539016
1171 2 0.26675 0.442565 0.551325
882 4 0.287888 0.450321 0.520719
880 2 0.297969 0.471835 0.512925
881 4 0.308049 0.493348 0.505131
1001 4 0.478117 0.413417 0.57804
1000 2 0.478548 0.437417 0.585037
1185 4 0.0272525 0.0322689 0.635198
945 4 0.0427237 0.0225384 0.641872
1183 2 0.0127163 0.0515626 0.64165
943 2 0.0626982 0.032923 0.652751
944 4 0.0826726 0.0433076 0.663631
825 4 0.0945298 0.0136616 0.59516
2196 4 0.293758 0.0139256 0.599666
1004 4 0.34083 0.0672247 0.63811
1003 2 0.355244 0.0483705 0.645979
2283 4 0.410825 0.035763 0.604889
1005 4 0.369658 0.0295163 0.653848
2282 4 0.433611 0.0448935 0.648457
2281 2 0.422218 0.0403283 0.626673
43 3 0.44802 0.0316226 0.654232
45 3 0.481049 0.0414541 0.639064
41 1 0.468 0.0429087 0.657672
44 3 0.463766 0.0651725 0.662652
810 4 0.494397 0.051262 0.627488
808 2 0.502141 0.0728218 0.617469
1154 4 0.169039 0.099987 0.584879
1221 4 0.166599 0.100524 0.605082
1219 2 0.168669 0.105314 0.629535
1220 4 0.170739 0.110104 0.653988
1212 4 0.220315 0.151218 0.641593
1210 2 0.239711 0.138702 0.651201
888 4 0.276075 0.13625 0.667079
1026 4 0.402442 0.160656 0.616783
3426 4 0.496532 0.139824 0.650578
1083 4 0.0563034 0.177088 0.587111
1081 2 0.0728736 0.172503 0.605266
1272 4 0.0844148 0.215421 0.599717
1082 4 0.0894437 0.167918 0.62342
1270 2 0.0963616 0.220499 0.621087
1271 4 0.108308 0.225576 0.642457
909 4 0.125552 0.222306 0.634163
907 2 0.148944 0.230523 0.630929
908 4 0.172337 0.23874 0.627694
947 4 0.189386 0.230092 0.620016
798 4 0.294694 0.223319 0.598421
1025 4 0.390507 0.203104 0.640373
1024 2 0.396474 0.18188 0.628578
1143 4 0.384427 0.218615 0.6522
3121 2 0.467022 0.242439 0.657043
3123 4 0.455858 0.235659 0.635722
946 2 0.196354 0.250777 0.607819
948 4 0.203322 0.271462 0.595621
791 4 0.280108 0.270836 0.640965
790 2 0.268791 0.288117 0.626877
1238 4 0.257921 0.311943 0.593979
792 4 0.257474 0.305398 0.612789
1205 4 0.406844 0.302991 0.579967
954 4 0.41507 0.29005 0.593777
952 2 0.438875 0.289031 0.586195
983 4 0.0162771 0.424984 0.643377
1039 2 0.0568833 0.411519 0.631466
1041 4 0.0338412 0.42034 0.635521
1040 4 0.0799253 0.402699 0.627411
1136 4 0.116982 0.372752 0.597314
1239 4 0.254731 0.361845 0.59338
1237 2 0.256326 0.336894 0.59368
993 4 0.0908825 0.414502 0.639503
991 2 0.114645 0.419522 0.633562
992 4 0.138408 0.424542 0.627621
2170 2 0.139155 0.490684 0.649842
2172 4 0.159115 0.475666 0.648716
1160 4 0.227247 0.474088 0.617824
1159 2 0.208704 0.464035 0.604398
2243 4 0.176629 0.468147 0.58896
1161 4 0.190162 0.453981 0.590971
890 4 0.300757 0.43846 0.601722
891 4 0.32111 0.478445 0.579638
889 2 0.310933 0.458453 0.59068
1952 4 0.318923 0.490951 0.595681
1002 4 0.478978 0.461418 0.592035
1910 4 0.464181 0.473385 0.588759
1909 2 0.447375 0.491708 0.591405
2317 2 0.00637038 0.00423441 0.708745
2319 4 0.0248371 0.0107219 0.724304
1075 2 0.0633504 0.0392456 0.718942
1076 4 0.0602847 0.0406055 0.694165
1077 4 0.066416 0.0378856 0.74372
1257 4 0.256771 0.0529469 0.737314
1163 4 0.498228 0.0389795 0.674599
42 3 0.479017 0.0332831 0.675423
1283 4 0.168358 0.114168 0.673746
1282 2 0.187362 0.124591 0.686212
1284 4 0.206366 0.135014 0.698678
1227 4 0.225646 0.134187 0.692733
1225 2 0.228175 0.150892 0.711165
1211 4 0.259107 0.126185 0.66081
886 2 0.293994 0.14076 0.683924
887 4 0.311913 0.14527 0.700768
830 4 0.315144 0.12507 0.703107
829 2 0.325108 0.123411 0.725979
831 4 0.335073 0.121752 0.748851
1146 4 0.499208 0.144657 0.731789
1144 2 0.480553 0.158432 0.722438
1209 4 0.0559021 0.238856 0.668055
1105 2 0.0332621 0.197772 0.751327
1107 4 0.016804 0.214069 0.741907
851 4 0.00506432 0.210695 0.726349
822 4 0.143139 0.227238 0.71991
1278 4 0.139198 0.218341 0.737456
1276 2 0.153213 0.198948 0.744711
1226 4 0.230703 0.167596 0.729597
1065 4 0.217364 0.246076 0.697648
1130 4 0.227921 0.179007 0.744723
916 2 0.290163 0.244278 0.729094
918 4 0.30367 0.224858 0.737195
977 4 0.306332 0.208105 0.726267
976 2 0.306132 0.188998 0.742394
1142 4 0.339353 0.216584 0.673762
1141 2 0.36189 0.2176 0.662981
1192 2 0.396766 0.2285 0.717739
1193 4 0.372044 0.231854 0.719393
1194 4 0.421489 0.225146 0.716085
1145 4 0.461898 0.172207 0.713087
1262 4 0.435929 0.220488 0.702973
1261 2 0.454777 0.204404 0.706328
1263 4 0.473624 0.18832 0.709684
3122 4 0.478187 0.249218 0.678364
3357 4 0.488778 0.243438 0.694555
1207 2 0.0612316 0.256872 0.684554
1243 2 0.0212496 0.313461 0.696618
1244 4 0.045118 0.320723 0.69496
1208 4 0.066561 0.274888 0.701052
820 2 0.137974 0.251449 0.716397
821 4 0.132808 0.27566 0.712885
1064 4 0.210745 0.292826 0.681177
1063 2 0.214055 0.269451 0.689413
1098 4 0.232845 0.30745 0.73565
1096 2 0.24812 0.287655 0.735672
917 4 0.276655 0.263697 0.720994
1097 4 0.263395 0.26786 0.735694
806 4 0.444988 0.300385 0.734293
805 2 0.434603 0.322128 0.74097
892 2 0.0659191 0.395821 0.685433
893 4 0.0472806 0.39607 0.668768
894 4 0.0845577 0.395571 0.702098
1028 4 0.228435 0.403047 0.706411
1067 4 0.168647 0.415067 0.700116
1066 2 0.192799 0.410734 0.695313
1027 2 0.248508 0.405033 0.691635
1140 4 0.327511 0.41905 0.700853
1138 2 0.306423 0.40901 0.691927
1139 4 0.285335 0.398971 0.683001
1029 4 0.26858 0.40702 0.67686
1230 4 0.347607 0.416967 0.741933
1018 2 0.40487 0.377276 0.757136
807 4 0.424219 0.343871 0.747647
1020 4 0.422801 0.362523 0.747861
1281 4 0.0691028 0.439926 0.705609
1279 2 0.0648574 0.435681 0.729881
2021 4 0.0455643 0.487088 0.733013
2020 2 0.0652984 0.49643 0.720827
2022 4 0.0850325 0.505771 0.708642
941 4 0.162789 0.429959 0.714109
940 2 0.141678 0.42268 0.725358
942 4 0.120567 0.415401 0.736606
1068 4 0.216952 0.406401 0.69051
1269 4 0.43836 0.487377 0.691539
3330 4 0.485322 0.435441 0.688242
3328 2 0.474324 0.44512 0.708504
3329 4 0.463325 0.454799 0.728765
1203 4 0.0748006 0.0297006 0.759444
1201 2 0.0903635 0.0312132 0.778956
1202 4 0.105926 0.0327257 0.798467
2049 4 0.121313 0.0205011 0.800778
1148 4 0.180137 0.0290552 0.770886
1147 2 0.194718 0.0395094 0.788302
1149 4 0.209299 0.0499635 0.805717
1049 4 0.225374 0.0408244 0.81479
1256 4 0.296015 0.0595028 0.767606
1255 2 0.276393 0.0562249 0.75246
1048 2 0.24958 0.0428385 0.820723
1050 4 0.273786 0.0448527 0.826655
1112 4 0.422459 0.00949098 0.790715
846 4 0.465977 0.0395734 0.788266
1113 4 0.45105 0.0483368 0.777515
1111 2 0.436754 0.0289139 0.784115
844 2 0.485663 0.0535699 0.794728
862 2 0.0261333 0.100966 0.816193
832 2 0.0285327 0.145573 0.777416
863 4 0.0175829 0.10854 0.793951
833 4 0.0128659 0.127638 0.785035
33 3 0.0605723 0.156441 0.778804
834 4 0.0441994 0.163509 0.769798
911 4 0.0516045 0.083632 0.835981
32 3 0.0915452 0.159921 0.757798
840 4 0.225756 0.153136 0.824014
978 4 0.305933 0.169891 0.758521
838 2 0.250074 0.150627 0.829261
839 4 0.274392 0.148118 0.834508
959 4 0.294745 0.143113 0.835258
817 2 0.36411 0.0908703 0.826413
819 4 0.360978 0.0876972 0.80181
1084 2 0.354697 0.130926 0.786726
1085 4 0.357056 0.107684 0.795637
1086 4 0.352338 0.154168 0.777815
3270 4 0.501667 0.149056 0.751425
153 3 0.000741983 0.242288 0.825637
1106 4 0.0497202 0.181476 0.760747
1214 4 0.0205029 0.236956 0.782807
35 3 0.0689098 0.189249 0.762318
31 1 0.0776379 0.170847 0.772508
780 4 0.075766 0.248846 0.811212
34 3 0.0899242 0.177194 0.79114
1073 4 0.10682 0.185412 0.79966
1072 2 0.131654 0.18794 0.798226
1074 4 0.156488 0.190467 0.796792
1277 4 0.167228 0.179554 0.751966
1129 2 0.205173 0.182216 0.754591
1131 4 0.182424 0.185426 0.76446
1299 4 0.350927 0.174182 0.782366