ITEM: TIMESTEP
3070000
ITEM: NUMBER OF ATOMS
4590
ITEM: BOX BOUNDS pp pp pp
-9.9985700000000008e+00 9.9985700000000008e+00
-9.9985700000000008e+00 9.9985700000000008e+00
-9.9985700000000008e+00 9.9985700000000008e+00
ITEM: ATOMS id type xs ys zs
463 2 0.0253528 0.0472043 0.0146456
464 4 0.0380287 0.0257092 0.0130757
1668 4 0.0730978 0.066426 0.0712092
3290 4 0.0766654 0.0635639 0.0508148
465 4 0.012677 0.0686993 0.0162155
3289 2 0.0858212 0.0502634 0.0317243
701 4 0.00948837 0.0767945 0.998619
3291 4 0.0949769 0.036963 0.0126337
2183 4 0.085685 0.0242657 0.000485194
566 4 0.141664 0.0394167 0.0290554
565 2 0.163708 0.0281227 0.032473
567 4 0.185752 0.0168288 0.0358906
490 2 0.313169 0.0035271 0.0542256
491 4 0.320345 0.0193519 0.0362464
985 2 0.301127 0.0464698 0.00827575
987 4 0.314546 0.0367019 0.0269757
2144 4 0.330297 0.0114985 0.0215509
745 2 0.481368 0.043371 0.0761253
746 4 0.464049 0.0608748 0.0717814
460 2 0.287438 0.162108 0.050424
462 4 0.307739 0.150873 0.0597405
421 2 0.0682604 0.186536 0.000819375
422 4 0.0534427 0.206652 0.00180412
836 4 0.061954 0.242823 0.0105516
505 2 0.139372 0.245079 0.0790138
737 4 0.161886 0.215688 0.072134
736 2 0.182853 0.207344 0.0613669
738 4 0.20382 0.198999 0.0505998
354 4 0.219267 0.212597 0.0473614
352 2 0.238385 0.199114 0.0385368
461 4 0.267136 0.173342 0.0411074
353 4 0.257503 0.185631 0.0297122
1069 2 0.373839 0.237669 0.003637
665 4 0.365146 0.192729 0.0146531
664 2 0.345464 0.185377 0.00109752
828 4 0.500947 0.2377 0.00892257
3339 4 0.017714 0.292014 0.00768539
293 4 0.10286 0.266921 0.0723533
507 4 0.116181 0.254347 0.0802153
287 4 0.146366 0.285203 0.0235896
286 2 0.145081 0.310169 0.0230892
292 2 0.0939726 0.286646 0.0848875
612 4 0.256815 0.29896 0.043782
610 2 0.262554 0.290155 0.0664693
609 4 0.267967 0.315354 0.0458776
1071 4 0.364793 0.256084 0.0179286
573 4 0.356612 0.274307 0.0139921
571 2 0.335182 0.285643 0.00787494
323 4 0.493451 0.25406 0.999329
324 4 0.44686 0.27216 0.000879128
322 2 0.470156 0.26311 0.000103868
990 4 0.151879 0.3478 0.036346
288 4 0.143796 0.335134 0.0225888
1289 4 0.184541 0.403101 0.0131184
988 2 0.163095 0.369529 0.0311301
989 4 0.174312 0.391259 0.0259143
1288 2 0.200392 0.411091 0.995509
607 2 0.267624 0.340048 0.0419729
739 2 0.336192 0.343364 0.0476478
250 2 0.290732 0.40012 0.0451589
252 4 0.2746 0.381099 0.0469297
608 4 0.267281 0.364743 0.0380682
741 4 0.339425 0.351913 0.0243747
386 4 0.337038 0.35259 0.0802228
740 4 0.332959 0.334815 0.070921
226 2 0.389574 0.390161 0.0265355
228 4 0.380793 0.412301 0.034144
227 4 0.398355 0.368021 0.018927
1305 4 0.413194 0.359252 0.00926973
1303 2 0.406585 0.335875 0.0033523
525 4 0.366703 0.425686 0.0345953
1046 4 0.482326 0.33496 0.00486569
1045 2 0.490072 0.342407 0.0274427
281 4 0.439851 0.351198 0.0882659
280 2 0.462369 0.352134 0.0774384
282 4 0.484887 0.35307 0.0666109
1047 4 0.497818 0.349854 0.0500197
552 4 6.02433e-05 0.455045 0.0751539
550 2 0.00529472 0.472859 0.0584079
551 4 0.0105292 0.490673 0.0416618
1956 4 0.0191325 0.494944 0.0229439
1786 2 0.174257 0.496808 0.0554488
243 4 0.244688 0.449966 0.0577606
1440 4 0.244033 0.436914 0.0726474
241 2 0.223167 0.462109 0.0539509
242 4 0.201645 0.474253 0.0501412
1787 4 0.19349 0.489417 0.0412828
251 4 0.306864 0.419141 0.0433881
524 4 0.31993 0.431748 0.051218
271 2 0.275062 0.47673 0.0786643
272 4 0.276184 0.455796 0.0922916
523 2 0.343316 0.428717 0.0429066
1583 4 0.462797 0.451968 0.0453278
1582 2 0.463908 0.475438 0.0538773
1584 4 0.465019 0.498908 0.0624269
1666 2 0.0530173 0.0611367 0.0851366
1667 4 0.0329368 0.0558474 0.0990641
16 1 0.0370113 0.0459942 0.136596
19 3 0.0230138 0.0458515 0.155102
17 3 0.0247437 0.0518469 0.118038
20 3 0.0459496 0.0252848 0.133454
1422 4 0.00154533 0.0478319 0.162777
18 3 0.0539564 0.0615582 0.139601
652 2 0.258901 0.0518502 0.156783
654 4 0.267187 0.0511553 0.133203
1476 4 0.263644 0.0562969 0.115219
1475 4 0.308151 0.0553475 0.0924402
1474 2 0.285897 0.0558222 0.10383
297 4 0.380962 0.0507824 0.135993
295 2 0.404978 0.0551599 0.130584
484 2 0.354811 0.0199915 0.124142
485 4 0.370827 0.0391916 0.123964
486 4 0.338795 0.000791408 0.124319
296 4 0.428994 0.0595374 0.125176
557 4 0.437815 0.0644524 0.107225
556 2 0.45931 0.0723103 0.117293
558 4 0.480806 0.0801681 0.127362
747 4 0.498686 0.0258672 0.0804691
450 4 0.0864205 0.0996136 0.0939257
236 4 0.132026 0.125353 0.12215
449 4 0.114084 0.133587 0.118034
448 2 0.100252 0.116601 0.10598
235 2 0.151672 0.128982 0.137185
237 4 0.171317 0.132611 0.15222
477 4 0.23241 0.156633 0.137836
580 2 0.312427 0.12144 0.138381
581 4 0.292885 0.1364 0.142798
30 3 0.282454 0.141045 0.159917
582 4 0.331968 0.10648 0.133964
26 1 0.261768 0.149757 0.163766
29 3 0.249916 0.151106 0.143863
758 4 0.348974 0.103112 0.143186
757 2 0.354821 0.0988414 0.167118
771 4 0.481091 0.0996018 0.133129
769 2 0.484944 0.113353 0.153653
506 4 0.162563 0.23581 0.0778122
371 4 0.198811 0.19999 0.149032
476 4 0.200085 0.194047 0.130352
475 2 0.216247 0.17534 0.134094
370 2 0.177317 0.209921 0.157069
624 4 0.46639 0.251154 0.145307
294 4 0.0850854 0.306372 0.0974217
456 4 0.100551 0.317511 0.104521
611 4 0.268292 0.281349 0.0891565
279 4 0.282139 0.265465 0.14516
277 2 0.283829 0.269417 0.120529
278 4 0.285519 0.273369 0.0958976
285 4 0.271916 0.262072 0.162758
756 4 0.354115 0.24939 0.1189
754 2 0.34967 0.2489 0.143501
255 4 0.367141 0.262982 0.110265
254 4 0.4096 0.271375 0.0852159
253 2 0.388371 0.267179 0.0977402
629 4 0.462896 0.259903 0.127569
628 2 0.444566 0.261279 0.110619
630 4 0.426235 0.262656 0.0936696
622 2 0.459314 0.259022 0.167961
619 2 0.0448285 0.372829 0.131584
620 4 0.0537261 0.394894 0.123893
621 4 0.0359309 0.350764 0.139276
315 4 0.00889253 0.409128 0.104183
2786 4 0.00526353 0.390891 0.0995409
455 4 0.117619 0.364358 0.108363
454 2 0.109085 0.340935 0.106442
537 4 0.113782 0.39033 0.134224
535 2 0.137709 0.383561 0.131608
536 4 0.161636 0.376792 0.128992
647 4 0.109414 0.396043 0.153949
625 2 0.22124 0.383061 0.141299
627 4 0.221588 0.400681 0.123562
626 4 0.220891 0.365442 0.159037
1439 4 0.236692 0.411916 0.115331
301 2 0.329495 0.408238 0.14116
670 2 0.409131 0.351818 0.103191
385 2 0.343135 0.36685 0.0998351
387 4 0.349233 0.38111 0.119447
12 3 0.400592 0.377475 0.127589
11 1 0.38869 0.396647 0.132054
15 3 0.368078 0.395077 0.122497
672 4 0.391925 0.366587 0.113727
302 4 0.349118 0.393621 0.136018
13 3 0.386599 0.398995 0.155044
14 3 0.400138 0.414806 0.123246
104 3 0.496098 0.356282 0.0824367
671 4 0.426338 0.33705 0.0926553
314 4 0.00702814 0.458042 0.0939501
313 2 0.00796034 0.433585 0.0990665
1620 4 0.15862 0.48159 0.140662
1618 2 0.156753 0.489428 0.116992
1431 4 0.145788 0.483941 0.155336
1619 4 0.154885 0.497265 0.0933222
1438 2 0.240363 0.424415 0.0939894
639 4 0.278176 0.483561 0.139786
638 4 0.302309 0.440601 0.148312
637 2 0.290242 0.462081 0.144049
303 4 0.309872 0.422855 0.146302
659 4 0.322013 0.446737 0.15174
1574 4 0.286006 0.499333 0.130776
1559 4 0.367085 0.493487 0.129373
495 4 0.389965 0.431015 0.115585
493 2 0.408782 0.446431 0.121368
494 4 0.427598 0.461848 0.127152
2480 4 0.00287137 0.0677031 0.156066
674 4 0.154539 0.0796724 0.208902
688 2 0.153347 0.0426022 0.190019
689 4 0.160944 0.0198812 0.182863
690 4 0.145749 0.0653231 0.197175
1505 4 0.181228 0.0202608 0.18322
1504 2 0.202296 0.00864203 0.176416
693 4 0.249909 0.0701459 0.190105
653 4 0.250614 0.0525451 0.180364
691 2 0.268673 0.0838752 0.199303
22 3 0.386714 0.0647119 0.222205
698 4 0.404345 0.0695827 0.229363
697 2 0.410269 0.0483483 0.24116
25 3 0.37619 0.0809082 0.19027
21 1 0.381079 0.084643 0.212197
351 4 0.49653 0.0414085 0.211344
349 2 0.483451 0.061613 0.21812
742 2 0.492606 0.00443394 0.241948
513 4 0.0265744 0.13347 0.232249
578 4 0.0334957 0.150939 0.240263
511 2 0.00742627 0.134092 0.216182
673 2 0.1506 0.0870578 0.232463
28 3 0.250284 0.136481 0.17894
1699 2 0.326288 0.0965175 0.214627
1701 4 0.302448 0.0977814 0.222056
692 4 0.287437 0.0976046 0.2085
1700 4 0.350129 0.0952535 0.207197
333 4 0.411173 0.0865725 0.223854
759 4 0.360669 0.0945712 0.19105
23 3 0.362578 0.093512 0.223035
24 3 0.399029 0.0992448 0.213931
770 4 0.488798 0.127104 0.174177
331 2 0.435256 0.0932514 0.223092
312 4 0.487382 0.110605 0.185754
310 2 0.486773 0.121394 0.208302
350 4 0.470373 0.0818175 0.224896
332 4 0.459339 0.0999303 0.222329
311 4 0.486164 0.132183 0.23085
577 2 0.0354088 0.175767 0.242518
529 2 0.0233304 0.223156 0.21008
530 4 0.0342697 0.213447 0.230359
579 4 0.0373219 0.200595 0.244773
531 4 0.0123912 0.232865 0.189801
2483 4 0.0008734 0.248012 0.184945
372 4 0.155824 0.219852 0.165106
362 4 0.152202 0.233497 0.178383
27 3 0.263968 0.1709 0.172558
339 4 0.0445529 0.287566 0.175334
704 4 0.0306173 0.301983 0.178365
337 2 0.0687616 0.285053 0.181061
703 2 0.0300578 0.321576 0.193889
361 2 0.13707 0.252869 0.182956
363 4 0.121937 0.272241 0.187528
338 4 0.0929703 0.282539 0.186788
395 4 0.10464 0.270749 0.199679
396 4 0.0954039 0.256931 0.246843
394 2 0.100022 0.26384 0.223261
283 2 0.281262 0.264265 0.185846
284 4 0.290608 0.266458 0.208933
755 4 0.345224 0.248411 0.168101
528 4 0.433047 0.315354 0.214488
623 4 0.452237 0.26689 0.190615
527 4 0.433611 0.273415 0.187257
526 2 0.433329 0.294384 0.200872
542 4 0.443273 0.32098 0.230675
705 4 0.0294982 0.341169 0.209412
2615 4 0.0211052 0.33847 0.227085
263 4 0.0395855 0.397908 0.243646
300 4 0.0995341 0.378372 0.211773
646 2 0.112196 0.391202 0.178321
648 4 0.114979 0.38636 0.202693
298 2 0.106045 0.369147 0.234082
289 2 0.222338 0.405469 0.241554
416 4 0.20698 0.399407 0.208188
290 4 0.225518 0.401182 0.217127
415 2 0.189202 0.413859 0.198176
597 4 0.376448 0.393233 0.173364
345 4 0.355489 0.363422 0.214072
596 4 0.356881 0.352963 0.195639
645 4 0.39761 0.403352 0.172875
595 2 0.366664 0.373098 0.184501
343 2 0.362798 0.363548 0.237983
1429 2 0.153918 0.46335 0.16696
1430 4 0.162048 0.442759 0.178583
417 4 0.171423 0.428312 0.188163
438 4 0.274318 0.463235 0.215475
436 2 0.27615 0.468365 0.239878
658 2 0.339258 0.454668 0.168017
643 2 0.391933 0.422204 0.188288
644 4 0.386257 0.441055 0.203702
660 4 0.356502 0.462599 0.184293
231 4 0.372229 0.472157 0.187156
447 4 0.397219 0.441731 0.221268
445 2 0.410662 0.441436 0.242348
229 2 0.364647 0.491513 0.20105
1403 4 0.02384 0.0205311 0.270326
233 4 0.024553 0.0381227 0.279576
232 2 0.0446024 0.0530499 0.278959
234 4 0.0646518 0.0679771 0.278343
1402 2 0.0341365 0.00161528 0.257623
606 4 0.141828 0.081888 0.327573
722 4 0.192502 0.0477545 0.267043
1405 2 0.233261 0.0142185 0.28078
1406 4 0.223125 0.0360339 0.273958
721 2 0.19327 0.0695652 0.279245
1518 4 0.406769 0.0144061 0.266289
699 4 0.416192 0.0271139 0.252958
743 4 0.492439 0.0142348 0.26495
425 4 0.496021 0.0316171 0.273161
424 2 0.485302 0.0439327 0.292098
258 4 0.458226 0.0655164 0.306513
426 4 0.474583 0.0562483 0.311035
256 2 0.457897 0.0766282 0.328909
317 4 0.0527376 0.0850621 0.278752
316 2 0.0610115 0.106847 0.287815
318 4 0.0692853 0.128632 0.296877
675 4 0.14666 0.0944432 0.256024
391 2 0.0957875 0.165731 0.294054
392 4 0.107483 0.161235 0.272416
544 2 0.11835 0.127766 0.261931
545 4 0.100722 0.145447 0.263275
546 4 0.135979 0.110085 0.260587
723 4 0.194037 0.0913759 0.291446
599 4 0.183803 0.0899889 0.309365
403 2 0.245 0.122975 0.301211
405 4 0.236408 0.145914 0.296198
401 4 0.224256 0.159333 0.303985
598 2 0.19871 0.0988351 0.327385
404 4 0.253593 0.100036 0.306224
521 4 0.493402 0.137803 0.247604
393 4 0.0840922 0.170227 0.315691
399 4 0.0935399 0.161281 0.331594
400 2 0.221441 0.184107 0.302115
402 4 0.218626 0.208881 0.300245
707 4 0.285265 0.20766 0.325971
763 2 0.449633 0.194231 0.304788
764 4 0.455486 0.175332 0.2895
765 4 0.44378 0.213131 0.320077
442 2 0.0733793 0.284525 0.276675
444 4 0.0619559 0.299711 0.292925
443 4 0.0848027 0.26934 0.260424
497 4 0.311722 0.277754 0.324827
541 2 0.429098 0.324271 0.251008
543 4 0.414922 0.327561 0.27134
749 4 0.0617016 0.33783 0.289863
366 4 0.0527016 0.354556 0.295664
365 4 0.00691706 0.371854 0.305925
364 2 0.0298093 0.363205 0.300795
602 4 0.0674629 0.3978 0.317573
777 4 0.0794837 0.406586 0.302461
748 2 0.0842633 0.344769 0.281617
299 4 0.112557 0.359923 0.256391
750 4 0.106825 0.351708 0.273371
735 4 0.148251 0.397914 0.303058
733 2 0.145675 0.377633 0.288662
734 4 0.1431 0.357353 0.274266
677 4 0.159916 0.408844 0.29013
291 4 0.219158 0.409755 0.265982
414 4 0.224787 0.411892 0.284551
412 2 0.244415 0.410026 0.299927
413 4 0.264044 0.40816 0.315302
727 2 0.326456 0.395162 0.324863
728 4 0.316403 0.417112 0.33137
344 4 0.370108 0.363674 0.261894
308 4 0.357031 0.370049 0.320171
729 4 0.336508 0.373212 0.318357
615 4 0.410615 0.339864 0.285036
309 4 0.367813 0.349267 0.275983
307 2 0.362422 0.359658 0.298077
614 4 0.42938 0.351072 0.330014
613 2 0.419997 0.345468 0.307525
2924 4 0.495438 0.357257 0.326313
2923 2 0.471576 0.351301 0.330819
2862 4 0.483479 0.400882 0.27779
2860 2 0.499702 0.396756 0.259217
120 3 0.485568 0.403927 0.300522
262 2 0.0396815 0.421953 0.250504
264 4 0.0397775 0.445997 0.257362
775 2 0.0958098 0.420795 0.289942
1757 4 0.110754 0.451873 0.287396
776 4 0.112136 0.435005 0.277423
1756 2 0.106667 0.476468 0.289279
676 2 0.174404 0.427841 0.282756
678 4 0.188892 0.446839 0.275382
768 4 0.179371 0.465171 0.277193
766 2 0.190314 0.487426 0.274008
502 2 0.198855 0.425905 0.336644
503 4 0.208856 0.448805 0.335776
437 4 0.277981 0.473494 0.264281
1437 4 0.287339 0.481007 0.280958
1435 2 0.268148 0.495998 0.286628
433 2 0.302149 0.453724 0.311956
435 4 0.299583 0.470833 0.293904
434 4 0.304715 0.436615 0.330008
713 4 0.474727 0.418448 0.286933
446 4 0.424105 0.441141 0.263428
712 2 0.454549 0.4326 0.282721
714 4 0.43437 0.446752 0.27851
368 4 0.0769286 0.0706334 0.415727
731 4 0.0732309 0.0811539 0.399413
730 2 0.0975344 0.0793763 0.393814
604 2 0.136508 0.074017 0.350702
605 4 0.131188 0.066146 0.37383
732 4 0.121838 0.0775987 0.388214
683 4 0.246227 0.0765711 0.370062
249 4 0.288742 0.0372506 0.345155
684 4 0.27139 0.0466265 0.338903
682 2 0.258809 0.0615988 0.354482
247 2 0.310323 0.0444356 0.355538
248 4 0.331904 0.0516206 0.365921
633 4 0.330714 0.0670302 0.378915
631 2 0.339228 0.0730874 0.40163
1749 4 0.484345 0.0202838 0.339288
2586 4 0.994173 0.150821 0.389547
397 2 0.100274 0.140575 0.343885
398 4 0.107008 0.119869 0.356177
600 4 0.213617 0.107681 0.345405
685 2 0.204923 0.133284 0.37609
687 4 0.207789 0.124767 0.352756
686 4 0.202058 0.141801 0.399423
410 4 0.216073 0.140577 0.415136
409 2 0.230411 0.161044 0.415973
321 4 0.248055 0.0947067 0.377126
319 2 0.260558 0.0969276 0.398665
419 4 0.358792 0.151772 0.370888
418 2 0.348429 0.140475 0.390641
420 4 0.338066 0.129179 0.410394
716 4 0.370689 0.14945 0.354684
257 4 0.457568 0.0877401 0.351305
760 2 0.481479 0.122692 0.353964
761 4 0.462231 0.10719 0.350169
515 4 0.488199 0.12492 0.420601
388 2 0.101833 0.227659 0.398649
274 2 0.151985 0.23681 0.37682
276 4 0.128937 0.245315 0.381471
389 4 0.110848 0.238897 0.378213
473 4 0.231698 0.216632 0.343798
474 4 0.187043 0.214308 0.366187
472 2 0.20937 0.21547 0.354992
708 4 0.248016 0.225783 0.353985
275 4 0.175033 0.228304 0.372169
650 4 0.254279 0.199019 0.414093
651 4 0.270654 0.233651 0.38195
649 2 0.262467 0.216335 0.398022
706 2 0.26664 0.216722 0.339978
489 4 0.259422 0.238832 0.366495
377 4 0.396775 0.212083 0.35087
717 4 0.382968 0.197656 0.349571
715 2 0.376828 0.173553 0.352127
376 2 0.384414 0.233582 0.347687
378 4 0.372052 0.255082 0.344505
1258 2 0.133392 0.311324 0.392384
1259 4 0.148703 0.323427 0.376756
1260 4 0.118081 0.29922 0.408013
509 4 0.241417 0.305961 0.360311
488 4 0.244162 0.286428 0.364926
508 2 0.233789 0.323958 0.375903
487 2 0.251792 0.26263 0.365711
584 4 0.386534 0.249935 0.40845
496 2 0.332299 0.264755 0.330553
267 4 0.343537 0.318851 0.349879
498 4 0.352877 0.251757 0.336279
266 4 0.373122 0.297025 0.383778
585 4 0.388255 0.287678 0.375689
583 2 0.387394 0.268807 0.392069
265 2 0.358329 0.307938 0.366829
269 4 0.508478 0.26198 0.33769
268 2 0.491118 0.267311 0.354876
270 4 0.473757 0.272643 0.372062
306 4 0.475733 0.267303 0.391048
601 2 0.082739 0.394119 0.337022
407 4 0.0279094 0.410167 0.398724
603 4 0.0980152 0.390438 0.356471
549 4 0.105383 0.409283 0.356215
504 4 0.188855 0.403005 0.337512
510 4 0.226161 0.341955 0.391494
374 4 0.229062 0.359826 0.383832
373 2 0.241087 0.378331 0.372078
375 4 0.253113 0.396835 0.360325
3 3 0.272239 0.399456 0.361182
2925 4 0.447714 0.345345 0.335326
751 2 0.485431 0.414602 0.375188
119 3 0.493775 0.396142 0.336435
753 4 0.486284 0.405785 0.351807
752 4 0.484578 0.423419 0.39857
3672 4 0.0395982 0.496382 0.339296
679 2 0.0267959 0.48628 0.366157
680 4 0.0292471 0.467204 0.382135
406 2 0.0364117 0.432886 0.392665
408 4 0.044914 0.455606 0.386606
547 2 0.113018 0.424254 0.374729
569 4 0.115213 0.428296 0.408079
548 4 0.120654 0.439225 0.393242
635 4 0.174986 0.496845 0.364534
634 2 0.184063 0.475673 0.354812
636 4 0.193141 0.4545 0.345091
5 3 0.257981 0.418448 0.331964
669 4 0.28159 0.490694 0.401256
2 3 0.294942 0.417077 0.336958
1 1 0.27456 0.418107 0.347574
668 4 0.265399 0.453933 0.37147
4 3 0.273753 0.437423 0.360404
667 2 0.273495 0.472314 0.386363
1586 4 0.292617 0.505292 0.396286
1401 4 0.330815 0.446488 0.414857
718 2 0.0420095 0.0637149 0.491012
719 4 0.0386435 0.0759313 0.469457
369 4 0.0471555 0.0645514 0.455442
367 2 0.0620421 0.0675924 0.435584
341 4 0.167446 0.0643175 0.454011
441 4 0.217284 0.0103767 0.455376
2430 4 0.165388 0.0459036 0.444374
2428 2 0.183402 0.0320293 0.454774
2429 4 0.201417 0.018155 0.465175
632 4 0.347742 0.0791445 0.424346
2878 2 0.469898 0.00753433 0.46097
2880 4 0.480761 0.028888 0.453815
642 4 0.477542 0.043276 0.44084
640 2 0.481693 0.0675792 0.43668
340 2 0.172459 0.0865937 0.4642
1152 4 0.172765 0.127618 0.476833
342 4 0.177472 0.10887 0.474389
1150 2 0.176914 0.144918 0.494402
320 4 0.273061 0.0991485 0.420204
725 4 0.276828 0.091626 0.438938
724 2 0.276807 0.0955555 0.463631
726 4 0.276787 0.0994849 0.488324
468 4 0.337602 0.0852174 0.439858
467 4 0.363779 0.127004 0.448188
466 2 0.35069 0.10611 0.444023
574 2 0.406534 0.134805 0.437165
576 4 0.382165 0.131668 0.441799
641 4 0.485844 0.0918824 0.432521
3158 4 0.495714 0.106139 0.423397
575 4 0.430904 0.137942 0.432532
516 4 0.445836 0.150807 0.426598
514 2 0.467017 0.137863 0.423599
259 2 0.0725793 0.17279 0.49395
260 4 0.0763575 0.180296 0.470401
469 2 0.07718 0.206548 0.449662
471 4 0.0622611 0.190219 0.461322
390 4 0.0928177 0.216421 0.419084
470 4 0.0920988 0.222878 0.438002
411 4 0.24475 0.18151 0.416811
2455 2 0.411767 0.229058 0.437167
2457 4 0.421684 0.217245 0.456846
2456 4 0.401849 0.240872 0.417489
616 2 0.0176765 0.274008 0.433887
617 4 0.0395944 0.285803 0.431506
695 4 0.104848 0.24805 0.429214
694 2 0.108309 0.2728 0.428412
696 4 0.111769 0.29755 0.427609
878 4 0.108387 0.274848 0.489752
304 2 0.474482 0.264075 0.415811
1010 4 0.452923 0.317524 0.475966
1009 2 0.461064 0.296884 0.464439
1011 4 0.469206 0.276244 0.452912
305 4 0.473231 0.260846 0.440574
709 2 0.135184 0.414858 0.480592
326 4 0.106991 0.364519 0.431891
325 2 0.12861 0.364744 0.444452
327 4 0.150228 0.364969 0.457013
8 3 0.165968 0.386163 0.492782
9 3 0.157103 0.349594 0.498123
711 4 0.149734 0.394923 0.484599
7 3 0.168521 0.36165 0.464405
6 1 0.17126 0.364299 0.487091
10 3 0.192906 0.359857 0.492602
334 2 0.336398 0.420972 0.444503
335 4 0.349434 0.405684 0.459387
238 2 0.354569 0.390688 0.496575
240 4 0.362609 0.398822 0.474341
560 4 0.490078 0.38561 0.450291
2507 4 0.461571 0.335394 0.483961
561 4 0.499564 0.413648 0.409984
559 2 0.494821 0.399629 0.430137
2506 2 0.469383 0.352787 0.467786
2508 4 0.477196 0.370179 0.451611
540 4 0.0351397 0.473305 0.474563
1381 2 0.000448287 0.445461 0.471732
1382 4 0.0168255 0.464093 0.474863
710 4 0.120634 0.434794 0.476585
773 4 0.124305 0.499776 0.475947
570 4 0.119224 0.43889 0.456786
568 2 0.117218 0.433593 0.432432
1394 4 0.23932 0.496342 0.490636
1393 2 0.228008 0.505801 0.470444
1446 4 0.239472 0.476032 0.498468
588 4 0.322611 0.49948 0.446612
336 4 0.323361 0.43626 0.42962
1400 4 0.326262 0.494978 0.426205
1399 2 0.328539 0.470733 0.420531
1127 4 0.0309461 0.0613152 0.520329
720 4 0.0453755 0.0514985 0.512567
1126 2 0.017111 0.0473293 0.535762
1031 4 0.165069 0.0841727 0.538309
949 2 0.196482 0.0697613 0.560061
950 4 0.215689 0.0701471 0.576064
1182 4 0.235823 0.0703108 0.577821
951 4 0.177275 0.0693755 0.544057
1180 2 0.250566 0.0530039 0.567415
963 4 0.271902 0.0206281 0.568277
1181 4 0.265309 0.035697 0.557008
961 2 0.287233 0.00121292 0.564643
1216 2 0.378597 0.058598 0.513352
1217 4 0.372511 0.0707151 0.53436
842 4 0.359144 0.0652695 0.54819
1218 4 0.384682 0.0464809 0.492344
841 2 0.338935 0.0798873 0.549949
810 4 0.482988 0.0755426 0.573024
1035 4 0.0670946 0.136018 0.568676
261 4 0.0688011 0.165284 0.517499
1033 2 0.0733798 0.152726 0.551168
1030 2 0.144341 0.094237 0.548019
1032 4 0.123614 0.104301 0.557728
1154 4 0.11143 0.100678 0.572844
1151 4 0.181063 0.162219 0.51197
939 4 0.173939 0.163439 0.530942
843 4 0.318726 0.0945052 0.551707
431 4 0.318931 0.111381 0.54027
430 2 0.303044 0.109536 0.521052
432 4 0.287157 0.107691 0.501833
857 4 0.346232 0.136061 0.584847
899 4 0.356048 0.136418 0.567897
898 2 0.37396 0.15367 0.565313
808 2 0.49914 0.0875961 0.558225
1034 4 0.079665 0.169435 0.533661
1272 4 0.105928 0.228622 0.540615
1270 2 0.114347 0.222221 0.563272
879 4 0.109367 0.237461 0.522948
937 2 0.173425 0.168453 0.555432
900 4 0.391873 0.170922 0.562729
872 4 0.398523 0.188676 0.555296
873 4 0.371399 0.230617 0.552853
871 2 0.384961 0.209646 0.554074
813 4 0.359241 0.240247 0.564692
877 2 0.108877 0.256155 0.50635
1239 4 0.273632 0.268781 0.559325
1205 4 0.404581 0.302782 0.568456
1204 2 0.380875 0.310235 0.571222
1206 4 0.357169 0.317687 0.573988
930 4 0.343163 0.331668 0.578383
954 4 0.420358 0.291743 0.575965
952 2 0.441246 0.278482 0.57957
1041 4 0.0712403 0.409923 0.584499
896 4 0.187126 0.35768 0.514762
897 4 0.188139 0.355589 0.564715
895 2 0.187633 0.356635 0.539739
1191 4 0.209392 0.356223 0.507426
1189 2 0.234144 0.359374 0.505815
928 2 0.326925 0.34838 0.569315
802 2 0.288246 0.36426 0.531777
804 4 0.309533 0.372306 0.542135
929 4 0.310687 0.365091 0.560247
803 4 0.266959 0.356213 0.521418
1190 4 0.258896 0.362526 0.504204
239 4 0.346529 0.382554 0.518809
1001 4 0.462447 0.392644 0.550087
926 4 0.471518 0.381288 0.537071
925 2 0.48802 0.367632 0.524172
1000 2 0.46574 0.398531 0.574164
1938 4 0.0445729 0.465444 0.575941
1936 2 0.0534235 0.475541 0.554848
1937 4 0.0622741 0.485637 0.533755
539 4 0.0490307 0.488442 0.520155
538 2 0.0420852 0.480873 0.497359
382 2 0.126567 0.497219 0.517819
383 4 0.122428 0.490873 0.541647
2244 4 0.138039 0.49645 0.553118
2242 2 0.1499 0.500494 0.574755
1171 2 0.243687 0.459718 0.575207
1173 4 0.218734 0.46124 0.575674
882 4 0.286353 0.466401 0.57429
880 2 0.292745 0.460909 0.550749
881 4 0.299138 0.455418 0.527208
1445 4 0.285141 0.462832 0.513985
1444 2 0.262307 0.469432 0.506226
1172 4 0.268639 0.458197 0.57474
1455 4 0.335956 0.488389 0.55029
1953 4 0.342361 0.497668 0.567022
1185 4 0.0234397 0.0439832 0.640618
1058 4 0.0765977 0.0110019 0.629034
945 4 0.0255434 0.0488366 0.66114
1057 2 0.0835289 0.0348092 0.625817
1155 4 0.0940925 0.0648984 0.603174
1059 4 0.09046 0.0586165 0.622599
1153 2 0.102761 0.0827884 0.588009
825 4 0.0925443 0.00225239 0.639798
1005 4 0.299325 0.0727708 0.60321
1003 2 0.303507 0.0827352 0.625758
2282 4 0.482273 0.0198327 0.606261
2281 2 0.462526 0.0107284 0.593919
43 3 0.477455 0.0395017 0.603225
41 1 0.481563 0.0622014 0.605725
44 3 0.461534 0.0739172 0.605782
45 3 0.494848 0.0696064 0.588774
42 3 0.492257 0.0656573 0.625796
1163 4 0.500076 0.0732084 0.642179
1082 4 0.0549661 0.135973 0.583126
1081 2 0.0360333 0.140421 0.598841
1083 4 0.0171006 0.144869 0.614555
1221 4 0.150783 0.0908905 0.655427
1219 2 0.161891 0.108257 0.641277
1220 4 0.172999 0.125623 0.627128
1212 4 0.187671 0.128653 0.642309
1210 2 0.21262 0.127992 0.64081
1211 4 0.23757 0.12733 0.639311
856 2 0.324209 0.147322 0.588499
1004 4 0.30769 0.0926995 0.648306
858 4 0.302186 0.158583 0.592151
888 4 0.252544 0.133161 0.650219
886 2 0.27296 0.122873 0.660343
830 4 0.31002 0.103192 0.665344
1143 4 0.364236 0.156611 0.653044
1025 4 0.372187 0.173123 0.647485
1141 2 0.358684 0.134431 0.663163
938 4 0.17291 0.173467 0.579923
1271 4 0.122766 0.21582 0.585928
909 4 0.141861 0.209973 0.586984
907 2 0.152455 0.221146 0.606684
908 4 0.163048 0.23232 0.626385
947 4 0.167999 0.228961 0.646065
946 2 0.17764 0.249682 0.656208
812 4 0.334585 0.233959 0.607741
798 4 0.319308 0.222492 0.612704
796 2 0.311383 0.199268 0.607908
797 4 0.303457 0.176044 0.603112
811 2 0.346913 0.237103 0.586216
1024 2 0.380851 0.18058 0.625247
1026 4 0.389515 0.188038 0.60301
905 4 0.470718 0.249908 0.59228
948 4 0.187281 0.270403 0.666351
1237 2 0.286628 0.277625 0.578769
792 4 0.312931 0.296853 0.607194
790 2 0.320966 0.31165 0.625678
1238 4 0.299623 0.28647 0.598213
791 4 0.329002 0.326447 0.644161
1064 4 0.254331 0.289173 0.667358
953 4 0.462134 0.26522 0.583174
904 2 0.493343 0.256465 0.583895
984 4 0.0113792 0.395742 0.588212
983 4 0.0612871 0.393197 0.590068
982 2 0.0363331 0.39447 0.58914
3263 4 0.00426208 0.395933 0.606649
893 4 0.130871 0.345704 0.664216
992 4 0.160461 0.411355 0.605207
1137 4 0.181756 0.361474 0.582195
1135 2 0.177335 0.379506 0.598942
1136 4 0.172913 0.397538 0.615689
1910 4 0.451902 0.402477 0.606499
1002 4 0.469032 0.404417 0.598241
934 2 0.00324624 0.477763 0.580462
936 4 0.0268511 0.474862 0.572743
1039 2 0.0893575 0.426968 0.587031
991 2 0.143835 0.427549 0.595906
993 4 0.127209 0.443743 0.586605
1040 4 0.107475 0.444013 0.589562
1160 4 0.222994 0.475337 0.589552
1159 2 0.201664 0.487206 0.594972
2172 4 0.18678 0.48626 0.670993
2243 4 0.161762 0.504538 0.596391
1269 4 0.402849 0.467335 0.674051
890 4 0.386229 0.479241 0.668926
1951 2 0.348586 0.501328 0.59096
889 2 0.371356 0.489728 0.65178
1267 2 0.415905 0.452731 0.658514
1911 4 0.447459 0.442936 0.635551
1909 2 0.44968 0.422706 0.621025
1268 4 0.428962 0.438126 0.642976
943 2 0.0401844 0.04615 0.68123
1076 4 0.049612 0.0268657 0.713012
944 4 0.0548254 0.0434634 0.70132
1075 2 0.0648986 0.0323321 0.732028
1283 4 0.152966 0.0746548 0.704207
1203 4 0.0984657 0.0364989 0.746653
1282 2 0.165105 0.0865292 0.72256
1113 4 0.476498 0.00472334 0.742428
1105 2 0.0479414 0.166483 0.745551
32 3 0.105416 0.142376 0.734881
1284 4 0.177244 0.0984036 0.740913
1227 4 0.191142 0.113494 0.738167
887 4 0.293377 0.112584 0.670467
829 2 0.31582 0.10356 0.689663
831 4 0.321621 0.103927 0.713981
1142 4 0.353132 0.11225 0.673281
851 4 0.0112072 0.182534 0.737498
1107 4 0.032619 0.18133 0.732514
1208 4 0.0817832 0.243709 0.704026
850 2 0.996984 0.202306 0.731846
822 4 0.138275 0.210398 0.709931
1278 4 0.144675 0.207673 0.728093
820 2 0.119715 0.227082 0.711451
821 4 0.101154 0.243767 0.712971
1276 2 0.160686 0.202814 0.746673
976 2 0.290473 0.207568 0.735747
977 4 0.301488 0.226238 0.723286
916 2 0.319645 0.24389 0.701245
918 4 0.317168 0.221218 0.711494
3122 4 0.481668 0.242166 0.683439
3121 2 0.4577 0.242023 0.69056
3123 4 0.433733 0.24188 0.697682
1145 4 0.456512 0.204886 0.739267
3357 4 0.500508 0.239887 0.672389
3188 4 0.0184849 0.260296 0.737049
1207 2 0.0625137 0.259641 0.70381
1209 4 0.0432443 0.275573 0.703594
1244 4 0.0374802 0.29458 0.702346
1243 2 0.0131563 0.290706 0.706649
1063 2 0.230938 0.280363 0.667928
1065 4 0.207545 0.271552 0.668497
1240 2 0.233913 0.299423 0.737794
1241 4 0.237329 0.301344 0.7131
917 4 0.322122 0.266562 0.690996
1097 4 0.30592 0.27707 0.697835
1096 2 0.285352 0.288364 0.689198
1098 4 0.264784 0.299658 0.680562
1008 4 0.342888 0.253966 0.719992
1006 2 0.365248 0.257019 0.730758
1007 4 0.387607 0.260072 0.741524
1194 4 0.450154 0.275653 0.74965
1192 2 0.43831 0.297217 0.754107
894 4 0.0874943 0.346197 0.689094
1279 2 0.0550449 0.364483 0.708542
3275 4 0.0371825 0.38466 0.734076
1280 4 0.0354953 0.369052 0.723446
1281 4 0.0745945 0.359914 0.693638
3274 2 0.0500863 0.395949 0.752276
892 2 0.109183 0.34595 0.676655
1028 4 0.238834 0.367801 0.687508
1068 4 0.222285 0.358583 0.693187
1067 4 0.192212 0.367486 0.732136
1066 2 0.207248 0.363034 0.712662
1029 4 0.27452 0.398248 0.670181
1139 4 0.293101 0.400948 0.675619
1027 2 0.256677 0.383024 0.678844
1138 2 0.303093 0.423266 0.680839
1229 4 0.358622 0.390539 0.711066
1228 2 0.366321 0.413488 0.704804
2020 2 0.0352039 0.498441 0.696468
2022 4 0.0212583 0.487533 0.678812
1140 4 0.313086 0.445584 0.686059
1989 4 0.302852 0.458272 0.698989
1987 2 0.295717 0.463777 0.722312
1988 4 0.288582 0.469282 0.745635
1230 4 0.374021 0.436438 0.698542
1100 4 0.457874 0.488812 0.730401
862 2 0.0491819 0.0807033 0.813433
864 4 0.061318 0.0694731 0.832189
1077 4 0.0801851 0.0377986 0.751044
1202 4 0.123972 0.0197924 0.78629
1201 2 0.111219 0.0281456 0.766472
2049 4 0.142293 0.0145402 0.785254
1147 2 0.216786 0.0610826 0.811036
1149 4 0.241715 0.0616549 0.812873
1148 4 0.191856 0.0605104 0.809199
1049 4 0.258679 0.050922 0.807618
1048 2 0.275554 0.0358472 0.818256
1050 4 0.292428 0.0207723 0.828895
818 4 0.369048 0.0698595 0.805819
965 4 0.374712 0.0634221 0.824076
846 4 0.486071 0.0190432 0.750833
844 2 0.498927 0.032681 0.767384
35 3 0.0821025 0.159667 0.758342
3387 4 0.0144588 0.104731 0.7565
1106 4 0.0632638 0.151636 0.758588
832 2 0.0510206 0.122395 0.778573
863 4 0.0370459 0.0919336 0.794678
833 4 0.0323799 0.110703 0.790447
33 3 0.0830562 0.122044 0.757227
834 4 0.0696613 0.134087 0.766699
31 1 0.095586 0.141511 0.755661
34 3 0.112222 0.141546 0.771836
1073 4 0.126308 0.151513 0.781145
1225 2 0.194753 0.124318 0.760415
1226 4 0.198364 0.135142 0.782663
840 4 0.208738 0.125505 0.797455
838 2 0.228516 0.129936 0.812096
839 4 0.248294 0.134367 0.826738
959 4 0.252549 0.152405 0.819042
819 4 0.332447 0.103314 0.799347
817 2 0.350747 0.0865867 0.802583
1084 2 0.345805 0.138242 0.818905
1085 4 0.345423 0.115105 0.809433
1086 4 0.346187 0.161379 0.828377
1146 4 0.480684 0.167327 0.761757