ITEM: TIMESTEP
2780000
ITEM: NUMBER OF ATOMS
4590
ITEM: BOX BOUNDS pp pp pp
-9.9985700000000008e+00 9.9985700000000008e+00
-9.9985700000000008e+00 9.9985700000000008e+00
-9.9985700000000008e+00 9.9985700000000008e+00
ITEM: ATOMS id type xs ys zs
463 2 0.0259655 0.0354814 0.0120261
464 4 0.0271679 0.012464 0.021718
1668 4 0.0569098 0.0271477 0.0497157
1666 2 0.0437263 0.0249831 0.0708507
3290 4 0.0781269 0.0267957 0.0519519
465 4 0.0247631 0.0584987 0.00233419
3289 2 0.0948148 0.0211927 0.0341953
565 2 0.161108 0.0342404 0.0220788
567 4 0.17162 0.0469283 0.0408856
566 4 0.150596 0.0215525 0.00327204
3291 4 0.111503 0.0155896 0.0164386
490 2 0.30649 0.00613474 0.0583411
491 4 0.3135 0.00757969 0.0343839
492 4 0.29948 0.00468979 0.0822984
985 2 0.298031 0.0294121 0.00721239
987 4 0.316296 0.012671 0.00384754
2144 4 0.329343 0.00481246 0.991196
745 2 0.463693 0.0485518 0.06201
746 4 0.450254 0.06956 0.0602144
747 4 0.477132 0.0275436 0.0638056
1826 4 0.486834 0.0252402 0.0815622
2724 4 0.48888 0.0926726 0.0664483
460 2 0.316349 0.136297 0.0617178
461 4 0.293824 0.145754 0.0563904
353 4 0.28483 0.165855 0.0569151
462 4 0.338874 0.126841 0.0670451
422 4 0.0724431 0.189648 0.0391607
421 2 0.0883302 0.183657 0.0208061
505 2 0.150491 0.246771 0.0574793
506 4 0.171659 0.235844 0.0650731
737 4 0.181961 0.219417 0.0615414
736 2 0.202675 0.207582 0.054058
738 4 0.22339 0.195746 0.0465746
354 4 0.237416 0.180882 0.0517359
352 2 0.261123 0.173369 0.0543255
665 4 0.354007 0.189596 0.027683
664 2 0.348502 0.186305 0.00351592
630 4 0.411042 0.251997 0.0849082
1069 2 0.395831 0.24076 0.996644
323 4 0.486141 0.236939 0.0773205
828 4 0.489908 0.238356 0.0181352
322 2 0.470562 0.24622 0.0601063
2807 4 0.0152819 0.258576 0.0260907
292 2 0.104718 0.282983 0.063657
456 4 0.102642 0.321487 0.0713425
293 4 0.110449 0.263469 0.0491126
507 4 0.129322 0.257698 0.0498855
294 4 0.0989868 0.302497 0.0782013
741 4 0.324429 0.345569 0.00659716
612 4 0.275841 0.297232 0.0480894
610 2 0.273602 0.278461 0.0644549
609 4 0.263564 0.310621 0.0576707
611 4 0.271362 0.259691 0.0808204
482 4 0.288509 0.3009 0.00961362
1071 4 0.380066 0.252946 0.0117491
573 4 0.372636 0.270644 0.0176969
571 2 0.354108 0.284451 0.0081448
572 4 0.33558 0.298258 0.998593
324 4 0.454983 0.255501 0.042892
2841 4 0.500068 0.268989 0.0617362
454 2 0.109275 0.343504 0.0811621
1288 2 0.196852 0.414181 0.00954868
1289 4 0.195233 0.392918 0.0226032
739 2 0.331979 0.345689 0.0304333
250 2 0.28763 0.390501 0.0589
251 4 0.299622 0.406054 0.0434254
252 4 0.275638 0.374947 0.0743746
607 2 0.264254 0.334747 0.0641975
608 4 0.264944 0.358874 0.0707242
740 4 0.339529 0.345809 0.0542695
524 4 0.311281 0.421757 0.0394095
386 4 0.35197 0.353538 0.0664319
226 2 0.391694 0.39118 0.0286345
228 4 0.378817 0.405424 0.0446489
227 4 0.404572 0.376936 0.0126201
1305 4 0.407689 0.357712 0.00679336
523 2 0.335387 0.415371 0.0412239
281 4 0.430324 0.350429 0.0552992
280 2 0.455088 0.348377 0.0580767
282 4 0.479852 0.346325 0.0608542
671 4 0.411859 0.352818 0.0637896
1047 4 0.492678 0.337638 0.0483515
1045 2 0.496953 0.336148 0.0237612
552 4 0.0270372 0.468856 0.0617777
314 4 0.0238845 0.450725 0.0697147
550 2 0.0152757 0.476135 0.0409485
551 4 0.00351423 0.483415 0.0201193
1224 4 0.137242 0.453365 0.987662
243 4 0.237112 0.462894 0.0548022
1440 4 0.234435 0.463314 0.0741271
241 2 0.218051 0.472527 0.0418002
242 4 0.198989 0.482159 0.0287982
1787 4 0.182008 0.488566 0.0367325
271 2 0.278543 0.491828 0.0658759
272 4 0.282085 0.46926 0.0760396
525 4 0.359493 0.408984 0.0430384
1583 4 0.463199 0.455404 0.0555123
1582 2 0.458338 0.470945 0.0744871
1584 4 0.453476 0.486485 0.093462
1667 4 0.0305427 0.0228185 0.0919857
16 1 0.0327972 0.0400569 0.122833
2480 4 0.0206921 0.0620422 0.158654
18 3 0.0439608 0.0574192 0.112234
19 3 0.0188044 0.0485172 0.139296
2479 2 0.0118763 0.0853304 0.156391
17 3 0.0200713 0.0288241 0.107308
20 3 0.0478229 0.0256432 0.132059
1422 4 0.0115905 0.0428886 0.160594
450 4 0.103092 0.0886315 0.106689
652 2 0.245172 0.0426071 0.161249
689 4 0.190523 0.0367484 0.172402
1475 4 0.294178 0.0196424 0.0941427
654 4 0.248384 0.0315245 0.139067
1476 4 0.261806 0.039306 0.126794
1474 2 0.277992 0.0294742 0.110468
297 4 0.359264 0.0428276 0.116022
295 2 0.382248 0.0493097 0.108613
296 4 0.405232 0.0557917 0.101205
484 2 0.345402 0.00398744 0.115155
485 4 0.351412 0.0263606 0.105747
557 4 0.418602 0.0693538 0.108884
556 2 0.436277 0.0808659 0.122309
236 4 0.144222 0.140996 0.129345
449 4 0.130369 0.126159 0.125354
448 2 0.116731 0.107395 0.116021
235 2 0.152285 0.155366 0.110538
29 3 0.242606 0.159423 0.180387
580 2 0.307853 0.115878 0.156318
582 4 0.325666 0.100839 0.147279
581 4 0.29004 0.130917 0.165357
758 4 0.339975 0.0860843 0.149698
558 4 0.453952 0.092378 0.135735
771 4 0.474041 0.0950368 0.136346
769 2 0.474783 0.11064 0.15587
237 4 0.160348 0.169735 0.0917316
372 4 0.142053 0.234326 0.155151
370 2 0.166588 0.230997 0.158628
371 4 0.191124 0.227667 0.162106
279 4 0.267983 0.246138 0.147375
337 2 0.0653482 0.300119 0.159403
338 4 0.0900334 0.299519 0.163334
277 2 0.266552 0.249017 0.122579
278 4 0.265122 0.251897 0.0977828
285 4 0.283727 0.255374 0.155355
254 4 0.391539 0.25327 0.0877187
754 2 0.349865 0.256575 0.156899
756 4 0.3569 0.269409 0.136627
253 2 0.373018 0.25523 0.104401
255 4 0.354497 0.25719 0.121084
624 4 0.443353 0.252406 0.134822
629 4 0.450065 0.258906 0.115408
628 2 0.430554 0.255451 0.100158
622 2 0.43574 0.259036 0.157697
619 2 0.0304965 0.394557 0.127067
620 4 0.0426445 0.385288 0.146858
455 4 0.115908 0.365521 0.0909817
647 4 0.115265 0.397013 0.157771
537 4 0.135858 0.391656 0.155469
535 2 0.153942 0.384436 0.139784
536 4 0.172026 0.377216 0.124099
385 2 0.351892 0.369854 0.0853778
387 4 0.351813 0.38617 0.104324
12 3 0.399313 0.393453 0.119347
11 1 0.382069 0.403952 0.130372
15 3 0.362525 0.399738 0.119467
672 4 0.406106 0.380056 0.105331
302 4 0.340154 0.401628 0.111708
13 3 0.380954 0.39578 0.152061
670 2 0.408982 0.366437 0.0845603
301 2 0.32975 0.420144 0.124903
596 4 0.332657 0.361782 0.174336
104 3 0.481859 0.341344 0.0803037
313 2 0.0220865 0.437279 0.0907187
621 4 0.0183485 0.403826 0.107275
315 4 0.0202885 0.423834 0.111723
1430 4 0.161647 0.451045 0.182789
1438 2 0.227584 0.444337 0.0888953
1431 4 0.171495 0.488773 0.151478
625 2 0.221033 0.425282 0.145398
1439 4 0.220732 0.42536 0.103664
627 4 0.224837 0.433834 0.122213
1429 2 0.166571 0.469909 0.167134
626 4 0.217229 0.416731 0.168584
639 4 0.269162 0.488726 0.120045
638 4 0.274044 0.458916 0.159898
637 2 0.271603 0.473821 0.139971
303 4 0.319346 0.438659 0.138098
659 4 0.331194 0.436425 0.153687
1559 4 0.352787 0.499355 0.111389
14 3 0.386181 0.426785 0.130712
494 4 0.391393 0.477398 0.0863371
495 4 0.395503 0.436723 0.115136
493 2 0.393448 0.45706 0.100736
658 2 0.339003 0.454257 0.169378
1674 4 0.453979 0.503913 0.082943
1420 2 0.000573348 0.0381583 0.182536
674 4 0.152101 0.0730851 0.21149
690 4 0.172191 0.0652504 0.209175
673 2 0.158773 0.0812597 0.234157
1505 4 0.199474 0.0195145 0.178236
653 4 0.241959 0.0536898 0.183431
688 2 0.181357 0.0509994 0.190789
693 4 0.254571 0.0594929 0.195895
691 2 0.271566 0.05536 0.213763
1699 2 0.32311 0.0706094 0.218252
692 4 0.288561 0.0512271 0.231631
1701 4 0.299234 0.0670118 0.224749
1700 4 0.346985 0.074207 0.211756
22 3 0.388345 0.0510006 0.224026
698 4 0.40499 0.0588035 0.229904
21 1 0.379018 0.0715753 0.219687
333 4 0.407397 0.0782931 0.222546
23 3 0.35789 0.0723989 0.229244
25 3 0.377474 0.0745104 0.197156
349 2 0.47372 0.0672303 0.245344
742 2 0.502507 0.0149692 0.252887
351 4 0.483903 0.0454656 0.252256
513 4 0.0192509 0.16322 0.223775
578 4 0.0258806 0.162216 0.242988
28 3 0.251813 0.124988 0.193572
30 3 0.273289 0.141752 0.167584
27 3 0.272677 0.154952 0.202487
26 1 0.260128 0.145224 0.185843
759 4 0.358694 0.078073 0.195372
24 3 0.39253 0.0880319 0.228907
757 2 0.349334 0.0820787 0.172535
770 4 0.475525 0.126243 0.175394
312 4 0.46506 0.125794 0.192466
310 2 0.480507 0.127071 0.212087
350 4 0.463537 0.088995 0.238431
331 2 0.428994 0.0900381 0.227109
332 4 0.45059 0.101783 0.231673
577 2 0.0388067 0.183469 0.24045
529 2 0.0308529 0.235197 0.220507
530 4 0.0424436 0.223125 0.239084
579 4 0.0517327 0.204721 0.237911
531 4 0.0192621 0.247269 0.20193
362 4 0.136426 0.238537 0.17513
476 4 0.20063 0.212905 0.171265
475 2 0.214186 0.191916 0.172192
477 4 0.227743 0.170927 0.17312
755 4 0.342829 0.243741 0.177172
704 4 0.0227102 0.299561 0.164412
339 4 0.040663 0.300719 0.155471
703 2 0.0188988 0.311948 0.185794
705 4 0.0150874 0.324335 0.207177
443 4 0.089863 0.287481 0.24983
395 4 0.0944721 0.301608 0.183113
396 4 0.0958534 0.297106 0.232898
394 2 0.0951627 0.299357 0.208005
361 2 0.126568 0.259542 0.184447
363 4 0.11671 0.280546 0.193765
283 2 0.285957 0.274031 0.171852
284 4 0.288187 0.292688 0.188348
528 4 0.413495 0.321604 0.213193
542 4 0.409897 0.320749 0.232836
623 4 0.428126 0.265666 0.180571
527 4 0.432643 0.281231 0.190743
526 2 0.423069 0.301418 0.201968
263 4 0.0635754 0.392927 0.235676
2615 4 0.00537492 0.340758 0.210229
300 4 0.0869017 0.37052 0.215515
646 2 0.106774 0.388586 0.179727
648 4 0.0982825 0.380159 0.201683
298 2 0.0938232 0.355206 0.234029
299 4 0.100745 0.339892 0.252542
290 4 0.210646 0.427285 0.226951
289 2 0.217682 0.411723 0.245213
345 4 0.329708 0.359129 0.220344
597 4 0.369316 0.395646 0.171166
595 2 0.350986 0.378714 0.172751
645 4 0.379791 0.416386 0.164965
643 2 0.389897 0.430391 0.183046
343 2 0.337868 0.357344 0.243911
417 4 0.162289 0.432407 0.191971
416 4 0.200348 0.411496 0.216768
415 2 0.181319 0.421952 0.204369
1640 4 0.226668 0.501143 0.251052
438 4 0.277759 0.456248 0.22749
229 2 0.377105 0.489958 0.210796
644 4 0.400003 0.444395 0.201127
660 4 0.346813 0.472089 0.18507
231 4 0.364454 0.473156 0.197274
447 4 0.407921 0.452768 0.216994
445 2 0.413663 0.44421 0.239775
1403 4 0.0120809 0.0161022 0.253547
233 4 0.00025663 0.0285266 0.26616
232 2 0.00803491 0.0494015 0.277514
234 4 0.0158132 0.0702763 0.288868
317 4 0.0336661 0.0653109 0.281538
316 2 0.0572538 0.0692672 0.288828
1407 4 0.236617 0.00645799 0.279833
675 4 0.165446 0.0894344 0.256825
722 4 0.175193 0.0798964 0.272207
1405 2 0.217417 0.0197322 0.288797
1406 4 0.198217 0.0330065 0.297761
697 2 0.412078 0.0410822 0.246056
1516 2 0.427358 0.00426551 0.288292
1518 4 0.409507 0.019053 0.278921
699 4 0.419166 0.0233609 0.262209
425 4 0.485597 0.0244673 0.277891
424 2 0.472007 0.0385479 0.293455
258 4 0.469225 0.0694212 0.309489
426 4 0.458416 0.0526284 0.309018
1749 4 0.496649 0.00552778 0.33845
743 4 0.49676 0.0356202 0.265759
318 4 0.0808415 0.0732235 0.296118
393 4 0.08317 0.147188 0.311645
391 2 0.0882228 0.14395 0.287372
392 4 0.0932756 0.140713 0.2631
544 2 0.135316 0.133449 0.259645
545 4 0.110392 0.133046 0.261596
546 4 0.16024 0.133852 0.257694
399 4 0.102489 0.148674 0.31543
397 2 0.115829 0.161767 0.332037
721 2 0.193899 0.090766 0.284742
723 4 0.212604 0.101636 0.297278
599 4 0.227103 0.0927594 0.308934
404 4 0.221665 0.124982 0.256012
403 2 0.218358 0.144963 0.270675
598 2 0.221524 0.098331 0.332662
405 4 0.215051 0.164944 0.285338
256 2 0.482202 0.0851807 0.323926
257 4 0.495178 0.10094 0.338363
402 4 0.243587 0.212128 0.255722
401 4 0.225828 0.180207 0.289875
400 2 0.234707 0.196168 0.272799
765 4 0.411486 0.182605 0.308091
763 2 0.430045 0.199352 0.308637
764 4 0.448604 0.216099 0.309182
442 2 0.0779589 0.271304 0.264721
444 4 0.0660548 0.255126 0.279613
750 4 0.103296 0.338756 0.271949
496 2 0.341217 0.275785 0.317909
497 4 0.346475 0.289704 0.297814
541 2 0.416127 0.323524 0.256892
543 4 0.422357 0.326299 0.280947
615 4 0.426286 0.319252 0.299241
366 4 0.0420665 0.330708 0.295113
749 4 0.0622315 0.331178 0.299463
262 2 0.0515377 0.403017 0.25513
365 4 0.0131721 0.367435 0.277312
364 2 0.0276193 0.349071 0.286212
748 2 0.0827636 0.334967 0.285706
602 4 0.0890281 0.38608 0.304762
2493 4 0.0101026 0.375366 0.295122
601 2 0.0830134 0.377899 0.327611
777 4 0.0953717 0.405861 0.306754
735 4 0.157988 0.389221 0.28652
677 4 0.158417 0.408314 0.292304
733 2 0.151113 0.366149 0.27977
734 4 0.144237 0.343076 0.27302
291 4 0.224718 0.39616 0.263474
414 4 0.230251 0.412681 0.273486
412 2 0.248535 0.410291 0.290373
413 4 0.266819 0.407901 0.30726
309 4 0.349566 0.346649 0.286187
344 4 0.346028 0.355559 0.267478
307 2 0.355456 0.366369 0.300386
729 4 0.353176 0.381439 0.332382
308 4 0.361345 0.386088 0.314586
613 2 0.420659 0.32383 0.323169
2924 4 0.48911 0.36952 0.311334
2923 2 0.467683 0.359804 0.319799
2925 4 0.446255 0.350089 0.328264
713 4 0.463477 0.410553 0.296822
120 3 0.483933 0.416755 0.302517
2862 4 0.481012 0.409641 0.282222
2860 2 0.490437 0.395744 0.263696
264 4 0.0394999 0.413106 0.274585
1757 4 0.0993137 0.455994 0.263947
776 4 0.106177 0.446735 0.280047
775 2 0.100774 0.426298 0.2934
1756 2 0.0994304 0.480528 0.268768
767 4 0.224291 0.483322 0.25879
676 2 0.173108 0.424459 0.28011
678 4 0.187798 0.440605 0.267916
768 4 0.189571 0.455514 0.281635
766 2 0.206931 0.469418 0.270213
504 4 0.214728 0.428924 0.324467
1545 4 0.234943 0.499713 0.333735
1436 4 0.251341 0.48849 0.335505
437 4 0.264431 0.452753 0.275562
436 2 0.271095 0.4545 0.251526
1437 4 0.263054 0.463434 0.293843
5 3 0.272836 0.413664 0.325675
1435 2 0.257197 0.475962 0.314674
433 2 0.329177 0.459903 0.322799
434 4 0.325187 0.437705 0.333593
435 4 0.333168 0.482101 0.312005
2 3 0.307765 0.422356 0.33554
446 4 0.419406 0.435652 0.262556
712 2 0.441131 0.41739 0.287928
714 4 0.418786 0.424228 0.279035
368 4 0.0789548 0.0476599 0.421606
730 2 0.108548 0.0616561 0.394637
604 2 0.158968 0.0662768 0.365315
605 4 0.150154 0.0779668 0.385584
731 4 0.0875266 0.0515444 0.403639
606 4 0.167783 0.0545868 0.345047
249 4 0.313315 0.059214 0.344577
684 4 0.300443 0.0662576 0.330378
682 2 0.283719 0.0758586 0.346294
247 2 0.336456 0.0648758 0.352168
248 4 0.359597 0.0705375 0.359758
633 4 0.376718 0.0696625 0.369771
2757 4 0.00311898 0.0840558 0.411038
732 4 0.129569 0.0717678 0.385635
600 4 0.215945 0.103903 0.35639
685 2 0.203619 0.132462 0.374494
687 4 0.198013 0.112444 0.360599
686 4 0.209225 0.152479 0.388388
319 2 0.256976 0.0862143 0.402178
321 4 0.256201 0.0909156 0.377632
683 4 0.266996 0.0854595 0.36221
631 2 0.382247 0.0813292 0.391184
419 4 0.383723 0.149676 0.391047
632 4 0.387775 0.0929959 0.412596
418 2 0.367072 0.144851 0.409065
420 4 0.350421 0.140026 0.427083
760 2 0.500455 0.13272 0.353877
762 4 0.499969 0.146339 0.37484
618 4 0.00481464 0.254641 0.404982
390 4 0.0849768 0.227295 0.408256
398 4 0.12917 0.174861 0.348643
388 2 0.0984928 0.239489 0.391116
274 2 0.155449 0.253767 0.369058
473 4 0.213007 0.202298 0.363934
474 4 0.17506 0.232526 0.35181
472 2 0.194033 0.217412 0.357872
708 4 0.229456 0.192354 0.368517
651 4 0.243246 0.244471 0.402158
275 4 0.179127 0.248701 0.36282
706 2 0.248948 0.18177 0.356975
707 4 0.26844 0.171186 0.345433
716 4 0.376249 0.165109 0.381032
377 4 0.375155 0.216372 0.358006
717 4 0.388072 0.203548 0.35131
715 2 0.382161 0.184328 0.366171
376 2 0.35778 0.234322 0.356959
378 4 0.340406 0.252272 0.355912
2456 4 0.388412 0.24077 0.419013
268 2 0.485566 0.25512 0.352698
270 4 0.480543 0.265726 0.374776
269 4 0.490588 0.244514 0.330619
695 4 0.0868677 0.277329 0.417439
276 4 0.131772 0.258832 0.375296
389 4 0.112009 0.251683 0.373975
1258 2 0.151029 0.31178 0.39283
1260 4 0.139843 0.301465 0.41267
489 4 0.26033 0.252428 0.411405
487 2 0.256698 0.271213 0.395308
508 2 0.234927 0.325934 0.362361
1259 4 0.162216 0.322094 0.372989
509 4 0.239597 0.305659 0.376228
488 4 0.253066 0.289998 0.379212
498 4 0.335959 0.261865 0.338003
266 4 0.359211 0.310951 0.388299
585 4 0.369416 0.293304 0.389369
583 2 0.370425 0.270738 0.400091
584 4 0.371433 0.248172 0.410812
265 2 0.342687 0.323013 0.373923
306 4 0.486188 0.2562 0.390916
304 2 0.479527 0.263855 0.413769
547 2 0.0870325 0.40396 0.378495
549 4 0.0800917 0.386112 0.362418
603 4 0.0769988 0.369719 0.35046
548 4 0.0939733 0.421807 0.394572
510 4 0.230258 0.346209 0.348493
375 4 0.219194 0.402042 0.374337
374 4 0.240864 0.361539 0.354573
373 2 0.230029 0.381791 0.364455
3 3 0.286239 0.402389 0.359005
267 4 0.326163 0.335074 0.359547
727 2 0.340526 0.401712 0.339743
614 4 0.415031 0.328407 0.347097
561 4 0.485098 0.403538 0.419794
753 4 0.497719 0.415793 0.356265
752 4 0.480472 0.413153 0.403129
751 2 0.489095 0.414473 0.379697
119 3 0.493774 0.410471 0.338313
407 4 0.0833679 0.439017 0.385909
680 4 0.045058 0.485566 0.405068
406 2 0.0646514 0.452305 0.395824
408 4 0.045935 0.465593 0.405739
569 4 0.0951182 0.409628 0.412678
635 4 0.16093 0.478983 0.402765
634 2 0.17959 0.468952 0.389484
636 4 0.19825 0.458922 0.376203
502 2 0.201547 0.441594 0.341523
503 4 0.188366 0.454263 0.358579
1 1 0.286272 0.419344 0.343164
668 4 0.290926 0.452302 0.361453
4 3 0.278865 0.439141 0.352735
667 2 0.293236 0.474997 0.371689
728 4 0.327877 0.421985 0.347103
1401 4 0.329789 0.484311 0.396367
592 2 0.490089 0.494655 0.340652
593 4 0.487511 0.470385 0.346085
718 2 0.0283704 0.0744583 0.474166
719 4 0.0466658 0.0825901 0.459188
369 4 0.0611256 0.0676866 0.463817
720 4 0.010075 0.0663266 0.489144
367 2 0.0700402 0.0576733 0.442711
2756 4 0.997991 0.0350539 0.419596
1376 4 0.982847 0.0272965 0.409524
2755 2 0.000554965 0.0595549 0.415317
341 4 0.174669 0.0707625 0.477536
441 4 0.21032 0.994991 0.454423
2430 4 0.181732 0.0558077 0.466362
2428 2 0.192349 0.0343358 0.459191
2429 4 0.202966 0.0128639 0.45202
725 4 0.247968 0.0894547 0.44171
320 4 0.25775 0.0815131 0.426723
2878 2 0.4635 0.018788 0.425145
2880 4 0.476524 0.0389134 0.418037
642 4 0.486606 0.0411369 0.434135
640 2 0.494575 0.0624251 0.444551
410 4 0.224682 0.143666 0.398554
409 2 0.234295 0.16481 0.407811
340 2 0.175007 0.0948425 0.470812
1152 4 0.189667 0.129054 0.474163
342 4 0.175346 0.118923 0.464088
1150 2 0.197537 0.144078 0.492535
724 2 0.265685 0.0970944 0.457613
432 4 0.296966 0.118086 0.479834
726 4 0.283403 0.104734 0.473516
467 4 0.360962 0.109092 0.471499
466 2 0.373251 0.0998311 0.451792
468 4 0.385541 0.0905698 0.432085
574 2 0.397735 0.147571 0.466725
576 4 0.390179 0.137576 0.488362
575 4 0.405292 0.157567 0.445088
516 4 0.422609 0.163065 0.434038
514 2 0.447576 0.162386 0.43519
515 4 0.472544 0.161708 0.436343
260 4 0.0730649 0.173505 0.464544
259 2 0.0675091 0.180208 0.487983
470 4 0.0734607 0.224006 0.422009
469 2 0.0684607 0.205977 0.438596
471 4 0.0634607 0.187948 0.455183
649 2 0.239834 0.223479 0.415305
650 4 0.236422 0.202486 0.428451
411 4 0.243908 0.185954 0.417069
2455 2 0.390302 0.22274 0.436233
2457 4 0.392192 0.20471 0.453453
616 2 0.0179977 0.269686 0.419983
617 4 0.0311807 0.284731 0.434984
694 2 0.108132 0.289265 0.422963
696 4 0.129397 0.301202 0.428487
1010 4 0.51251 0.310444 0.473469
1009 2 0.501741 0.292421 0.45989
1011 4 0.490973 0.274398 0.446311
305 4 0.472867 0.271509 0.436621
326 4 0.0736628 0.375948 0.453865
325 2 0.0977602 0.371096 0.458444
10 3 0.170465 0.363628 0.492502
7 3 0.143542 0.368759 0.46717
327 4 0.121857 0.366245 0.463022
6 1 0.149098 0.370869 0.489392
711 4 0.15089 0.413187 0.492097
1190 4 0.248231 0.354147 0.495111
335 4 0.343349 0.400843 0.445454
238 2 0.362339 0.369785 0.447703
240 4 0.358827 0.393434 0.45502
239 4 0.365851 0.346135 0.440385
559 2 0.493522 0.388842 0.438185
2508 4 0.48885 0.369489 0.471501
560 4 0.501946 0.374146 0.456577
540 4 0.0511254 0.486659 0.467542
538 2 0.058542 0.494158 0.490212
1382 4 0.0441119 0.480593 0.450252
1381 2 0.0221158 0.471565 0.457988
384 4 0.136573 0.488294 0.49519
774 4 0.118664 0.471789 0.443896
709 2 0.145918 0.427698 0.472351
772 2 0.124417 0.487112 0.462797
570 4 0.128315 0.430024 0.444026
710 4 0.140947 0.442209 0.452605
568 2 0.111717 0.419826 0.428352
1394 4 0.233452 0.489297 0.472078
1446 4 0.239997 0.503968 0.485301
336 4 0.334021 0.43363 0.408866
1399 2 0.331344 0.49029 0.420596
334 2 0.338685 0.417236 0.42716
1400 4 0.332899 0.496268 0.444824
1127 4 0.0113017 0.0503207 0.502065
949 2 0.206213 0.0748955 0.54985
950 4 0.229923 0.0673397 0.547414
1182 4 0.245479 0.0561182 0.555456
961 2 0.321688 0.00766127 0.560467
1180 2 0.268663 0.0470863 0.557929
963 4 0.304778 0.0250749 0.554467
1181 4 0.291847 0.0380544 0.560402
431 4 0.31015 0.0939003 0.52157
843 4 0.323583 0.0849596 0.532229
1217 4 0.390946 0.0920871 0.530393
841 2 0.348337 0.0869807 0.535113
1216 2 0.403783 0.0716384 0.523895
2283 4 0.449352 0.00599135 0.576921
1218 4 0.416621 0.0511897 0.517397
4467 4 0.435996 0.993511 0.569323
1035 4 0.061059 0.149499 0.567145
1033 2 0.0651039 0.162077 0.545917
937 2 0.171878 0.159884 0.537792
938 4 0.152235 0.16678 0.551641
1030 2 0.155906 0.0845715 0.580966
939 4 0.191521 0.152988 0.523944
1031 4 0.167031 0.0720195 0.562422
951 4 0.182503 0.0824513 0.552286
1151 4 0.205407 0.159101 0.510907
857 4 0.309724 0.129927 0.572943
858 4 0.27214 0.161208 0.583414
856 2 0.290932 0.145567 0.578179
430 2 0.303558 0.105993 0.500702
899 4 0.322763 0.130619 0.556908
842 4 0.373092 0.0890018 0.537998
898 2 0.343852 0.143652 0.56016
900 4 0.364941 0.156684 0.563412
872 4 0.372844 0.173459 0.568491
261 4 0.0619533 0.18691 0.511422
1034 4 0.0691488 0.174656 0.52469
879 4 0.0966768 0.242931 0.556516
811 2 0.326507 0.229991 0.567132
812 4 0.303603 0.238117 0.57301
796 2 0.280333 0.203586 0.586308
798 4 0.290363 0.226265 0.58311
797 4 0.270304 0.180906 0.589506
813 4 0.349411 0.221865 0.561255
873 4 0.368631 0.222041 0.557412
871 2 0.370738 0.19775 0.562951
877 2 0.096391 0.246984 0.531845
1272 4 0.102617 0.246564 0.576162
878 4 0.0961053 0.251037 0.507173
1191 4 0.206399 0.34151 0.519424
1189 2 0.227315 0.347829 0.507268
1239 4 0.259799 0.290948 0.576201
1205 4 0.40389 0.312648 0.563962
1204 2 0.379374 0.314305 0.568589
954 4 0.40317 0.293063 0.568075
905 4 0.448299 0.247317 0.593288
952 2 0.418019 0.274382 0.575537
953 4 0.432868 0.2557 0.582999
982 2 0.0235904 0.382345 0.578505
984 4 0.000415721 0.380264 0.569351
9 3 0.134471 0.358036 0.502032
1135 2 0.165328 0.3822 0.582853
1137 4 0.164461 0.361925 0.568247
8 3 0.147339 0.393191 0.495477
896 4 0.189555 0.331029 0.518598
897 4 0.175061 0.343613 0.564774
895 2 0.182308 0.337321 0.541686
802 2 0.280256 0.358065 0.516745
804 4 0.294006 0.354141 0.537257
929 4 0.313901 0.351086 0.541813
928 2 0.333489 0.342902 0.555023
803 4 0.266506 0.36199 0.496234
1206 4 0.354858 0.315962 0.573215
930 4 0.353077 0.334718 0.568233
1001 4 0.46228 0.374584 0.563089
926 4 0.475988 0.374912 0.548499
925 2 0.489958 0.366299 0.529635
1000 2 0.463114 0.394335 0.578399
934 2 0.0139786 0.489375 0.573382
1161 4 0.172208 0.49042 0.586022
882 4 0.279944 0.478635 0.568666
880 2 0.269635 0.495949 0.553863
1172 4 0.263152 0.47031 0.574992
825 4 0.082626 0.0153445 0.639478
1058 4 0.101003 0.0228036 0.632339
1155 4 0.0815831 0.079518 0.598776
1057 2 0.0918878 0.0416812 0.618711
1059 4 0.0827726 0.0605589 0.605083
1925 4 0.402215 0.0097584 0.661013
2282 4 0.467633 0.034036 0.61407
2281 2 0.458493 0.0200137 0.595495
43 3 0.46637 0.0518882 0.620045
41 1 0.481107 0.0649181 0.632352
44 3 0.469514 0.0768772 0.648507
45 3 0.492203 0.0792393 0.618552
1082 4 0.0649856 0.151988 0.587147
1081 2 0.0417315 0.153531 0.596205
1083 4 0.0184774 0.155075 0.605262
1032 4 0.144781 0.0971234 0.599509
1153 2 0.103314 0.0918808 0.599099
1154 4 0.125045 0.104244 0.599422
1221 4 0.158749 0.0904454 0.614714
1219 2 0.174777 0.101291 0.630546
1220 4 0.190804 0.112136 0.646379
1005 4 0.276306 0.089851 0.616765
1004 4 0.302726 0.107665 0.655305
1003 2 0.289516 0.098758 0.636035
887 4 0.290558 0.120674 0.665224
1143 4 0.365936 0.152001 0.64327
1270 2 0.116317 0.231485 0.590658
1271 4 0.130017 0.216406 0.605153
909 4 0.150299 0.213931 0.604809
907 2 0.159321 0.22259 0.626461
947 4 0.15748 0.238695 0.663303
908 4 0.168343 0.231249 0.648113
1025 4 0.372668 0.170688 0.643941
1024 2 0.389664 0.18465 0.63205
1026 4 0.40666 0.198611 0.620159
1064 4 0.217185 0.323883 0.665236
1063 2 0.209979 0.303141 0.677194
1237 2 0.275386 0.292705 0.595672
792 4 0.296508 0.278555 0.625948
790 2 0.314866 0.293397 0.634189
1238 4 0.290974 0.294462 0.615143
791 4 0.333223 0.308238 0.64243
3123 4 0.467241 0.267756 0.672774
904 2 0.472435 0.252921 0.596634
983 4 0.046765 0.384426 0.587658
1041 4 0.0595429 0.390351 0.601103
1039 2 0.0792414 0.405706 0.599933
1136 4 0.166194 0.402475 0.597459
1029 4 0.264528 0.39808 0.666817
1002 4 0.463948 0.414085 0.593709
1910 4 0.45984 0.434707 0.595562
3330 4 0.498826 0.39842 0.652308
2022 4 0.0426669 0.502913 0.661581
992 4 0.161869 0.423162 0.596278
991 2 0.137804 0.426925 0.601924
993 4 0.113738 0.430688 0.60757
1040 4 0.0989398 0.421061 0.598764
2243 4 0.156061 0.489529 0.597213
1171 2 0.243662 0.459022 0.58585
1160 4 0.204467 0.452467 0.590457
1159 2 0.188337 0.471444 0.588239
1173 4 0.224171 0.447735 0.596708
1175 4 0.256548 0.482105 0.662735
1174 2 0.271107 0.499839 0.6528
1267 2 0.417434 0.477663 0.65369
1911 4 0.428655 0.442218 0.633926
1909 2 0.444248 0.438462 0.614744
1268 4 0.421192 0.453596 0.648049
4323 4 0.497926 0.49177 0.592065
1185 4 0.0221409 0.0657516 0.655147
945 4 0.0308658 0.0734832 0.671786
943 2 0.0328145 0.0730721 0.69671
1076 4 0.046234 0.0644144 0.736941
944 4 0.0347633 0.0726611 0.721634
831 4 0.312768 0.0901722 0.719052
846 4 0.482012 0.00954204 0.743489
32 3 0.101595 0.10375 0.748927
1282 2 0.169789 0.110374 0.699607
1284 4 0.153763 0.112096 0.718722
1227 4 0.168737 0.121215 0.729942
1212 4 0.19471 0.117497 0.665916
1210 2 0.215006 0.129315 0.674495
1283 4 0.185815 0.108652 0.680493
1211 4 0.235302 0.141132 0.683073
830 4 0.312961 0.101118 0.670257
888 4 0.254469 0.143013 0.691667
886 2 0.272514 0.131844 0.678446
829 2 0.312864 0.0956449 0.694654
1142 4 0.344828 0.140069 0.687005
1141 2 0.355382 0.146035 0.665138
1107 4 0.05453 0.188909 0.731145
851 4 0.0342431 0.18595 0.733858
850 2 0.0127174 0.198261 0.730655
1208 4 0.0859116 0.22272 0.687815
1207 2 0.0722898 0.243684 0.688176
1105 2 0.0616962 0.166115 0.738511
822 4 0.14298 0.209468 0.698149
1278 4 0.139569 0.193999 0.710081
820 2 0.121139 0.212037 0.686252
821 4 0.0992974 0.214605 0.674354
1276 2 0.153879 0.186594 0.729202
976 2 0.295011 0.186809 0.743277
977 4 0.305339 0.18934 0.720647
916 2 0.321073 0.231849 0.720899
918 4 0.314349 0.207869 0.718683
917 4 0.327797 0.25583 0.723116
3122 4 0.479825 0.22353 0.692433
3121 2 0.473533 0.245643 0.682603
1262 4 0.440772 0.244297 0.745782
1209 4 0.058668 0.264648 0.688537
1244 4 0.0401505 0.273151 0.682937
1243 2 0.0181498 0.279283 0.693113
946 2 0.173366 0.256962 0.669558
1065 4 0.202773 0.282398 0.689153
948 4 0.189252 0.275229 0.675813
1240 2 0.238881 0.309355 0.727708
1242 4 0.219327 0.316995 0.741289
1097 4 0.309899 0.266092 0.724032
1241 4 0.258435 0.301715 0.714127
1008 4 0.346125 0.266221 0.726536
1096 2 0.290304 0.281363 0.72686
1098 4 0.270708 0.296634 0.729688
1006 2 0.360055 0.263271 0.747089
1194 4 0.438829 0.26434 0.7444
1279 2 0.0584634 0.371475 0.704458
3275 4 0.0416315 0.401613 0.728584
1280 4 0.044772 0.385213 0.720238
1281 4 0.0721549 0.357737 0.688679
3274 2 0.0598221 0.409076 0.74403
893 4 0.136742 0.346267 0.699026
892 2 0.113823 0.353246 0.691871
894 4 0.090904 0.360225 0.684716
940 2 0.152748 0.392864 0.735805
942 4 0.130604 0.404071 0.738843
1028 4 0.230139 0.373408 0.693453
941 4 0.174892 0.381657 0.732767
1068 4 0.220478 0.355899 0.697282
1067 4 0.192477 0.386148 0.725596
1066 2 0.206478 0.371024 0.711439
1027 2 0.247334 0.385744 0.680135
1139 4 0.281436 0.409011 0.665115
1228 2 0.354342 0.413953 0.703363
1229 4 0.338612 0.41129 0.684111
1230 4 0.370071 0.416616 0.722616
3183 4 0.505444 0.391595 0.669667
2172 4 0.222251 0.507035 0.69403
1079 4 0.192051 0.474764 0.745981
1138 2 0.288341 0.428716 0.678872
1140 4 0.295246 0.44842 0.692629
1989 4 0.290705 0.456927 0.71018
1987 2 0.297777 0.46884 0.730995
1269 4 0.413676 0.501731 0.659332
890 4 0.394056 0.504008 0.66016
1100 4 0.480377 0.488798 0.730806
1250 4 0.481135 0.487612 0.751335
1075 2 0.0623858 0.0474929 0.745771
1077 4 0.0785377 0.0305714 0.7546
1203 4 0.0926192 0.0398782 0.764519
1201 2 0.110651 0.0229759 0.768305
2049 4 0.145087 0.0170355 0.771926
1202 4 0.128684 0.00607362 0.77209
2047 2 0.165527 0.00267059 0.770924
1148 4 0.177064 0.0672635 0.771205
1147 2 0.190048 0.0544635 0.788315
1149 4 0.203032 0.0416635 0.805426
1049 4 0.221323 0.0385 0.794627
1048 2 0.239507 0.0282211 0.780884
1050 4 0.257691 0.0179422 0.767141
818 4 0.361444 0.0734376 0.817249
844 2 0.494186 0.0235041 0.760283
3387 4 0.0119544 0.11163 0.747132
832 2 0.0409498 0.122799 0.771824
863 4 0.0249137 0.111372 0.804754
833 4 0.0214352 0.112976 0.783984
33 3 0.0751484 0.122111 0.76832
834 4 0.0604643 0.132621 0.759663
1106 4 0.0688624 0.143321 0.745878
862 2 0.0383238 0.10426 0.824623
35 3 0.0866476 0.134906 0.734828
31 1 0.0932536 0.124574 0.754018
34 3 0.109895 0.136995 0.764372
1073 4 0.115116 0.140931 0.784228
1072 2 0.112241 0.165085 0.790015
1225 2 0.178588 0.124398 0.752702
1226 4 0.188438 0.12758 0.775462
840 4 0.206412 0.11952 0.777003
838 2 0.225626 0.130216 0.788902
839 4 0.244841 0.140913 0.8008
959 4 0.262457 0.151962 0.804596
817 2 0.364179 0.0917376 0.800433
819 4 0.366915 0.110038 0.783616
1084 2 0.355579 0.148725 0.78778
1085 4 0.356512 0.124218 0.792648
3268 2 0.489772 0.136881 0.814428
3270 4 0.476419 0.146307 0.795506
1146 4 0.45712 0.150229 0.799119
1144 2 0.456301 0.166627 0.780261
778 2 0.0713539 0.20237 0.811052
779 4 0.0473932 0.209481 0.811756
1214 4 0.0509427 0.22669 0.82042
1213 2 0.0299633 0.239175 0.815018
1074 4 0.109365 0.189239 0.795803
780 4 0.0953146 0.195258 0.810349
1277 4 0.168188 0.179189 0.748322
1131 4 0.164964 0.193308 0.763096
1130 4 0.204906 0.182505 0.791178
1129 2 0.184935 0.187906 0.777137
978 4 0.284683 0.184278 0.765907
1086 4 0.354646 0.173233 0.782912
1299 4 0.363486 0.190781 0.782701
1297 2 0.37404 0.199996 0.80341
1298 4 0.384593 0.20921 0.82412
47 3 0.404483 0.210238 0.815901
1044 4 0.38963 0.24894 0.765178
1042 2 0.398982 0.249994 0.788343
49 3 0.41913 0.242455 0.828558
46 1 0.417247 0.219675 0.83255
1261 2 0.440572 0.219786 0.750716
1263 4 0.440372 0.195275 0.75565