ITEM: TIMESTEP
3050000
ITEM: NUMBER OF ATOMS
4590
ITEM: BOX BOUNDS pp pp pp
-9.9985700000000008e+00 9.9985700000000008e+00
-9.9985700000000008e+00 9.9985700000000008e+00
-9.9985700000000008e+00 9.9985700000000008e+00
ITEM: ATOMS id type xs ys zs
463 2 0.0173764 0.0466428 0.020956
464 4 0.0362352 0.0313859 0.0270187
1668 4 0.0726035 0.0687263 0.0682126
1666 2 0.0539593 0.0607191 0.0828228
3290 4 0.0712473 0.0596031 0.0512624
465 4 0.998518 0.0618996 0.0148933
3289 2 0.0844497 0.0435098 0.0374103
3291 4 0.0976521 0.0274164 0.0235582
2183 4 0.0943355 0.0272917 0.00315222
566 4 0.146761 0.0504267 0.02872
565 2 0.164731 0.0336998 0.0334593
567 4 0.182701 0.0169729 0.0381987
490 2 0.313013 0.00727008 0.0602028
491 4 0.318379 0.0264625 0.0451019
985 2 0.298276 0.0389499 0.00765937
987 4 0.31045 0.029723 0.0274543
2143 2 0.351178 0.00055737 0.00485354
745 2 0.483239 0.035874 0.0751713
746 4 0.475135 0.0570882 0.0647094
421 2 0.0734435 0.17134 0.00541186
460 2 0.284149 0.159845 0.0532909
462 4 0.299887 0.146502 0.0674139
422 4 0.0532144 0.186002 0.00640087
506 4 0.159401 0.228671 0.0816439
737 4 0.177725 0.223849 0.075956
736 2 0.191605 0.20936 0.061036
738 4 0.205484 0.19487 0.0461161
354 4 0.219554 0.209468 0.0442242
352 2 0.242726 0.201096 0.039967
461 4 0.268412 0.173189 0.0391678
353 4 0.265899 0.192724 0.0357098
1069 2 0.37931 0.239973 0.00834627
1070 4 0.388738 0.222019 0.993719
665 4 0.370153 0.19444 0.000887842
323 4 0.48656 0.259118 0.999203
828 4 0.491253 0.239572 0.999792
836 4 0.0626411 0.247376 0.0165513
3339 4 0.0170097 0.284808 0.00649958
505 2 0.143468 0.247615 0.0781177
293 4 0.112213 0.275779 0.0647985
507 4 0.127535 0.266559 0.0745914
287 4 0.149531 0.287656 0.0166073
286 2 0.145374 0.312311 0.0166616
612 4 0.268514 0.29626 0.0413517
610 2 0.273922 0.287626 0.0641856
609 4 0.262337 0.315324 0.0427811
572 4 0.316532 0.283518 0.996702
1071 4 0.369882 0.257926 0.0229739
573 4 0.362549 0.27326 0.0133736
571 2 0.33954 0.278389 0.00503773
324 4 0.443795 0.280026 0.0145246
322 2 0.465177 0.269572 0.00686365
1046 4 0.487286 0.33656 0.00411378
519 4 0.516374 0.266353 0.0581375
990 4 0.15999 0.341111 0.0222195
455 4 0.119743 0.373827 0.0936831
1289 4 0.181124 0.405592 0.0248469
988 2 0.170204 0.363779 0.0248705
989 4 0.180418 0.386447 0.0275214
1288 2 0.19856 0.410505 0.00761234
607 2 0.270817 0.338785 0.0410988
739 2 0.32781 0.349976 0.0436681
250 2 0.292952 0.399925 0.0494586
252 4 0.27668 0.381545 0.0447066
608 4 0.279296 0.362247 0.0394165
741 4 0.318603 0.352437 0.0205522
386 4 0.328038 0.363149 0.0747652
740 4 0.337017 0.347514 0.0667841
226 2 0.382666 0.381029 0.0231884
228 4 0.362331 0.39545 0.0212637
227 4 0.403001 0.366607 0.0251131
1305 4 0.389205 0.354002 0.0184764
1303 2 0.398864 0.332829 0.00933367
1045 2 0.492469 0.342385 0.0278706
281 4 0.435146 0.358539 0.0769478
280 2 0.459284 0.355123 0.0713892
282 4 0.483421 0.351707 0.0658306
1047 4 0.497652 0.34821 0.0516275
104 3 0.492233 0.351113 0.084185
552 4 0.00632353 0.455424 0.0762263
550 2 0.00744528 0.474256 0.0598172
551 4 0.00856703 0.493089 0.0434081
1956 4 0.0152298 0.495731 0.0251732
1788 4 0.1535 0.509314 0.0699143
1786 2 0.171487 0.49643 0.0582682
243 4 0.243 0.457802 0.0636775
1440 4 0.241952 0.438495 0.0696693
241 2 0.22364 0.465924 0.0500982
242 4 0.20428 0.474046 0.0365188
1787 4 0.189474 0.483545 0.0466221
251 4 0.309223 0.418305 0.0542105
524 4 0.323959 0.432132 0.0562931
271 2 0.284584 0.476249 0.071162
272 4 0.291182 0.453436 0.0789874
525 4 0.364429 0.412285 0.0346382
523 2 0.344194 0.422209 0.0454656
1583 4 0.458919 0.454902 0.0362616
1582 2 0.457454 0.474307 0.0519607
1584 4 0.455989 0.493713 0.0676599
1674 4 0.461565 0.512962 0.0682738
1667 4 0.0353151 0.052712 0.097433
16 1 0.0373638 0.0440898 0.13905
19 3 0.0195574 0.0520903 0.151593
17 3 0.0335079 0.0487389 0.116854
20 3 0.0392841 0.0215609 0.141771
1422 4 0.00145964 0.0452121 0.161216
2480 4 0.0103267 0.0661797 0.167496
18 3 0.0570067 0.054559 0.145604
652 2 0.255955 0.0446255 0.161805
654 4 0.253299 0.0397151 0.137433
1476 4 0.267157 0.050963 0.131123
1475 4 0.304806 0.0524118 0.0982424
1474 2 0.285981 0.0516874 0.114682
297 4 0.374901 0.0463206 0.137575
295 2 0.398641 0.0531007 0.133622
484 2 0.348957 0.0217989 0.121078
485 4 0.366347 0.0397644 0.12113
296 4 0.422381 0.0598809 0.129669
486 4 0.331567 0.00383333 0.121026
557 4 0.436082 0.0609963 0.115008
556 2 0.458705 0.0712493 0.117883
450 4 0.0815173 0.104552 0.105963
236 4 0.131763 0.12552 0.12528
449 4 0.128196 0.122487 0.105616
448 2 0.104857 0.11352 0.105789
235 2 0.155444 0.127814 0.132972
237 4 0.179124 0.130108 0.140663
580 2 0.310397 0.125726 0.146701
581 4 0.294492 0.144167 0.152369
30 3 0.279934 0.133351 0.161874
582 4 0.326302 0.107284 0.141034
26 1 0.26128 0.146328 0.163378
758 4 0.345551 0.103503 0.146132
757 2 0.355197 0.0929707 0.166655
558 4 0.481328 0.0815023 0.120758
771 4 0.474112 0.0917975 0.136805
769 2 0.480059 0.111848 0.150508
477 4 0.233448 0.155952 0.143582
371 4 0.19681 0.1995 0.141858
476 4 0.197532 0.186568 0.127047
475 2 0.21549 0.17126 0.135314
29 3 0.251956 0.149257 0.142333
756 4 0.361649 0.253817 0.119225
754 2 0.353229 0.25262 0.142738
755 4 0.344809 0.251422 0.166251
624 4 0.468884 0.247553 0.138745
629 4 0.462927 0.259469 0.123527
628 2 0.442873 0.255495 0.109132
339 4 0.0497354 0.300019 0.169248
294 4 0.0953576 0.309388 0.097769
292 2 0.103785 0.292584 0.0812838
456 4 0.0973672 0.32967 0.100769
611 4 0.27933 0.278992 0.0870195
279 4 0.281525 0.257518 0.145534
277 2 0.286417 0.26246 0.121517
278 4 0.291309 0.267401 0.0974996
285 4 0.267242 0.255086 0.159321
255 4 0.363786 0.256769 0.100224
254 4 0.41057 0.264583 0.0843812
253 2 0.387178 0.260676 0.0923025
630 4 0.422819 0.251522 0.0947373
622 2 0.462657 0.25652 0.16124
619 2 0.0469254 0.372047 0.134793
620 4 0.0556111 0.38629 0.116168
621 4 0.0382397 0.357804 0.153417
2694 4 0.00223824 0.41134 0.128684
315 4 0.0050513 0.41332 0.108179
454 2 0.108555 0.351748 0.0972263
537 4 0.114114 0.396801 0.135612
535 2 0.13676 0.386206 0.135886
536 4 0.159407 0.375611 0.13616
647 4 0.10618 0.395305 0.155927
625 2 0.221022 0.384396 0.136469
627 4 0.221959 0.405914 0.123769
626 4 0.220084 0.362878 0.149168
1439 4 0.237419 0.415091 0.113629
670 2 0.410381 0.353191 0.100736
385 2 0.339096 0.372959 0.0949307
387 4 0.350155 0.382769 0.115096
12 3 0.402937 0.381582 0.122375
11 1 0.389898 0.398888 0.130096
15 3 0.368064 0.394556 0.125283
672 4 0.395687 0.363486 0.11815
302 4 0.347473 0.401996 0.127373
13 3 0.392726 0.400747 0.153052
671 4 0.425075 0.342897 0.0833206
314 4 0.00313448 0.461579 0.0952121
313 2 0.00409289 0.437449 0.101695
1465 2 0.0180152 0.500737 0.124872
1620 4 0.15221 0.490579 0.147733
1618 2 0.147754 0.493939 0.12336
1438 2 0.239685 0.426793 0.0916492
639 4 0.275801 0.484908 0.135621
638 4 0.310993 0.450193 0.143181
637 2 0.293397 0.46755 0.139401
303 4 0.30176 0.418896 0.138572
659 4 0.3159 0.458059 0.161283
301 2 0.324617 0.410446 0.132972
1559 4 0.367796 0.496661 0.137876
14 3 0.396557 0.418523 0.119679
495 4 0.398872 0.433594 0.107492
493 2 0.409961 0.455355 0.112847
494 4 0.42105 0.477116 0.118201
674 4 0.142085 0.0748731 0.213378
688 2 0.161843 0.0470543 0.198216
689 4 0.164033 0.0241511 0.188428
690 4 0.159653 0.0699576 0.208005
1505 4 0.182296 0.0197682 0.180409
693 4 0.250837 0.0681211 0.195671
653 4 0.258611 0.0495359 0.186178
1699 2 0.328951 0.0875631 0.213679
1701 4 0.306899 0.088223 0.225444
1700 4 0.351004 0.0869033 0.201914
22 3 0.387565 0.0655345 0.22628
698 4 0.407984 0.0699234 0.229712
697 2 0.412229 0.0500865 0.244329
25 3 0.384714 0.0783359 0.191339
349 2 0.481824 0.0633701 0.217202
742 2 0.489578 0.0091098 0.238772
513 4 0.0241219 0.133095 0.233748
578 4 0.0370059 0.14923 0.233537
511 2 0.00757687 0.131495 0.215069
673 2 0.145788 0.0850351 0.235921
675 4 0.149492 0.095197 0.258464
691 2 0.270021 0.0804244 0.205957
692 4 0.289204 0.0927278 0.216244
28 3 0.245844 0.13639 0.177568
27 3 0.267034 0.166909 0.171891
21 1 0.383346 0.0840757 0.213335
333 4 0.413525 0.0884138 0.224727
759 4 0.364843 0.0824385 0.187179
23 3 0.362044 0.0919066 0.218164
24 3 0.399089 0.100397 0.218252
770 4 0.486006 0.131898 0.164212
331 2 0.437865 0.0937455 0.222654
312 4 0.480855 0.131399 0.184017
310 2 0.487626 0.130717 0.208077
350 4 0.472395 0.0839003 0.227916
332 4 0.462206 0.0990772 0.220581
311 4 0.494397 0.130036 0.232137
577 2 0.0322927 0.173568 0.236792
529 2 0.0230332 0.220696 0.204482
530 4 0.033152 0.20905 0.224159
579 4 0.0275795 0.197907 0.240046
531 4 0.0129145 0.232342 0.184806
2483 4 0.9981 0.244418 0.179212
372 4 0.161298 0.221798 0.169106
362 4 0.154754 0.226825 0.188596
370 2 0.179054 0.210649 0.155482
704 4 0.0383163 0.315819 0.173929
337 2 0.0708674 0.289488 0.177477
703 2 0.0317471 0.326642 0.19549
705 4 0.025178 0.337465 0.217051
361 2 0.139256 0.246271 0.191206
363 4 0.123758 0.265718 0.193815
338 4 0.0919994 0.278957 0.185707
395 4 0.105021 0.271332 0.198374
396 4 0.100393 0.269075 0.248115
394 2 0.102707 0.270203 0.223245
283 2 0.27736 0.258842 0.181875
284 4 0.287478 0.262598 0.20443
528 4 0.438844 0.306515 0.21659
623 4 0.45643 0.265487 0.183734
527 4 0.438605 0.262259 0.193307
526 2 0.438725 0.284387 0.204948
542 4 0.44443 0.304385 0.236682
2615 4 0.0146273 0.353611 0.22688
300 4 0.0992039 0.377377 0.212118
646 2 0.105529 0.395047 0.180921
648 4 0.104878 0.394789 0.205915
298 2 0.107813 0.36374 0.231225
289 2 0.226589 0.406264 0.249701
416 4 0.209692 0.409329 0.215132
290 4 0.226539 0.408664 0.224813
415 2 0.189043 0.419865 0.205762
597 4 0.391412 0.387209 0.170341
345 4 0.359501 0.356981 0.212323
596 4 0.359686 0.354977 0.191677
645 4 0.400418 0.408069 0.171947
595 2 0.375549 0.371093 0.181009
343 2 0.363966 0.363902 0.235931
263 4 0.0373494 0.408855 0.243868
1431 4 0.1411 0.477687 0.157642
1429 2 0.15373 0.458802 0.168082
1430 4 0.16636 0.439916 0.178522
417 4 0.168394 0.430401 0.196393
438 4 0.273282 0.46819 0.217092
436 2 0.279625 0.468778 0.24127
658 2 0.336964 0.458246 0.174753
643 2 0.393481 0.425624 0.188345
644 4 0.386543 0.443179 0.204742
660 4 0.358028 0.458433 0.188223
231 4 0.372376 0.471817 0.19306
447 4 0.403082 0.450137 0.214766
445 2 0.413282 0.444854 0.236975
1403 4 0.0304634 0.0236995 0.269387
233 4 0.0279714 0.0335995 0.286064
232 2 0.0429541 0.05357 0.284694
234 4 0.0579369 0.0735405 0.283325
317 4 0.050404 0.0893548 0.292055
722 4 0.195223 0.0587775 0.259132
1407 4 0.248674 0.00068435 0.289058
1405 2 0.235982 0.0181822 0.276492
1406 4 0.223289 0.03568 0.263926
721 2 0.195135 0.0745682 0.278518
723 4 0.195048 0.090359 0.297904
599 4 0.180618 0.0881597 0.313548
699 4 0.416473 0.0302496 0.258946
1518 4 0.410187 0.0115001 0.256649
743 4 0.486446 0.0252513 0.257608
425 4 0.489568 0.026667 0.277152
424 2 0.479348 0.0438381 0.292181
258 4 0.44901 0.0597886 0.308468
426 4 0.469128 0.0610092 0.30721
316 2 0.0669949 0.107521 0.296516
318 4 0.0835858 0.125688 0.300978
393 4 0.087604 0.159727 0.320096
391 2 0.0889205 0.159308 0.29513
392 4 0.090237 0.158889 0.270165
544 2 0.115695 0.122426 0.262499
545 4 0.0996561 0.140999 0.267291
546 4 0.131735 0.103853 0.257707
399 4 0.102779 0.16595 0.331959
404 4 0.24916 0.0935872 0.304731
403 2 0.242915 0.117476 0.300793
405 4 0.236669 0.141365 0.296855
401 4 0.238724 0.159372 0.300483
400 2 0.230169 0.182733 0.30298
256 2 0.454268 0.0735809 0.32865
402 4 0.221614 0.206095 0.305477
707 4 0.285673 0.20331 0.334018
377 4 0.392671 0.208906 0.353175
763 2 0.454469 0.19612 0.308996
764 4 0.46081 0.180985 0.290131
442 2 0.0769743 0.280373 0.275477
444 4 0.0732556 0.290355 0.298098
443 4 0.0806931 0.270391 0.252856
497 4 0.319135 0.277213 0.329725
541 2 0.431427 0.319231 0.252035
543 4 0.418423 0.334077 0.267387
749 4 0.064696 0.342748 0.293591
366 4 0.0515456 0.358279 0.292437
365 4 0.00214832 0.365734 0.294682
364 2 0.026847 0.362007 0.29356
602 4 0.0703608 0.398686 0.316891
2493 4 0.996101 0.369337 0.314294
748 2 0.0859709 0.345491 0.280744
299 4 0.116423 0.350102 0.250332
750 4 0.107246 0.348235 0.267898
777 4 0.0859476 0.410401 0.311216
735 4 0.148455 0.399929 0.285421
733 2 0.145654 0.375439 0.289615
734 4 0.142853 0.35095 0.29381
677 4 0.165249 0.406039 0.276887
291 4 0.226639 0.403865 0.274589
414 4 0.230969 0.416899 0.288383
412 2 0.25042 0.414571 0.30392
413 4 0.269871 0.412243 0.319458
727 2 0.326588 0.395611 0.328269
344 4 0.368432 0.370823 0.259539
308 4 0.359596 0.378286 0.315233
729 4 0.345435 0.379233 0.329582
615 4 0.413143 0.350535 0.277301
309 4 0.369533 0.355757 0.271708
307 2 0.364564 0.367022 0.293471
614 4 0.430333 0.349224 0.324242
613 2 0.421738 0.34988 0.300772
2924 4 0.49842 0.35868 0.322036
2923 2 0.474467 0.351909 0.324392
2862 4 0.480535 0.408456 0.276845
2860 2 0.496549 0.399803 0.259704
120 3 0.492281 0.410409 0.297375
713 4 0.471954 0.418418 0.29523
2925 4 0.450513 0.345137 0.326749
116 1 0.502776 0.400102 0.314761
262 2 0.0395535 0.431708 0.25377
264 4 0.0417576 0.454561 0.263673
1758 4 0.0895891 0.502315 0.289575
775 2 0.0979587 0.42881 0.299298
1757 4 0.121411 0.463769 0.288052
776 4 0.10997 0.447218 0.287379
1756 2 0.1055 0.483042 0.288813
676 2 0.179655 0.426382 0.278842
678 4 0.194062 0.446724 0.280798
768 4 0.179421 0.459608 0.276639
766 2 0.185474 0.483403 0.271915
1545 4 0.239464 0.499458 0.310239
767 4 0.191526 0.507199 0.267191
5 3 0.266495 0.425429 0.334256
1436 4 0.243479 0.510219 0.292674
437 4 0.285969 0.469366 0.265449
1437 4 0.284034 0.482001 0.284941
1435 2 0.263757 0.49611 0.288808
433 2 0.301939 0.448654 0.306998
435 4 0.301021 0.465374 0.28843
728 4 0.307741 0.411989 0.326956
434 4 0.302857 0.431933 0.325566
446 4 0.423482 0.439571 0.259184
712 2 0.456498 0.432233 0.28125
714 4 0.441042 0.446048 0.267271
368 4 0.0703531 0.061922 0.416189
731 4 0.0721987 0.0778978 0.404209
730 2 0.0950471 0.0779203 0.394054
604 2 0.140295 0.0701135 0.348858
606 4 0.147565 0.0677985 0.325047
605 4 0.133024 0.0724285 0.372669
249 4 0.290223 0.0332093 0.351796
684 4 0.271445 0.0332213 0.344981
682 2 0.258001 0.0523973 0.35374
683 4 0.244558 0.0715733 0.3625
247 2 0.311697 0.0436787 0.359173
248 4 0.333171 0.0541481 0.36655
633 4 0.331126 0.0577763 0.386124
631 2 0.341844 0.0657223 0.40727
1747 2 0.476336 0.997335 0.358058
1749 4 0.484013 0.0161992 0.343553
641 4 0.484913 0.0814116 0.42009
480 4 0.496339 0.0321441 0.346981
2586 4 0.994576 0.144019 0.397778
732 4 0.117896 0.0779429 0.383899
397 2 0.104521 0.145294 0.345941
398 4 0.106264 0.124638 0.359922
598 2 0.196406 0.0967244 0.330942
600 4 0.212194 0.105289 0.348336
685 2 0.203388 0.134139 0.374418
687 4 0.201813 0.121414 0.352952
686 4 0.204963 0.146863 0.395884
410 4 0.221307 0.138976 0.403408
321 4 0.250068 0.0883319 0.373367
319 2 0.261559 0.0957042 0.394314
419 4 0.368828 0.16017 0.381305
418 2 0.355056 0.14465 0.395258
420 4 0.341285 0.129131 0.40921
716 4 0.373404 0.149379 0.365611
257 4 0.459525 0.0873732 0.348832
760 2 0.485118 0.122152 0.343592
761 4 0.465913 0.106301 0.345846
390 4 0.0891697 0.221406 0.421438
388 2 0.0957067 0.227374 0.398053
274 2 0.144205 0.231009 0.372292
276 4 0.121207 0.240726 0.373643
473 4 0.228137 0.205944 0.342176
474 4 0.187665 0.216853 0.369449
472 2 0.207901 0.211398 0.355813
708 4 0.23966 0.221994 0.339887
275 4 0.167204 0.221293 0.370941
650 4 0.247118 0.193505 0.405105
651 4 0.260959 0.236401 0.383446
649 2 0.254039 0.214953 0.394276
706 2 0.262666 0.212652 0.336953
489 4 0.266092 0.246107 0.366739
717 4 0.391816 0.191124 0.345139
715 2 0.38261 0.170252 0.355375
376 2 0.380778 0.226618 0.340137
584 4 0.386669 0.246632 0.409174
765 4 0.448129 0.211256 0.327861
269 4 0.500873 0.259849 0.3367
2654 4 0.993836 0.259553 0.413154
389 4 0.102244 0.233343 0.374669
1258 2 0.135917 0.309388 0.391414
1259 4 0.146432 0.325432 0.375376
1260 4 0.125402 0.293344 0.407452
509 4 0.242907 0.305583 0.361773
487 2 0.253629 0.267485 0.370321
488 4 0.241165 0.288863 0.373903
508 2 0.233347 0.327277 0.369722
496 2 0.339952 0.265368 0.336903
267 4 0.342418 0.322142 0.348271
498 4 0.360769 0.253523 0.344082
378 4 0.368885 0.244331 0.327099
266 4 0.36966 0.303496 0.385833
585 4 0.383565 0.289422 0.383481
583 2 0.385117 0.268027 0.396328
265 2 0.356039 0.312819 0.367052
268 2 0.488594 0.262945 0.35826
270 4 0.476315 0.26604 0.379819
306 4 0.486233 0.268596 0.397717
304 2 0.480357 0.263968 0.421575
601 2 0.0782382 0.39311 0.339957
407 4 0.0278495 0.41646 0.394254
603 4 0.0861155 0.387535 0.363023
547 2 0.102678 0.42616 0.375218
549 4 0.0941932 0.406467 0.362357
504 4 0.192922 0.405369 0.333342
510 4 0.223787 0.34897 0.377671
374 4 0.224008 0.367914 0.379436
373 2 0.240132 0.382664 0.367286
375 4 0.256256 0.397415 0.355137
3 3 0.27195 0.403425 0.364318
751 2 0.485409 0.409714 0.374551
119 3 0.497298 0.410649 0.33469
753 4 0.484237 0.410098 0.349577
679 2 0.0371609 0.485008 0.367899
680 4 0.0433259 0.467072 0.384192
406 2 0.0431775 0.436161 0.392806
408 4 0.0585055 0.455862 0.391359
681 4 0.030996 0.502945 0.351606
569 4 0.115495 0.439842 0.407053
548 4 0.111162 0.445852 0.388079
502 2 0.202141 0.428557 0.331745
635 4 0.176807 0.487904 0.377953
634 2 0.189255 0.47499 0.360532
636 4 0.201703 0.462077 0.343112
503 4 0.211359 0.451744 0.330147
669 4 0.294226 0.487001 0.391411
2 3 0.300875 0.421148 0.348135
1 1 0.278544 0.42281 0.353403
668 4 0.262242 0.450595 0.379068
4 3 0.275454 0.441153 0.367274
667 2 0.278234 0.468798 0.38524
1586 4 0.303047 0.50341 0.395783
752 4 0.486581 0.40933 0.399524
718 2 0.0407888 0.0668622 0.489982
719 4 0.0314297 0.0757556 0.468569
369 4 0.0483846 0.0705529 0.460276
367 2 0.0593689 0.0662374 0.438232
341 4 0.175561 0.0756764 0.446245
441 4 0.210482 0.00393967 0.452951
2430 4 0.176402 0.0565762 0.447832
2428 2 0.184226 0.0334729 0.453327
2429 4 0.192051 0.0103697 0.458822
632 4 0.352563 0.0736684 0.428416
2878 2 0.471653 0.00890563 0.462416
2880 4 0.471865 0.03302 0.455811
642 4 0.476871 0.0348984 0.436599
640 2 0.480892 0.058155 0.428345
259 2 0.0783758 0.175282 0.499603
409 2 0.232406 0.159707 0.411905
340 2 0.177792 0.0945185 0.46253
1152 4 0.183879 0.132387 0.482171
342 4 0.180023 0.113361 0.478814
320 4 0.27305 0.103076 0.415262
725 4 0.272062 0.092495 0.432081
724 2 0.280214 0.0952352 0.455559
432 4 0.278706 0.101088 0.49602
726 4 0.288366 0.0979754 0.479037
468 4 0.341066 0.0858455 0.437961
467 4 0.370477 0.124099 0.451088
466 2 0.355771 0.104972 0.444524
574 2 0.403711 0.133433 0.436316
576 4 0.379662 0.127169 0.43356
3158 4 0.494571 0.093567 0.431854
575 4 0.42776 0.139696 0.439073
516 4 0.447726 0.142824 0.44308
514 2 0.468299 0.135294 0.431029
515 4 0.488871 0.127763 0.418977
260 4 0.0737217 0.176167 0.475052
469 2 0.0816163 0.208417 0.452674
471 4 0.0665007 0.193886 0.466296
470 4 0.0967318 0.222948 0.439053
411 4 0.243504 0.180439 0.420402
2455 2 0.40457 0.220926 0.437727
2457 4 0.40681 0.204209 0.456186
2456 4 0.402329 0.237643 0.419269
616 2 0.0206608 0.279909 0.433604
617 4 0.0431657 0.289043 0.439543
695 4 0.0967096 0.256888 0.444961
694 2 0.104827 0.277639 0.433617
696 4 0.112945 0.29839 0.422273
878 4 0.119815 0.275984 0.493587
1010 4 0.449963 0.316601 0.473392
1009 2 0.461412 0.297312 0.462345
1011 4 0.472861 0.278022 0.451299
305 4 0.474481 0.259339 0.445434
2507 4 0.459485 0.33406 0.474489
326 4 0.106462 0.375782 0.439743
325 2 0.128307 0.367454 0.448611
7 3 0.16755 0.363305 0.466455
327 4 0.150152 0.359127 0.457479
8 3 0.156856 0.391239 0.489214
6 1 0.165275 0.36963 0.488455
334 2 0.33835 0.415661 0.439342
335 4 0.354515 0.400895 0.451417
238 2 0.349623 0.393499 0.492516
240 4 0.354781 0.403551 0.47021
561 4 0.491089 0.416954 0.417596
559 2 0.495753 0.396082 0.43055
2506 2 0.471639 0.353673 0.464855
2508 4 0.483792 0.373286 0.45522
1381 2 0.0071569 0.447736 0.477886
1382 4 0.0258597 0.463883 0.474056
538 2 0.0453033 0.485119 0.49951
540 4 0.0435156 0.472793 0.477829
384 4 0.131825 0.50936 0.496998
568 2 0.119072 0.439124 0.431789
570 4 0.122649 0.438407 0.456525
709 2 0.134456 0.415191 0.484588
774 4 0.116147 0.494506 0.429734
773 4 0.12686 0.505177 0.4774
772 2 0.121504 0.499841 0.453567
710 4 0.117358 0.4226 0.467916
1393 2 0.227947 0.501627 0.468803
1394 4 0.242874 0.493703 0.48723
1401 4 0.32829 0.44458 0.413638
1399 2 0.328265 0.468652 0.4204
1400 4 0.328239 0.492724 0.427162
336 4 0.322184 0.430428 0.427266
1127 4 0.035067 0.0510303 0.522132
720 4 0.0501479 0.0579688 0.511394
1126 2 0.0157099 0.0472794 0.537508
1031 4 0.162811 0.0871867 0.534336
949 2 0.197883 0.0736847 0.559746
950 4 0.218066 0.0693309 0.573848
1182 4 0.237813 0.0750919 0.571598
951 4 0.1777 0.0780385 0.545645
1180 2 0.252336 0.0557954 0.565126
963 4 0.273604 0.0177702 0.555772
1181 4 0.26686 0.0364989 0.558655
961 2 0.286465 0.997537 0.56287
1216 2 0.375932 0.0585096 0.517922
1217 4 0.360467 0.0765079 0.525801
842 4 0.353567 0.0658023 0.542665
1218 4 0.391397 0.0405113 0.510043
1035 4 0.068661 0.134083 0.569012
261 4 0.0830299 0.174397 0.524153
1033 2 0.0782372 0.153644 0.556731
1030 2 0.145496 0.100247 0.546777
1032 4 0.12818 0.113307 0.559219
938 4 0.165314 0.177566 0.584597
1154 4 0.111502 0.104798 0.567662
1150 2 0.185803 0.148952 0.500801
1151 4 0.187726 0.165517 0.519431
843 4 0.319983 0.101596 0.552238
431 4 0.311447 0.102964 0.533772
430 2 0.295077 0.102026 0.514896
857 4 0.346775 0.13869 0.579173
899 4 0.355725 0.133124 0.562252
841 2 0.336775 0.0836992 0.547452
898 2 0.374431 0.149703 0.562897
808 2 0.498074 0.0896164 0.563455
1034 4 0.0878133 0.173206 0.544451
1272 4 0.108253 0.231174 0.54231
1270 2 0.11882 0.22521 0.564172
1271 4 0.129386 0.219247 0.586035
937 2 0.17372 0.172077 0.561698
939 4 0.182125 0.166588 0.538798
900 4 0.393137 0.166282 0.563543
872 4 0.385424 0.181208 0.553077
873 4 0.369758 0.228403 0.54779
871 2 0.377591 0.204806 0.550434
813 4 0.356795 0.22987 0.564691
953 4 0.446019 0.262032 0.587534
879 4 0.102501 0.244749 0.528591
877 2 0.111158 0.260367 0.511089
1239 4 0.266453 0.263222 0.570361
1205 4 0.394856 0.295534 0.566893
1204 2 0.370843 0.301381 0.563101
1206 4 0.346831 0.307229 0.559309
930 4 0.349663 0.325998 0.566018
954 4 0.41185 0.287056 0.560946
952 2 0.428934 0.274544 0.57424
984 4 0.0127449 0.399465 0.58767
9 3 0.150615 0.355043 0.498976
711 4 0.151555 0.407782 0.501259
896 4 0.184297 0.35524 0.515296
1137 4 0.183642 0.35927 0.58393
897 4 0.183361 0.350932 0.565108
895 2 0.183829 0.353086 0.540202
10 3 0.185637 0.368863 0.498625
1191 4 0.204675 0.364476 0.509097
1189 2 0.229649 0.363549 0.508323
928 2 0.332519 0.344059 0.563766
802 2 0.287982 0.359597 0.528139
804 4 0.304503 0.367641 0.545096
929 4 0.315375 0.36212 0.561513
803 4 0.271462 0.351552 0.511182
1190 4 0.254624 0.362622 0.50755
239 4 0.344465 0.383448 0.514822
1001 4 0.462687 0.385932 0.545139
926 4 0.480564 0.386239 0.536684
925 2 0.494762 0.369319 0.524966
1000 2 0.467474 0.398645 0.566131
927 4 0.508959 0.352399 0.513248
934 2 0.00327183 0.476026 0.588758
936 4 0.0279516 0.472061 0.58815
1938 4 0.0449391 0.481003 0.581373
1936 2 0.0530528 0.487074 0.558515
382 2 0.129756 0.500243 0.520188
383 4 0.127686 0.491126 0.543378
2244 4 0.138868 0.495456 0.55947
1446 4 0.241699 0.472734 0.489225
882 4 0.291241 0.462746 0.576615
880 2 0.2948 0.468187 0.552471
881 4 0.298359 0.473628 0.528328
1445 4 0.278922 0.477051 0.522339
1444 2 0.260311 0.474893 0.505782
1183 2 0.996379 0.0322729 0.645528
1185 4 0.0177211 0.0308385 0.658476
1058 4 0.0850358 0.0154223 0.641702
1057 2 0.0904602 0.0360412 0.62864
945 4 0.0230298 0.0495941 0.664483
1155 4 0.104876 0.0718732 0.604712
1059 4 0.0958846 0.0566601 0.615578
1153 2 0.108189 0.0883357 0.586187
825 4 0.0991283 0.0049904 0.650261
1005 4 0.303398 0.0627732 0.614042
2282 4 0.477249 0.0161768 0.6068
2281 2 0.456074 0.0110648 0.594525
43 3 0.480147 0.0361861 0.604238
41 1 0.479457 0.0590689 0.60802
44 3 0.457424 0.0661773 0.609587
45 3 0.489984 0.0700658 0.591082
42 3 0.490178 0.0636556 0.627849
1163 4 0.502711 0.065365 0.642868
810 4 0.481889 0.073516 0.573652
1082 4 0.056856 0.132696 0.585413
1081 2 0.0383685 0.139422 0.600845
1083 4 0.0198809 0.146148 0.616277
1199 4 0.00064383 0.147484 0.611983
1221 4 0.140686 0.0952895 0.64579
1219 2 0.159538 0.10852 0.636057
1220 4 0.178389 0.121751 0.626325
1212 4 0.198604 0.118831 0.627506
1210 2 0.221552 0.126231 0.634123
1211 4 0.244501 0.133631 0.640741
856 2 0.327324 0.143679 0.59407
1003 2 0.306859 0.0793209 0.632464
1004 4 0.31032 0.0958687 0.650886
858 4 0.307872 0.148668 0.608968
888 4 0.262229 0.140864 0.644387
886 2 0.275729 0.126031 0.659318
887 4 0.289228 0.111198 0.674248
1143 4 0.378945 0.139324 0.651111
1025 4 0.383999 0.158098 0.653839
1141 2 0.35924 0.135645 0.666055
909 4 0.140531 0.204789 0.594299
907 2 0.147973 0.219309 0.613245
908 4 0.155415 0.233829 0.632192
947 4 0.159128 0.221305 0.647213
946 2 0.177455 0.235505 0.656575
812 4 0.320208 0.233725 0.598562
798 4 0.308197 0.218206 0.608996
796 2 0.307298 0.193314 0.606806
797 4 0.3064 0.168423 0.604616
811 2 0.338502 0.231797 0.581627
1024 2 0.38372 0.173333 0.634015
1026 4 0.383441 0.188567 0.61419
905 4 0.466078 0.258437 0.589726
904 2 0.490499 0.26228 0.585977
3122 4 0.475943 0.234 0.6683
948 4 0.195781 0.249706 0.665938
1237 2 0.282596 0.277631 0.58289
792 4 0.317692 0.291719 0.594493
790 2 0.325609 0.305217 0.613994
1238 4 0.298739 0.29204 0.595418
791 4 0.333526 0.318715 0.633496
983 4 0.0618079 0.397347 0.578234
982 2 0.0372764 0.398406 0.582952
1041 4 0.0698428 0.41458 0.585521
3263 4 0.99966 0.399974 0.602283
893 4 0.123468 0.342306 0.659586
1135 2 0.181882 0.38211 0.593951
1136 4 0.180123 0.40495 0.603973
1910 4 0.45727 0.407643 0.59932
1039 2 0.0898781 0.429443 0.587215
992 4 0.165245 0.417683 0.607473
991 2 0.14443 0.424236 0.595267
993 4 0.123615 0.43079 0.583062
1040 4 0.109913 0.444306 0.588909
1171 2 0.245906 0.460589 0.578426
1160 4 0.224558 0.47618 0.59323
1159 2 0.204023 0.487355 0.602095
1173 4 0.220968 0.462001 0.579544
1172 4 0.270845 0.459177 0.577308
1267 2 0.413994 0.451164 0.653154
1269 4 0.405662 0.466489 0.671067
1002 4 0.47226 0.411359 0.587122
1911 4 0.441769 0.442884 0.631234
1909 2 0.44952 0.425264 0.615277
1268 4 0.422326 0.435838 0.635241
943 2 0.0410958 0.0454208 0.681258
1076 4 0.0523892 0.0329441 0.7155
944 4 0.0591619 0.0412476 0.698032
1075 2 0.0683004 0.0324818 0.734782
32 3 0.105038 0.1355 0.734474
1283 4 0.149179 0.0634189 0.708002
1284 4 0.175739 0.0954941 0.735688
1282 2 0.162459 0.0794565 0.721845
1227 4 0.184764 0.113504 0.739592
830 4 0.308019 0.106727 0.667141
829 2 0.320183 0.101054 0.688237
831 4 0.332346 0.0953805 0.709333
1142 4 0.339534 0.131965 0.680999
851 4 0.00914085 0.17932 0.743735
1107 4 0.0288399 0.177982 0.735044
1105 2 0.0460604 0.164033 0.746623
3188 4 0.0217167 0.268204 0.744025
822 4 0.133445 0.206282 0.70895
1278 4 0.15188 0.207437 0.715515
820 2 0.115921 0.224007 0.710935
821 4 0.0983966 0.241731 0.712921
1276 2 0.163019 0.198224 0.735917
1277 4 0.174159 0.189012 0.756318
976 2 0.284852 0.201944 0.736785
977 4 0.291469 0.21913 0.719873
916 2 0.311461 0.247658 0.707422
918 4 0.310156 0.227366 0.721973
1008 4 0.339922 0.248819 0.720995
3121 2 0.45787 0.23541 0.685521
3123 4 0.439797 0.236819 0.702741
1263 4 0.46676 0.214075 0.753681
1145 4 0.458013 0.199572 0.743424
1207 2 0.0676299 0.26263 0.703068
1209 4 0.0571192 0.284565 0.697277
1244 4 0.0403411 0.285712 0.707356
1243 2 0.01586 0.281136 0.709574
1208 4 0.0781405 0.240694 0.708859
1064 4 0.251581 0.291765 0.666777
1063 2 0.232618 0.275498 0.665803
1065 4 0.213655 0.25923 0.66483
1240 2 0.230287 0.298707 0.731992
1242 4 0.22387 0.29272 0.755404
1241 4 0.236704 0.304694 0.708579
917 4 0.312766 0.26795 0.692872
1097 4 0.299353 0.277378 0.704015
1096 2 0.282015 0.28929 0.690499
1098 4 0.264676 0.301201 0.676984
1006 2 0.361951 0.255592 0.730692
894 4 0.0846348 0.347897 0.690593
1279 2 0.0511312 0.360472 0.700684
3275 4 0.0345364 0.388917 0.728048
1280 4 0.0366442 0.372342 0.717249
1281 4 0.0656182 0.348602 0.684119
3274 2 0.0462499 0.403212 0.74489
892 2 0.104051 0.345101 0.67509
940 2 0.166524 0.395857 0.750362
941 4 0.18444 0.38101 0.741209
1028 4 0.231269 0.374032 0.696671
1068 4 0.215813 0.36292 0.692463
1067 4 0.186493 0.363376 0.73297
1066 2 0.201153 0.363148 0.712716
1029 4 0.26882 0.388885 0.667175
1139 4 0.287174 0.393263 0.674245
1027 2 0.250044 0.381458 0.681923
1138 2 0.297772 0.415434 0.678858
1229 4 0.358665 0.384975 0.702009
1228 2 0.365374 0.408979 0.704014
1983 4 0.0345994 0.510895 0.722674
2022 4 0.0305201 0.49231 0.669842
2172 4 0.191531 0.486646 0.664348
1140 4 0.308371 0.437606 0.683472
1989 4 0.30117 0.449021 0.698159
1987 2 0.295024 0.455471 0.721521
890 4 0.39146 0.474631 0.661749
1230 4 0.372084 0.432982 0.706018
1100 4 0.454848 0.491527 0.740452
1250 4 0.461045 0.503122 0.756993
862 2 0.0471192 0.0797587 0.821363
864 4 0.0623801 0.0691975 0.838119
1077 4 0.0842116 0.0320195 0.754064
1202 4 0.127352 0.0112214 0.783683
1203 4 0.102465 0.0394179 0.750724
1201 2 0.114908 0.0253197 0.767203
2049 4 0.144518 0.000842033 0.779432
1147 2 0.217963 0.0586111 0.806412
1149 4 0.235854 0.0417155 0.810843
1049 4 0.253465 0.049858 0.802272
1148 4 0.200073 0.0755067 0.80198
1048 2 0.270656 0.0351662 0.81294
1050 4 0.287847 0.0204744 0.823608
818 4 0.368776 0.0645796 0.802475
965 4 0.371001 0.0677543 0.821091
846 4 0.483327 0.0171569 0.757856
35 3 0.0811928 0.158079 0.752208
3387 4 0.00527336 0.101262 0.756801
1106 4 0.0632808 0.150084 0.758201
832 2 0.048325 0.118979 0.779094
863 4 0.0318582 0.09032 0.804608
833 4 0.0339666 0.108718 0.796806
33 3 0.0812893 0.121213 0.759862
834 4 0.0626835 0.129241 0.761382
31 1 0.0943366 0.139612 0.754417
34 3 0.110284 0.143169 0.770892
1073 4 0.124544 0.155169 0.777229
1225 2 0.18807 0.122848 0.762547
1226 4 0.191376 0.132193 0.785502
840 4 0.208039 0.122171 0.789198
838 2 0.226747 0.130313 0.803652
839 4 0.245454 0.138456 0.818106
959 4 0.258033 0.1544 0.81742
819 4 0.335951 0.101601 0.795219
817 2 0.352364 0.0830903 0.798847
1084 2 0.344931 0.136639 0.819529
1085 4 0.333311 0.116844 0.809613
1086 4 0.35655 0.156434 0.829444
1146 4 0.476557 0.156929 0.761819
153 3 0.00337204 0.239038 0.810867
779 4 0.0561663 0.208766 0.830676