ITEM: TIMESTEP
1800000
ITEM: NUMBER OF ATOMS
4590
ITEM: BOX BOUNDS pp pp pp
-9.9985700000000008e+00 9.9985700000000008e+00
-9.9985700000000008e+00 9.9985700000000008e+00
-9.9985700000000008e+00 9.9985700000000008e+00
ITEM: ATOMS id type xs ys zs
463 2 0.0572093 0.0792903 0.00644466
464 4 0.0703304 0.0596448 0.998255
1666 2 0.0713549 0.999654 0.0731183
1668 4 0.0866066 0.0135757 0.05902
566 4 0.182038 0.046144 0.0485155
1474 2 0.237295 0.0190963 0.0774588
565 2 0.196328 0.0645546 0.057572
1475 4 0.234558 0.0302745 0.0552611
567 4 0.210619 0.0829651 0.0666285
492 4 0.253986 0.0311437 0.0544047
490 2 0.266836 0.0403348 0.0350244
491 4 0.279685 0.0495259 0.0156442
2145 4 0.389781 0.00673157 0.0262854
2143 2 0.37386 0.00872532 0.00710904
745 2 0.458138 0.0649195 0.015188
2724 4 0.484338 0.0428994 0.0631441
747 4 0.478983 0.0784177 0.0122766
2722 2 0.464204 0.0437769 0.0779441
746 4 0.437293 0.0514214 0.0180994
2723 4 0.44407 0.0446543 0.092744
465 4 0.0440881 0.0989357 0.0146343
701 4 0.0531757 0.116282 0.0192198
700 2 0.0568309 0.140603 0.0147131
360 4 0.193192 0.151841 0.0116596
358 2 0.215983 0.142061 0.0148345
359 4 0.238775 0.13228 0.0180094
828 4 0.438581 0.146448 0.00451731
2469 4 0.494212 0.0876656 0.0227002
702 4 0.0604862 0.164923 0.0102064
423 4 0.07757 0.175945 0.0152711
555 4 0.0379341 0.169625 0.00680617
553 2 0.0331369 0.194123 0.00821381
554 4 0.0283397 0.218622 0.00962145
422 4 0.106464 0.211429 0.0354387
421 2 0.092017 0.193687 0.0253549
737 4 0.213977 0.227006 0.0511847
736 2 0.219641 0.202845 0.054244
354 4 0.242783 0.181699 0.0643741
738 4 0.225305 0.178685 0.0573033
506 4 0.214488 0.246637 0.0544268
352 2 0.256395 0.176253 0.0846281
1071 4 0.37344 0.252409 0.00993261
2807 4 0.00304843 0.28231 0.0413042
294 4 0.149649 0.317821 0.0515761
292 2 0.165145 0.301002 0.0414676
456 4 0.137824 0.328779 0.0632805
507 4 0.200759 0.287438 0.0289816
293 4 0.18064 0.284183 0.0313592
505 2 0.207623 0.267038 0.0417042
481 2 0.292516 0.290511 0.000462916
482 4 0.310127 0.289922 0.018202
573 4 0.376139 0.264714 0.027022
571 2 0.368544 0.281735 0.0436893
572 4 0.360949 0.298755 0.0603566
741 4 0.362675 0.297557 0.0806874
739 2 0.352669 0.320072 0.0849446
255 4 0.365706 0.267822 0.0841946
324 4 0.46448 0.276268 0.0489319
323 4 0.431984 0.257547 0.0158526
322 2 0.448232 0.266908 0.0323923
1168 2 0.0748041 0.354227 0.995978
1169 4 0.0532071 0.362419 0.0055514
329 4 0.0425679 0.379152 0.0023222
1170 4 0.0964012 0.346036 0.986405
454 2 0.144589 0.351025 0.0724726
608 4 0.239718 0.370917 0.0709626
252 4 0.255092 0.383229 0.0746815
250 2 0.275697 0.387886 0.0613063
251 4 0.296303 0.392542 0.0479312
524 4 0.313924 0.401684 0.0452922
226 2 0.387229 0.397203 0.0382188
228 4 0.379078 0.403391 0.061032
671 4 0.40957 0.349976 0.0564076
227 4 0.395381 0.391015 0.0154057
670 2 0.399519 0.357308 0.0780963
1303 2 0.397414 0.347797 0.0042133
1305 4 0.394685 0.371328 0.0122144
281 4 0.426676 0.358653 0.0546256
280 2 0.451236 0.354718 0.0520755
282 4 0.475796 0.350783 0.0495254
104 3 0.482685 0.350329 0.0697973
1045 2 0.48884 0.346936 0.011771
1047 4 0.485901 0.339655 0.0355098
552 4 0.0101022 0.434045 0.0377769
314 4 0.0113639 0.427437 0.0568376
313 2 0.0308383 0.416445 0.0680222
795 4 0.165858 0.459092 0.00536216
793 2 0.158986 0.483111 0.00433538
244 2 0.229034 0.474457 0.010665
243 4 0.231462 0.483546 0.0565258
245 4 0.209836 0.460652 0.00253935
246 4 0.248232 0.488262 0.0187907
1440 4 0.24853 0.467014 0.0757382
272 4 0.262042 0.481056 0.0645773
523 2 0.326573 0.420107 0.0565065
40 3 0.355984 0.439939 0.00463082
525 4 0.339221 0.438531 0.0677209
37 3 0.326047 0.461985 0.00136903
2479 2 0.00055063 0.0350627 0.13192
1422 4 0.0296303 0.0103927 0.151146
2480 4 0.0201978 0.0260166 0.144464
18 3 0.0641536 0.00887775 0.124047
590 4 0.00753176 0.0783212 0.103433
652 2 0.22007 0.0563681 0.142284
654 4 0.209432 0.0634106 0.12078
1476 4 0.240031 0.00791811 0.0996565
297 4 0.384062 0.0177871 0.108706
485 4 0.3698 0.00177251 0.11062
295 2 0.388306 0.0423428 0.10666
296 4 0.39255 0.0668985 0.104614
557 4 0.412933 0.0656949 0.10424
1759 2 0.454994 0.00857026 0.138883
1760 4 0.473403 0.0254585 0.139935
2744 4 0.492684 0.0231866 0.144741
235 2 0.119238 0.151315 0.149458
556 2 0.419939 0.0892335 0.0995464
771 4 0.445345 0.119444 0.0981525
558 4 0.426945 0.112772 0.0948528
769 2 0.446684 0.144309 0.100421
237 4 0.112583 0.171756 0.136689
476 4 0.193142 0.212544 0.156778
477 4 0.175389 0.220964 0.110793
475 2 0.184265 0.216754 0.133785
353 4 0.270008 0.170808 0.104882
461 4 0.286446 0.173523 0.117811
460 2 0.307588 0.184569 0.110316
254 4 0.388328 0.224357 0.0941797
630 4 0.400589 0.210089 0.0961009
462 4 0.32873 0.195615 0.102821
253 2 0.377017 0.246089 0.0891872
770 4 0.448023 0.169173 0.102689
628 2 0.421596 0.215393 0.10858
624 4 0.438608 0.23122 0.137515
629 4 0.442604 0.220697 0.121059
338 4 0.059399 0.247899 0.137638
337 2 0.071182 0.26681 0.148982
339 4 0.0829651 0.285722 0.160326
612 4 0.233034 0.329937 0.121287
610 2 0.242198 0.307137 0.125905
611 4 0.251362 0.284336 0.130523
754 2 0.324292 0.261431 0.100871
755 4 0.300631 0.255753 0.106623
278 4 0.300994 0.254724 0.127164
277 2 0.297475 0.243568 0.149263
756 4 0.347954 0.267108 0.0951181
595 2 0.399019 0.332149 0.146029
596 4 0.391389 0.309444 0.138858
622 2 0.436559 0.251377 0.152167
619 2 0.0633903 0.389913 0.108097
620 4 0.078215 0.392276 0.128092
621 4 0.0485656 0.38755 0.088101
315 4 0.0503127 0.405452 0.0792068
455 4 0.151354 0.373272 0.0816647
647 4 0.0929643 0.394244 0.141996
537 4 0.123872 0.355636 0.117719
535 2 0.14074 0.369697 0.129675
536 4 0.157607 0.383757 0.141632
646 2 0.102591 0.391105 0.164858
607 2 0.242071 0.356592 0.0913207
609 4 0.244423 0.342268 0.111679
386 4 0.324723 0.349995 0.0958402
740 4 0.342662 0.342587 0.0892019
387 4 0.344992 0.380656 0.129748
385 2 0.334857 0.365326 0.112794
302 4 0.337571 0.395244 0.144596
12 3 0.379533 0.377778 0.113018
11 1 0.380966 0.387064 0.134014
15 3 0.360054 0.392339 0.141328
672 4 0.389468 0.364641 0.099785
14 3 0.394018 0.406215 0.132871
495 4 0.40931 0.406046 0.118483
13 3 0.390727 0.371672 0.148374
301 2 0.336541 0.416446 0.15781
597 4 0.406649 0.354855 0.1532
626 4 0.183871 0.431226 0.150204
1438 2 0.244991 0.471876 0.100008
625 2 0.204844 0.437956 0.162037
637 2 0.239954 0.486618 0.171421
1439 4 0.241453 0.476739 0.124278
1559 4 0.299342 0.486885 0.0917937
493 2 0.426616 0.422676 0.111474
494 4 0.443921 0.439306 0.104465
1583 4 0.466732 0.46423 0.120205
1582 2 0.451462 0.481078 0.109805
1584 4 0.436192 0.497925 0.0994054
674 4 0.148221 0.991914 0.228497
690 4 0.150622 0.00323637 0.210972
673 2 0.125753 0.00253471 0.231242
675 4 0.103284 0.0131557 0.233987
688 2 0.171958 0.994152 0.201622
653 4 0.230709 0.0493257 0.163787
693 4 0.246958 0.050221 0.175825
1661 4 0.331673 0.00615097 0.167629
691 2 0.259626 0.0471058 0.197155
692 4 0.272295 0.0439907 0.218486
1700 4 0.331661 0.0613501 0.232017
1699 2 0.309196 0.0503813 0.231596
1701 4 0.286731 0.0394124 0.231176
23 3 0.339999 0.0783467 0.239604
21 1 0.360384 0.0701456 0.23215
25 3 0.36084 0.069988 0.209381
22 3 0.363051 0.0486629 0.23993
759 4 0.365136 0.066782 0.189337
24 3 0.377675 0.0832843 0.240323
511 2 0.0151454 0.124819 0.22021
578 4 0.0534942 0.133941 0.227558
513 4 0.0365388 0.12385 0.233115
577 2 0.0564976 0.158756 0.228173
449 4 0.134383 0.12545 0.179449
448 2 0.14082 0.101701 0.175005
236 4 0.125893 0.130874 0.162226
450 4 0.147258 0.0779525 0.170562
28 3 0.238027 0.138445 0.183013
27 3 0.239232 0.151212 0.218343
546 4 0.179077 0.122124 0.245239
580 2 0.294095 0.110748 0.189648
581 4 0.273937 0.125123 0.193137
30 3 0.260119 0.121858 0.208595
26 1 0.251695 0.141779 0.201465
582 4 0.314254 0.0963728 0.18616
29 3 0.269028 0.156197 0.195981
757 2 0.380248 0.0823739 0.17694
758 4 0.395361 0.0979657 0.164542
311 4 0.450752 0.138716 0.210891
310 2 0.451596 0.160973 0.19953
529 2 0.0191524 0.20225 0.235459
530 4 0.0426184 0.196062 0.22944
579 4 0.0595009 0.183571 0.228789
372 4 0.149593 0.23397 0.178056
362 4 0.131535 0.239312 0.170848
370 2 0.165625 0.237443 0.196926
371 4 0.181657 0.240916 0.215797
402 4 0.215705 0.221746 0.251036
279 4 0.293956 0.232412 0.171361
284 4 0.296027 0.235809 0.233997
283 2 0.299815 0.228967 0.210248
285 4 0.303604 0.222125 0.186499
312 4 0.45244 0.18323 0.188169
520 2 0.490307 0.172623 0.23628
763 2 0.437345 0.191002 0.244723
764 4 0.459999 0.180893 0.241599
521 4 0.468234 0.163425 0.243582
396 4 0.0647289 0.303774 0.218215
443 4 0.0769694 0.301461 0.23429
363 4 0.109115 0.283536 0.17735
394 2 0.0780243 0.298325 0.197753
395 4 0.0913196 0.292876 0.17729
361 2 0.120325 0.261424 0.174099
623 4 0.434509 0.271534 0.166819
527 4 0.444699 0.288409 0.170568
526 2 0.461853 0.292228 0.188354
528 4 0.479007 0.296046 0.20614
264 4 0.0218509 0.392212 0.217011
262 2 0.0242557 0.415804 0.224937
648 4 0.112217 0.387967 0.18772
300 4 0.111418 0.367915 0.190823
298 2 0.118753 0.362021 0.213989
299 4 0.126089 0.356128 0.237154
289 2 0.22299 0.4106 0.243448
345 4 0.265168 0.365788 0.237337
343 2 0.285616 0.351399 0.237513
344 4 0.306064 0.337011 0.237689
645 4 0.405069 0.372485 0.165435
643 2 0.405872 0.372735 0.190424
644 4 0.406676 0.372986 0.215413
447 4 0.403544 0.386322 0.228421
445 2 0.41324 0.408158 0.235794
263 4 0.0266605 0.439396 0.232863
638 4 0.226533 0.466426 0.17753
627 4 0.225817 0.444686 0.17387
417 4 0.190208 0.487587 0.205946
290 4 0.215954 0.424985 0.224244
416 4 0.203994 0.441044 0.217963
415 2 0.197101 0.464316 0.211955
303 4 0.335512 0.437647 0.171024
659 4 0.342034 0.456493 0.172741
658 2 0.355322 0.472212 0.186938
660 4 0.368609 0.487931 0.201134
2861 4 0.483517 0.438712 0.235879
446 4 0.422937 0.429993 0.243166
1403 4 0.0461057 0.0017539 0.285901
232 2 0.0485741 0.0448314 0.296095
234 4 0.0534874 0.0691866 0.2989
317 4 0.0472776 0.0826537 0.28571
233 4 0.0436607 0.0204763 0.29329
723 4 0.222717 0.0772059 0.263705
1406 4 0.224945 0.0154317 0.309002
698 4 0.378757 0.0505918 0.254277
249 4 0.339799 0.051322 0.32836
697 2 0.379981 0.0271165 0.262796
699 4 0.381206 0.00364113 0.271316
333 4 0.382306 0.0705919 0.254825
331 2 0.400356 0.0813652 0.268364
743 4 0.45649 0.0275568 0.28387
742 2 0.464869 0.011765 0.266389
351 4 0.466055 0.0445827 0.281543
349 2 0.448801 0.0623615 0.284921
480 4 0.485053 0.998042 0.31483
316 2 0.0400073 0.0984568 0.267749
318 4 0.032737 0.11426 0.249789
393 4 0.113041 0.136379 0.32598
399 4 0.124437 0.125757 0.340679
391 2 0.128191 0.145954 0.308545
392 4 0.14334 0.15553 0.29111
545 4 0.150988 0.136819 0.283914
721 2 0.210326 0.0980335 0.257553
722 4 0.197935 0.118861 0.2514
544 2 0.165032 0.129472 0.264576
599 4 0.207339 0.137552 0.312121
404 4 0.226015 0.136753 0.320897
598 2 0.190633 0.125579 0.32636
403 2 0.23527 0.15403 0.305372
762 4 0.404094 0.140244 0.28032
332 4 0.418406 0.0921384 0.281903
761 4 0.4521 0.126269 0.281207
350 4 0.431548 0.0801402 0.2883
760 2 0.428097 0.133256 0.280764
401 4 0.237192 0.186097 0.27875
400 2 0.226449 0.203922 0.264893
405 4 0.244526 0.171306 0.289847
765 4 0.41469 0.201111 0.247848
442 2 0.0705303 0.28883 0.254885
444 4 0.0640913 0.276198 0.27548
309 4 0.318747 0.33263 0.252421
496 2 0.319215 0.291715 0.334611
497 4 0.331315 0.296446 0.313247
541 2 0.470829 0.28514 0.31246
542 4 0.487457 0.268842 0.303346
615 4 0.452014 0.31901 0.330377
613 2 0.433806 0.334345 0.322729
543 4 0.4542 0.301438 0.321573
749 4 0.0559016 0.373267 0.271583
365 4 0.0137154 0.369388 0.310969
364 2 0.0271598 0.364436 0.290477
366 4 0.0406042 0.359485 0.269985
748 2 0.0796708 0.365515 0.271231
735 4 0.14576 0.341478 0.294092
601 2 0.0988893 0.380525 0.326061
734 4 0.115772 0.349684 0.254924
750 4 0.10344 0.357764 0.27088
733 2 0.130766 0.345581 0.274508
602 4 0.111854 0.384986 0.305152
677 4 0.156347 0.354402 0.305422
777 4 0.107584 0.405622 0.306918
676 2 0.170396 0.366175 0.322428
414 4 0.221924 0.398394 0.280981
291 4 0.230026 0.396216 0.262651
412 2 0.222883 0.410327 0.302933
307 2 0.326159 0.337913 0.275709
727 2 0.323325 0.383439 0.31442
308 4 0.333571 0.343195 0.298997
728 4 0.316677 0.406989 0.319559
729 4 0.329973 0.35989 0.309281
3 3 0.287874 0.407729 0.329443
614 4 0.415599 0.349681 0.31508
1757 4 0.120076 0.472307 0.297646
776 4 0.124552 0.452398 0.301942
775 2 0.116068 0.42901 0.30443
1756 2 0.114732 0.496487 0.294192
413 4 0.223843 0.422259 0.324885
1436 4 0.22569 0.480382 0.318279
1435 2 0.248706 0.470628 0.317715
768 4 0.219247 0.492912 0.253916
1545 4 0.211629 0.48942 0.329803
438 4 0.308643 0.457464 0.254827
437 4 0.285339 0.456166 0.299053
436 2 0.296991 0.456815 0.27694
1437 4 0.271722 0.460875 0.317151
5 3 0.282029 0.441702 0.314298
2 3 0.316862 0.430137 0.321066
434 4 0.331953 0.420208 0.308909
1 1 0.295128 0.429753 0.328591
713 4 0.411309 0.447377 0.304694
433 2 0.348985 0.434319 0.320571
712 2 0.419392 0.44518 0.281135
714 4 0.427474 0.442983 0.257576
2860 2 0.496056 0.438842 0.257511
368 4 0.0775827 0.0483656 0.413226
428 4 0.0581814 0.0342927 0.348012
427 2 0.0627281 0.0126916 0.359755
731 4 0.093992 0.0521657 0.402139
606 4 0.14604 0.056594 0.378611
730 2 0.1037 0.0706096 0.388327
604 2 0.160331 0.036085 0.378039
605 4 0.174622 0.015576 0.377466
682 2 0.240012 0.0345104 0.35473
683 4 0.225534 0.0546279 0.358027
684 4 0.254489 0.014393 0.351433
247 2 0.338242 0.0731129 0.340522
1748 4 0.443201 0.994533 0.366673
2879 4 0.479312 0.033892 0.408962
424 2 0.431175 0.052759 0.383657
426 4 0.431335 0.0771819 0.378302
425 4 0.431014 0.0283361 0.389012
2878 2 0.484406 0.0540809 0.422805
732 4 0.113407 0.0890535 0.374516
397 2 0.125276 0.103003 0.35101
398 4 0.126116 0.0802488 0.361341
600 4 0.173926 0.113606 0.340598
686 4 0.160919 0.134053 0.404077
685 2 0.167695 0.124761 0.381875
687 4 0.17447 0.115469 0.359674
410 4 0.23291 0.158061 0.3943
321 4 0.239032 0.113749 0.365131
319 2 0.252527 0.106508 0.384895
320 4 0.266022 0.0992667 0.404659
248 4 0.336685 0.0949038 0.352684
633 4 0.354034 0.104416 0.352431
632 4 0.392742 0.126766 0.374857
631 2 0.373388 0.115591 0.363644
420 4 0.391228 0.147172 0.371755
258 4 0.442506 0.0925488 0.371856
257 4 0.473756 0.13118 0.36622
256 2 0.458131 0.111865 0.369038
515 4 0.428731 0.154259 0.370204
514 2 0.438414 0.159826 0.392574
2654 4 0.999112 0.230843 0.381634
618 4 0.00856272 0.243217 0.369536
274 2 0.158772 0.240994 0.361599
275 4 0.176526 0.22341 0.360723
474 4 0.173411 0.203368 0.360694
472 2 0.196722 0.197013 0.354262
473 4 0.220034 0.190658 0.347829
708 4 0.231048 0.190343 0.365229
706 2 0.253451 0.183647 0.356373
707 4 0.275854 0.17695 0.347517
717 4 0.329799 0.230937 0.377588
377 4 0.331229 0.246716 0.391178
418 2 0.385715 0.17155 0.371071
419 4 0.380203 0.195929 0.370388
716 4 0.363345 0.194089 0.381792
715 2 0.346572 0.212513 0.37969
390 4 0.0781112 0.274038 0.346009
616 2 0.0261972 0.260244 0.374467
617 4 0.0438317 0.27727 0.379397
276 4 0.141017 0.258578 0.362474
389 4 0.12711 0.270559 0.355376
388 2 0.102611 0.272299 0.350693
487 2 0.240491 0.278538 0.402179
510 4 0.255001 0.325762 0.34131
508 2 0.255955 0.309226 0.360041
509 4 0.256908 0.29269 0.378771
376 2 0.314995 0.263492 0.382223
488 4 0.241639 0.299801 0.389072
378 4 0.298761 0.280268 0.373267
498 4 0.307116 0.286983 0.355974
267 4 0.35309 0.310775 0.354385
265 2 0.353731 0.302631 0.378016
266 4 0.354373 0.294487 0.401648
585 4 0.371875 0.283805 0.398347
270 4 0.502049 0.26852 0.382854
269 4 0.452505 0.273368 0.378106
268 2 0.477277 0.270944 0.38048
2493 4 0.00684259 0.361629 0.328465
549 4 0.0742999 0.383173 0.362166
547 2 0.0675065 0.405896 0.370084
603 4 0.0859241 0.376064 0.34697
709 2 0.144077 0.408134 0.415537
374 4 0.254592 0.345895 0.345039
678 4 0.184446 0.377949 0.339434
502 2 0.191315 0.393456 0.371818
504 4 0.197886 0.378753 0.352691
373 2 0.232931 0.358025 0.342069
375 4 0.21127 0.370155 0.339099
503 4 0.184745 0.408159 0.390944
334 2 0.354009 0.398601 0.415079
336 4 0.349517 0.403357 0.390947
2925 4 0.49193 0.359528 0.361175
681 4 0.0120667 0.514494 0.405553
2463 4 0.00549747 0.492777 0.351964
548 4 0.060713 0.428619 0.378001
407 4 0.0465686 0.439585 0.386116
406 2 0.0428982 0.463863 0.390834
408 4 0.0392278 0.488142 0.395552
710 4 0.135861 0.430202 0.40713
1543 2 0.193305 0.502028 0.341225
636 4 0.194934 0.425035 0.387974
634 2 0.190653 0.437173 0.409411
668 4 0.296689 0.428613 0.366233
4 3 0.29436 0.439171 0.349783
667 2 0.31542 0.420821 0.380847
435 4 0.366016 0.448429 0.332234
669 4 0.334152 0.413028 0.395462
593 4 0.500659 0.493391 0.347559
561 4 0.489231 0.420538 0.397155
752 4 0.4809 0.427342 0.380618
753 4 0.486435 0.442342 0.333236
751 2 0.483667 0.434842 0.356927
718 2 0.0454604 0.0498446 0.484937
719 4 0.0625595 0.0328649 0.478266
369 4 0.0710094 0.0333457 0.460469
367 2 0.074296 0.0408556 0.436848
720 4 0.0283613 0.0668242 0.491607
2430 4 0.236274 0.0662103 0.453682
2428 2 0.234427 0.0414457 0.45077
2429 4 0.232579 0.0166811 0.447858
441 4 0.248074 0.0137401 0.435296
341 4 0.225488 0.0790093 0.441832
726 4 0.295411 0.0817718 0.464725
432 4 0.315374 0.0768676 0.4638
430 2 0.327382 0.0755468 0.485692
2880 4 0.4895 0.0742697 0.436649
642 4 0.4811 0.079093 0.454602
340 2 0.212425 0.0903823 0.459865
1152 4 0.188963 0.112985 0.489982
342 4 0.199362 0.101755 0.477898
724 2 0.285271 0.087659 0.442641
725 4 0.275132 0.0935463 0.420557
467 4 0.366234 0.0997079 0.443352
466 2 0.371181 0.122781 0.435084
468 4 0.376127 0.145853 0.426816
576 4 0.41787 0.135366 0.469135
641 4 0.502937 0.116127 0.480143
640 2 0.492018 0.09761 0.467372
3158 4 0.5016 0.135755 0.477406
574 2 0.429492 0.14905 0.451732
575 4 0.441115 0.162733 0.434329
469 2 0.0689336 0.244141 0.458986
471 4 0.0780609 0.224777 0.471906
260 4 0.0842039 0.205637 0.471414
259 2 0.0991353 0.197203 0.48961
409 2 0.234839 0.17113 0.415529
650 4 0.22856 0.201954 0.440389
649 2 0.225845 0.223934 0.428785
411 4 0.236769 0.1842 0.436757
516 4 0.448098 0.165392 0.414944
470 4 0.0598064 0.263505 0.446067
2812 2 0.99954 0.325371 0.472285
695 4 0.0999495 0.321297 0.442985
694 2 0.112985 0.302749 0.453531
696 4 0.126021 0.284201 0.464078
1260 4 0.142039 0.291339 0.474801
1258 2 0.166025 0.285089 0.47809
651 4 0.22313 0.245914 0.41718
1259 4 0.19001 0.278838 0.48138
489 4 0.239342 0.257276 0.415285
583 2 0.387749 0.281758 0.417556
584 4 0.403624 0.27971 0.436765
2456 4 0.42109 0.281408 0.42499
2457 4 0.454399 0.318665 0.426772
2455 2 0.437745 0.300037 0.425881
326 4 0.0601738 0.403397 0.451508
10 3 0.140375 0.346531 0.454416
7 3 0.122088 0.376216 0.467729
327 4 0.103571 0.383106 0.465849
325 2 0.0818725 0.393252 0.458678
6 1 0.139323 0.369279 0.454164
8 3 0.135359 0.376783 0.432569
711 4 0.152293 0.386066 0.423944
9 3 0.159201 0.378213 0.462131
239 4 0.37404 0.354629 0.487028
335 4 0.358502 0.393845 0.439212
238 2 0.366149 0.36448 0.465444
240 4 0.358257 0.374331 0.443861
2508 4 0.50265 0.380599 0.436124
2712 4 0.484326 0.406838 0.498558
559 2 0.500199 0.409556 0.416758
680 4 0.0172585 0.486211 0.446465
679 2 0.0146626 0.500352 0.426009
1383 4 0.00573957 0.470366 0.444878
1381 2 0.0201959 0.459792 0.462324
1382 4 0.0346523 0.449217 0.479771
570 4 0.125757 0.44608 0.412418
384 4 0.147128 0.484735 0.482868
569 4 0.12463 0.472098 0.455108
568 2 0.125194 0.459089 0.433763
773 4 0.164138 0.480109 0.471246
382 2 0.145588 0.462537 0.494272
635 4 0.186373 0.449312 0.430847
772 2 0.1762 0.474355 0.450113
774 4 0.188261 0.468601 0.42898
1399 2 0.316853 0.466073 0.487595
1401 4 0.301422 0.44964 0.498412
588 4 0.344206 0.49738 0.469415
1400 4 0.332284 0.482506 0.476778
1126 2 0.0207404 0.055914 0.531675
1127 4 0.0210337 0.0584027 0.506797
1128 4 0.020447 0.0534253 0.556552
4509 4 0.0016496 0.0496788 0.563285
951 4 0.201029 0.0564632 0.543034
1031 4 0.196149 0.0375167 0.541861
1030 2 0.179579 0.0281335 0.558065
949 2 0.218199 0.069665 0.530541
1032 4 0.163009 0.0187504 0.574269
950 4 0.235369 0.0828669 0.518048
961 2 0.290385 0.0427786 0.546593
1180 2 0.268941 0.0787103 0.510025
963 4 0.295513 0.0602963 0.529505
1181 4 0.28941 0.0644548 0.511751
962 4 0.285257 0.0252609 0.563682
2195 4 0.290675 0.010101 0.577627
431 4 0.339389 0.074226 0.507584
841 2 0.369158 0.0472187 0.524753
843 4 0.350773 0.0632816 0.519352
842 4 0.387542 0.0311559 0.530154
1217 4 0.406073 0.0383698 0.534744
1218 4 0.432615 0.0675948 0.565438
1216 2 0.419344 0.0529823 0.550091
1033 2 0.0737456 0.16458 0.530328
1034 4 0.0854416 0.143245 0.524563
1151 4 0.17943 0.144717 0.527438
1150 2 0.184196 0.128851 0.50871
1182 4 0.248472 0.0929657 0.508298
857 4 0.301503 0.12619 0.565269
899 4 0.320808 0.13115 0.565582
856 2 0.28611 0.145893 0.565372
858 4 0.270716 0.165595 0.565476
898 2 0.34052 0.144783 0.558457
900 4 0.360231 0.158417 0.551332
1035 4 0.0620495 0.185914 0.536092
1082 4 0.0504168 0.203174 0.535378
1081 2 0.0403267 0.200292 0.558073
1083 4 0.0302365 0.197409 0.580768
939 4 0.163322 0.158615 0.526391
937 2 0.140776 0.164146 0.517101
938 4 0.118231 0.169677 0.507811
878 4 0.098716 0.251333 0.548994
877 2 0.0981439 0.245438 0.573286
261 4 0.114067 0.188769 0.507806
797 4 0.266709 0.18285 0.576748
813 4 0.334758 0.223302 0.539425
811 2 0.312696 0.23285 0.546302
812 4 0.290635 0.242398 0.553179
796 2 0.272522 0.205887 0.56896
798 4 0.278336 0.228925 0.561171
873 4 0.347478 0.219597 0.52554
871 2 0.35561 0.19722 0.533178
872 4 0.363742 0.174844 0.540817
906 4 0.481963 0.230409 0.567588
2813 4 0.00861835 0.320176 0.494996
896 4 0.205532 0.3246 0.524163
1191 4 0.225437 0.3281 0.523835
904 2 0.466747 0.25002 0.564576
905 4 0.451531 0.269631 0.561565
952 2 0.415817 0.283662 0.573768
953 4 0.43163 0.268348 0.56191
1137 4 0.160352 0.368387 0.54555
897 4 0.166669 0.349775 0.543046
1135 2 0.138567 0.380659 0.54557
1136 4 0.116782 0.392931 0.545589
895 2 0.186101 0.337188 0.533605
1189 2 0.2447 0.34404 0.523697
1239 4 0.218939 0.333669 0.582055
1190 4 0.263963 0.35998 0.523559
803 4 0.280757 0.370149 0.518884
802 2 0.303799 0.371487 0.528499
804 4 0.326841 0.372825 0.538113
928 2 0.368796 0.37796 0.554905
929 4 0.370938 0.387036 0.531705
930 4 0.366655 0.368884 0.578104
925 2 0.450736 0.38981 0.53042
927 4 0.44284 0.394671 0.507199
1001 4 0.446315 0.396929 0.564686
926 4 0.458632 0.384949 0.553641
936 4 0.00443624 0.441413 0.536802
538 2 0.0458823 0.474795 0.507307
540 4 0.0354049 0.453347 0.499864
539 4 0.0563598 0.496243 0.51475
1938 4 0.0702075 0.499271 0.500945
383 4 0.144048 0.440339 0.505677
2242 2 0.150704 0.46211 0.574992
2244 4 0.138668 0.467556 0.553763
1173 4 0.223086 0.431546 0.547738
1171 2 0.244437 0.444212 0.550717
1172 4 0.265788 0.456878 0.553696
882 4 0.283823 0.463885 0.549692
880 2 0.29361 0.483577 0.53779
1000 2 0.447814 0.41635 0.580362
1185 4 0.0214067 0.0407922 0.645732
945 4 0.0318616 0.0573951 0.647637
825 4 0.0759943 0.0202335 0.625618
1057 2 0.0728924 0.0475383 0.592705
1058 4 0.0741764 0.0264463 0.606072
1155 4 0.0758438 0.0882582 0.579997
943 2 0.048681 0.0611953 0.665744
1059 4 0.0716083 0.0686302 0.579339
1005 4 0.316895 0.0238398 0.640968
1003 2 0.327908 0.0445852 0.649543
1004 4 0.338921 0.0653306 0.658118
4467 4 0.428857 0.99197 0.595408
2283 4 0.427519 0.0096634 0.603035
2282 4 0.448169 0.0247744 0.646
2281 2 0.437844 0.0172189 0.624518
43 3 0.460921 0.0312651 0.659708
45 3 0.490677 0.0515901 0.648792
41 1 0.475661 0.048198 0.665575
808 2 0.503297 0.0729511 0.615468
1198 2 0.0146525 0.16159 0.58874
1200 4 0.00930464 0.137564 0.584346
1153 2 0.0958595 0.10198 0.586018
1154 4 0.115875 0.115703 0.592039
1221 4 0.12188 0.109461 0.610482
1219 2 0.132116 0.108509 0.633275
1220 4 0.142353 0.107556 0.656067
1283 4 0.162153 0.103164 0.65646
1212 4 0.231953 0.144111 0.638116
1210 2 0.25596 0.143344 0.645064
1211 4 0.279966 0.142577 0.652013
809 4 0.501939 0.0856302 0.59396
1199 4 0.0200003 0.185617 0.593134
879 4 0.0975719 0.239544 0.597578
1272 4 0.0840948 0.234675 0.610076
1270 2 0.101137 0.219257 0.619926
1271 4 0.11818 0.20384 0.629777
909 4 0.137223 0.196957 0.627861
907 2 0.155841 0.212833 0.633007
908 4 0.174459 0.228709 0.638153
947 4 0.174402 0.248579 0.63588
1025 4 0.399001 0.20466 0.648589
1143 4 0.388039 0.191071 0.65897
1141 2 0.36361 0.19148 0.664282
1024 2 0.417876 0.200279 0.632787
1026 4 0.436751 0.195898 0.616985
3123 4 0.453583 0.239162 0.661033
3121 2 0.475795 0.227804 0.662699
946 2 0.174596 0.273367 0.63915
948 4 0.174789 0.298155 0.64242
1237 2 0.237992 0.320454 0.591411
1238 4 0.257044 0.307238 0.600768
792 4 0.267867 0.289326 0.605174
791 4 0.315918 0.303112 0.606514
790 2 0.291892 0.296219 0.605844
1205 4 0.402443 0.313279 0.59848
954 4 0.400005 0.298976 0.585626
3113 4 0.490238 0.318546 0.667544
982 2 0.00856864 0.385114 0.60836
983 4 0.0280723 0.392264 0.622276
1041 4 0.0322769 0.409885 0.629623
1039 2 0.0550919 0.420106 0.630068
893 4 0.0789947 0.383938 0.663566
992 4 0.135762 0.403064 0.614893
991 2 0.116623 0.418329 0.619974
1204 2 0.389072 0.332255 0.58919
1206 4 0.375701 0.351231 0.5799
1040 4 0.0779068 0.430326 0.630514
993 4 0.097483 0.433595 0.625055
2170 2 0.154508 0.491036 0.648796
2243 4 0.162741 0.456664 0.59622
2171 4 0.134118 0.505478 0.647855
2172 4 0.174897 0.476595 0.649737
1161 4 0.182439 0.453113 0.598831
1160 4 0.219683 0.444299 0.631017
1159 2 0.201061 0.448706 0.614924
890 4 0.322427 0.431563 0.633735
889 2 0.323073 0.454749 0.624397
891 4 0.323719 0.477934 0.61506
1187 4 0.312531 0.487027 0.628214
1952 4 0.3424 0.48022 0.620136
1910 4 0.448846 0.45169 0.607633
1002 4 0.449313 0.435771 0.596038
1909 2 0.4349 0.471924 0.603024
1268 4 0.436478 0.487306 0.65839
1911 4 0.420953 0.492159 0.598415
3330 4 0.491212 0.413209 0.664965
944 4 0.0655005 0.0649954 0.68385
1075 2 0.0538321 0.0636163 0.725795
1076 4 0.0578007 0.0669207 0.70133
2319 4 0.0315585 0.0187584 0.724593
2317 2 0.00799604 0.0163835 0.732615
2285 4 0.0508636 0.016001 0.726467
1077 4 0.0498636 0.060312 0.750259
44 3 0.463953 0.0677803 0.6698
42 3 0.486903 0.0419896 0.684659
1282 2 0.177032 0.118628 0.669292
1284 4 0.19191 0.134092 0.682125
1227 4 0.208069 0.143945 0.689533
1225 2 0.223863 0.152778 0.706787
1226 4 0.239657 0.161611 0.724041
888 4 0.275391 0.146477 0.671712
886 2 0.283283 0.137859 0.693817
887 4 0.291175 0.129242 0.715922
830 4 0.304432 0.13544 0.730111
829 2 0.320993 0.116726 0.730948
978 4 0.299159 0.14756 0.744925
831 4 0.337554 0.0980123 0.731786
1107 4 0.0108082 0.179931 0.737964
851 4 0.00172643 0.195917 0.730591
822 4 0.140077 0.221548 0.709266
1278 4 0.15636 0.230413 0.710808
820 2 0.120006 0.236247 0.711767
1276 2 0.177032 0.225385 0.723946
1130 4 0.236993 0.175225 0.73981
1277 4 0.197703 0.220356 0.737083
1129 2 0.218146 0.190619 0.745554
916 2 0.293533 0.230073 0.730162
918 4 0.28839 0.205919 0.726249
977 4 0.304491 0.194723 0.72918
976 2 0.301825 0.171142 0.737052
1142 4 0.33918 0.191888 0.669593
1192 2 0.384643 0.223257 0.752273
1194 4 0.398786 0.213738 0.733982
1144 2 0.482616 0.171688 0.736982
1145 4 0.470567 0.185876 0.720288
1262 4 0.416084 0.220457 0.725879
1261 2 0.439506 0.211794 0.727134
1263 4 0.462927 0.203132 0.728389
1243 2 0.0194558 0.310831 0.704653
1209 4 0.0375203 0.252882 0.695047
1207 2 0.0624658 0.253315 0.696694
1244 4 0.0375164 0.32624 0.696807
821 4 0.0999346 0.250946 0.714268
1208 4 0.0874113 0.253747 0.698341
1065 4 0.208335 0.256684 0.709839
1064 4 0.222661 0.303916 0.717878
1063 2 0.215498 0.2803 0.713858
917 4 0.298676 0.254227 0.734076
1097 4 0.303362 0.267999 0.748416
1008 4 0.339157 0.252403 0.73885
806 4 0.439816 0.300477 0.745832
805 2 0.423088 0.318569 0.741588
892 2 0.0752738 0.395854 0.68523
894 4 0.0715528 0.40777 0.706894
942 4 0.123254 0.412 0.745947
940 2 0.144509 0.402478 0.736852
941 4 0.165765 0.392956 0.727757
1028 4 0.231173 0.418366 0.692892
1066 2 0.199141 0.412518 0.716301
1068 4 0.223443 0.41514 0.711035
807 4 0.406359 0.336661 0.737344
1230 4 0.365612 0.411048 0.744976
1020 4 0.403616 0.353947 0.74771
1281 4 0.0656632 0.426446 0.710357
1279 2 0.0702567 0.43836 0.731854
1983 4 0.0303804 0.480518 0.745092
2021 4 0.0509767 0.479498 0.743813
1067 4 0.174839 0.409895 0.721566
1027 2 0.252422 0.420922 0.679964
1029 4 0.273671 0.423478 0.667036
1139 4 0.291505 0.422234 0.676307
1138 2 0.309472 0.425861 0.693313
1140 4 0.32744 0.429488 0.710319
1989 4 0.3267 0.469005 0.75
1228 2 0.350367 0.430854 0.744284
1229 4 0.335122 0.45066 0.743593
1269 4 0.439827 0.493372 0.707914
3328 2 0.473652 0.430943 0.666495
3329 4 0.456092 0.448677 0.668024
1267 2 0.438152 0.490339 0.683152
1203 4 0.0612985 0.0464001 0.759086
1201 2 0.0804763 0.0340467 0.769323
1202 4 0.0996542 0.0216934 0.779559
2049 4 0.102513 0.00263615 0.785367
1148 4 0.199546 0.0516727 0.762352
1147 2 0.222585 0.0613287 0.761302
1149 4 0.245625 0.0709846 0.760252
1049 4 0.257828 0.0691945 0.776085
1257 4 0.279246 0.0197627 0.774124
1255 2 0.296898 0.0135845 0.757529
1256 4 0.314551 0.00740628 0.740934
1048 2 0.264805 0.0581783 0.79742
1050 4 0.271781 0.0471621 0.818754
819 4 0.344428 0.0799274 0.816245
846 4 0.461224 0.0321542 0.801303
1113 4 0.44836 0.0163439 0.798482
844 2 0.48077 0.047683 0.799891
845 4 0.500316 0.0632119 0.798478
862 2 0.0421113 0.0919287 0.828517
832 2 0.0365898 0.131696 0.788729
863 4 0.0319186 0.101539 0.807807
833 4 0.0214728 0.117812 0.803008
33 3 0.0666594 0.147271 0.786354
834 4 0.0517068 0.14558 0.77445
31 1 0.0795882 0.159185 0.77121
1106 4 0.0501934 0.157158 0.758722
32 3 0.0937993 0.144617 0.760488
34 3 0.0922171 0.17512 0.782391
840 4 0.205635 0.132402 0.792291
838 2 0.228183 0.122922 0.79748
839 4 0.25073 0.113441 0.802668
959 4 0.25949 0.102186 0.816421
1084 2 0.364975 0.114359 0.798804
1085 4 0.355162 0.0929499 0.807203
1086 4 0.374788 0.135769 0.790406
1299 4 0.381338 0.150277 0.779064
1297 2 0.38392 0.166774 0.797675
1146 4 0.494665 0.1575 0.753677
3270 4 0.482137 0.154362 0.768709
3268 2 0.488764 0.149646 0.792353
1105 2 0.0305008 0.168544 0.748343
1214 4 0.0347321 0.22118 0.784383
35 3 0.0661899 0.169291 0.755815
778 2 0.0727496 0.233475 0.809575
1213 2 0.0153158 0.236583 0.787687
779 4 0.049569 0.240912 0.803871
780 4 0.0959302 0.226038 0.815278
1073 4 0.112115 0.17305 0.786926
1072 2 0.133759 0.181742 0.795937
1074 4 0.155402 0.190433 0.804947
869 4 0.103961 0.228284 0.832709