ITEM: TIMESTEP
1400000
ITEM: NUMBER OF ATOMS
4590
ITEM: BOX BOUNDS pp pp pp
-9.9985700000000008e+00 9.9985700000000008e+00
-9.9985700000000008e+00 9.9985700000000008e+00
-9.9985700000000008e+00 9.9985700000000008e+00
ITEM: ATOMS id type xs ys zs
463 2 0.0618764 0.0748645 0.015743
464 4 0.059471 0.0499796 0.0161115
1668 4 0.0561401 0.0016303 0.0466463
1666 2 0.0590165 0.016023 0.0668887
591 4 0.0561072 0.0718663 0.0648446
3290 4 0.071201 0.0478501 9.33733e-05
1476 4 0.216625 0.0292402 0.0501708
1474 2 0.238766 0.0190166 0.0446546
566 4 0.186023 0.0798255 0.0845178
490 2 0.284365 0.0221687 0.011169
492 4 0.278651 0.00745118 0.0305577
986 4 0.354677 0.0447513 0.030284
985 2 0.362627 0.0321506 0.010204
745 2 0.469917 0.0755333 0.0266654
747 4 0.479798 0.061696 0.0449979
2724 4 0.476899 0.0493625 0.0604038
1826 4 0.478362 0.0288027 0.0595243
1825 2 0.485522 0.00488655 0.0609103
746 4 0.460037 0.0893706 0.00833287
465 4 0.0642818 0.0997493 0.0153745
701 4 0.0612578 0.119444 0.0178007
700 2 0.0420304 0.131202 0.0286286
702 4 0.022803 0.14296 0.0394565
589 2 0.0482822 0.0844591 0.0849785
2760 4 0.0141063 0.142797 0.0568497
567 4 0.168033 0.117888 0.0575298
565 2 0.177028 0.0988566 0.0710238
1133 4 0.216471 0.141425 0.0129099
360 4 0.226227 0.125956 0.0218408
358 2 0.246829 0.13145 0.0349015
359 4 0.26743 0.136944 0.0479621
553 2 0.0418115 0.206992 0.0220773
422 4 0.0624733 0.17766 0.0391957
555 4 0.0620169 0.192758 0.0258606
554 4 0.0216062 0.221226 0.0182941
2835 4 0.0172865 0.21032 0.00195772
423 4 0.110243 0.173733 0.0249341
421 2 0.0863579 0.175696 0.0320649
506 4 0.179194 0.234575 0.0422844
737 4 0.186914 0.227601 0.0595274
736 2 0.20078 0.20708 0.0629681
354 4 0.227018 0.169278 0.0682989
738 4 0.214645 0.18656 0.0664088
353 4 0.271233 0.19262 0.0692127
461 4 0.287154 0.199909 0.0593746
352 2 0.249125 0.180949 0.0687558
460 2 0.297084 0.208276 0.080742
323 4 0.402509 0.239674 0.0502564
1071 4 0.394835 0.240755 0.0324964
1069 2 0.388055 0.238051 0.00858192
322 2 0.427432 0.241198 0.0489634
324 4 0.452356 0.242723 0.0476703
771 4 0.463084 0.15949 0.0768559
1170 4 0.0514171 0.32559 0.0224852
1056 4 0.064661 0.310165 0.024105
2808 4 0.012119 0.307101 0.0654008
292 2 0.166257 0.316032 0.0395902
293 4 0.177212 0.29357 0.0403813
505 2 0.177318 0.257903 0.0334829
507 4 0.175442 0.281231 0.0246814
481 2 0.285297 0.290258 0.0154268
482 4 0.288354 0.272977 0.0332369
573 4 0.398146 0.279077 0.0395392
571 2 0.381319 0.28947 0.0548365
572 4 0.364491 0.299863 0.0701338
741 4 0.357462 0.2995 0.0890876
1168 2 0.0463608 0.345997 0.00895098
294 4 0.155301 0.338493 0.0387992
456 4 0.153545 0.351748 0.0540873
454 2 0.152485 0.374902 0.0634634
455 4 0.151424 0.398057 0.0728396
287 4 0.14508 0.323629 0.988921
607 2 0.238708 0.352638 0.0751319
252 4 0.264086 0.374545 0.0536832
250 2 0.275504 0.396659 0.0512753
608 4 0.246025 0.371948 0.0610323
671 4 0.414334 0.34988 0.0723208
523 2 0.331726 0.408962 0.0821126
227 4 0.41108 0.375939 0.00771731
226 2 0.413601 0.39755 0.0200368
281 4 0.424727 0.364056 0.064204
280 2 0.447889 0.357011 0.0579534
282 4 0.471051 0.349967 0.0517027
104 3 0.490126 0.346788 0.0512213
550 2 0.0139612 0.475242 0.0334155
552 4 0.0297312 0.458497 0.0432185
314 4 0.0284143 0.462586 0.0618435
244 2 0.2115 0.4739 0.993009
1440 4 0.255228 0.490542 0.0611434
245 4 0.22353 0.45248 0.997664
251 4 0.286923 0.418772 0.0488674
525 4 0.332398 0.430773 0.0943185
228 4 0.416122 0.419162 0.0323562
40 3 0.332909 0.462273 0.00037863
1667 4 0.0618929 0.0304157 0.0871312
19 3 0.0328306 0.0331719 0.129988
20 3 0.0550826 0.00347137 0.123633
1422 4 0.0197705 0.0283306 0.146609
16 1 0.0545094 0.0261519 0.125611
17 3 0.0615656 0.0356585 0.105889
2480 4 0.0145156 0.046182 0.13339
18 3 0.0686454 0.0329678 0.142703
1420 2 0.0132749 0.0104953 0.162884
652 2 0.248818 0.0599837 0.146873
654 4 0.253988 0.0616209 0.122464
484 2 0.324939 0.0187022 0.118829
486 4 0.316202 0.999607 0.132402
653 4 0.243648 0.0583465 0.171281
297 4 0.351535 0.0485332 0.100333
485 4 0.333677 0.037797 0.105255
295 2 0.362694 0.0693333 0.108579
2722 2 0.472681 0.0523843 0.0848631
2723 4 0.468463 0.0554061 0.109322
590 4 0.0404572 0.0970518 0.105112
582 4 0.326867 0.0999335 0.137845
580 2 0.312642 0.0974522 0.158257
296 4 0.373854 0.0901334 0.116825
557 4 0.388474 0.102398 0.10984
556 2 0.40245 0.100171 0.130453
558 4 0.416426 0.0979434 0.151066
339 4 0.109918 0.241254 0.147104
477 4 0.161125 0.204276 0.117362
475 2 0.168599 0.203396 0.141206
476 4 0.176073 0.202516 0.16505
277 2 0.291402 0.232364 0.133082
278 4 0.294675 0.231871 0.108298
462 4 0.307013 0.216644 0.102109
279 4 0.288129 0.232858 0.157865
255 4 0.327713 0.218635 0.0993735
254 4 0.377694 0.217825 0.100771
630 4 0.388035 0.229633 0.0880214
253 2 0.352704 0.21823 0.100072
628 2 0.410361 0.224724 0.0981513
769 2 0.462815 0.172176 0.0984004
770 4 0.462547 0.184863 0.119945
624 4 0.441142 0.234346 0.11862
629 4 0.432687 0.219815 0.108281
622 2 0.449427 0.244903 0.139717
338 4 0.0791004 0.275502 0.127659
337 2 0.094509 0.258378 0.137382
611 4 0.234767 0.32333 0.151604
610 2 0.231362 0.333703 0.12911
612 4 0.227958 0.344076 0.106616
755 4 0.305052 0.247117 0.101819
754 2 0.309226 0.270457 0.0938827
756 4 0.3134 0.293798 0.0859468
739 2 0.35528 0.321681 0.100421
596 4 0.468476 0.322535 0.140665
623 4 0.457712 0.255459 0.160814
619 2 0.0517417 0.400165 0.120984
620 4 0.0640012 0.379705 0.128486
647 4 0.0764265 0.378763 0.144693
646 2 0.0951564 0.390149 0.156723
535 2 0.15313 0.354934 0.146683
537 4 0.135959 0.345803 0.162397
609 4 0.231391 0.333329 0.0892315
536 4 0.170301 0.364066 0.130968
524 4 0.331055 0.38715 0.0699066
387 4 0.33525 0.395193 0.138994
302 4 0.345126 0.405703 0.152364
740 4 0.353098 0.343861 0.111754
385 2 0.346239 0.373249 0.134211
386 4 0.357228 0.351305 0.129429
12 3 0.400694 0.363015 0.127949
11 1 0.401053 0.373614 0.148362
15 3 0.381673 0.369167 0.159465
672 4 0.395371 0.374499 0.1115
670 2 0.404852 0.36219 0.0919104
14 3 0.403136 0.396465 0.144913
495 4 0.406939 0.408274 0.128
595 2 0.450013 0.335298 0.151684
597 4 0.43155 0.348061 0.162703
13 3 0.419154 0.365763 0.160574
621 4 0.0394823 0.420624 0.113482
315 4 0.0280322 0.432005 0.101408
313 2 0.0282232 0.447295 0.0816258
1789 2 0.0468056 0.503177 0.110603
1791 4 0.0331304 0.498853 0.131084
1790 4 0.0604807 0.507502 0.0901218
626 4 0.168649 0.453005 0.117484
625 2 0.187118 0.445858 0.132748
627 4 0.205587 0.43871 0.148012
638 4 0.222092 0.448578 0.136997
637 2 0.237402 0.466581 0.145164
1438 2 0.254514 0.494342 0.0858461
1439 4 0.253801 0.498142 0.110549
639 4 0.252713 0.484583 0.15333
1559 4 0.340601 0.481467 0.0834412
301 2 0.337748 0.428606 0.159162
494 4 0.445707 0.437749 0.116644
493 2 0.426323 0.423011 0.122322
450 4 0.121527 0.0644118 0.175468
691 2 0.245589 0.0298844 0.200514
692 4 0.256142 0.0143709 0.217041
693 4 0.235035 0.0453978 0.183988
1700 4 0.326904 0.0672954 0.221737
1699 2 0.309418 0.0495572 0.219554
1701 4 0.291932 0.031819 0.217371
21 1 0.361267 0.0717243 0.23074
25 3 0.362934 0.0628911 0.209815
759 4 0.366214 0.0693041 0.190302
23 3 0.339443 0.0698697 0.2384
22 3 0.375152 0.0601604 0.244974
511 2 0.015158 0.154427 0.188967
578 4 0.0587366 0.159737 0.191576
449 4 0.131155 0.113338 0.179237
448 2 0.126341 0.0888751 0.177353
236 4 0.142875 0.124838 0.187391
235 2 0.130769 0.146709 0.186865
722 4 0.209991 0.112388 0.249764
581 4 0.298416 0.0949709 0.178669
28 3 0.267588 0.134766 0.196766
30 3 0.297609 0.112687 0.191389
26 1 0.287713 0.127409 0.205671
29 3 0.301786 0.145471 0.209428
27 3 0.283578 0.116907 0.225715
758 4 0.371803 0.114023 0.168629
757 2 0.369009 0.0916635 0.179466
24 3 0.367695 0.0940177 0.230458
312 4 0.408056 0.155473 0.195802
310 2 0.432779 0.152044 0.197297
311 4 0.457501 0.148615 0.198793
513 4 0.0394061 0.159349 0.185365
577 2 0.0733915 0.166992 0.210491
529 2 0.0113784 0.208504 0.245375
530 4 0.0278726 0.221771 0.258683
237 4 0.118663 0.16858 0.186339
579 4 0.0880463 0.174247 0.229406
283 2 0.273631 0.238207 0.186468
285 4 0.270303 0.22602 0.16489
522 4 0.496991 0.195497 0.239624
520 2 0.474092 0.190666 0.248427
396 4 0.071424 0.271786 0.219344
443 4 0.0693122 0.267049 0.238471
394 2 0.0838641 0.266887 0.198215
395 4 0.0963042 0.261988 0.177087
363 4 0.114874 0.257451 0.171974
361 2 0.136295 0.261951 0.184061
362 4 0.157715 0.266451 0.196148
372 4 0.15588 0.25093 0.20744
370 2 0.169195 0.25344 0.228454
284 4 0.276958 0.250393 0.208045
343 2 0.291011 0.312304 0.232829
345 4 0.291359 0.313991 0.207885
527 4 0.458015 0.252121 0.180327
526 2 0.459048 0.275218 0.189846
528 4 0.460081 0.298316 0.199365
264 4 0.0288673 0.412084 0.184449
748 2 0.0787906 0.363829 0.249819
648 4 0.113886 0.401535 0.168754
300 4 0.129186 0.409788 0.180154
298 2 0.127914 0.396804 0.201484
299 4 0.126641 0.38382 0.222814
734 4 0.110122 0.367678 0.256045
750 4 0.100906 0.363981 0.238154
643 2 0.443609 0.376127 0.198383
644 4 0.451452 0.386379 0.219797
645 4 0.435766 0.365876 0.176968
447 4 0.438456 0.401186 0.224871
263 4 0.0614884 0.435711 0.214086
262 2 0.0451779 0.423898 0.199268
417 4 0.156888 0.474268 0.183846
1430 4 0.167051 0.490509 0.179355
290 4 0.212253 0.451324 0.208237
416 4 0.193491 0.445825 0.202605
415 2 0.17519 0.460047 0.193226
289 2 0.217275 0.442151 0.230949
768 4 0.204081 0.494549 0.197935
659 4 0.325233 0.464514 0.180555
303 4 0.33037 0.451508 0.165961
658 2 0.334692 0.47719 0.19992
660 4 0.344151 0.489866 0.219285
712 2 0.404499 0.468673 0.254052
231 4 0.33226 0.505736 0.220563
445 2 0.429998 0.422039 0.235771
446 4 0.421539 0.442891 0.246671
714 4 0.42549 0.456761 0.260582
232 2 0.0368222 0.0419331 0.300075
234 4 0.0419954 0.0663156 0.298097
317 4 0.0263727 0.0774715 0.29809
233 4 0.031649 0.0175506 0.302052
673 2 0.139256 0.00871128 0.253792
675 4 0.134053 0.023197 0.273496
723 4 0.226999 0.0700301 0.27019
249 4 0.317827 0.0685891 0.343619
697 2 0.368269 0.025383 0.274141
699 4 0.37195 0.00472027 0.287731
698 4 0.364588 0.0460456 0.260552
333 4 0.379433 0.0595432 0.267915
331 2 0.402462 0.0691631 0.266391
743 4 0.467524 0.0364941 0.27064
742 2 0.471165 0.0137921 0.260814
351 4 0.47483 0.0511142 0.282713
349 2 0.456864 0.068357 0.280458
316 2 0.0405883 0.0980351 0.298575
318 4 0.0548039 0.118599 0.29906
393 4 0.147562 0.156998 0.322399
391 2 0.158437 0.156843 0.299884
546 4 0.221582 0.129006 0.254134
545 4 0.189096 0.1587 0.277875
721 2 0.218495 0.0912092 0.259977
544 2 0.205339 0.143853 0.266004
599 4 0.216373 0.12625 0.306929
404 4 0.230131 0.14227 0.306595
598 2 0.201977 0.126074 0.327371
403 2 0.240172 0.165167 0.306802
762 4 0.397215 0.120501 0.30163
760 2 0.417714 0.13151 0.292477
332 4 0.42549 0.0787831 0.264868
350 4 0.438898 0.0855998 0.278202
761 4 0.438213 0.142519 0.283323
257 4 0.473261 0.11017 0.334254
392 4 0.169312 0.156688 0.27737
401 4 0.244682 0.202013 0.294732
400 2 0.225607 0.217367 0.289677
402 4 0.206531 0.232721 0.284621
405 4 0.250213 0.188065 0.307009
765 4 0.396016 0.201381 0.290418
763 2 0.414296 0.192388 0.275922
521 4 0.451194 0.185835 0.257231
764 4 0.432575 0.183394 0.261425
442 2 0.0738757 0.286443 0.253578
444 4 0.0784392 0.305836 0.268686
371 4 0.182511 0.25595 0.249468
344 4 0.290663 0.310617 0.257773
309 4 0.288484 0.321994 0.273258
307 2 0.304427 0.335161 0.287315
615 4 0.40931 0.320089 0.31656
541 2 0.442285 0.296065 0.309014
542 4 0.463022 0.287006 0.298381
543 4 0.421547 0.305123 0.319647
749 4 0.0566756 0.363677 0.261485
365 4 0.0177813 0.380556 0.316306
364 2 0.0329296 0.374635 0.297316
366 4 0.048078 0.368713 0.278325
549 4 0.035427 0.392801 0.327618
733 2 0.130796 0.356256 0.264247
735 4 0.151471 0.344833 0.272449
676 2 0.161892 0.357129 0.311449
601 2 0.101752 0.387069 0.318762
603 4 0.102781 0.362194 0.316445
677 4 0.161953 0.343867 0.290253
308 4 0.320369 0.348329 0.301373
729 4 0.315875 0.358269 0.318313
727 2 0.31711 0.383234 0.318953
728 4 0.318345 0.408198 0.319594
434 4 0.334612 0.420738 0.315064
614 4 0.410073 0.370061 0.318256
613 2 0.409692 0.345075 0.317408
2538 4 0.508666 0.354014 0.276847
602 4 0.100723 0.411943 0.321079
777 4 0.100152 0.420495 0.301365
1757 4 0.0967744 0.47883 0.273163
1756 2 0.0968369 0.498717 0.288319
776 4 0.100375 0.459631 0.270235
775 2 0.100264 0.440063 0.2858
291 4 0.222297 0.432977 0.25366
1545 4 0.209816 0.471973 0.324601
414 4 0.209405 0.442763 0.267071
413 4 0.189137 0.479972 0.293631
412 2 0.199271 0.461367 0.280351
1543 2 0.193473 0.488944 0.332972
1436 4 0.227748 0.481023 0.329508
1435 2 0.252309 0.477405 0.32653
438 4 0.305308 0.484816 0.268082
437 4 0.274545 0.469655 0.304476
436 2 0.289926 0.477236 0.286279
1437 4 0.276869 0.473787 0.323551
5 3 0.291024 0.458502 0.326151
2 3 0.312868 0.430316 0.315139
713 4 0.383508 0.480585 0.247521
433 2 0.356369 0.432017 0.320021
435 4 0.378127 0.443296 0.324978
2861 4 0.498246 0.464041 0.265475
2860 2 0.503332 0.446651 0.282706
2585 4 0.0022647 0.0704502 0.375323
2584 2 0.0166532 0.0774013 0.394554
427 2 0.088789 0.015171 0.374205
428 4 0.0938374 0.039586 0.376102
606 4 0.12916 0.0434564 0.380281
731 4 0.110169 0.0453314 0.385868
730 2 0.108476 0.0679274 0.375298
604 2 0.141262 0.0263341 0.36666
605 4 0.153364 0.00921192 0.353038
368 4 0.111937 0.0388682 0.407378
682 2 0.233521 0.0573782 0.386672
684 4 0.219576 0.0407843 0.374207
683 4 0.247465 0.0739722 0.399137
439 2 0.266547 0.000132494 0.40337
425 4 0.407663 0.030911 0.368261
424 2 0.425807 0.0465023 0.360989
1749 4 0.491334 0.996154 0.34333
480 4 0.504099 0.0121535 0.348127
426 4 0.443951 0.0620936 0.353717
258 4 0.441028 0.0720744 0.337483
2878 2 0.490386 0.0664482 0.412769
2586 4 0.0310418 0.0843525 0.413784
399 4 0.14319 0.143039 0.337154
397 2 0.132638 0.123032 0.347811
732 4 0.106783 0.0905234 0.364728
398 4 0.122087 0.103025 0.358468
686 4 0.17614 0.169377 0.385145
600 4 0.18758 0.125898 0.347814
685 2 0.178052 0.146273 0.375778
687 4 0.179965 0.123169 0.366411
247 2 0.327888 0.087171 0.356985
321 4 0.254261 0.118514 0.38009
319 2 0.253289 0.108399 0.402936
248 4 0.33795 0.105753 0.370351
633 4 0.348822 0.105649 0.386121
632 4 0.382581 0.137873 0.368158
631 2 0.365701 0.121761 0.37714
420 4 0.393508 0.149435 0.380129
256 2 0.457145 0.0911224 0.335868
274 2 0.152905 0.234768 0.359571
276 4 0.136509 0.251127 0.368991
275 4 0.1693 0.218409 0.350151
474 4 0.181015 0.219822 0.334918
472 2 0.202077 0.211965 0.345865
473 4 0.223139 0.204107 0.356813
708 4 0.242063 0.210012 0.363679
706 2 0.264393 0.203343 0.372738
707 4 0.286724 0.196674 0.381797
419 4 0.39148 0.19789 0.367931
716 4 0.382564 0.211098 0.357517
715 2 0.36313 0.22603 0.362468
717 4 0.343695 0.240962 0.367419
418 2 0.392494 0.173662 0.37403
2654 4 0.00779293 0.26599 0.371525
617 4 0.0700327 0.250185 0.378535
618 4 0.0238417 0.268789 0.383117
616 2 0.0469372 0.259487 0.380826
390 4 0.0789324 0.280398 0.348948
388 2 0.0991853 0.266582 0.35386
389 4 0.119438 0.252767 0.358771
374 4 0.237462 0.332316 0.356745
510 4 0.246686 0.318347 0.367249
508 2 0.270447 0.310641 0.368341
509 4 0.294209 0.302935 0.369434
488 4 0.2953 0.284531 0.416199
498 4 0.308771 0.30727 0.355888
378 4 0.295453 0.282842 0.365397
496 2 0.318208 0.326432 0.34289
376 2 0.315633 0.269245 0.371147
377 4 0.335813 0.255648 0.376896
267 4 0.346677 0.297305 0.407586
270 4 0.492413 0.250427 0.398416
269 4 0.480126 0.260996 0.351108
268 2 0.48627 0.255711 0.374762
547 2 0.0300327 0.406569 0.34778
548 4 0.0246384 0.420336 0.367943
678 4 0.16183 0.370391 0.332646
502 2 0.213328 0.404535 0.381862
504 4 0.21408 0.395915 0.358403
373 2 0.229048 0.355458 0.361083
375 4 0.220634 0.3786 0.365421
503 4 0.212576 0.413155 0.405321
497 4 0.327645 0.345594 0.329893
561 4 0.466658 0.404464 0.409983
752 4 0.466949 0.413247 0.39151
408 4 0.0610683 0.452968 0.416664
407 4 0.0385641 0.425405 0.381528
406 2 0.0498162 0.439187 0.399096
636 4 0.205979 0.428954 0.414288
3 3 0.280527 0.422964 0.332823
1 1 0.298447 0.437645 0.331493
668 4 0.323249 0.430905 0.365513
4 3 0.309744 0.43821 0.351753
669 4 0.351497 0.41624 0.404084
667 2 0.337373 0.423573 0.384798
336 4 0.365023 0.425065 0.41599
594 4 0.451202 0.475845 0.396533
753 4 0.487636 0.428456 0.348597
593 4 0.46105 0.470129 0.347839
751 2 0.477293 0.420852 0.370054
592 2 0.456126 0.472987 0.372186
718 2 0.0642269 0.0325747 0.48024
719 4 0.0761963 0.0263863 0.459178
367 2 0.0936879 0.0360299 0.424233
369 4 0.0754389 0.0331916 0.441088
2430 4 0.235637 0.0408931 0.468187
2428 2 0.24605 0.0298145 0.448337
340 2 0.20734 0.064273 0.485221
341 4 0.22224 0.0442906 0.483254
342 4 0.19244 0.0842553 0.487189
2429 4 0.256464 0.0187358 0.428488
441 4 0.274144 0.0170198 0.420171
726 4 0.312283 0.09177 0.454137
2880 4 0.47169 0.0692179 0.429138
642 4 0.478305 0.0687901 0.448265
1152 4 0.179688 0.093997 0.4987
410 4 0.267622 0.151939 0.45633
432 4 0.321417 0.100807 0.467782
467 4 0.321063 0.133717 0.448417
724 2 0.28991 0.0894323 0.443219
725 4 0.267538 0.0870945 0.432301
320 4 0.252317 0.0982843 0.425781
430 2 0.322772 0.0870821 0.488638
466 2 0.342221 0.122179 0.441757
468 4 0.36338 0.11064 0.435097
641 4 0.484752 0.107816 0.478861
640 2 0.481529 0.088303 0.463563
3158 4 0.491446 0.12736 0.481712
3157 2 0.50312 0.149458 0.482459
469 2 0.0473094 0.223465 0.454839
470 4 0.0228089 0.22672 0.458622
471 4 0.0718099 0.220211 0.451056
937 2 0.145203 0.166798 0.50011
260 4 0.0865956 0.210084 0.459146
261 4 0.130956 0.205957 0.481858
259 2 0.108776 0.208021 0.470502
938 4 0.134232 0.186644 0.489576
651 4 0.244776 0.245666 0.444225
411 4 0.239066 0.18954 0.439856
409 2 0.253344 0.17074 0.448093
650 4 0.247763 0.199306 0.425717
649 2 0.24627 0.222486 0.434971
489 4 0.26222 0.25558 0.440039
576 4 0.403224 0.16687 0.489512
583 2 0.41043 0.256426 0.43309
585 4 0.38743 0.246793 0.431256
453 4 0.496459 0.16847 0.42348
516 4 0.436653 0.188867 0.434243
515 4 0.479502 0.163167 0.432203
574 2 0.416404 0.172378 0.46899
514 2 0.458078 0.176017 0.433223
575 4 0.429584 0.177886 0.448469
347 4 0.00141902 0.288917 0.424494
2814 4 0.0361628 0.330562 0.457184
348 4 0.0210798 0.330702 0.443681
346 2 0.0112494 0.309809 0.434088
695 4 0.11372 0.280451 0.452701
694 2 0.127732 0.276069 0.472941
696 4 0.141744 0.271687 0.493181
487 2 0.27876 0.270055 0.428119
265 2 0.361731 0.279245 0.416094
266 4 0.376785 0.261185 0.424601
584 4 0.433431 0.266059 0.434924
2457 4 0.48245 0.300707 0.448239
2455 2 0.462276 0.286246 0.45125
2456 4 0.442103 0.271784 0.454261
2813 4 0.0131684 0.359777 0.490627
2812 2 0.0246656 0.34517 0.473905
326 4 0.0835389 0.406403 0.437122
709 2 0.150443 0.40165 0.425448
10 3 0.146728 0.34511 0.476274
7 3 0.133836 0.380067 0.474116
327 4 0.11771 0.380175 0.462521
325 2 0.100624 0.393289 0.449821
6 1 0.151514 0.366208 0.46916
8 3 0.154871 0.366251 0.446201
711 4 0.156889 0.378478 0.432278
9 3 0.170481 0.374091 0.479954
804 4 0.296018 0.377542 0.496134
334 2 0.365522 0.404162 0.429701
335 4 0.366021 0.383258 0.443412
238 2 0.381376 0.348986 0.450578
240 4 0.37797 0.369077 0.436089
239 4 0.384781 0.328895 0.465067
559 2 0.483263 0.402847 0.428606
560 4 0.499869 0.401231 0.44723
1383 4 0.00375676 0.455791 0.475717
1381 2 0.0120489 0.447767 0.497898
679 2 0.0207553 0.482242 0.451557
680 4 0.0197416 0.464991 0.469628
681 4 0.021769 0.499494 0.433487
710 4 0.143996 0.424823 0.418617
384 4 0.122272 0.442679 0.48381
568 2 0.135979 0.450383 0.449244
569 4 0.127312 0.45817 0.471367
570 4 0.144646 0.442597 0.427121
382 2 0.114309 0.423008 0.497033
634 2 0.211966 0.449631 0.427008
635 4 0.217953 0.470308 0.439727
774 4 0.203819 0.467341 0.454137
772 2 0.197891 0.4611 0.477613
1401 4 0.330103 0.477082 0.485206
1400 4 0.363455 0.478312 0.447966
1399 2 0.346779 0.477697 0.466586
588 4 0.376268 0.492638 0.447751
1126 2 0.0154358 0.0517418 0.518028
1127 4 0.0326062 0.0408787 0.503456
720 4 0.0522576 0.0387631 0.501302
1128 4 0.998265 0.0626049 0.5326
4509 4 0.993889 0.0555685 0.5503
1155 4 0.120766 0.0862676 0.582219
951 4 0.20732 0.0533288 0.565856
1031 4 0.221079 0.0424738 0.575014
1030 2 0.245285 0.0450434 0.569301
949 2 0.192125 0.0671942 0.551642
1182 4 0.246785 0.0683891 0.518882
961 2 0.304799 0.013268 0.531432
963 4 0.305278 0.0300498 0.512903
1032 4 0.269491 0.047613 0.563588
1181 4 0.288198 0.0421252 0.50909
2194 2 0.292285 0.00638209 0.588477
1180 2 0.267492 0.0552571 0.513986
431 4 0.324128 0.0733573 0.509494
841 2 0.359955 0.0617336 0.529589
843 4 0.338915 0.0738857 0.523688
842 4 0.380995 0.0495816 0.535491
1217 4 0.399732 0.057058 0.535057
4466 4 0.462864 0.00980095 0.564403
1062 4 0.477848 0.997961 0.57159
1218 4 0.442936 0.0769476 0.519613
1216 2 0.421334 0.0670028 0.527335
4465 2 0.450894 0.0295239 0.574041
4467 4 0.438924 0.0492468 0.58368
1035 4 0.0563994 0.151316 0.520573
1151 4 0.172037 0.138331 0.520532
1153 2 0.141416 0.100299 0.583585
939 4 0.156174 0.146952 0.510643
950 4 0.17693 0.0810596 0.537428
1150 2 0.175863 0.116164 0.509616
857 4 0.286389 0.13557 0.550833
899 4 0.305316 0.142324 0.551956
898 2 0.325452 0.156584 0.556004
856 2 0.269482 0.1526 0.557856
1033 2 0.0729563 0.167422 0.511
1199 4 0.0205665 0.184024 0.560374
877 2 0.069849 0.23361 0.569621
878 4 0.0611423 0.233189 0.546187
1034 4 0.0895132 0.183529 0.501428
858 4 0.252576 0.169631 0.564878
798 4 0.276239 0.231166 0.576327
796 2 0.269217 0.208837 0.567536
797 4 0.262194 0.186509 0.558745
813 4 0.318598 0.231794 0.535526
873 4 0.33827 0.237181 0.538103
900 4 0.345587 0.170844 0.560051
871 2 0.341191 0.214377 0.547933
872 4 0.344113 0.191573 0.557763
904 2 0.487491 0.238271 0.57083
906 4 0.497171 0.215496 0.567255
1258 2 0.157664 0.265612 0.518474
1260 4 0.13487 0.261591 0.509016
1259 4 0.180457 0.269634 0.527932
812 4 0.283329 0.267078 0.53208
811 2 0.300964 0.249436 0.533803
952 2 0.443943 0.285603 0.571566
954 4 0.42425 0.298066 0.562509
1137 4 0.149691 0.366832 0.566978
897 4 0.155303 0.347623 0.570856
383 4 0.106347 0.403337 0.510256
1135 2 0.130131 0.363412 0.582173
895 2 0.177667 0.345135 0.559955
1189 2 0.23187 0.355737 0.537288
896 4 0.200031 0.342646 0.549054
1191 4 0.207212 0.354908 0.533225
1190 4 0.256527 0.356567 0.54135
803 4 0.27532 0.354513 0.535402
802 2 0.285669 0.366027 0.515768
928 2 0.385083 0.370567 0.549585
929 4 0.380468 0.389248 0.533619
930 4 0.389699 0.351886 0.565551
925 2 0.488601 0.388566 0.546161
926 4 0.494395 0.411659 0.553798
927 4 0.482807 0.365473 0.538523
1001 4 0.478169 0.424865 0.557074
538 2 0.0490917 0.472207 0.531015
540 4 0.0330909 0.453584 0.52629
539 4 0.0650924 0.490831 0.53574
936 4 0.00590208 0.448617 0.567937
1382 4 0.020341 0.439742 0.52008
773 4 0.191964 0.454859 0.501088
1171 2 0.257289 0.434956 0.572362
1172 4 0.274645 0.448873 0.560948
882 4 0.283284 0.450167 0.541927
880 2 0.285784 0.468165 0.524751
881 4 0.288285 0.486162 0.507575
890 4 0.319882 0.442747 0.575225
1000 2 0.474055 0.444264 0.572304
1002 4 0.469942 0.463663 0.587534
1185 4 0.0211196 0.0402702 0.642698
945 4 0.0362116 0.0308279 0.651807
1183 2 0.997419 0.0460306 0.637197
943 2 0.060259 0.0334535 0.645482
1059 4 0.110502 0.0711427 0.572016
1057 2 0.100669 0.0509894 0.583077
1058 4 0.0908361 0.030836 0.594137
825 4 0.101485 0.0159023 0.586861
944 4 0.0843065 0.036079 0.639157
2196 4 0.293498 0.0115946 0.612901
1004 4 0.333579 0.048951 0.629563
1003 2 0.348339 0.0531606 0.649301
2283 4 0.432589 0.0461623 0.60214
2282 4 0.442011 0.0356326 0.65011
2281 2 0.4373 0.0408975 0.626125
43 3 0.462529 0.0325465 0.647881
45 3 0.499225 0.0408728 0.646555
41 1 0.479867 0.0440827 0.658114
44 3 0.474859 0.0667205 0.65904
1082 4 0.0827904 0.174451 0.598321
1154 4 0.162066 0.11433 0.584952
1221 4 0.177732 0.116717 0.598686
1219 2 0.178216 0.114665 0.6236
1220 4 0.178701 0.112613 0.648515
1212 4 0.216636 0.13975 0.648864
1210 2 0.238708 0.128004 0.648898
1211 4 0.260781 0.116258 0.648931
888 4 0.279897 0.121605 0.652353
3426 4 0.491224 0.152989 0.647394
1026 4 0.424801 0.163356 0.645431
1081 2 0.0588702 0.17049 0.60443
1083 4 0.0349501 0.16653 0.610538
879 4 0.0785556 0.234031 0.593056
1272 4 0.0747175 0.218737 0.605026
1270 2 0.095468 0.213322 0.617881
1271 4 0.116219 0.207907 0.630737
909 4 0.134381 0.216192 0.635925
907 2 0.158881 0.220358 0.633177
908 4 0.183382 0.224524 0.630428
947 4 0.192581 0.243315 0.635231
946 2 0.211303 0.253179 0.621913
1025 4 0.389569 0.198844 0.645318
1024 2 0.407185 0.1811 0.645374
3121 2 0.48449 0.245779 0.649716
1245 4 0.0111968 0.293602 0.673925
948 4 0.230024 0.263043 0.608594
791 4 0.239412 0.289889 0.657061
790 2 0.249026 0.293531 0.634268
1238 4 0.246985 0.30677 0.598546
1237 2 0.253199 0.33057 0.594062
792 4 0.25864 0.297174 0.611476
1204 2 0.399387 0.325428 0.577709
953 4 0.463636 0.27314 0.580624
905 4 0.47781 0.261046 0.574404
3123 4 0.473026 0.253737 0.628969
1205 4 0.419336 0.310356 0.577933
983 4 0.00719364 0.392603 0.641968
1039 2 0.0486753 0.405309 0.639572
1041 4 0.0253515 0.397409 0.635241
1040 4 0.0719992 0.41321 0.643903
1136 4 0.110571 0.359993 0.597369
993 4 0.0907512 0.407644 0.638013
1239 4 0.259414 0.35437 0.589578
1206 4 0.379439 0.340501 0.577484
2129 4 0.00195065 0.481082 0.648524
991 2 0.106794 0.426121 0.643154
992 4 0.122836 0.444597 0.648296
1173 4 0.239934 0.421039 0.583775
1160 4 0.233434 0.450153 0.60403
1159 2 0.212841 0.46433 0.604334
2243 4 0.182315 0.495375 0.601279
1161 4 0.192247 0.478507 0.604637
891 4 0.307358 0.482737 0.602514
889 2 0.31362 0.462742 0.588869
1910 4 0.469092 0.47128 0.606982
1909 2 0.45345 0.489368 0.599679
2319 4 0.0289808 0.00224519 0.708123
1075 2 0.0527767 0.0353761 0.725613
1076 4 0.0418889 0.0193402 0.709818
1077 4 0.0636645 0.051412 0.741408
1256 4 0.294148 0.0554051 0.737571
1005 4 0.363099 0.0573702 0.669039
1163 4 0.500104 0.0399362 0.686957
42 3 0.482441 0.0361533 0.679554
1283 4 0.179104 0.108352 0.669411
1282 2 0.19809 0.117237 0.683039
1284 4 0.217077 0.126123 0.696667
1227 4 0.233903 0.134877 0.704834
1225 2 0.229131 0.14948 0.724561
1226 4 0.224358 0.164083 0.744288
886 2 0.289966 0.121536 0.675239
887 4 0.300035 0.121467 0.698126
830 4 0.313975 0.136855 0.698573
829 2 0.321714 0.149443 0.718743
1146 4 0.483007 0.144841 0.744051
1144 2 0.479417 0.16112 0.725416
1209 4 0.0692036 0.236857 0.673495
1105 2 0.0511465 0.202624 0.731335
1107 4 0.0336204 0.208195 0.714394
851 4 0.0199959 0.216291 0.727057
850 2 0.00340405 0.228869 0.713212
1106 4 0.0686726 0.197054 0.748275
822 4 0.157588 0.226485 0.717835
1278 4 0.153337 0.207295 0.713919
820 2 0.143917 0.246828 0.722781
1276 2 0.159419 0.192563 0.733184
1065 4 0.223056 0.240082 0.697531
1277 4 0.165501 0.177831 0.752449
916 2 0.289851 0.233402 0.739579
918 4 0.305205 0.216009 0.748901
831 4 0.329453 0.162032 0.738913
1141 2 0.359414 0.20571 0.661356
1143 4 0.384133 0.209453 0.660947
1142 4 0.334696 0.201968 0.661766
1192 2 0.391954 0.236983 0.705835
1194 4 0.416758 0.239442 0.703869
1193 4 0.367149 0.234524 0.7078
1145 4 0.475826 0.177399 0.70678
1262 4 0.431618 0.228221 0.696051
1261 2 0.445065 0.208333 0.703039
1263 4 0.458513 0.188446 0.710027
3122 4 0.495953 0.237821 0.670463
1243 2 0.0340752 0.303029 0.670335
1244 4 0.0569535 0.312456 0.666745
1207 2 0.0598693 0.252056 0.691017
1179 4 0.0047841 0.300295 0.692904
1208 4 0.050535 0.267256 0.70854
821 4 0.130246 0.26717 0.727727
1064 4 0.21854 0.289804 0.694694
1063 2 0.220798 0.264943 0.696112
917 4 0.274496 0.250795 0.730258
1097 4 0.262234 0.261026 0.742461
806 4 0.406976 0.286403 0.728341
807 4 0.437666 0.325847 0.730071
805 2 0.422321 0.306125 0.729206
894 4 0.0699801 0.379646 0.699281
892 2 0.0672188 0.403385 0.69193
1066 2 0.194389 0.420523 0.701753
1068 4 0.215978 0.409673 0.708186
1028 4 0.224607 0.418015 0.691808
1027 2 0.249495 0.418278 0.689429
1140 4 0.322636 0.397173 0.71788
1138 2 0.307296 0.40465 0.699605
1139 4 0.291956 0.412126 0.68133
1018 2 0.420898 0.357951 0.747667
1020 4 0.439348 0.344818 0.73707
3330 4 0.477163 0.415874 0.684482
1281 4 0.0518327 0.448318 0.715592
1279 2 0.0556912 0.436137 0.737084
2021 4 0.0619334 0.506041 0.731018
893 4 0.0644574 0.427124 0.68458
1983 4 0.0526795 0.492417 0.745135
2170 2 0.118529 0.495901 0.67115
2172 4 0.126902 0.472705 0.675275
941 4 0.158988 0.428292 0.709544
940 2 0.139418 0.424159 0.724548
942 4 0.119848 0.420027 0.739551
815 4 0.104982 0.406599 0.743863
1067 4 0.1728 0.431373 0.695321
1029 4 0.274384 0.418541 0.68705
1989 4 0.348147 0.479878 0.738595
3328 2 0.460536 0.424433 0.701079
3329 4 0.443909 0.432993 0.717676
1100 4 0.49794 0.501121 0.751072
1203 4 0.0833304 0.0526426 0.74519
1201 2 0.0931434 0.0438093 0.766423
1202 4 0.102956 0.0349761 0.787657
2049 4 0.112151 0.0194212 0.798807
1148 4 0.210986 0.0160056 0.749051
1147 2 0.216407 0.033412 0.766163
1149 4 0.221827 0.0508185 0.783275
1049 4 0.232342 0.0164576 0.822312
1255 2 0.27433 0.0491791 0.751489
1257 4 0.254513 0.0429531 0.765406
1048 2 0.25237 0.0261689 0.833702
819 4 0.367874 0.0887776 0.822131
981 4 0.45285 0.00616422 0.839449
1112 4 0.425737 0.00633978 0.783012
846 4 0.467904 0.0465191 0.791123
1113 4 0.44926 0.0497417 0.790989
1111 2 0.437499 0.0280407 0.787
844 2 0.491837 0.0537392 0.791637
864 4 0.0271551 0.0880593 0.823061
862 2 0.0238534 0.100556 0.801657
832 2 0.029666 0.15254 0.7733
863 4 0.0205518 0.113053 0.780254
833 4 0.0167557 0.13138 0.770014
32 3 0.0860983 0.158158 0.751987
1130 4 0.218697 0.156148 0.761585
840 4 0.225288 0.129647 0.833371
1129 2 0.195018 0.162669 0.766269
978 4 0.301964 0.167195 0.773469
838 2 0.250284 0.1302 0.833066
839 4 0.275279 0.130753 0.832761
1084 2 0.361282 0.12415 0.80603
1085 4 0.37379 0.102751 0.809318
1086 4 0.348775 0.14555 0.802742
1299 4 0.351452 0.165124 0.796238
3270 4 0.479546 0.131343 0.757922
3268 2 0.48713 0.144815 0.777573
33 3 0.0600929 0.164625 0.778341
834 4 0.0425763 0.173699 0.776586
1214 4 0.0111119 0.243075 0.796495
35 3 0.0802549 0.193006 0.764
31 1 0.0808504 0.171116 0.770254
34 3 0.0970434 0.167982 0.786575
1073 4 0.112523 0.180597 0.791053
1072 2 0.134698 0.187612 0.800231
1074 4 0.156873 0.194627 0.809409
1131 4 0.171338 0.16919 0.770952
976 2 0.312845 0.187079 0.762914
977 4 0.323726 0.206963 0.752358
1006 2 0.337444 0.244276 0.788965
1297 2 0.37074 0.180947 0.794557
1298 4 0.390027 0.196769 0.792877
1042 2 0.391791 0.234628 0.780747