ITEM: TIMESTEP
1560000
ITEM: NUMBER OF ATOMS
4590
ITEM: BOX BOUNDS pp pp pp
-9.9985700000000008e+00 9.9985700000000008e+00
-9.9985700000000008e+00 9.9985700000000008e+00
-9.9985700000000008e+00 9.9985700000000008e+00
ITEM: ATOMS id type xs ys zs
463 2 0.0618569 0.0697806 0.0150996
464 4 0.0746085 0.0482889 0.0142741
1666 2 0.0786205 0.0175745 0.0715913
3290 4 0.0858671 0.0332318 0.00843104
1668 4 0.084 0.0308729 0.0511123
1476 4 0.212171 0.0120089 0.0514428
1474 2 0.236727 0.0142968 0.0555623
565 2 0.185868 0.0799501 0.0723206
490 2 0.283178 0.021002 0.0228289
492 4 0.266666 0.0198756 0.0415704
1475 4 0.261282 0.0165847 0.0596818
986 4 0.322483 0.042598 0.0135586
985 2 0.340123 0.0328196 0.99878
745 2 0.45594 0.072789 0.0261526
747 4 0.452941 0.076259 0.050732
2724 4 0.463236 0.0386194 0.0651999
1826 4 0.468965 0.0200669 0.0710695
1825 2 0.485218 0.0044733 0.0602132
2722 2 0.45163 0.054104 0.0810334
591 4 0.0292639 0.090288 0.0713628
465 4 0.0491053 0.0912723 0.015925
701 4 0.0638471 0.105514 0.0197318
700 2 0.0466896 0.123151 0.0241732
702 4 0.029532 0.140789 0.0286146
2760 4 0.0133002 0.130744 0.0346875
567 4 0.195821 0.102777 0.0700764
1133 4 0.208626 0.152583 0.0105697
360 4 0.209753 0.160052 0.0291388
358 2 0.22546 0.143436 0.0392554
359 4 0.241168 0.12682 0.0493719
553 2 0.024809 0.183288 0.0178052
422 4 0.0792457 0.178481 0.0473844
555 4 0.0286255 0.160023 0.0261348
423 4 0.10865 0.185177 0.00749384
421 2 0.0939479 0.181829 0.0274391
506 4 0.180556 0.245435 0.0190286
737 4 0.191768 0.227225 0.0214672
736 2 0.205558 0.218203 0.0402724
354 4 0.228336 0.191814 0.0601803
738 4 0.219348 0.209182 0.0590775
352 2 0.250029 0.195301 0.0721146
353 4 0.271722 0.198787 0.0840489
755 4 0.290452 0.251731 0.0848932
1071 4 0.398406 0.238435 0.00432605
828 4 0.431649 0.165497 0.0124506
1170 4 0.0738917 0.327139 0.0128098
1056 4 0.0603697 0.312461 0.0141762
1054 2 0.063842 0.29336 0.99842
292 2 0.165825 0.326217 0.0506281
507 4 0.169272 0.294148 0.0196909
293 4 0.168762 0.305724 0.0366068
505 2 0.174914 0.269791 0.0193597
481 2 0.29569 0.295711 0.0101877
482 4 0.28964 0.284869 0.0318909
756 4 0.315686 0.292251 0.069992
754 2 0.303069 0.271991 0.0774426
323 4 0.405073 0.274751 0.0269439
573 4 0.391941 0.282603 0.0398443
571 2 0.388768 0.282106 0.0646407
572 4 0.385594 0.281609 0.089437
741 4 0.378306 0.300328 0.089481
322 2 0.426807 0.262393 0.0272908
324 4 0.44854 0.250035 0.0276377
1168 2 0.0651531 0.350332 0.00950247
329 4 0.0451699 0.389881 0.00834864
1169 4 0.0564145 0.373524 0.00619513
294 4 0.162887 0.346709 0.0646494
456 4 0.158411 0.355954 0.0472871
454 2 0.152489 0.380145 0.0495009
455 4 0.146566 0.404336 0.0517147
607 2 0.240785 0.359479 0.0843437
252 4 0.258248 0.392606 0.0661397
608 4 0.253852 0.371914 0.0670286
250 2 0.280023 0.39724 0.0547588
251 4 0.301799 0.401873 0.0433778
226 2 0.395089 0.383819 0.0256355
228 4 0.381198 0.381376 0.0462813
671 4 0.411115 0.365778 0.0644583
281 4 0.427672 0.357701 0.0597616
280 2 0.452458 0.356111 0.0568757
282 4 0.477243 0.35452 0.0539898
104 3 0.486849 0.35315 0.0703859
227 4 0.40898 0.386263 0.00498973
1305 4 0.418317 0.368404 0.00537364
552 4 0.0183891 0.440611 0.0302338
314 4 0.0250219 0.42959 0.0456503
313 2 0.0318194 0.420855 0.0680704
550 2 0.000515119 0.458063 0.031306
795 4 0.160184 0.47987 0.00571033
1440 4 0.241272 0.484092 0.0721386
246 4 0.226494 0.492944 0.0259307
1438 2 0.243677 0.470384 0.0929109
243 4 0.235016 0.502283 0.0661783
244 2 0.228061 0.477799 0.00609722
793 2 0.170019 0.502668 0.00276158
272 4 0.266861 0.486254 0.0516823
1559 4 0.322852 0.481184 0.0759339
37 3 0.339567 0.456769 0.0113243
40 3 0.363906 0.43093 0.999797
589 2 0.0287476 0.0825319 0.0951274
1667 4 0.0732411 0.004276 0.0920704
19 3 0.0397745 0.0217833 0.129559
1422 4 0.0306618 0.0117441 0.147338
16 1 0.0628232 0.0204205 0.127256
17 3 0.0680658 0.0203231 0.104859
2480 4 0.0231109 0.0326708 0.138999
18 3 0.0728812 0.0387964 0.137235
590 4 0.0282312 0.0747757 0.118892
1420 2 0.0256949 0.993535 0.163738
566 4 0.175915 0.057123 0.0745648
652 2 0.251424 0.0515872 0.146947
654 4 0.268188 0.0601998 0.130516
486 4 0.324253 0.00105315 0.13651
484 2 0.337478 0.0154774 0.120947
297 4 0.363408 0.0260677 0.0904527
485 4 0.350704 0.0299016 0.105384
295 2 0.379875 0.0448054 0.0921617
296 4 0.396342 0.0635431 0.0938707
557 4 0.394527 0.0834926 0.0912284
2723 4 0.440024 0.0695886 0.096867
2744 4 0.482138 0.0285785 0.160097
237 4 0.140004 0.146764 0.148188
235 2 0.133711 0.130336 0.165956
556 2 0.412459 0.100651 0.0942656
771 4 0.433563 0.136875 0.0947365
558 4 0.430391 0.117809 0.0973029
769 2 0.45379 0.151028 0.0987057
477 4 0.16083 0.214077 0.128075
475 2 0.168197 0.219609 0.15132
461 4 0.277118 0.181995 0.0913611
460 2 0.300921 0.184893 0.098446
277 2 0.287558 0.251909 0.126908
278 4 0.282115 0.251585 0.102506
462 4 0.324724 0.187791 0.105531
279 4 0.293001 0.252233 0.15131
255 4 0.34602 0.239737 0.088456
254 4 0.393048 0.22301 0.0854003
630 4 0.399467 0.212338 0.100534
253 2 0.369534 0.231374 0.0869281
628 2 0.420925 0.217979 0.112063
770 4 0.474017 0.165181 0.102675
624 4 0.459135 0.214546 0.133183
629 4 0.442383 0.22362 0.123592
622 2 0.463005 0.237694 0.141805
338 4 0.0621497 0.260423 0.128271
339 4 0.0989915 0.266355 0.16156
337 2 0.0805706 0.263389 0.144916
611 4 0.228612 0.309629 0.14697
610 2 0.233632 0.319743 0.124662
612 4 0.238652 0.329858 0.102353
285 4 0.276323 0.258463 0.160155
739 2 0.362922 0.318552 0.0969891
740 4 0.347537 0.336777 0.104497
623 4 0.466876 0.260842 0.150428
595 2 0.424263 0.324791 0.166647
619 2 0.0579544 0.398226 0.121372
620 4 0.0694083 0.400847 0.143443
647 4 0.0856438 0.411601 0.146607
621 4 0.0465005 0.395606 0.0993013
315 4 0.0386169 0.412119 0.0904906
646 2 0.0987309 0.397503 0.162581
535 2 0.128454 0.340441 0.132676
537 4 0.109558 0.339829 0.149038
536 4 0.14735 0.341054 0.116313
609 4 0.227718 0.347044 0.101659
524 4 0.32036 0.395461 0.0789993
302 4 0.324204 0.402217 0.133199
387 4 0.316575 0.384731 0.125679
385 2 0.332202 0.365278 0.124081
670 2 0.401379 0.365993 0.0874873
386 4 0.347829 0.345825 0.122483
12 3 0.382358 0.365991 0.127831
11 1 0.393298 0.37617 0.14532
15 3 0.378134 0.382004 0.161277
672 4 0.391642 0.366209 0.110516
14 3 0.40413 0.395098 0.137394
495 4 0.405603 0.404111 0.119628
597 4 0.425679 0.348293 0.15823
13 3 0.40877 0.361306 0.154158
626 4 0.16729 0.427736 0.120138
625 2 0.186653 0.4375 0.132585
627 4 0.206015 0.447265 0.145032
638 4 0.221032 0.457272 0.153779
637 2 0.230094 0.480573 0.154111
639 4 0.239156 0.503874 0.154444
1439 4 0.246081 0.456676 0.113683
525 4 0.331245 0.440853 0.0969365
523 2 0.325803 0.418157 0.0879679
301 2 0.323656 0.420812 0.149904
493 2 0.417272 0.425201 0.126277
494 4 0.42894 0.446292 0.132927
1583 4 0.477008 0.495466 0.120437
450 4 0.147002 0.0515863 0.183986
448 2 0.137817 0.0740985 0.189818
653 4 0.23466 0.0429746 0.163377
693 4 0.234766 0.0457858 0.183415
691 2 0.248246 0.0312149 0.19862
692 4 0.261725 0.0166439 0.213824
1700 4 0.320637 0.0482354 0.2221
1699 2 0.300454 0.033477 0.222101
1701 4 0.28027 0.0187185 0.222101
23 3 0.333239 0.0557619 0.237496
21 1 0.354626 0.0545985 0.228572
25 3 0.353494 0.0506933 0.206164
22 3 0.365984 0.0373506 0.238704
24 3 0.365975 0.0744349 0.232588
759 4 0.363291 0.0580697 0.192152
757 2 0.378522 0.0707239 0.176885
511 2 0.0137196 0.150154 0.205001
578 4 0.0465398 0.155262 0.208479
513 4 0.0361923 0.139435 0.202707
577 2 0.069498 0.163627 0.213784
449 4 0.128632 0.0966106 0.19565
236 4 0.127418 0.113908 0.183724
28 3 0.253611 0.152861 0.188134
546 4 0.207942 0.124755 0.250245
722 4 0.2149 0.104566 0.250401
580 2 0.307184 0.10226 0.175915
581 4 0.282498 0.105024 0.178764
30 3 0.270334 0.119582 0.182613
26 1 0.267597 0.136773 0.197297
29 3 0.288188 0.146166 0.202417
27 3 0.258058 0.128771 0.216639
582 4 0.331871 0.0994955 0.173067
758 4 0.393752 0.0833781 0.161618
310 2 0.440885 0.160409 0.19586
311 4 0.45627 0.140859 0.19837
529 2 0.0152649 0.19271 0.250091
579 4 0.0924562 0.171991 0.219089
362 4 0.160015 0.262077 0.177576
372 4 0.166302 0.242633 0.183286
476 4 0.175564 0.225141 0.174564
370 2 0.181953 0.246683 0.20236
284 4 0.273669 0.227829 0.199591
312 4 0.425501 0.179959 0.193351
520 2 0.485347 0.198716 0.242212
396 4 0.053886 0.28939 0.215632
443 4 0.0638262 0.29087 0.232296
394 2 0.0731132 0.285098 0.200235
395 4 0.0923405 0.280806 0.184838
363 4 0.110858 0.27121 0.178502
361 2 0.135437 0.266643 0.178039
750 4 0.106262 0.334005 0.253477
371 4 0.197604 0.250733 0.221434
283 2 0.274996 0.243146 0.179873
343 2 0.287573 0.332414 0.235814
345 4 0.27996 0.323815 0.213604
596 4 0.422846 0.301289 0.175064
527 4 0.470892 0.262126 0.169669
526 2 0.459734 0.280735 0.182094
528 4 0.448576 0.299344 0.194519
264 4 0.0458369 0.407926 0.204451
648 4 0.111818 0.383405 0.178554
300 4 0.127213 0.387151 0.191531
298 2 0.122059 0.38198 0.215446
299 4 0.116905 0.37681 0.23936
734 4 0.125276 0.32853 0.260165
344 4 0.295185 0.341013 0.258024
643 2 0.421156 0.369423 0.198301
644 4 0.421143 0.373688 0.222938
645 4 0.42117 0.365158 0.173664
447 4 0.434973 0.386131 0.231727
445 2 0.427082 0.408683 0.239094
263 4 0.0292661 0.43025 0.246017
262 2 0.0375515 0.419088 0.225234
1430 4 0.160521 0.491733 0.183375
417 4 0.179164 0.491184 0.192073
290 4 0.202883 0.432033 0.217539
416 4 0.19099 0.446657 0.211519
415 2 0.185077 0.46892 0.201796
289 2 0.216358 0.430323 0.238531
768 4 0.209019 0.494567 0.229578
303 4 0.323109 0.439408 0.16661
659 4 0.327286 0.457564 0.175051
658 2 0.339003 0.476291 0.186763
712 2 0.391263 0.450041 0.239552
713 4 0.377094 0.459401 0.221199
232 2 0.0427148 0.028332 0.29948
234 4 0.0395456 0.0529411 0.296393
317 4 0.0312447 0.0575892 0.279039
233 4 0.0458841 0.00372291 0.302566
675 4 0.115643 0.00924148 0.273783
723 4 0.233459 0.0595798 0.261913
1518 4 0.366221 0.00420251 0.303918
697 2 0.373881 0.0296775 0.271358
699 4 0.374664 0.0105673 0.287463
698 4 0.373099 0.0487876 0.255253
333 4 0.376518 0.0675177 0.248598
331 2 0.396658 0.0776453 0.259414
332 4 0.416798 0.0877728 0.27023
1749 4 0.496909 0.99663 0.342423
743 4 0.448457 0.0241255 0.279907
742 2 0.4545 0.00408412 0.266232
351 4 0.458636 0.0413994 0.279218
349 2 0.443522 0.0610996 0.28216
350 4 0.428408 0.0807998 0.285102
316 2 0.0321625 0.0825554 0.280051
318 4 0.0330803 0.107522 0.281064
393 4 0.133318 0.131811 0.307459
399 4 0.136474 0.124406 0.325551
391 2 0.151948 0.142968 0.295064
545 4 0.18899 0.161392 0.278517
721 2 0.22418 0.0820729 0.256157
544 2 0.198466 0.143073 0.264381
599 4 0.212915 0.122833 0.311849
404 4 0.22913 0.133176 0.304307
598 2 0.195438 0.11613 0.328427
392 4 0.170577 0.154126 0.282668
403 2 0.234756 0.156428 0.311579
762 4 0.439848 0.141979 0.319445
760 2 0.437618 0.13705 0.295034
761 4 0.435388 0.132121 0.270623
530 4 0.0395511 0.190025 0.255396
401 4 0.246121 0.19281 0.304566
400 2 0.234458 0.214181 0.298874
402 4 0.222795 0.235553 0.293182
405 4 0.240381 0.17968 0.31885
765 4 0.418376 0.173079 0.2738
521 4 0.461641 0.197997 0.250131
763 2 0.433668 0.191617 0.266896
764 4 0.448961 0.210154 0.259991
442 2 0.0677629 0.291222 0.256985
390 4 0.0797563 0.273103 0.329556
444 4 0.0716996 0.291575 0.281674
541 2 0.450313 0.283946 0.318939
542 4 0.466559 0.269946 0.306084
749 4 0.0639634 0.355879 0.268744
365 4 0.00572513 0.375612 0.295871
364 2 0.024524 0.365886 0.28256
366 4 0.0433228 0.356159 0.269249
748 2 0.0851127 0.344942 0.26111
733 2 0.146872 0.33662 0.269827
735 4 0.168468 0.344711 0.279488
601 2 0.0896426 0.405548 0.325378
602 4 0.105315 0.421418 0.314078
777 4 0.124804 0.429095 0.319611
677 4 0.161384 0.346731 0.298425
676 2 0.169522 0.362266 0.316248
309 4 0.313158 0.347135 0.26103
307 2 0.326681 0.351789 0.28154
729 4 0.3274 0.366286 0.327161
727 2 0.323533 0.390574 0.322653
728 4 0.319666 0.414861 0.318144
308 4 0.340203 0.356443 0.30205
614 4 0.411828 0.360662 0.324624
1757 4 0.110891 0.47569 0.273247
1756 2 0.0980754 0.494642 0.283335
776 4 0.11496 0.457295 0.279504
775 2 0.119882 0.443195 0.299557
1543 2 0.191416 0.50127 0.336746
291 4 0.229833 0.428613 0.259524
1545 4 0.212112 0.488991 0.329958
414 4 0.225393 0.429798 0.278668
413 4 0.198187 0.452043 0.314244
412 2 0.21179 0.44092 0.296456
1436 4 0.228884 0.477643 0.326144
1435 2 0.253358 0.472925 0.324157
438 4 0.308625 0.501865 0.272996
437 4 0.284434 0.470267 0.30328
436 2 0.29653 0.486066 0.288138
1437 4 0.277832 0.468206 0.322169
5 3 0.297933 0.456991 0.316662
2 3 0.319723 0.43126 0.332662
434 4 0.340183 0.421069 0.327912
714 4 0.405432 0.440681 0.257904
446 4 0.41919 0.431236 0.246462
2861 4 0.476072 0.465748 0.270854
2860 2 0.492429 0.449161 0.279938
427 2 0.0889394 0.015299 0.375536
428 4 0.0855152 0.0398242 0.372076
606 4 0.140884 0.0634273 0.38326
731 4 0.098659 0.0557015 0.401662
730 2 0.0986813 0.0783451 0.391058
604 2 0.142494 0.0389607 0.388156
605 4 0.144104 0.0144941 0.393052
368 4 0.0952387 0.0362112 0.405777
682 2 0.23816 0.0601262 0.381925
684 4 0.248139 0.0487036 0.362048
683 4 0.228181 0.0715488 0.401803
249 4 0.297727 0.0617813 0.382641
439 2 0.248644 0.0041791 0.420004
247 2 0.314253 0.0776462 0.372622
2879 4 0.496715 0.0580021 0.39624
480 4 0.490326 0.0150503 0.340299
424 2 0.439098 0.0509594 0.394384
426 4 0.431371 0.0737628 0.387641
2878 2 0.491287 0.0621875 0.420286
258 4 0.440828 0.0913162 0.385251
732 4 0.0987036 0.100989 0.380455
397 2 0.121405 0.116145 0.343713
398 4 0.106337 0.107883 0.361875
600 4 0.177962 0.109427 0.345004
685 2 0.168845 0.135456 0.379139
687 4 0.174488 0.125659 0.356838
686 4 0.163202 0.145252 0.401441
321 4 0.272933 0.105221 0.374085
319 2 0.273442 0.104193 0.399062
248 4 0.330778 0.093511 0.362602
633 4 0.344555 0.101424 0.376024
632 4 0.376084 0.137995 0.363017
631 2 0.360319 0.119709 0.36952
420 4 0.394931 0.140564 0.367533
418 2 0.392567 0.165251 0.370721
257 4 0.457555 0.103262 0.339663
256 2 0.449192 0.0972894 0.362457
2654 4 0.0155999 0.221832 0.364556
618 4 0.0200267 0.226258 0.383865
274 2 0.150165 0.231975 0.36865
276 4 0.12921 0.245615 0.368826
275 4 0.17112 0.218335 0.368474
474 4 0.181447 0.212848 0.350727
472 2 0.202638 0.20469 0.361195
473 4 0.223829 0.196531 0.371662
708 4 0.236893 0.181494 0.368541
706 2 0.255745 0.195664 0.376847
707 4 0.274596 0.209834 0.385153
377 4 0.323699 0.245262 0.374898
717 4 0.34201 0.239234 0.369039
419 4 0.390203 0.189937 0.373909
716 4 0.375692 0.203057 0.376614
715 2 0.358851 0.221145 0.372826
617 4 0.0495457 0.265002 0.395187
616 2 0.0347862 0.24563 0.389526
389 4 0.110179 0.250765 0.36236
388 2 0.0949679 0.261934 0.345958
510 4 0.263205 0.322954 0.357376
508 2 0.270476 0.309604 0.377227
509 4 0.277747 0.296254 0.397079
498 4 0.324691 0.307046 0.340776
378 4 0.324511 0.289847 0.352266
496 2 0.318853 0.329213 0.330792
376 2 0.324105 0.267555 0.363582
267 4 0.380926 0.269696 0.361956
265 2 0.384169 0.269763 0.386748
543 4 0.434068 0.297946 0.331794
270 4 0.50357 0.259064 0.397353
268 2 0.482319 0.254102 0.385148
615 4 0.431991 0.31706 0.338518
269 4 0.461069 0.24914 0.372942
603 4 0.07397 0.389678 0.336679
549 4 0.056176 0.380549 0.341484
547 2 0.0497174 0.39334 0.361974
548 4 0.0432589 0.406131 0.382465
678 4 0.17766 0.3778 0.33407
502 2 0.200978 0.395567 0.364162
504 4 0.196741 0.381627 0.343842
373 2 0.233407 0.354322 0.34387
375 4 0.217057 0.372327 0.338066
503 4 0.205214 0.409507 0.384482
497 4 0.313014 0.351381 0.320808
374 4 0.249756 0.336317 0.349673
669 4 0.337802 0.429086 0.405208
613 2 0.421909 0.338861 0.331571
2925 4 0.484083 0.348019 0.373034
2923 2 0.497298 0.364102 0.359182
561 4 0.473684 0.412713 0.408357
752 4 0.465982 0.41859 0.389765
2463 4 0.981118 0.47923 0.345236
408 4 0.0702841 0.463905 0.401431
407 4 0.0544603 0.421743 0.379688
406 2 0.0623722 0.442824 0.390559
636 4 0.195568 0.425631 0.388979
634 2 0.198776 0.441877 0.407712
3 3 0.28275 0.425141 0.329805
1 1 0.299042 0.44132 0.33315
668 4 0.305931 0.439668 0.368154
4 3 0.296082 0.451383 0.353848
667 2 0.321867 0.434377 0.386681
433 2 0.358426 0.436418 0.335447
435 4 0.376669 0.451767 0.342982
336 4 0.355654 0.418318 0.405899
119 3 0.493296 0.425789 0.334982
753 4 0.475518 0.431528 0.342412
593 4 0.458689 0.484851 0.353208
751 2 0.47075 0.425059 0.366088
592 2 0.452564 0.499887 0.372223
718 2 0.0595721 0.0281154 0.479388
719 4 0.0740155 0.0245521 0.459291
369 4 0.0801584 0.0434353 0.452906
367 2 0.0876986 0.0398233 0.429342
2430 4 0.210798 0.0648482 0.450749
2428 2 0.229394 0.0535496 0.438432
341 4 0.213368 0.0774875 0.465801
2429 4 0.247991 0.0422511 0.426116
441 4 0.245312 0.0243796 0.434357
726 4 0.305269 0.0825694 0.469923
963 4 0.294536 0.0379675 0.504261
1181 4 0.279592 0.0502422 0.496914
432 4 0.318942 0.0755509 0.480043
425 4 0.446826 0.0281559 0.401127
2880 4 0.485858 0.0663729 0.444331
642 4 0.470346 0.0665258 0.457822
340 2 0.205093 0.0930068 0.483573
342 4 0.196818 0.108526 0.501345
409 2 0.245277 0.163541 0.434785
320 4 0.273952 0.103165 0.42404
410 4 0.248569 0.141508 0.423432
724 2 0.293554 0.083488 0.447853
725 4 0.281838 0.0844065 0.425783
467 4 0.347682 0.100615 0.421599
466 2 0.355464 0.123463 0.428124
468 4 0.363245 0.146312 0.43465
515 4 0.488565 0.167639 0.419289
641 4 0.47883 0.113638 0.472285
640 2 0.474588 0.0900817 0.465054
3158 4 0.491884 0.129123 0.476535
3157 2 0.501365 0.139161 0.45569
516 4 0.439602 0.157771 0.421734
514 2 0.464083 0.162705 0.420512
469 2 0.0643196 0.236521 0.456634
471 4 0.082528 0.222512 0.466501
260 4 0.0842219 0.208 0.481748
261 4 0.127058 0.202351 0.506925
259 2 0.10564 0.205176 0.494337
651 4 0.245978 0.236406 0.412869
650 4 0.229274 0.202278 0.44538
649 2 0.237626 0.219342 0.429125
411 4 0.241984 0.185574 0.446138
489 4 0.262275 0.242981 0.421703
583 2 0.397213 0.253271 0.44503
584 4 0.412688 0.250207 0.464429
575 4 0.434974 0.163827 0.440888
576 4 0.414536 0.162706 0.486514
574 2 0.424755 0.163267 0.463701
470 4 0.0461112 0.250531 0.446767
348 4 0.00739115 0.321355 0.451893
695 4 0.0874241 0.292334 0.449693
694 2 0.107172 0.282781 0.46169
696 4 0.12692 0.273227 0.473687
1260 4 0.14224 0.283766 0.482288
1258 2 0.161742 0.278422 0.496996
488 4 0.288359 0.280381 0.401171
487 2 0.275317 0.261681 0.411437
266 4 0.387412 0.26983 0.41154
585 4 0.381738 0.256334 0.425631
2456 4 0.428124 0.257259 0.475584
2457 4 0.45415 0.298538 0.464654
2455 2 0.441137 0.277899 0.470119
2814 4 0.00694396 0.331375 0.468536
2812 2 0.0131208 0.325738 0.492099
326 4 0.0840274 0.407796 0.454174
709 2 0.144115 0.401761 0.427131
10 3 0.153155 0.348132 0.475601
7 3 0.13187 0.378556 0.479371
327 4 0.112941 0.379655 0.483718
325 2 0.098484 0.393726 0.468946
6 1 0.152956 0.37087 0.474329
8 3 0.158469 0.377645 0.452832
9 3 0.168029 0.379783 0.489554
711 4 0.154052 0.37938 0.432187
239 4 0.404279 0.364373 0.468989
334 2 0.355853 0.398996 0.421768
335 4 0.356051 0.379675 0.437637
238 2 0.385467 0.362985 0.452577
240 4 0.366656 0.361596 0.436164
559 2 0.485183 0.415522 0.430381
560 4 0.496682 0.41833 0.452405
680 4 0.0286846 0.461255 0.459359
679 2 0.0145461 0.478466 0.447998
1383 4 0.0203495 0.443208 0.460897
1381 2 0.0210808 0.439576 0.485625
384 4 0.128169 0.448349 0.491971
710 4 0.134179 0.424142 0.422075
570 4 0.124318 0.437828 0.432883
569 4 0.12257 0.461137 0.477091
568 2 0.123444 0.449483 0.454987
635 4 0.201983 0.458123 0.426446
773 4 0.212268 0.462145 0.485359
772 2 0.200961 0.463164 0.463081
774 4 0.189654 0.464183 0.440804
1401 4 0.324039 0.443428 0.468852
1400 4 0.362034 0.473277 0.455961
1399 2 0.343036 0.458352 0.462406
588 4 0.35246 0.48872 0.459674
1126 2 0.0182929 0.048963 0.527974
1128 4 0.99877 0.0570124 0.541363
1127 4 0.0378155 0.0409135 0.514586
720 4 0.0451287 0.0316788 0.499484
1059 4 0.111891 0.0629057 0.573574
1155 4 0.126875 0.0769809 0.574431
951 4 0.196137 0.0648473 0.561998
1031 4 0.207247 0.0552793 0.57608
1030 2 0.230515 0.04613 0.576244
949 2 0.191865 0.0700745 0.537923
950 4 0.187593 0.0753017 0.513848
1032 4 0.253784 0.0369806 0.576408
1182 4 0.24784 0.0871276 0.508404
961 2 0.295791 0.0202747 0.521884
2194 2 0.293853 0.0091222 0.581692
1180 2 0.263716 0.0686849 0.502659
431 4 0.330074 0.070104 0.52849
962 4 0.297047 0.0025819 0.539507
2195 4 0.290577 0.00905743 0.556904
430 2 0.324508 0.0728274 0.504266
841 2 0.371624 0.0544998 0.525861
843 4 0.349584 0.0662474 0.524661
842 4 0.393663 0.0427523 0.527061
1217 4 0.41036 0.0464345 0.514754
4466 4 0.454583 0.997502 0.565258
1218 4 0.448104 0.0745464 0.531659
1216 2 0.429232 0.0604904 0.523206
4465 2 0.43862 0.014667 0.57396
1035 4 0.0628904 0.153088 0.535191
939 4 0.15758 0.157396 0.531148
1153 2 0.145775 0.0855488 0.58838
1151 4 0.176357 0.150736 0.535027
1150 2 0.190257 0.139045 0.517844
1152 4 0.204158 0.127353 0.500661
857 4 0.298671 0.13814 0.561874
899 4 0.319288 0.137402 0.562535
856 2 0.283351 0.157846 0.563335
898 2 0.33758 0.153894 0.558225
1033 2 0.0734787 0.172943 0.524291
877 2 0.0690814 0.24468 0.584731
1083 4 0.038946 0.167365 0.589777
1034 4 0.084067 0.192799 0.51339
937 2 0.151878 0.179651 0.521282
938 4 0.146176 0.201907 0.511415
858 4 0.26803 0.177552 0.564795
796 2 0.280625 0.21107 0.585909
797 4 0.280654 0.193685 0.567938
813 4 0.306374 0.229007 0.543227
811 2 0.289594 0.24515 0.534116
873 4 0.323289 0.229545 0.553281
900 4 0.355873 0.170386 0.553915
871 2 0.338547 0.209816 0.551506
872 4 0.353805 0.190088 0.54973
906 4 0.483892 0.233832 0.551425
878 4 0.0715267 0.268126 0.576394
2813 4 0.0192977 0.320101 0.515663
1259 4 0.181243 0.273078 0.511704
895 2 0.186426 0.334544 0.560601
896 4 0.210652 0.335049 0.554437
812 4 0.272814 0.261293 0.525005
1204 2 0.389622 0.314064 0.580347
904 2 0.477086 0.254332 0.564018
905 4 0.470279 0.274833 0.576612
954 4 0.421045 0.30281 0.583786
952 2 0.44573 0.299056 0.582472
1137 4 0.155852 0.351485 0.558116
897 4 0.162199 0.334038 0.566764
383 4 0.141919 0.410152 0.52117
1135 2 0.137669 0.36304 0.570807
1189 2 0.233488 0.360858 0.53318
1191 4 0.213311 0.347422 0.539308
1190 4 0.253665 0.374293 0.527051
803 4 0.271455 0.365535 0.537197
802 2 0.285626 0.386091 0.538528
804 4 0.299798 0.406648 0.539859
928 2 0.375406 0.372892 0.556101
929 4 0.380068 0.39207 0.54075
930 4 0.370745 0.353713 0.571452
1206 4 0.375681 0.334551 0.577017
925 2 0.459334 0.403831 0.536258
926 4 0.464275 0.42332 0.551122
927 4 0.454393 0.384342 0.521394
538 2 0.0438643 0.47287 0.522926
540 4 0.0353839 0.449412 0.521199
539 4 0.0523447 0.496328 0.524653
1382 4 0.0218122 0.435945 0.510352
382 2 0.135044 0.429251 0.50657
1173 4 0.232996 0.447704 0.55547
1172 4 0.278882 0.45541 0.537144
1171 2 0.255939 0.451557 0.546307
882 4 0.283542 0.458826 0.517313
880 2 0.292767 0.48054 0.509031
891 4 0.331827 0.467985 0.574641
1001 4 0.472758 0.415989 0.566963
1058 4 0.0865277 0.0232527 0.590458
1185 4 0.0307375 0.0375678 0.635503
945 4 0.0452237 0.0431389 0.646968
1183 2 0.00857226 0.0473568 0.641672
943 2 0.0574903 0.0441969 0.66873
1057 2 0.0992091 0.0430792 0.582016
825 4 0.0795153 0.0181577 0.608775
823 2 0.0971516 0.00408124 0.619545
2196 4 0.297129 0.00918696 0.60648
1004 4 0.354111 0.0734653 0.651503
1003 2 0.348053 0.0494283 0.654774
2283 4 0.425463 0.0319493 0.602308
1005 4 0.341994 0.0253913 0.658044
4467 4 0.422658 0.0318322 0.582662
2282 4 0.437674 0.039485 0.650213
2281 2 0.431568 0.0357171 0.62626
43 3 0.45711 0.0393473 0.652342
45 3 0.486197 0.057599 0.6369
41 1 0.478893 0.0466883 0.655508
44 3 0.479896 0.0608249 0.67388
810 4 0.4953 0.07476 0.640066
1154 4 0.164674 0.0941168 0.602329
1221 4 0.153948 0.106804 0.612089
1219 2 0.157133 0.115855 0.635179
1082 4 0.0860158 0.177769 0.576477
1220 4 0.160319 0.124906 0.658268
1212 4 0.223468 0.145874 0.656667
1210 2 0.246843 0.137866 0.660497
1211 4 0.270218 0.129859 0.664327
3426 4 0.485762 0.14219 0.633772
879 4 0.0666361 0.221235 0.593068
1081 2 0.0624809 0.172567 0.583127
1272 4 0.0780417 0.221052 0.60866
1209 4 0.037179 0.234537 0.656867
1199 4 0.0202406 0.171515 0.589345
1270 2 0.0966253 0.215518 0.624446
1271 4 0.115209 0.209984 0.640232
909 4 0.129334 0.22396 0.642655
907 2 0.154325 0.224452 0.642053
908 4 0.179317 0.224943 0.64145
947 4 0.191428 0.239901 0.636301
798 4 0.280596 0.228454 0.60388
1026 4 0.423559 0.181957 0.607693
1025 4 0.393064 0.19973 0.643118
1024 2 0.408312 0.190844 0.625405
1143 4 0.383717 0.213793 0.653152
3121 2 0.47126 0.246602 0.664525
3123 4 0.44916 0.240714 0.654422
946 2 0.201535 0.255075 0.619191
948 4 0.211642 0.27025 0.602081
791 4 0.285744 0.26726 0.608986
790 2 0.269462 0.285395 0.603397
1238 4 0.252634 0.320682 0.584506
792 4 0.253181 0.303529 0.597809
1205 4 0.403563 0.293576 0.583678
953 4 0.470415 0.295301 0.581158
3113 4 0.506433 0.291288 0.654341
983 4 0.0230311 0.417628 0.626604
1039 2 0.0580848 0.409916 0.631908
1040 4 0.0800958 0.418775 0.639796
1136 4 0.119486 0.374595 0.583497
1239 4 0.243972 0.369906 0.582872
1237 2 0.248303 0.345294 0.583689
1041 4 0.0360737 0.401057 0.62402
2242 2 0.151454 0.489532 0.582312
993 4 0.0970054 0.423557 0.633407
991 2 0.120196 0.420036 0.642065
992 4 0.143387 0.416515 0.650723
2170 2 0.149315 0.486762 0.647223
2172 4 0.154155 0.46584 0.66003
1160 4 0.223539 0.46741 0.612874
1159 2 0.198933 0.466622 0.608499
2243 4 0.169837 0.472719 0.584444
1161 4 0.174328 0.465835 0.604125
890 4 0.298749 0.437221 0.596091
889 2 0.315288 0.452603 0.585366
1952 4 0.336512 0.481346 0.589208
1000 2 0.466426 0.435033 0.581877
1002 4 0.460095 0.454076 0.596792
1910 4 0.45151 0.471915 0.598814
1909 2 0.439914 0.493561 0.594105
4335 4 0.498165 0.465424 0.636497
944 4 0.0697569 0.0452548 0.690492
2317 2 0.0106766 0.996297 0.705342
2319 4 0.0283012 0.00300651 0.721759
1075 2 0.0679278 0.0430434 0.726175
1076 4 0.056868 0.047727 0.704246
1257 4 0.26775 0.0727472 0.738596
42 3 0.492388 0.0284703 0.659396
1283 4 0.174506 0.115754 0.668653
1282 2 0.194792 0.129378 0.673945
1284 4 0.215079 0.143003 0.679237
1227 4 0.231546 0.14049 0.691862
1225 2 0.234743 0.154295 0.712462
1226 4 0.237939 0.1681 0.733063
888 4 0.288833 0.127225 0.657641
886 2 0.299809 0.137601 0.677568
887 4 0.310784 0.147976 0.697494
830 4 0.317267 0.139883 0.71492
829 2 0.313628 0.11931 0.728657
831 4 0.30999 0.0987376 0.742394
978 4 0.31304 0.149601 0.744501
1146 4 0.502482 0.138749 0.726868
1144 2 0.49057 0.155819 0.713015
1145 4 0.478658 0.172889 0.699162
1107 4 0.0143779 0.209699 0.742652
851 4 0.00787327 0.210357 0.723504
822 4 0.152383 0.225514 0.719234
1278 4 0.158284 0.232209 0.736716
1276 2 0.169817 0.215333 0.751115
820 2 0.142931 0.247659 0.712493
1065 4 0.231924 0.252226 0.702435
1130 4 0.242536 0.17323 0.752151
1277 4 0.18135 0.198456 0.765514
916 2 0.297012 0.226073 0.724853
918 4 0.300599 0.204649 0.712471
977 4 0.304097 0.196726 0.730362
976 2 0.308568 0.173163 0.737431
1142 4 0.346257 0.210058 0.686068
1141 2 0.364987 0.211925 0.66961
1192 2 0.406228 0.226266 0.726491
1193 4 0.393868 0.235672 0.746085
1194 4 0.418589 0.216861 0.706897
1262 4 0.437015 0.216556 0.703151
1261 2 0.457112 0.202156 0.706885
1263 4 0.477208 0.187756 0.710619
1207 2 0.0480899 0.250946 0.672257
1243 2 0.0156816 0.308149 0.696817
1244 4 0.0386894 0.316967 0.701067
1208 4 0.0590008 0.267356 0.687646
821 4 0.13348 0.269804 0.705752
1064 4 0.194587 0.277164 0.724453
1063 2 0.213255 0.264695 0.713444
1098 4 0.260112 0.308776 0.75231
1096 2 0.271849 0.287533 0.746295
917 4 0.293426 0.247497 0.737236
1097 4 0.283585 0.266291 0.740279
3122 4 0.493361 0.252491 0.674628
3357 4 0.512167 0.259345 0.680728
806 4 0.451469 0.307678 0.730486
805 2 0.434258 0.321373 0.742378
892 2 0.0506686 0.396608 0.687792
893 4 0.0310905 0.386431 0.676032
894 4 0.0702467 0.406786 0.699552
1028 4 0.228852 0.393276 0.700251
1067 4 0.177846 0.414321 0.725673
1066 2 0.193872 0.399543 0.713427
1068 4 0.209898 0.384765 0.701181
1027 2 0.24989 0.404857 0.693289
1138 2 0.306184 0.425618 0.695188
1139 4 0.282932 0.43219 0.688759
1140 4 0.329436 0.419046 0.701617
807 4 0.417046 0.335067 0.754269
1020 4 0.432169 0.349641 0.753674
1281 4 0.0533542 0.441219 0.710016
1279 2 0.0560499 0.440237 0.734855
2021 4 0.0499259 0.481633 0.726309
2020 2 0.0675188 0.498338 0.720259
1983 4 0.0355912 0.473445 0.737792
940 2 0.144846 0.42239 0.728543
942 4 0.123063 0.416071 0.739066
941 4 0.166629 0.42871 0.71802
1029 4 0.270928 0.416438 0.686327
1989 4 0.344655 0.475478 0.744407
1229 4 0.35448 0.464197 0.757174
1269 4 0.435008 0.46457 0.687812
3330 4 0.500319 0.432601 0.69096
3328 2 0.483868 0.445385 0.704784
3329 4 0.467417 0.458169 0.718608
1267 2 0.441075 0.484272 0.673663
1077 4 0.0789877 0.0383598 0.748105
1203 4 0.0823474 0.0557457 0.756911
911 4 0.0533826 0.0665973 0.840193
1201 2 0.0925245 0.0447826 0.776947
1202 4 0.102702 0.0338196 0.796982
2049 4 0.109679 0.0151414 0.794586
1148 4 0.17087 0.0280613 0.787556
1147 2 0.194106 0.0372934 0.787562
1149 4 0.217343 0.0465255 0.787568
1049 4 0.234386 0.037948 0.791779
1256 4 0.294051 0.0434008 0.769382
1255 2 0.2809 0.058074 0.753989
1048 2 0.248479 0.052588 0.806347
1050 4 0.262572 0.0672281 0.820915
1112 4 0.428685 0.996279 0.796324
846 4 0.456143 0.0503312 0.79078
1113 4 0.438307 0.0453038 0.798497
1111 2 0.433496 0.0207915 0.79741
844 2 0.478944 0.060586 0.790373
862 2 0.0276351 0.0984175 0.825466
832 2 0.0274 0.141359 0.785208
863 4 0.0174742 0.118684 0.81492
833 4 0.0162064 0.121825 0.796085
33 3 0.0553202 0.150024 0.775779
834 4 0.0385936 0.160893 0.774331
864 4 0.037796 0.078151 0.836011
32 3 0.0878726 0.150283 0.756992
840 4 0.236746 0.168356 0.830611
838 2 0.249638 0.147091 0.833217
959 4 0.280957 0.132206 0.83323
817 2 0.363034 0.0839369 0.836063
819 4 0.354317 0.095548 0.815707
1084 2 0.355737 0.125486 0.793778
1085 4 0.346224 0.103243 0.800097
1086 4 0.365251 0.147729 0.78746
3270 4 0.50071 0.143178 0.746843
1105 2 0.0303621 0.193414 0.752874
1106 4 0.0463463 0.177129 0.763096
1214 4 0.00755312 0.224864 0.786584
35 3 0.0657575 0.180331 0.756025
31 1 0.0731935 0.163221 0.769087
1213 2 0.989985 0.233445 0.770999
34 3 0.0842046 0.171666 0.787684
1073 4 0.09795 0.184607 0.781704
1072 2 0.120901 0.181368 0.791081
1074 4 0.143852 0.17813 0.800459
1129 2 0.221397 0.185318 0.757828
1131 4 0.200259 0.197406 0.763504
1299 4 0.375827 0.162449 0.778113
1297 2 0.386826 0.182949 0.787276