ITEM: TIMESTEP
2670000
ITEM: NUMBER OF ATOMS
4590
ITEM: BOX BOUNDS pp pp pp
-9.9985700000000008e+00 9.9985700000000008e+00
-9.9985700000000008e+00 9.9985700000000008e+00
-9.9985700000000008e+00 9.9985700000000008e+00
ITEM: ATOMS id type xs ys zs
463 2 0.0435238 0.0521541 0.0161167
464 4 0.0463815 0.0324117 0.0311915
465 4 0.0406662 0.0718965 0.00104188
1668 4 0.0569364 0.0194968 0.042039
1666 2 0.0439368 0.0234127 0.0630355
3290 4 0.0747704 0.010903 0.0376233
3289 2 0.0889143 0.0167461 0.0178499
565 2 0.150156 0.0344791 0.0234477
567 4 0.148456 0.0591234 0.0273139
566 4 0.151855 0.00983478 0.0195815
1475 4 0.284687 0.0096308 0.0812403
492 4 0.299585 0.997386 0.0699865
490 2 0.291967 0.00475451 0.0473403
2143 2 0.355235 0.0243563 0.00384238
2145 4 0.370186 0.0148258 0.0214722
745 2 0.469366 0.0512427 0.0385194
746 4 0.45613 0.0565117 0.0179708
747 4 0.482601 0.0459737 0.0590679
1826 4 0.495946 0.038716 0.0738173
555 4 0.0490792 0.144235 0.999818
3234 4 0.102387 0.16737 0.00338436
460 2 0.320047 0.149907 0.0559791
461 4 0.298834 0.162622 0.0596559
353 4 0.28379 0.166821 0.072644
359 4 0.24789 0.149094 0.994027
462 4 0.34126 0.137192 0.0523023
422 4 0.0569043 0.18349 0.0303158
421 2 0.0795478 0.184563 0.0197661
423 4 0.102191 0.185637 0.00921647
506 4 0.170188 0.235547 0.0602564
737 4 0.18041 0.220185 0.0673475
736 2 0.202888 0.21 0.0713729
738 4 0.225365 0.199816 0.0753982
354 4 0.238252 0.186195 0.0798271
352 2 0.261021 0.176508 0.0762355
665 4 0.334314 0.210834 0.0299226
664 2 0.326778 0.199258 0.0090807
1071 4 0.397107 0.247411 0.00407049
1069 2 0.412869 0.230026 0.99544
323 4 0.485551 0.235563 0.0670989
828 4 0.486361 0.232156 0.999601
2807 4 0.0275486 0.255751 0.0191311
2806 2 0.00388177 0.255074 0.0271686
505 2 0.154284 0.253313 0.0527335
294 4 0.0905082 0.300997 0.0728678
292 2 0.110807 0.28728 0.0678704
456 4 0.0949775 0.319063 0.0654137
293 4 0.131105 0.273562 0.062873
507 4 0.13838 0.27108 0.0452105
741 4 0.306959 0.335851 0.0294024
612 4 0.258878 0.301462 0.0630975
610 2 0.271303 0.283385 0.0750977
739 2 0.323438 0.338302 0.0480469
609 4 0.247624 0.316391 0.0704292
573 4 0.379559 0.256527 0.00550499
571 2 0.36428 0.276318 0.00531131
254 4 0.389863 0.269468 0.0785443
324 4 0.461508 0.26195 0.0320791
322 2 0.47353 0.248757 0.049589
454 2 0.0990802 0.341546 0.0755548
250 2 0.288727 0.38766 0.0555239
251 4 0.295479 0.41168 0.0539051
740 4 0.339916 0.340753 0.0666915
252 4 0.281974 0.36364 0.0571427
607 2 0.259559 0.338325 0.0716972
608 4 0.271495 0.36026 0.0729652
226 2 0.378889 0.382771 0.0275764
228 4 0.370516 0.400586 0.0429931
227 4 0.387263 0.364956 0.0121597
1305 4 0.396123 0.347708 0.00766566
281 4 0.428574 0.356008 0.0691297
280 2 0.452043 0.348532 0.0648288
282 4 0.475512 0.341056 0.060528
671 4 0.41522 0.370796 0.065149
1047 4 0.494792 0.351905 0.0592679
552 4 0.0286379 0.457725 0.0549194
314 4 0.017951 0.441801 0.0591176
550 2 0.0243466 0.479851 0.0440929
313 2 0.0302843 0.435073 0.079801
795 4 0.145222 0.466645 0.990592
243 4 0.228633 0.481371 0.0497185
1440 4 0.23355 0.463011 0.0575707
1290 4 0.21116 0.438596 0.00372784
241 2 0.210985 0.487722 0.0331841
1288 2 0.205547 0.414292 0.00544509
242 4 0.193336 0.494072 0.0166497
524 4 0.310904 0.424184 0.062572
271 2 0.272986 0.487658 0.0681942
272 4 0.27857 0.471557 0.0864907
523 2 0.333172 0.419495 0.0522112
525 4 0.35544 0.414807 0.0418504
1583 4 0.437837 0.454163 0.0581545
1582 2 0.449894 0.468617 0.0746132
1667 4 0.0309371 0.0273285 0.084032
16 1 0.034759 0.0466893 0.120458
2480 4 0.00602179 0.0557647 0.151265
18 3 0.0344673 0.0681946 0.11175
19 3 0.0176349 0.0441682 0.135912
2479 2 0.00233946 0.0785404 0.160903
17 3 0.0315767 0.0316815 0.103318
20 3 0.0548449 0.0425956 0.13038
1422 4 0.000678699 0.0342563 0.147955
450 4 0.123413 0.0836152 0.116973
652 2 0.249103 0.0431647 0.149387
1505 4 0.19443 0.0147025 0.166753
654 4 0.256212 0.0477642 0.125861
1476 4 0.268355 0.0468838 0.11033
1474 2 0.276521 0.0282573 0.095785
297 4 0.365931 0.02468 0.0823475
295 2 0.383208 0.0394823 0.0927202
296 4 0.400484 0.0542846 0.103093
484 2 0.344674 0.00169741 0.106416
485 4 0.346973 0.0194473 0.0889566
557 4 0.412953 0.0695408 0.0960006
556 2 0.430808 0.0849627 0.10428
236 4 0.142927 0.136145 0.103957
449 4 0.124868 0.133431 0.112852
448 2 0.124141 0.108523 0.114912
235 2 0.14394 0.159164 0.113665
580 2 0.312402 0.129478 0.15558
581 4 0.288583 0.132517 0.162552
30 3 0.271507 0.129204 0.150978
582 4 0.336221 0.126438 0.148608
758 4 0.351206 0.1277 0.162353
558 4 0.448663 0.100384 0.11256
771 4 0.456007 0.1103 0.128073
769 2 0.451948 0.110945 0.152736
370 2 0.158273 0.210445 0.156048
372 4 0.143964 0.230478 0.160421
237 4 0.144953 0.182184 0.123373
362 4 0.149206 0.248887 0.162984
371 4 0.172581 0.190412 0.151674
476 4 0.190226 0.181331 0.149907
475 2 0.209275 0.169842 0.161323
279 4 0.265468 0.245405 0.144417
277 2 0.269769 0.247945 0.119917
285 4 0.265721 0.237735 0.163142
754 2 0.342421 0.241811 0.150979
338 4 0.0575658 0.276347 0.121235
337 2 0.0631823 0.29341 0.138628
704 4 0.0517133 0.311208 0.16565
339 4 0.0687989 0.310473 0.15602
611 4 0.283728 0.265307 0.0870979
278 4 0.27407 0.250484 0.0954176
630 4 0.408269 0.267266 0.0851361
756 4 0.345193 0.253479 0.12904
253 2 0.37282 0.266106 0.0965283
255 4 0.355778 0.262744 0.114512
624 4 0.437546 0.263072 0.129649
629 4 0.447247 0.255177 0.114037
628 2 0.427758 0.261221 0.0995867
622 2 0.431448 0.260095 0.153714
621 4 0.0531117 0.424779 0.117319
619 2 0.0441467 0.403375 0.12663
620 4 0.0351816 0.381971 0.13594
455 4 0.103183 0.364029 0.085696
647 4 0.126889 0.389552 0.157971
537 4 0.140754 0.380752 0.14579
535 2 0.157936 0.395188 0.134764
536 4 0.175117 0.409624 0.123738
386 4 0.344935 0.342467 0.0864595
385 2 0.350437 0.358356 0.104964
387 4 0.355938 0.374245 0.123469
12 3 0.398231 0.387136 0.115916
11 1 0.386611 0.398936 0.131881
15 3 0.365045 0.391634 0.132389
672 4 0.409617 0.400024 0.105336
302 4 0.346257 0.396201 0.123532
13 3 0.396626 0.39549 0.152526
670 2 0.412418 0.38541 0.0852426
104 3 0.481383 0.343771 0.0793646
315 4 0.0426177 0.428345 0.100484
1431 4 0.177426 0.494394 0.163023
1438 2 0.229104 0.454362 0.0806057
625 2 0.231445 0.436613 0.139762
1439 4 0.224657 0.445714 0.103641
627 4 0.228227 0.453747 0.121838
638 4 0.270588 0.458662 0.160578
637 2 0.274044 0.480876 0.149633
303 4 0.321847 0.43735 0.138079
301 2 0.334052 0.416776 0.130806
659 4 0.335641 0.451218 0.142038
14 3 0.387207 0.421488 0.126453
494 4 0.388403 0.482286 0.113361
495 4 0.397815 0.433187 0.114551
493 2 0.393109 0.457736 0.113956
658 2 0.347405 0.463494 0.16037
1674 4 0.446622 0.490133 0.10162
1584 4 0.461951 0.483072 0.0910718
690 4 0.170651 0.0565048 0.186548
653 4 0.241994 0.0385652 0.172914
674 4 0.167895 0.0604634 0.205668
673 2 0.179184 0.0632471 0.227804
689 4 0.207436 0.0298538 0.165637
688 2 0.189043 0.0431793 0.176092
693 4 0.246343 0.0470327 0.190766
675 4 0.190472 0.0660308 0.24994
691 2 0.263126 0.0625207 0.200946
1699 2 0.324144 0.0808455 0.210876
692 4 0.279909 0.0780087 0.211126
1700 4 0.348202 0.0859387 0.206353
22 3 0.386587 0.0533682 0.218159
698 4 0.394095 0.0535019 0.235844
21 1 0.377006 0.0742808 0.217993
333 4 0.401777 0.0740981 0.23862
25 3 0.380442 0.0839445 0.197659
23 3 0.354251 0.0721389 0.221997
759 4 0.363723 0.095257 0.19829
349 2 0.480432 0.077095 0.242939
351 4 0.501742 0.0656383 0.236631
2481 4 0.998657 0.101316 0.170541
511 2 0.00844477 0.154273 0.196903
513 4 0.0254436 0.167596 0.209501
29 3 0.238454 0.143843 0.161509
477 4 0.228324 0.158353 0.172739
28 3 0.250959 0.11152 0.177107
27 3 0.26782 0.144179 0.184964
1701 4 0.300086 0.0757523 0.215398
26 1 0.25723 0.132127 0.168479
24 3 0.3868 0.0871506 0.234632
757 2 0.357464 0.111479 0.180321
331 2 0.422504 0.0866742 0.244734
770 4 0.447889 0.111591 0.1774
312 4 0.463029 0.121739 0.185247
311 4 0.500108 0.13152 0.217343
310 2 0.481568 0.126629 0.201295
578 4 0.0414362 0.159633 0.220104
577 2 0.0453931 0.182144 0.230243
529 2 0.019913 0.230455 0.218609
530 4 0.0365526 0.215084 0.229193
579 4 0.04935 0.204655 0.240381
531 4 0.00327343 0.245827 0.208025
2483 4 0.99274 0.238171 0.192939
402 4 0.229907 0.213844 0.245333
755 4 0.339648 0.230142 0.172919
703 2 0.0308854 0.322672 0.173393
395 4 0.0799578 0.301017 0.170931
396 4 0.0885621 0.285232 0.217594
394 2 0.0842599 0.293125 0.194262
442 2 0.0781163 0.265965 0.24997
361 2 0.13235 0.265347 0.171357
443 4 0.0867531 0.2676 0.226563
363 4 0.115493 0.281806 0.179731
283 2 0.269204 0.26039 0.173133
284 4 0.272687 0.283044 0.183124
345 4 0.31055 0.343406 0.248363
528 4 0.423919 0.306686 0.218561
623 4 0.42535 0.257117 0.177779
527 4 0.426494 0.261841 0.196583
526 2 0.425207 0.284263 0.207572
542 4 0.429396 0.312815 0.237181
262 2 0.0618205 0.405811 0.254287
300 4 0.0816249 0.364987 0.202707
705 4 0.0100576 0.334136 0.181136
646 2 0.113518 0.379794 0.176711
299 4 0.103889 0.360853 0.247293
648 4 0.100148 0.370035 0.195451
298 2 0.0927568 0.36292 0.225
290 4 0.214793 0.412469 0.227941
596 4 0.331275 0.348008 0.179204
597 4 0.368554 0.381335 0.179717
595 2 0.349914 0.364671 0.17946
645 4 0.38419 0.389139 0.16986
643 2 0.397825 0.400359 0.187563
644 4 0.411459 0.411579 0.205266
263 4 0.0445959 0.414418 0.238337
416 4 0.205314 0.430163 0.232525
1429 2 0.176403 0.470337 0.16976
626 4 0.234663 0.419478 0.157685
1430 4 0.17538 0.44628 0.176497
417 4 0.17466 0.446487 0.196545
415 2 0.189987 0.438325 0.214535
660 4 0.359169 0.475771 0.178702
231 4 0.350607 0.485442 0.193638
447 4 0.408324 0.430999 0.208496
445 2 0.414106 0.433105 0.23273
1403 4 0.00872609 0.0160184 0.27523
233 4 0.0034537 0.0321073 0.264858
232 2 0.0146354 0.0544612 0.264188
234 4 0.0258172 0.0768152 0.263518
317 4 0.0450931 0.0691823 0.267837
316 2 0.0658183 0.0782033 0.278527
318 4 0.0865436 0.0872243 0.289216
722 4 0.187667 0.0812647 0.262226
721 2 0.202372 0.0848565 0.282126
1405 2 0.204728 0.0125546 0.293731
1406 4 0.180097 0.0127406 0.289437
697 2 0.403889 0.036569 0.251417
699 4 0.413684 0.019636 0.26699
1518 4 0.423542 0.0213269 0.284928
425 4 0.449065 0.0215976 0.312429
424 2 0.462017 0.0410338 0.303504
258 4 0.482056 0.0787319 0.289674
426 4 0.474969 0.06047 0.294579
1516 2 0.427413 0.998929 0.295347
391 2 0.0995191 0.136525 0.287757
392 4 0.111177 0.126752 0.267913
393 4 0.0878616 0.146297 0.307601
544 2 0.150185 0.147822 0.268723
545 4 0.129736 0.133459 0.269567
546 4 0.170634 0.162185 0.26788
399 4 0.0987836 0.145379 0.323867
723 4 0.217078 0.0884482 0.302027
599 4 0.228407 0.105109 0.302627
404 4 0.226564 0.128415 0.298687
403 2 0.222 0.15207 0.291992
598 2 0.228684 0.101683 0.327393
332 4 0.443232 0.0992503 0.250847
350 4 0.459121 0.0885516 0.249248
256 2 0.481722 0.0942512 0.309276
257 4 0.481389 0.109771 0.328877
405 4 0.217436 0.175724 0.285298
401 4 0.220642 0.194167 0.290362
400 2 0.225274 0.204005 0.267848
765 4 0.432171 0.210417 0.319103
763 2 0.456031 0.205298 0.313656
764 4 0.479891 0.200179 0.30821
444 4 0.0694794 0.264331 0.273378
615 4 0.408625 0.330597 0.300452
498 4 0.338682 0.260909 0.339969
541 2 0.42329 0.322067 0.259592
543 4 0.417184 0.33132 0.282004
366 4 0.0505302 0.341412 0.300032
365 4 0.00878931 0.368704 0.303712
749 4 0.0706793 0.343636 0.295645
364 2 0.0296598 0.355058 0.301872
748 2 0.0871283 0.343774 0.276815
602 4 0.0825243 0.385783 0.299987
750 4 0.103577 0.343911 0.257984
777 4 0.0919241 0.404939 0.300456
735 4 0.138793 0.393117 0.275432
601 2 0.0904549 0.380199 0.323032
677 4 0.152714 0.408269 0.276817
733 2 0.1492 0.37072 0.279338
734 4 0.159607 0.348323 0.283244
264 4 0.0790452 0.397203 0.270237
289 2 0.223261 0.408581 0.251143
291 4 0.231729 0.404693 0.274345
414 4 0.230588 0.396674 0.292961
343 2 0.334457 0.349834 0.251871
412 2 0.249779 0.410965 0.30022
309 4 0.362999 0.352285 0.274797
344 4 0.358365 0.356262 0.255379
307 2 0.363672 0.361896 0.297869
727 2 0.345929 0.409894 0.331499
729 4 0.355119 0.387269 0.326126
308 4 0.364345 0.371508 0.320942
613 2 0.407204 0.340219 0.323487
2924 4 0.496376 0.36184 0.32402
2923 2 0.475693 0.360533 0.310032
2925 4 0.45501 0.359225 0.296044
713 4 0.474223 0.412918 0.293835
120 3 0.494499 0.413889 0.303513
712 2 0.453139 0.420258 0.282577
1757 4 0.116024 0.462675 0.284909
776 4 0.10489 0.448079 0.278741
775 2 0.0984068 0.426509 0.289599
1756 2 0.111392 0.487096 0.282196
767 4 0.219351 0.497976 0.267589
676 2 0.170916 0.424448 0.282483
678 4 0.189118 0.440627 0.288148
768 4 0.201334 0.45214 0.276264
766 2 0.210343 0.475058 0.271927
504 4 0.191988 0.441544 0.326089
1640 4 0.236128 0.489227 0.26072
413 4 0.26897 0.425255 0.307479
438 4 0.308828 0.440212 0.267574
437 4 0.286031 0.439692 0.31208
436 2 0.29743 0.439952 0.289827
1437 4 0.275728 0.456375 0.305449
5 3 0.27717 0.426626 0.327734
1435 2 0.259859 0.465256 0.32261
433 2 0.330258 0.467505 0.327673
728 4 0.336739 0.432518 0.336872
435 4 0.34225 0.489128 0.323957
2862 4 0.492407 0.411326 0.28035
446 4 0.419889 0.435212 0.256965
714 4 0.432054 0.427599 0.271318
2756 4 0.00777194 0.0434267 0.417145
730 2 0.105719 0.0571067 0.384836
604 2 0.158364 0.0489292 0.358961
732 4 0.117195 0.0647057 0.363962
605 4 0.136544 0.0606736 0.362294
731 4 0.0942417 0.0495078 0.40571
606 4 0.180185 0.0371849 0.355628
319 2 0.255722 0.0723307 0.41119
321 4 0.262292 0.0608807 0.389955
249 4 0.312891 0.0718475 0.345202
684 4 0.294777 0.0727034 0.338308
683 4 0.266049 0.077085 0.379005
682 2 0.280413 0.0748942 0.358656
247 2 0.335847 0.0718434 0.355112
248 4 0.358802 0.0718394 0.365023
633 4 0.373511 0.0813055 0.375936
480 4 0.502067 0.00906953 0.33594
1749 4 0.482508 0.00845986 0.334364
397 2 0.114407 0.161452 0.334946
600 4 0.228961 0.0982561 0.35216
685 2 0.223976 0.120609 0.378759
687 4 0.21525 0.11082 0.35747
686 4 0.232702 0.130399 0.400047
410 4 0.231102 0.130596 0.420251
707 4 0.266814 0.177242 0.36154
631 2 0.38239 0.0929928 0.396178
419 4 0.381842 0.159096 0.415978
716 4 0.377419 0.160206 0.395238
632 4 0.39127 0.10468 0.416421
760 2 0.491479 0.138511 0.354408
762 4 0.494312 0.149202 0.376832
398 4 0.13003 0.177526 0.346025
388 2 0.0969606 0.241061 0.414263
276 4 0.133731 0.246384 0.392591
389 4 0.118972 0.250435 0.406996
274 2 0.151041 0.247884 0.37461
473 4 0.219059 0.210463 0.356478
474 4 0.188929 0.250045 0.361584
472 2 0.203994 0.230254 0.359031
708 4 0.221821 0.196675 0.371473
706 2 0.244318 0.186958 0.366506
651 4 0.244851 0.240769 0.397352
649 2 0.240596 0.22008 0.410732
275 4 0.168351 0.249384 0.356629
377 4 0.371706 0.218772 0.380871
717 4 0.373896 0.202556 0.368879
715 2 0.375657 0.181381 0.382059
376 2 0.355731 0.231334 0.366304
378 4 0.339757 0.243895 0.351737
269 4 0.503942 0.227916 0.35015
268 2 0.485566 0.233888 0.36602
270 4 0.46719 0.239861 0.381889
306 4 0.456093 0.249048 0.395368
618 4 0.0120398 0.247579 0.413401
696 4 0.116397 0.318039 0.411513
489 4 0.234173 0.248805 0.383551
487 2 0.248643 0.269049 0.381108
488 4 0.263114 0.289293 0.378665
508 2 0.242115 0.319619 0.35861
509 4 0.260424 0.305358 0.367916
496 2 0.340029 0.284344 0.331356
497 4 0.341376 0.307778 0.322743
2456 4 0.396559 0.251781 0.412847
266 4 0.352991 0.313014 0.390578
585 4 0.346022 0.296529 0.3994
583 2 0.366799 0.28339 0.403969
584 4 0.387576 0.270251 0.408537
304 2 0.466823 0.258737 0.415768
547 2 0.0943587 0.401069 0.373189
549 4 0.104457 0.379767 0.364859
603 4 0.0983855 0.374615 0.346078
548 4 0.0842599 0.422372 0.381518
510 4 0.223807 0.33388 0.349304
375 4 0.223391 0.39858 0.351999
374 4 0.23526 0.350003 0.352337
373 2 0.229326 0.374291 0.352168
3 3 0.288592 0.399444 0.35115
267 4 0.328598 0.343606 0.359436
265 2 0.340795 0.32831 0.375007
614 4 0.405784 0.349841 0.346521
119 3 0.500963 0.419891 0.340117
561 4 0.467026 0.412038 0.408006
752 4 0.484513 0.414877 0.397835
407 4 0.0739835 0.427025 0.398859
680 4 0.0347638 0.480792 0.404934
406 2 0.0633378 0.44927 0.402982
408 4 0.052692 0.471515 0.407104
569 4 0.108863 0.459654 0.403928
635 4 0.139622 0.486759 0.396499
634 2 0.157714 0.472657 0.38655
636 4 0.175805 0.458555 0.3766
1545 4 0.247864 0.489875 0.350426
502 2 0.18417 0.439254 0.349728
503 4 0.176351 0.436964 0.373367
1436 4 0.24399 0.474136 0.339771
434 4 0.318266 0.445882 0.331389
2 3 0.312067 0.426972 0.340964
1 1 0.290151 0.421982 0.345861
668 4 0.292914 0.451952 0.365982
4 3 0.283389 0.43485 0.363946
667 2 0.297729 0.471376 0.380972
669 4 0.302544 0.4908 0.395962
1401 4 0.323062 0.48982 0.394983
751 2 0.484617 0.41336 0.372877
753 4 0.484721 0.411843 0.34792
2755 2 0.00356604 0.0680369 0.418497
718 2 0.0337782 0.0687571 0.470994
719 4 0.0566563 0.0760404 0.464014
369 4 0.071058 0.062265 0.462182
720 4 0.0109 0.0614738 0.477974
367 2 0.086162 0.059358 0.442469
368 4 0.101266 0.0564511 0.422756
341 4 0.172017 0.0774666 0.451742
441 4 0.219567 0.00602637 0.458672
2430 4 0.175622 0.0582823 0.455919
2428 2 0.190686 0.038481 0.45344
2429 4 0.205751 0.0186797 0.45096
467 4 0.35716 0.0724997 0.467787
2879 4 0.441997 0.00460078 0.452551
2878 2 0.453399 0.0264585 0.448378
2880 4 0.464801 0.0483161 0.444205
642 4 0.479879 0.0497478 0.457025
640 2 0.497027 0.0677194 0.454174
2757 4 0.99936 0.0926471 0.419848
261 4 0.0674179 0.164789 0.502607
725 4 0.238802 0.0978842 0.44229
409 2 0.235484 0.155061 0.422977
340 2 0.185423 0.0931696 0.465844
1152 4 0.198335 0.129438 0.478255
342 4 0.198829 0.108873 0.479946
724 2 0.252425 0.0967159 0.463224
320 4 0.249152 0.0837808 0.432424
430 2 0.295041 0.0931883 0.499292
432 4 0.275168 0.108186 0.496988
726 4 0.266049 0.0955475 0.484158
418 2 0.36568 0.141995 0.424438
420 4 0.349519 0.124895 0.432898
466 2 0.368277 0.08244 0.447717
468 4 0.379394 0.0923803 0.427648
574 2 0.406406 0.148471 0.465141
576 4 0.383905 0.154595 0.474161
516 4 0.431945 0.160844 0.449656
575 4 0.428908 0.142347 0.45612
514 2 0.455352 0.164924 0.441869
470 4 0.0581627 0.222485 0.426081
390 4 0.0749492 0.231687 0.421529
469 2 0.0592451 0.199959 0.43688
260 4 0.0640863 0.15822 0.453145
471 4 0.0603276 0.177433 0.447678
259 2 0.0657521 0.161505 0.477876
650 4 0.23634 0.19939 0.424112
411 4 0.239867 0.179526 0.425703
2455 2 0.390053 0.228276 0.418359
2457 4 0.383547 0.204771 0.42387
515 4 0.478759 0.169003 0.434081
616 2 0.0301529 0.264001 0.418637
617 4 0.0482661 0.280422 0.423874
695 4 0.0784636 0.287308 0.422348
694 2 0.0974302 0.302674 0.416931
1260 4 0.132057 0.307594 0.420688
1258 2 0.15535 0.298561 0.419664
1259 4 0.178642 0.289528 0.41864
1011 4 0.493409 0.278621 0.441132
305 4 0.477553 0.268427 0.436168
326 4 0.0890579 0.395982 0.429821
325 2 0.0961751 0.383446 0.450251
10 3 0.144218 0.364828 0.468515
7 3 0.112129 0.36567 0.487553
327 4 0.103292 0.37091 0.470681
6 1 0.134986 0.367722 0.489131
8 3 0.140079 0.388878 0.497188
711 4 0.130681 0.400868 0.483939
238 2 0.360836 0.388595 0.462831
240 4 0.354098 0.411403 0.455115
239 4 0.367575 0.365786 0.470547
2506 2 0.495359 0.359934 0.465569
559 2 0.468912 0.397937 0.428567
2508 4 0.477359 0.377079 0.468257
560 4 0.470799 0.383836 0.449129
540 4 0.0491533 0.487701 0.475278
538 2 0.0600745 0.487643 0.49777
1382 4 0.0350274 0.487691 0.459305
1381 2 0.0122705 0.477956 0.462844
773 4 0.148543 0.501282 0.472496
384 4 0.141536 0.50143 0.493031
568 2 0.119016 0.447493 0.423272
710 4 0.145418 0.437309 0.453026
570 4 0.129169 0.435332 0.442616
772 2 0.140108 0.487399 0.453488
709 2 0.13805 0.419089 0.468482
774 4 0.131673 0.473516 0.434481
1399 2 0.335672 0.491845 0.416478
334 2 0.333056 0.433358 0.44092
336 4 0.311912 0.446198 0.444555
588 4 0.352558 0.508636 0.453091
335 4 0.3542 0.420517 0.437284
1400 4 0.348282 0.49387 0.437974
1127 4 0.00454999 0.056319 0.495876
1523 4 0.153737 0.994076 0.520077
949 2 0.213735 0.0753856 0.550493
950 4 0.232171 0.0597888 0.556979
1182 4 0.251044 0.0570176 0.56094
961 2 0.323789 0.0122057 0.567827
1180 2 0.27407 0.0483803 0.556427
963 4 0.312214 0.0273589 0.551654
1181 4 0.297096 0.039743 0.551914
431 4 0.314914 0.0781906 0.501596
843 4 0.318916 0.0650514 0.515584
1217 4 0.388422 0.0630543 0.522075
841 2 0.343561 0.0630908 0.519319
842 4 0.368206 0.0611301 0.523053
1216 2 0.406544 0.0782688 0.530155
4467 4 0.429105 0.000909523 0.579299
2283 4 0.432599 0.0225453 0.576932
1082 4 0.0616708 0.148024 0.574402
1035 4 0.0602323 0.151005 0.55466
1033 2 0.0608929 0.165781 0.5345
937 2 0.144918 0.144959 0.54073
938 4 0.12229 0.144911 0.551367
1030 2 0.162364 0.0970234 0.56848
939 4 0.167546 0.145007 0.530092
1032 4 0.140866 0.092981 0.58059
1031 4 0.183862 0.101066 0.556369
951 4 0.1953 0.0909823 0.544008
1151 4 0.185821 0.143766 0.524502
1150 2 0.192078 0.136602 0.501378
857 4 0.320604 0.128274 0.56962
858 4 0.277234 0.153122 0.57116
856 2 0.298919 0.140698 0.57039
898 2 0.3542 0.151393 0.573665
899 4 0.338683 0.131838 0.575081
1218 4 0.424666 0.0934834 0.538236
1034 4 0.0615535 0.180557 0.51434
879 4 0.0850733 0.236752 0.57731
877 2 0.086051 0.236091 0.552335
878 4 0.0870287 0.235429 0.527359
811 2 0.319578 0.228199 0.564763
812 4 0.294706 0.230762 0.564793
796 2 0.278118 0.191974 0.575269
798 4 0.282393 0.214953 0.56639
813 4 0.34445 0.225637 0.564734
900 4 0.369717 0.170948 0.57225
872 4 0.384431 0.184874 0.57507
873 4 0.360045 0.221747 0.551694
871 2 0.372238 0.203311 0.563382
1190 4 0.251618 0.325687 0.509025
1191 4 0.202125 0.3319 0.512566
1189 2 0.226871 0.328794 0.510795
1205 4 0.409226 0.315048 0.569676
1204 2 0.384564 0.319102 0.568951
1206 4 0.359902 0.323156 0.568226
954 4 0.423967 0.308647 0.580181
952 2 0.436089 0.287584 0.586063
953 4 0.448211 0.266521 0.591945
905 4 0.464449 0.256833 0.584964
9 3 0.142979 0.351552 0.503726
1135 2 0.166042 0.38411 0.576392
897 4 0.164022 0.345132 0.563488
896 4 0.184558 0.338822 0.51833
1137 4 0.170298 0.363473 0.562932
895 2 0.17429 0.341977 0.540909
803 4 0.256875 0.345945 0.506963
802 2 0.278319 0.353783 0.517156
804 4 0.299762 0.361622 0.52735
929 4 0.308775 0.35847 0.545206
928 2 0.330408 0.347027 0.550333
930 4 0.35204 0.335584 0.555461
1001 4 0.449709 0.392788 0.552091
926 4 0.461925 0.380574 0.542234
925 2 0.481761 0.37995 0.527024
1000 2 0.456567 0.397824 0.575602
539 4 0.0709957 0.487586 0.520262
934 2 0.00955123 0.483574 0.575484
936 4 0.0327373 0.492856 0.574287
1936 2 0.0656822 0.498058 0.552975
1938 4 0.0519414 0.496907 0.573833
1937 4 0.079423 0.499208 0.532118
1171 2 0.247592 0.465169 0.580888
882 4 0.281177 0.476487 0.56385
880 2 0.277966 0.492797 0.545172
1172 4 0.272165 0.469784 0.580786
1058 4 0.0800854 0.011956 0.636594
1155 4 0.080144 0.075789 0.613273
1057 2 0.0810656 0.0362977 0.630964
1059 4 0.0820457 0.0606394 0.625334
2282 4 0.461087 0.0412692 0.613518
2281 2 0.446843 0.0319073 0.595225
43 3 0.468514 0.0547208 0.625235
41 1 0.481853 0.0666542 0.640003
44 3 0.469134 0.0740911 0.657928
45 3 0.491336 0.0843883 0.629315
42 3 0.498442 0.052808 0.647892
1081 2 0.0400481 0.147737 0.586954
1083 4 0.0184255 0.14745 0.599506
1153 2 0.0997277 0.0911855 0.615419
1154 4 0.119311 0.106582 0.617566
1221 4 0.138201 0.0989144 0.623691
1219 2 0.152637 0.110068 0.64079
1220 4 0.167073 0.121222 0.657888
1212 4 0.211782 0.125751 0.651831
1210 2 0.23177 0.134688 0.663903
1004 4 0.301378 0.0905408 0.657007
1003 2 0.289766 0.0921735 0.634924
1005 4 0.278154 0.0938061 0.612841
797 4 0.273843 0.168995 0.584149
1272 4 0.103149 0.240734 0.583819
1270 2 0.120641 0.224625 0.591547
1271 4 0.138133 0.208516 0.599274
909 4 0.153491 0.210756 0.611826
907 2 0.159724 0.217061 0.635205
1025 4 0.370301 0.183911 0.656685
1024 2 0.387397 0.19708 0.644057
1026 4 0.404493 0.21025 0.631428
1143 4 0.363764 0.165445 0.649748
1064 4 0.213877 0.31464 0.648229
1063 2 0.204927 0.297051 0.663582
1239 4 0.267775 0.295627 0.580637
1237 2 0.285076 0.289692 0.597685
792 4 0.312835 0.298882 0.623294
790 2 0.334996 0.29605 0.634522
1238 4 0.302377 0.283757 0.614733
791 4 0.357156 0.293219 0.64575
3123 4 0.469475 0.269043 0.659417
906 4 0.492999 0.255772 0.626007
904 2 0.478724 0.256302 0.605486
983 4 0.0513038 0.402382 0.592998
1041 4 0.0611303 0.41344 0.607831
982 2 0.0265078 0.399201 0.592528
1039 2 0.0857786 0.416585 0.610615
992 4 0.160359 0.422945 0.597596
1136 4 0.161785 0.404748 0.589851
1002 4 0.463425 0.402861 0.599114
1910 4 0.454443 0.406625 0.616137
3330 4 0.495021 0.400675 0.650441
991 2 0.138987 0.429596 0.60874
993 4 0.117614 0.436246 0.619883
1040 4 0.110427 0.419729 0.613398
1160 4 0.212688 0.477518 0.582461
1159 2 0.190113 0.486448 0.588442
1173 4 0.223018 0.460555 0.580989
2172 4 0.210152 0.493003 0.647293
1175 4 0.25605 0.472757 0.624008
1174 2 0.274481 0.48708 0.632972
889 2 0.366278 0.492939 0.661678
891 4 0.358597 0.499655 0.63885
1911 4 0.445786 0.436787 0.655073
1909 2 0.450114 0.421706 0.635605
1268 4 0.429311 0.445565 0.650734
1267 2 0.428563 0.469612 0.657544
1269 4 0.427815 0.493658 0.664355
1185 4 0.0222143 0.0646105 0.664491
945 4 0.029691 0.062064 0.682254
943 2 0.0407854 0.064187 0.704561
1076 4 0.0364587 0.0654928 0.73937
944 4 0.0518797 0.0663099 0.726868
1283 4 0.168063 0.108672 0.673029
32 3 0.0997029 0.109021 0.745095
1282 2 0.179194 0.108798 0.695419
1284 4 0.190324 0.108924 0.717808
1227 4 0.192933 0.11407 0.737616
831 4 0.345138 0.0935558 0.702303
1211 4 0.251759 0.143626 0.675976
888 4 0.268078 0.154441 0.681941
886 2 0.283252 0.134598 0.68085
887 4 0.298426 0.114755 0.67976
829 2 0.324056 0.0949295 0.688931
830 4 0.302973 0.0963032 0.675558
976 2 0.298029 0.169214 0.720754
978 4 0.274973 0.164245 0.729055
1142 4 0.345395 0.145499 0.691765
1141 2 0.354579 0.155472 0.670757
1107 4 0.0439741 0.18579 0.736944
851 4 0.0259616 0.177655 0.744122
850 2 0.00684521 0.189499 0.733192
1208 4 0.0805473 0.241652 0.686994
822 4 0.138841 0.215524 0.706158
1278 4 0.154717 0.210129 0.71774
820 2 0.11892 0.225934 0.695207
821 4 0.0989978 0.236345 0.684256
947 4 0.161422 0.236229 0.67374
908 4 0.165957 0.223366 0.658584
1276 2 0.167236 0.217819 0.737972
946 2 0.181911 0.248788 0.68064
977 4 0.321085 0.174183 0.712453
916 2 0.326651 0.216426 0.716235
918 4 0.330048 0.191765 0.718575
917 4 0.323255 0.241087 0.713894
3122 4 0.495708 0.232736 0.68165
3121 2 0.482591 0.25089 0.670534
1261 2 0.430824 0.22533 0.746671
1262 4 0.419386 0.24603 0.738556
1207 2 0.0682671 0.262383 0.693672
1209 4 0.0559869 0.283114 0.70035
1244 4 0.00678272 0.292867 0.674605
1243 2 0.00549609 0.279918 0.695955
1065 4 0.195977 0.279463 0.678935
948 4 0.202401 0.261348 0.68754
1240 2 0.240191 0.304605 0.71722
1242 4 0.225701 0.324526 0.712933
1097 4 0.304634 0.259234 0.731053
1241 4 0.254681 0.284684 0.721507
1008 4 0.325044 0.25699 0.727338
1096 2 0.280867 0.262296 0.723914
1098 4 0.257101 0.265358 0.716774
1006 2 0.342967 0.259917 0.744525
1192 2 0.426089 0.280741 0.74738
1194 4 0.422881 0.263837 0.729238
1279 2 0.0560995 0.382329 0.705955
3275 4 0.0482623 0.392406 0.741202
1280 4 0.0408571 0.392418 0.723015
1281 4 0.071342 0.37224 0.688894
893 4 0.131538 0.346956 0.699212
892 2 0.11077 0.360846 0.698257
894 4 0.0900014 0.374736 0.697302
940 2 0.165776 0.40807 0.743537
942 4 0.143563 0.407656 0.755009
1028 4 0.229856 0.365249 0.672761
941 4 0.187988 0.408485 0.732065
1068 4 0.229841 0.375716 0.69002
1067 4 0.201624 0.391461 0.728186
1066 2 0.215733 0.383588 0.709103
1027 2 0.246576 0.382807 0.666654
1029 4 0.263297 0.400366 0.660547
1139 4 0.278246 0.401751 0.67227
1228 2 0.364623 0.406634 0.728412
1229 4 0.340641 0.404892 0.721556
1138 2 0.284454 0.420497 0.687607
1140 4 0.290662 0.439243 0.702944
1989 4 0.296965 0.447321 0.721391
1987 2 0.304867 0.460101 0.741376
890 4 0.373959 0.486223 0.684505
1100 4 0.496452 0.489151 0.723401
1099 2 0.475832 0.502092 0.717698
1250 4 0.491959 0.476235 0.740248
1075 2 0.0434584 0.0523103 0.75943
1077 4 0.0504581 0.0391277 0.77949
1203 4 0.067529 0.0304033 0.787146
1201 2 0.0910931 0.0256567 0.780262
2049 4 0.131394 0.0240768 0.763063
1202 4 0.114657 0.0209102 0.773379
2047 2 0.15089 0.0087201 0.760018
1148 4 0.171529 0.0420757 0.760815
1147 2 0.193476 0.0468738 0.771792
1149 4 0.215422 0.0516718 0.782769
1049 4 0.231617 0.0386409 0.786647
1048 2 0.250491 0.0281685 0.774026
1050 4 0.269364 0.0176961 0.761405
846 4 0.47647 0.00927853 0.764419
1113 4 0.465156 0.993021 0.762063
1105 2 0.0566907 0.166506 0.746515
35 3 0.0875021 0.144047 0.749248
3387 4 0.0231084 0.114736 0.759848
832 2 0.0460382 0.132144 0.789033
863 4 0.0311079 0.114284 0.819624
833 4 0.0296204 0.130355 0.807806
33 3 0.0723444 0.116375 0.769795
834 4 0.062456 0.133933 0.77026
1106 4 0.0694074 0.147223 0.756087
31 1 0.0918123 0.124522 0.760149
34 3 0.107912 0.12797 0.776499
1073 4 0.11614 0.142428 0.787269
1225 2 0.190356 0.114102 0.762486
1226 4 0.187779 0.114134 0.787356
840 4 0.192236 0.119846 0.807016
838 2 0.212973 0.13296 0.811827
839 4 0.233711 0.146075 0.816638
959 4 0.249199 0.133117 0.817492
818 4 0.374137 0.0859788 0.825958
817 2 0.371582 0.0970163 0.803668
819 4 0.369026 0.108054 0.781379
1084 2 0.368768 0.149198 0.789286
1085 4 0.374658 0.127383 0.778581
3268 2 0.49319 0.151589 0.817155
3270 4 0.484115 0.162768 0.796714
1146 4 0.47618 0.161698 0.778288
778 2 0.0778818 0.216364 0.812722
779 4 0.0595753 0.231423 0.820676
1214 4 0.0537187 0.251337 0.822394
1074 4 0.107339 0.186465 0.809269
780 4 0.0961883 0.201305 0.804768
1072 2 0.111739 0.164446 0.798269
1277 4 0.179756 0.225509 0.758203
1131 4 0.192726 0.22276 0.772075
1130 4 0.200784 0.176956 0.790456
1129 2 0.196755 0.199858 0.781266
1086 4 0.362878 0.171013 0.79999
1299 4 0.35372 0.186944 0.807598
1297 2 0.370722 0.204651 0.802844
1298 4 0.387724 0.222357 0.798089
47 3 0.402933 0.218374 0.810214
49 3 0.416682 0.248824 0.827431
46 1 0.413975 0.22583 0.828966
1263 4 0.442263 0.20463 0.754786
1145 4 0.437539 0.191944 0.768655
1144 2 0.456859 0.176821 0.773472
48 3 0.434708 0.21547 0.830078
1215 4 0.0105695 0.271185 0.806743
1213 2 0.0321441 0.261261 0.814568
1044 4 0.377501 0.259007 0.770107
1007 4 0.36089 0.262844 0.761711
1043 4 0.410222 0.258383 0.807918
1042 2 0.393861 0.258695 0.789012
805 2 0.400935 0.322073 0.773107
806 4 0.41023 0.301403 0.762547
1193 4 0.429297 0.297645 0.765522
1166 4 0.431361 0.260052 0.816108
1167 4 0.477556 0.268443 0.798895
1165 2 0.454458 0.264248 0.807501
1307 4 0.48586 0.276605 0.816022
3274 2 0.0629454 0.404756 0.757236
3276 4 0.0776285 0.417106 0.773269