ITEM: TIMESTEP
820000
ITEM: NUMBER OF ATOMS
4590
ITEM: BOX BOUNDS pp pp pp
-9.9985700000000008e+00 9.9985700000000008e+00
-9.9985700000000008e+00 9.9985700000000008e+00
-9.9985700000000008e+00 9.9985700000000008e+00
ITEM: ATOMS id type xs ys zs
463 2 0.0374723 0.0602395 0.0482997
465 4 0.0327098 0.0766384 0.0665637
464 4 0.0422349 0.0438407 0.0300357
3290 4 0.0365568 0.0312704 0.0154277
1666 2 0.0875021 0.0374208 0.0844452
1667 4 0.0838911 0.0581651 0.0709613
3289 2 0.0575707 0.0213 0.00625229
3291 4 0.0785846 0.0113297 0.997077
1668 4 0.0911131 0.0166766 0.097929
1476 4 0.200932 0.00920957 0.0492645
1474 2 0.224691 0.0128125 0.0423565
1475 4 0.248449 0.0164154 0.0354485
490 2 0.279246 0.0324665 0.0178697
491 4 0.297204 0.0327061 0.000473604
492 4 0.261287 0.0322268 0.0352657
557 4 0.380525 0.0763716 0.0832302
745 2 0.460131 0.0576732 0.0246534
1826 4 0.452808 0.00498005 0.0474301
746 4 0.437677 0.0566442 0.0356052
747 4 0.482585 0.0587022 0.0137016
591 4 0.0241761 0.0924678 0.0745464
701 4 0.0667856 0.138101 0.0140589
700 2 0.073929 0.121873 0.0316887
589 2 0.045672 0.10397 0.0800976
423 4 0.0739307 0.157473 0.0149251
2760 4 0.989239 0.122495 0.0569655
3234 4 0.049859 0.134468 0.00363453
702 4 0.0810724 0.105645 0.0493185
567 4 0.168155 0.107487 0.0653528
565 2 0.18464 0.11397 0.0829991
358 2 0.273943 0.141214 0.0132603
359 4 0.288022 0.136674 0.0334186
556 2 0.369717 0.0937559 0.0688726
558 4 0.358908 0.11114 0.054515
421 2 0.0556273 0.17411 0.0185853
553 2 0.0154255 0.213411 0.0529477
554 4 0.00404065 0.229739 0.0680796
422 4 0.0373239 0.190746 0.0222454
555 4 0.0268103 0.197084 0.0378158
506 4 0.187565 0.221476 0.0694637
1133 4 0.215391 0.193098 0.0136177
505 2 0.177015 0.243796 0.0655075
354 4 0.238909 0.207458 0.080985
353 4 0.285089 0.220976 0.0673693
352 2 0.261999 0.214217 0.0741771
461 4 0.30017 0.216559 0.0810773
665 4 0.41335 0.179185 0.0184336
1069 2 0.395969 0.243181 0.0276504
1071 4 0.375925 0.242976 0.0425953
664 2 0.390725 0.180587 0.00788207
1070 4 0.416014 0.243386 0.0127054
324 4 0.444802 0.228078 0.084381
771 4 0.489468 0.167621 0.0498207
769 2 0.493241 0.166936 0.0745283
292 2 0.155979 0.290393 0.0370874
294 4 0.139797 0.30783 0.0293892
456 4 0.140765 0.323527 0.0424335
293 4 0.172162 0.272956 0.0447857
507 4 0.166464 0.266117 0.0615514
481 2 0.220157 0.288754 0.0415827
482 4 0.225665 0.2936 0.065486
483 4 0.21465 0.283908 0.0176794
573 4 0.371946 0.261885 0.0474486
572 4 0.359211 0.30131 0.0754531
571 2 0.365578 0.281597 0.0614508
281 4 0.445031 0.326759 0.0829379
322 2 0.432559 0.249566 0.0880632
323 4 0.420316 0.271053 0.0917454
280 2 0.461254 0.328229 0.0639688
1168 2 0.0283609 0.332316 0.00136728
1169 4 0.0351862 0.354737 0.0100775
328 2 0.0144896 0.389399 0.000111123
329 4 0.0319228 0.371528 0.998741
454 2 0.143552 0.340187 0.0608691
455 4 0.146338 0.356847 0.0793047
287 4 0.143087 0.405736 0.0116673
252 4 0.266019 0.384537 0.0696769
250 2 0.273214 0.395683 0.0484833
608 4 0.280459 0.377286 0.0827395
282 4 0.477477 0.329698 0.0449997
227 4 0.449585 0.413191 0.025279
551 4 0.0762429 0.459422 0.0591775
314 4 0.0297014 0.453335 0.0685885
550 2 0.0579854 0.476448 0.0605769
552 4 0.0397279 0.493474 0.0619762
244 2 0.212923 0.46403 0.0249732
246 4 0.235031 0.473276 0.0321097
245 4 0.190815 0.454785 0.0178366
242 4 0.172438 0.510062 0.0640957
251 4 0.28041 0.406829 0.0272897
272 4 0.247846 0.475818 0.0461425
271 2 0.258608 0.497299 0.0392194
226 2 0.463533 0.429725 0.0127383
19 3 0.0443467 0.0361356 0.140499
20 3 0.0766051 0.0326478 0.121397
1422 4 0.0381219 0.0151035 0.144739
16 1 0.065968 0.0441538 0.137923
17 3 0.0650128 0.0664245 0.132243
18 3 0.0776462 0.0419902 0.157856
2480 4 0.0225047 0.0293073 0.145562
693 4 0.254424 0.0714178 0.158952
652 2 0.277624 0.0502863 0.126856
654 4 0.293273 0.0362317 0.113338
653 4 0.261975 0.0643409 0.140375
296 4 0.368545 0.0610604 0.0844246
295 2 0.353199 0.0479169 0.0991526
297 4 0.337852 0.0347734 0.113881
485 4 0.348245 0.0273685 0.128797
758 4 0.377608 0.057377 0.15683
484 2 0.332617 0.00865654 0.134347
1759 2 0.465445 0.0139281 0.150857
1760 4 0.482285 0.0323969 0.150151
2723 4 0.494001 0.0450227 0.0910215
1784 4 0.439112 0.997916 0.168794
590 4 0.0671678 0.115471 0.0856487
566 4 0.201125 0.120453 0.100645
582 4 0.264256 0.0898061 0.153663
339 4 0.0795516 0.244733 0.101213
337 2 0.0835295 0.249343 0.125464
477 4 0.154351 0.177859 0.133712
475 2 0.147476 0.185651 0.156454
737 4 0.183106 0.20728 0.0850268
738 4 0.230954 0.206206 0.0995237
736 2 0.20703 0.206743 0.0922753
460 2 0.314427 0.21141 0.100962
462 4 0.328683 0.206261 0.120847
277 2 0.258868 0.248773 0.153775
755 4 0.280786 0.248472 0.118894
255 4 0.327647 0.196861 0.140035
254 4 0.377041 0.200368 0.133061
630 4 0.389554 0.194382 0.117819
253 2 0.352344 0.198615 0.136548
628 2 0.40299 0.214954 0.12245
770 4 0.497015 0.166251 0.099236
629 4 0.416427 0.235526 0.127081
2590 2 0.491794 0.213269 0.151137
2591 4 0.478518 0.193447 0.158621
338 4 0.0875074 0.253952 0.149715
362 4 0.140348 0.287207 0.171044
611 4 0.222626 0.315026 0.14071
756 4 0.30825 0.28669 0.101989
754 2 0.294518 0.267581 0.110442
278 4 0.27059 0.2575 0.133488
610 2 0.241959 0.330458 0.137066
741 4 0.36481 0.29756 0.0945015
622 2 0.410023 0.27177 0.134905
623 4 0.394667 0.290433 0.141313
739 2 0.351758 0.313707 0.108434
624 4 0.425379 0.253107 0.128497
671 4 0.426212 0.333704 0.0851546
527 4 0.463861 0.237703 0.151508
526 2 0.457414 0.257208 0.165761
621 4 0.0328983 0.397606 0.0986974
619 2 0.0492432 0.386047 0.113678
620 4 0.0655882 0.374488 0.128658
647 4 0.0676315 0.384219 0.146566
315 4 0.0186761 0.411681 0.0939668
646 2 0.083263 0.375958 0.164246
537 4 0.160076 0.384079 0.149906
535 2 0.184936 0.384777 0.15249
626 4 0.199612 0.413094 0.131936
536 4 0.209796 0.385476 0.155073
609 4 0.276088 0.343689 0.119521
607 2 0.278274 0.360487 0.10113
612 4 0.261292 0.345889 0.133423
386 4 0.330208 0.342961 0.135762
385 2 0.331343 0.363931 0.149332
387 4 0.332479 0.384901 0.162901
740 4 0.338705 0.329853 0.122366
495 4 0.39589 0.399634 0.15074
672 4 0.404015 0.342412 0.129111
12 3 0.415627 0.350559 0.141682
302 4 0.342126 0.403466 0.161753
14 3 0.411074 0.387867 0.141509
11 1 0.420737 0.370043 0.152792
670 2 0.415113 0.338058 0.107133
13 3 0.443798 0.372558 0.153305
595 2 0.478895 0.351937 0.15271
596 4 0.499437 0.343407 0.141289
597 4 0.458353 0.360467 0.164131
313 2 0.0241888 0.432508 0.0812776
625 2 0.214024 0.430775 0.121697
627 4 0.228437 0.448456 0.111457
639 4 0.23906 0.479311 0.139824
1439 4 0.233623 0.497667 0.135309
637 2 0.23639 0.486507 0.16362
1438 2 0.235021 0.50159 0.110654
493 2 0.398965 0.418736 0.134901
524 4 0.361191 0.480638 0.101201
523 2 0.355523 0.46956 0.122888
525 4 0.349854 0.458482 0.144575
303 4 0.355898 0.451539 0.161628
494 4 0.402039 0.437837 0.119063
301 2 0.349012 0.427503 0.161691
690 4 0.13953 0.017684 0.252542
688 2 0.156719 0.0112847 0.235549
674 4 0.131493 0.0378979 0.251886
1504 2 0.198787 0.992528 0.199523
450 4 0.182099 0.0708662 0.190392
1505 4 0.191255 0.0127169 0.212206
689 4 0.173908 0.0048854 0.218556
691 2 0.238689 0.0589907 0.173891
692 4 0.222954 0.0465635 0.188829
723 4 0.20269 0.0749843 0.247803
1700 4 0.319799 0.0119862 0.251424
21 1 0.365463 0.0714798 0.231904
23 3 0.352154 0.0537748 0.238819
24 3 0.352141 0.0891663 0.224968
25 3 0.379022 0.0648158 0.214863
759 4 0.390004 0.0517413 0.204947
757 2 0.383806 0.0545591 0.180889
381 4 0.996917 0.15664 0.186034
513 4 0.0417652 0.168924 0.227494
511 2 0.0295674 0.165078 0.206009
577 2 0.0835262 0.161774 0.236767
449 4 0.147295 0.106611 0.186969
235 2 0.147607 0.141595 0.206826
237 4 0.138629 0.162498 0.217201
236 4 0.156584 0.120691 0.196451
448 2 0.164697 0.0887385 0.18868
721 2 0.197447 0.0990973 0.251834
580 2 0.284142 0.094884 0.167944
581 4 0.304028 0.0999618 0.182225
30 3 0.295115 0.10267 0.199836
26 1 0.292486 0.109142 0.221512
29 3 0.279912 0.128619 0.222489
28 3 0.281995 0.0923266 0.233578
27 3 0.313153 0.113159 0.230779
311 4 0.464557 0.120452 0.17682
312 4 0.430293 0.0881532 0.193657
310 2 0.447425 0.104303 0.185239
578 4 0.061804 0.170368 0.227852
512 4 0.0173696 0.161231 0.184525
476 4 0.1406 0.193443 0.179195
279 4 0.247145 0.240045 0.174063
285 4 0.275102 0.235014 0.240751
284 4 0.23585 0.207187 0.227128
283 2 0.255476 0.221101 0.23394
764 4 0.436524 0.21525 0.248835
763 2 0.42126 0.225798 0.232074
521 4 0.456111 0.208317 0.246776
394 2 0.0751626 0.272444 0.203176
396 4 0.0617578 0.27922 0.223166
443 4 0.0465353 0.286432 0.234405
749 4 0.0772244 0.332297 0.232976
363 4 0.094917 0.267551 0.163948
361 2 0.117633 0.277379 0.167496
395 4 0.0885674 0.265669 0.183187
372 4 0.157626 0.279983 0.177537
370 2 0.161881 0.2731 0.201195
371 4 0.166136 0.266217 0.224853
345 4 0.245908 0.276763 0.195079
343 2 0.25786 0.292367 0.210533
344 4 0.269813 0.307971 0.225987
309 4 0.282553 0.316754 0.237913
765 4 0.405996 0.236345 0.215313
528 4 0.450967 0.276713 0.180015
748 2 0.0877857 0.349432 0.218143
750 4 0.098347 0.366566 0.203309
300 4 0.107622 0.372963 0.222376
648 4 0.0988944 0.367697 0.181927
298 2 0.123119 0.386476 0.236604
289 2 0.205262 0.409869 0.218775
290 4 0.228875 0.408425 0.226869
15 3 0.412567 0.368936 0.174021
643 2 0.446798 0.37363 0.20106
644 4 0.450275 0.374872 0.225789
645 4 0.443321 0.372387 0.17633
447 4 0.444262 0.394353 0.22812
263 4 0.0537845 0.489967 0.204583
262 2 0.0460475 0.476037 0.223851
264 4 0.0383104 0.462106 0.243119
417 4 0.14639 0.462323 0.193205
415 2 0.159504 0.441084 0.194655
1430 4 0.162113 0.474293 0.18919
291 4 0.181649 0.411314 0.210681
416 4 0.172619 0.419846 0.196104
766 2 0.216022 0.477602 0.222143
768 4 0.20534 0.476299 0.244713
767 4 0.226704 0.478905 0.199574
1429 2 0.180097 0.490213 0.182239
638 4 0.23372 0.493704 0.187417
414 4 0.18756 0.467308 0.245803
659 4 0.373231 0.459461 0.166219
660 4 0.361259 0.49253 0.201769
658 2 0.367245 0.475995 0.183994
231 4 0.366118 0.487383 0.220948
234 4 0.013914 0.0330633 0.327998
232 2 0.0314266 0.0220609 0.313947
233 4 0.0489392 0.0110585 0.299896
1403 4 0.0599806 0.0024661 0.313458
731 4 0.0922875 0.0526212 0.32889
673 2 0.137013 0.057464 0.266442
730 2 0.0969378 0.0771884 0.32895
428 4 0.103491 0.0482398 0.347161
605 4 0.169057 0.028532 0.313388
1701 4 0.304218 0.0560878 0.269116
1699 2 0.312008 0.034037 0.26027
1407 4 0.279913 0.0049394 0.321951
22 3 0.378402 0.0784157 0.249613
1518 4 0.347027 0.0148235 0.312523
697 2 0.377934 0.0423546 0.297408
699 4 0.356567 0.0302249 0.302042
698 4 0.399302 0.0544842 0.292774
1747 2 0.454309 0.00411828 0.312652
742 2 0.46148 0.015686 0.255027
1749 4 0.47907 0.00751342 0.311911
743 4 0.472231 0.0373152 0.261491
257 4 0.42868 0.0771973 0.307559
351 4 0.479414 0.0553714 0.268035
349 2 0.462738 0.071021 0.278144
480 4 0.474758 0.027495 0.31782
478 2 0.486959 0.048101 0.325011
350 4 0.446063 0.0866706 0.288254
256 2 0.438969 0.0706915 0.3294
579 4 0.105248 0.153181 0.245682
675 4 0.142533 0.0770301 0.280998
399 4 0.114075 0.163167 0.317642
397 2 0.1152 0.139186 0.32463
398 4 0.116325 0.115205 0.331618
732 4 0.101588 0.101756 0.32901
544 2 0.169041 0.158321 0.266099
545 4 0.152199 0.174605 0.274837
546 4 0.185883 0.142037 0.257362
722 4 0.192204 0.12321 0.255866
403 2 0.231251 0.165306 0.288619
599 4 0.217797 0.141998 0.302852
404 4 0.236375 0.14255 0.297624
598 2 0.204122 0.126508 0.316932
600 4 0.190447 0.111018 0.331012
249 4 0.271036 0.114 0.321693
248 4 0.319258 0.113485 0.308461
247 2 0.295147 0.113743 0.315077
632 4 0.376377 0.0801133 0.330536
333 4 0.388495 0.0860428 0.265114
331 2 0.408145 0.0914368 0.279606
332 4 0.427794 0.0968309 0.294097
762 4 0.435768 0.108387 0.307964
760 2 0.452419 0.125287 0.300069
761 4 0.469071 0.142186 0.292175
530 4 0.00321956 0.195285 0.277438
393 4 0.105131 0.176756 0.306392
390 4 0.0877219 0.250757 0.30219
392 4 0.134781 0.178669 0.266169
391 2 0.119956 0.177713 0.28628
388 2 0.112717 0.251367 0.302357
405 4 0.226126 0.188062 0.279614
401 4 0.223993 0.207472 0.281301
400 2 0.210955 0.216962 0.30041
402 4 0.197918 0.226451 0.319519
707 4 0.298453 0.183698 0.321013
418 2 0.397528 0.23205 0.315835
419 4 0.419822 0.242859 0.312469
420 4 0.375234 0.221241 0.3192
520 2 0.481077 0.209544 0.247385
444 4 0.053584 0.313863 0.275619
442 2 0.0500597 0.300147 0.255012
389 4 0.137713 0.251978 0.302524
307 2 0.299153 0.321255 0.256061
308 4 0.315754 0.325756 0.274208
497 4 0.325955 0.33411 0.288911
496 2 0.334479 0.321239 0.308579
498 4 0.343003 0.308367 0.328248
615 4 0.414312 0.33793 0.336146
543 4 0.425409 0.325064 0.325445
541 2 0.441081 0.310531 0.312468
542 4 0.456753 0.295999 0.299492
365 4 0.0189331 0.386868 0.301432
2491 2 0.0171651 0.382159 0.337909
2493 4 0.0301766 0.378834 0.316819
364 2 0.0170724 0.37401 0.280069
366 4 0.0152118 0.361152 0.258706
299 4 0.138615 0.399989 0.250833
603 4 0.0939494 0.359741 0.319666
601 2 0.101295 0.383429 0.322843
734 4 0.138228 0.383562 0.262581
733 2 0.144451 0.377402 0.286001
602 4 0.10864 0.407118 0.32602
735 4 0.150674 0.371243 0.309422
777 4 0.115887 0.422697 0.315729
677 4 0.16124 0.354984 0.316361
676 2 0.184605 0.348802 0.309955
678 4 0.20797 0.34262 0.303548
729 4 0.312186 0.34484 0.302339
727 2 0.307226 0.367391 0.311933
434 4 0.317595 0.40024 0.332862
728 4 0.302266 0.389942 0.321527
613 2 0.389832 0.338773 0.331128
614 4 0.365351 0.339617 0.32611
433 2 0.338473 0.4138 0.330536
435 4 0.359351 0.427361 0.32821
445 2 0.449767 0.400907 0.251613
446 4 0.455272 0.407461 0.275106
1756 2 0.078569 0.478321 0.270152
549 4 0.0416454 0.452231 0.303363
1757 4 0.0774656 0.45623 0.281811
547 2 0.0552696 0.444553 0.322872
776 4 0.0907054 0.442322 0.277239
501 4 0.14428 0.493167 0.337219
775 2 0.103296 0.43251 0.296484
413 4 0.181848 0.46684 0.295481
412 2 0.184704 0.467074 0.270642
438 4 0.299855 0.5061 0.317721
437 4 0.263054 0.492633 0.286656
436 2 0.281455 0.499366 0.302189
3 3 0.281416 0.433405 0.323642
5 3 0.261803 0.455362 0.347112
713 4 0.409682 0.44997 0.311324
712 2 0.420983 0.451751 0.289091
714 4 0.432284 0.453533 0.266858
119 3 0.486207 0.4238 0.333678
2757 4 0.981051 0.0610659 0.367847
317 4 0.0463639 0.0698717 0.328742
429 4 0.093491 0.999342 0.344035
427 2 0.0984908 0.0237911 0.345598
606 4 0.157804 0.0293317 0.362106
604 2 0.16343 0.0289319 0.337747
683 4 0.243386 0.0382733 0.415897
682 2 0.25883 0.0576458 0.412528
725 4 0.293036 0.0757151 0.404145
684 4 0.274275 0.0770184 0.409159
2879 4 0.481313 0.0398501 0.413003
424 2 0.444626 0.0519952 0.390948
426 4 0.449065 0.0506839 0.366376
258 4 0.449257 0.0641857 0.35124
425 4 0.440187 0.0533066 0.415519
316 2 0.0402881 0.0842597 0.348268
318 4 0.0342123 0.0986477 0.367794
686 4 0.166651 0.149204 0.383726
685 2 0.17551 0.136035 0.364406
687 4 0.184368 0.122865 0.345086
631 2 0.358846 0.0967711 0.33689
633 4 0.341316 0.113429 0.343243
514 2 0.471943 0.162615 0.406202
453 4 0.476 0.155663 0.369693
451 2 0.491184 0.152613 0.350063
2654 4 0.996729 0.241775 0.330365
275 4 0.175702 0.212897 0.353245
474 4 0.192142 0.211821 0.364714
472 2 0.216235 0.209567 0.358421
473 4 0.240329 0.207313 0.352129
274 2 0.166505 0.234682 0.361369
708 4 0.258626 0.204958 0.342519
706 2 0.278539 0.194328 0.331766
716 4 0.362247 0.228257 0.375811
715 2 0.349329 0.241839 0.39236
515 4 0.475542 0.170538 0.382762
618 4 0.0544648 0.29545 0.401042
616 2 0.0513085 0.288756 0.377159
617 4 0.0481522 0.282061 0.353276
347 4 0.0503622 0.292304 0.421354
276 4 0.157307 0.256467 0.369493
510 4 0.245358 0.329049 0.384212
508 2 0.24258 0.306827 0.373093
509 4 0.239803 0.284604 0.361974
488 4 0.310783 0.285217 0.400704
376 2 0.330562 0.287489 0.36397
377 4 0.326501 0.28113 0.387808
487 2 0.29585 0.265735 0.405461
374 4 0.26218 0.329771 0.394618
378 4 0.334624 0.293847 0.340132
717 4 0.336411 0.25542 0.408908
267 4 0.338523 0.275655 0.405848
269 4 0.473337 0.276831 0.365831
268 2 0.465595 0.270018 0.388608
270 4 0.457853 0.263205 0.411386
406 2 0.07486 0.415489 0.379287
408 4 0.0838195 0.405773 0.400513
710 4 0.141069 0.400414 0.411407
502 2 0.232755 0.402676 0.415371
504 4 0.255622 0.39366 0.419955
373 2 0.261519 0.353881 0.40121
335 4 0.372597 0.399368 0.421803
561 4 0.4587 0.391307 0.40014
752 4 0.458202 0.408081 0.388363
559 2 0.442343 0.404059 0.414104
751 2 0.468917 0.420494 0.369487
407 4 0.0659005 0.425204 0.358062
548 4 0.0688938 0.436875 0.342381
499 2 0.119516 0.490623 0.334882
500 4 0.0947524 0.488078 0.332545
1435 2 0.236881 0.483197 0.336981
503 4 0.209889 0.411692 0.410786
1437 4 0.252491 0.471908 0.352921
668 4 0.289483 0.450218 0.376546
1 1 0.282734 0.449162 0.340624
2 3 0.294014 0.467615 0.332788
4 3 0.294348 0.440383 0.358691
667 2 0.312474 0.449306 0.386332
334 2 0.362843 0.418718 0.409328
669 4 0.335465 0.448394 0.396118
593 4 0.407894 0.479145 0.365902
336 4 0.353089 0.438069 0.396854
592 2 0.429025 0.492501 0.36537
594 4 0.450156 0.505856 0.364838
753 4 0.479631 0.432908 0.350611
718 2 0.057979 0.0563603 0.492127
719 4 0.0776055 0.0423319 0.485555
368 4 0.125565 0.0415258 0.432006
367 2 0.132957 0.0643978 0.438891
2429 4 0.241915 0.00804197 0.455143
2428 2 0.220842 0.0171027 0.465092
341 4 0.192578 0.0422291 0.486959
340 2 0.186966 0.0662185 0.491225
2430 4 0.199768 0.0261635 0.475042
1182 4 0.224771 0.0681778 0.495265
1180 2 0.246549 0.0574849 0.501314
439 2 0.271806 0.00980988 0.447787
441 4 0.255882 0.0187206 0.464882
724 2 0.31459 0.0766504 0.416783
430 2 0.329331 0.0581812 0.482957
432 4 0.327019 0.0345332 0.475172
431 4 0.331643 0.0818292 0.490742
2878 2 0.49025 0.0585253 0.427022
1033 2 0.0915985 0.155851 0.488059
369 4 0.14035 0.0872698 0.445776
1034 4 0.0799579 0.135421 0.479558
342 4 0.181355 0.0902078 0.495492
1152 4 0.17989 0.110403 0.491082
320 4 0.274524 0.0947749 0.419558
321 4 0.239517 0.130356 0.416515
319 2 0.25702 0.112565 0.418037
726 4 0.336144 0.0775857 0.429421
410 4 0.295658 0.173318 0.493373
468 4 0.356612 0.152027 0.455771
576 4 0.413596 0.134994 0.462308
843 4 0.34668 0.0965044 0.493132
2880 4 0.499186 0.0772005 0.441042
574 2 0.435123 0.144465 0.453821
642 4 0.484569 0.0895779 0.438223
516 4 0.468345 0.154691 0.429643
641 4 0.459686 0.112079 0.475308
640 2 0.472127 0.100828 0.456765
575 4 0.456651 0.153937 0.445333
3158 4 0.455444 0.116722 0.495354
458 4 0.0025347 0.170443 0.419925
471 4 0.0440496 0.211597 0.478606
1035 4 0.103239 0.176282 0.49656
261 4 0.107404 0.194986 0.493316
260 4 0.0981059 0.229487 0.458331
259 2 0.102755 0.212237 0.475823
467 4 0.3215 0.177199 0.430586
411 4 0.25826 0.189832 0.464574
409 2 0.276959 0.181575 0.478974
651 4 0.269263 0.254074 0.424162
466 2 0.339056 0.164613 0.443178
306 4 0.45731 0.250862 0.426195
305 4 0.488065 0.215723 0.444086
304 2 0.472687 0.233293 0.435141
3065 4 0.493164 0.245278 0.50219
346 2 0.0264234 0.297662 0.426192
348 4 0.00248451 0.303019 0.43103
2814 4 0.00307837 0.315367 0.44694
695 4 0.0939639 0.301464 0.480971
694 2 0.116654 0.302065 0.491457
10 3 0.173277 0.325832 0.467859
650 4 0.259145 0.256428 0.473079
489 4 0.280918 0.246252 0.410219
649 2 0.264204 0.255251 0.44862
266 4 0.353378 0.295587 0.449238
265 2 0.34595 0.285621 0.427543
585 4 0.416159 0.273374 0.43252
2455 2 0.488443 0.318741 0.46049
2456 4 0.4716 0.306877 0.446322
583 2 0.436831 0.283685 0.442088
584 4 0.457503 0.293995 0.451656
7 3 0.137453 0.331966 0.47634
327 4 0.118533 0.336342 0.480367
326 4 0.0830664 0.36334 0.457697
325 2 0.1008 0.349841 0.469032
6 1 0.158543 0.341146 0.476047
709 2 0.150232 0.38885 0.431593
8 3 0.158341 0.359975 0.462488
711 4 0.159395 0.377285 0.451779
375 4 0.260858 0.37799 0.407802
804 4 0.279224 0.389795 0.48655
802 2 0.263023 0.384375 0.504807
238 2 0.362491 0.367933 0.444146
240 4 0.371517 0.378499 0.42336
239 4 0.353466 0.357366 0.464932
560 4 0.425986 0.416811 0.428069
927 4 0.458282 0.406622 0.490729
681 4 0.0280485 0.472565 0.412282
540 4 0.0536127 0.483541 0.489047
680 4 0.0162123 0.475842 0.460757
1383 4 0.996776 0.482509 0.462014
679 2 0.0221304 0.474203 0.43652
384 4 0.134465 0.44565 0.496708
569 4 0.132832 0.443467 0.476382
568 2 0.123881 0.442454 0.453057
570 4 0.114929 0.441442 0.429733
636 4 0.183303 0.460674 0.426848
774 4 0.225565 0.446285 0.475875
772 2 0.224388 0.431721 0.496165
635 4 0.222817 0.451009 0.455933
634 2 0.20306 0.455841 0.44139
1399 2 0.344683 0.479684 0.466018
586 2 0.404107 0.457111 0.445004
588 4 0.382744 0.459665 0.457742
1400 4 0.363463 0.46323 0.464697
587 4 0.425471 0.454558 0.432266
1126 2 0.0290756 0.0843731 0.537233
1127 4 0.0419017 0.0750927 0.51788
1128 4 0.0162495 0.0936534 0.556586
720 4 0.0383525 0.0703886 0.498698
1058 4 0.105614 0.0393447 0.546345
1057 2 0.122272 0.049694 0.561856
1059 4 0.13893 0.0600432 0.577366
1030 2 0.239678 0.0729525 0.585828
1031 4 0.236097 0.0496432 0.594136
961 2 0.302144 0.0258315 0.52194
962 4 0.325736 0.0219416 0.529252
963 4 0.278552 0.0297214 0.514629
1181 4 0.268326 0.0467919 0.507364
1217 4 0.392637 0.0721006 0.53286
842 4 0.388473 0.0862205 0.518594
1216 2 0.414312 0.0758696 0.544742
1153 2 0.152674 0.102172 0.578526
939 4 0.147514 0.145941 0.534308
1155 4 0.142537 0.0793511 0.579799
937 2 0.130581 0.161268 0.524132
938 4 0.113649 0.176596 0.513957
1150 2 0.177719 0.115358 0.515493
1151 4 0.175548 0.120314 0.539905
1032 4 0.243259 0.0962619 0.577519
898 2 0.325705 0.163153 0.558887
899 4 0.302214 0.155183 0.555754
857 4 0.283856 0.148933 0.55189
841 2 0.367576 0.0913624 0.505863
1218 4 0.435987 0.0796387 0.556623
3157 2 0.453538 0.139867 0.50462
878 4 0.066937 0.238548 0.550072
470 4 0.0156512 0.191135 0.514321
1199 4 0.996494 0.192067 0.584165
469 2 0.0298504 0.201366 0.496463
877 2 0.0860356 0.232022 0.564831
879 4 0.105134 0.225496 0.579591
858 4 0.25719 0.188456 0.566973
797 4 0.250645 0.1992 0.583019
856 2 0.270523 0.168695 0.559432
796 2 0.259674 0.222218 0.579303
798 4 0.268704 0.245236 0.575587
900 4 0.349196 0.171123 0.56202
871 2 0.378212 0.23419 0.517519
872 4 0.383951 0.211146 0.525344
3159 4 0.451632 0.163011 0.513887
1260 4 0.152949 0.287723 0.502034
696 4 0.139345 0.302665 0.501944
1258 2 0.166098 0.295979 0.521633
1259 4 0.179248 0.304235 0.541232
1239 4 0.21684 0.318032 0.589449
792 4 0.278988 0.302527 0.580557
812 4 0.317156 0.287302 0.533639
811 2 0.335455 0.273089 0.524241
873 4 0.372473 0.257233 0.509693
813 4 0.353754 0.258877 0.514842
897 4 0.153522 0.363632 0.576597
1137 4 0.138276 0.365952 0.563788
1135 2 0.114388 0.362101 0.570088
383 4 0.136829 0.402393 0.521688
1136 4 0.0904998 0.358249 0.576389
9 3 0.164461 0.347038 0.497696
895 2 0.177626 0.360432 0.57077
1189 2 0.223131 0.371236 0.539474
896 4 0.201729 0.357232 0.564942
1191 4 0.216972 0.371795 0.563701
1190 4 0.22929 0.370678 0.515247
803 4 0.246822 0.378955 0.523064
929 4 0.351081 0.384932 0.549942
928 2 0.365904 0.367653 0.560281
930 4 0.380728 0.350374 0.570619
925 2 0.453306 0.391779 0.510225
926 4 0.44833 0.376936 0.529721
1001 4 0.426886 0.407728 0.573197
382 2 0.135647 0.424022 0.509198
1173 4 0.223169 0.433329 0.558219
773 4 0.22321 0.417157 0.516454
1171 2 0.245512 0.44096 0.54999
1172 4 0.267856 0.448592 0.541761
882 4 0.277203 0.44771 0.524302
880 2 0.299831 0.455336 0.516886
881 4 0.322459 0.462961 0.509469
1000 2 0.426786 0.432619 0.575566
661 2 0.481296 0.46936 0.510235
663 4 0.474569 0.448714 0.497838
1002 4 0.426685 0.45751 0.577934
1185 4 0.00838685 0.039107 0.64384
945 4 0.048426 0.0438999 0.648753
2319 4 0.0474002 0.0262429 0.6594
943 2 0.0537785 0.0636339 0.663143
1183 2 0.998149 0.0618512 0.645592
825 4 0.134666 0.0244193 0.612523
951 4 0.219146 0.0431723 0.603505
949 2 0.197077 0.0338458 0.596352
950 4 0.175008 0.0245192 0.5892
1004 4 0.384617 0.0688245 0.644865
2283 4 0.450849 0.017329 0.600648
2282 4 0.449667 0.0467739 0.64105
2281 2 0.450258 0.0320515 0.620849
45 3 0.489217 0.0682299 0.660588
810 4 0.491052 0.0517801 0.647913
43 3 0.452995 0.0582363 0.65819
808 2 0.503 0.0548872 0.62617
1082 4 0.0582163 0.121557 0.647509
1081 2 0.0770043 0.107335 0.639148
1083 4 0.0957922 0.0931119 0.630787
1154 4 0.162811 0.124993 0.577252
1283 4 0.160048 0.10636 0.651714
1221 4 0.181433 0.127642 0.580886
1219 2 0.191103 0.136419 0.602208
1220 4 0.200773 0.145197 0.62353
1212 4 0.214876 0.158279 0.627315
1210 2 0.235999 0.161874 0.640202
1003 2 0.366755 0.0808429 0.632151
1005 4 0.348892 0.0928614 0.619436
1272 4 0.111265 0.213781 0.595285
1270 2 0.114259 0.203903 0.618059
1271 4 0.117253 0.194026 0.640833
1207 2 0.0856344 0.254931 0.643292
1209 4 0.105514 0.243755 0.633042
909 4 0.18112 0.208956 0.656418
1211 4 0.257121 0.165469 0.65309
1026 4 0.43974 0.22706 0.631813
1024 2 0.429645 0.212038 0.649064
1208 4 0.0657543 0.266106 0.653542
1244 4 0.0474414 0.310562 0.63
1243 2 0.0313123 0.295947 0.642306
1245 4 0.0151831 0.281332 0.654611
1237 2 0.241228 0.317738 0.583942
948 4 0.171213 0.29538 0.651724
946 2 0.178694 0.287554 0.629186
947 4 0.186174 0.279728 0.606648
1238 4 0.265616 0.317445 0.578436
791 4 0.306982 0.26229 0.590462
790 2 0.292985 0.282408 0.58551
953 4 0.439677 0.270935 0.619734
952 2 0.437039 0.293712 0.609762
954 4 0.4344 0.316489 0.599791
3123 4 0.486345 0.299323 0.661825
983 4 0.0328664 0.36307 0.631398
1039 2 0.0590826 0.372361 0.615132
1041 4 0.0341693 0.372456 0.613012
982 2 0.0138744 0.358761 0.64708
1040 4 0.0839959 0.372266 0.617252
993 4 0.0879143 0.391374 0.621346
991 2 0.0991411 0.399983 0.641962
890 4 0.316751 0.414084 0.608389
1204 2 0.407524 0.368377 0.596632
1206 4 0.385925 0.362646 0.585416
1205 4 0.429124 0.374108 0.607848
3182 4 0.503693 0.400673 0.667729
2129 4 0.022666 0.493286 0.651801
992 4 0.110368 0.408591 0.662578
2170 2 0.107719 0.490642 0.646536
2172 4 0.104458 0.471388 0.66215
1160 4 0.194043 0.44109 0.607408
1159 2 0.203867 0.461165 0.618618
1161 4 0.213691 0.48124 0.629828
891 4 0.340417 0.456281 0.595739
889 2 0.328584 0.435182 0.602064
1952 4 0.339606 0.473471 0.60429
1951 2 0.355316 0.492471 0.600123
1910 4 0.426616 0.469532 0.594079
1909 2 0.440761 0.490149 0.593834
2318 4 0.0100768 0.0019019 0.682097
2317 2 0.0287385 0.0140724 0.670749
944 4 0.059131 0.083368 0.677534
1075 2 0.061543 0.0707627 0.720046
1077 4 0.0599652 0.0669474 0.744706
41 1 0.470613 0.0628446 0.672569
1163 4 0.490286 0.0407945 0.698795
42 3 0.474928 0.0441578 0.685271
44 3 0.464941 0.0803645 0.686686
1076 4 0.0631208 0.074578 0.695385
1106 4 0.0784439 0.150491 0.739596
1282 2 0.174015 0.109415 0.672226
1284 4 0.187982 0.112469 0.692739
1227 4 0.193837 0.12982 0.699934
1225 2 0.207593 0.124439 0.720108
1226 4 0.221349 0.119058 0.740282
1148 4 0.22535 0.100079 0.743418
830 4 0.317539 0.168102 0.702686
886 2 0.291776 0.157918 0.678656
887 4 0.308275 0.151369 0.696265
1142 4 0.393897 0.151667 0.689671
1105 2 0.0779522 0.172902 0.728519
1107 4 0.0774606 0.195313 0.717442
851 4 0.0642341 0.200164 0.70381
852 4 0.0195421 0.222561 0.702501
850 2 0.0418881 0.211362 0.703156
1178 4 0.00660494 0.225508 0.68588
1177 2 0.00678412 0.249023 0.677383
907 2 0.186559 0.185095 0.66154
908 4 0.191999 0.161234 0.666662
888 4 0.275278 0.164467 0.661047
829 2 0.325955 0.185471 0.718582
1064 4 0.25871 0.239517 0.721358
831 4 0.33437 0.202839 0.734479
1193 4 0.359488 0.210221 0.681116
1192 2 0.371018 0.224874 0.697775
1194 4 0.382548 0.239527 0.714434
1262 4 0.40242 0.237058 0.712991
1141 2 0.410217 0.170283 0.686166
1143 4 0.426536 0.1889 0.682661
1025 4 0.41955 0.197015 0.666314
3356 4 0.467773 0.223891 0.717772
3355 2 0.47735 0.230826 0.695741
1261 2 0.42663 0.233838 0.718346
1263 4 0.45084 0.230619 0.723702
1145 4 0.460137 0.206492 0.724442
3357 4 0.486926 0.237761 0.67371
1144 2 0.476983 0.197633 0.740658
1179 4 0.00696331 0.272537 0.668886
821 4 0.134138 0.248635 0.740878
1242 4 0.187739 0.315763 0.74484
1065 4 0.257058 0.288539 0.711617
1063 2 0.257884 0.264028 0.716487
806 4 0.350355 0.320913 0.684592
3121 2 0.492536 0.27618 0.668983
892 2 0.0686572 0.384209 0.712693
894 4 0.0461078 0.384563 0.72349
3276 4 0.0294286 0.385574 0.732541
893 4 0.0912065 0.383856 0.701896
1028 4 0.21733 0.41622 0.686268
1027 2 0.240913 0.419567 0.678663
1029 4 0.264496 0.422914 0.671059
807 4 0.368533 0.357184 0.713827
805 2 0.359444 0.339049 0.699209
1020 4 0.383898 0.36959 0.716481
1018 2 0.393636 0.376755 0.738367
1280 4 0.0229697 0.414122 0.704906
1281 4 0.0334519 0.457158 0.728116
1279 2 0.0282108 0.43564 0.716511
1983 4 0.0171566 0.467923 0.721272
1981 2 0.00489457 0.486959 0.731876
1067 4 0.157028 0.410201 0.712433
941 4 0.14873 0.427319 0.713558
940 2 0.137182 0.43532 0.734241
1068 4 0.198256 0.421327 0.686411
1066 2 0.177642 0.415764 0.699422
1139 4 0.279698 0.423694 0.684836
1138 2 0.303921 0.427615 0.689638
1140 4 0.328144 0.431536 0.694439
1987 2 0.317236 0.493437 0.723477
1989 4 0.32818 0.477109 0.708023
1229 4 0.332775 0.459349 0.71708
1228 2 0.355253 0.450636 0.723714
1230 4 0.37773 0.441923 0.730348
1269 4 0.458451 0.501474 0.697851
1100 4 0.479194 0.469698 0.723317
1099 2 0.489529 0.485938 0.70736
1267 2 0.446343 0.503801 0.676099
1203 4 0.0627799 0.0644424 0.764304
1201 2 0.0749822 0.0427818 0.766969
1202 4 0.0871844 0.0211213 0.769634
911 4 0.0889121 0.0526726 0.801183
2049 4 0.102855 0.0100529 0.765241
910 2 0.0897489 0.0718466 0.817209
1147 2 0.215209 0.0789171 0.75205
1149 4 0.205067 0.0577553 0.760682
1256 4 0.302927 0.0706336 0.789252
1050 4 0.284853 0.000510926 0.786133
817 2 0.35766 0.0863523 0.826653
1112 4 0.406541 0.045051 0.798187
846 4 0.470009 0.0341142 0.814242
1113 4 0.453745 0.0460098 0.814669
844 2 0.490596 0.0379482 0.800579
1111 2 0.430143 0.0455304 0.806428
845 4 0.511182 0.0417821 0.786916
864 4 0.0540462 0.0807674 0.771101
862 2 0.0407683 0.0983621 0.782903
863 4 0.0274904 0.115957 0.794706
833 4 0.00782245 0.116092 0.800529
35 3 0.0953063 0.151137 0.752596
33 3 0.104277 0.126451 0.779574
31 1 0.10613 0.148457 0.772454
34 3 0.0971067 0.162721 0.788376
32 3 0.128396 0.15353 0.769691
912 4 0.0905857 0.0910205 0.833235
1130 4 0.228271 0.141177 0.789443
840 4 0.218679 0.114103 0.81043
838 2 0.242852 0.116667 0.804577
1255 2 0.291932 0.0907722 0.799188
1257 4 0.280937 0.110911 0.809124
839 4 0.267026 0.119231 0.798725
958 2 0.286856 0.147292 0.818252
959 4 0.26889 0.138837 0.803055
819 4 0.363494 0.0985197 0.805604
1299 4 0.362647 0.171118 0.782265