ITEM: TIMESTEP
3500000
ITEM: NUMBER OF ATOMS
4590
ITEM: BOX BOUNDS pp pp pp
-9.9985700000000008e+00 9.9985700000000008e+00
-9.9985700000000008e+00 9.9985700000000008e+00
-9.9985700000000008e+00 9.9985700000000008e+00
ITEM: ATOMS id type xs ys zs
1666 2 0.0647322 0.060127 0.0673707
465 4 0.00341771 0.0745565 0.998206
463 2 0.00822707 0.0502072 0.99518
464 4 0.0130364 0.0258579 0.992153
701 4 0.0220722 0.0825679 0.98882
1668 4 0.0737949 0.0472178 0.0479697
3290 4 0.0834939 0.0428594 0.0310158
3289 2 0.102658 0.0358354 0.0165731
3291 4 0.121821 0.0288113 0.00213033
490 2 0.294381 0.0168174 0.0645754
491 4 0.298702 0.0393959 0.0744097
986 4 0.291837 0.0352826 0.995419
747 4 0.490829 0.00883392 0.0952062
358 2 0.222359 0.144864 0.992573
359 4 0.234904 0.123525 0.989041
150 3 0.451131 0.141518 0.000573952
2723 4 0.482278 0.105237 0.0673125
657 4 0.00231386 0.242393 0.0505246
505 2 0.140319 0.233821 0.0499262
506 4 0.153228 0.21719 0.063414
737 4 0.168938 0.204874 0.0599007
736 2 0.192582 0.198281 0.0551349
738 4 0.216225 0.191688 0.0503691
354 4 0.225085 0.174301 0.0502352
461 4 0.293187 0.181856 0.0526269
352 2 0.249752 0.178134 0.0488143
460 2 0.310832 0.17671 0.0695784
353 4 0.274419 0.181968 0.0473935
665 4 0.355715 0.195607 0.0155791
1069 2 0.362882 0.249356 0.000473674
2807 4 0.034446 0.280024 0.00960465
2806 2 0.0191121 0.270972 0.0271582
915 4 0.123608 0.252435 0.017649
507 4 0.12741 0.250453 0.0364384
293 4 0.117467 0.266528 0.0434939
287 4 0.160064 0.290887 0.0554183
286 2 0.159517 0.314887 0.0484274
292 2 0.107509 0.288016 0.0515121
294 4 0.0975513 0.309504 0.0595302
456 4 0.108442 0.323093 0.0680167
356 4 0.234177 0.279249 0.00722807
612 4 0.236689 0.314718 0.0635025
610 2 0.248293 0.301036 0.0809187
483 4 0.248211 0.274963 0.0211481
482 4 0.290825 0.300803 0.0170181
481 2 0.269518 0.287883 0.0190831
572 4 0.307448 0.313084 0.0139084
571 2 0.325925 0.296286 0.0126438
1071 4 0.359644 0.267028 0.0178637
573 4 0.344403 0.279489 0.0113791
315 4 0.0117357 0.420871 0.0635067
2787 4 0.986227 0.364201 0.0667241
288 4 0.158971 0.338887 0.0414365
990 4 0.177422 0.342523 0.0385413
609 4 0.244439 0.331585 0.05863
988 2 0.182275 0.361032 0.0224466
1289 4 0.18374 0.397803 0.997812
989 4 0.187128 0.379542 0.00635193
1440 4 0.219338 0.424225 0.0566838
607 2 0.256562 0.353189 0.062021
250 2 0.293881 0.409587 0.0749309
252 4 0.276243 0.393178 0.0682375
608 4 0.268684 0.374793 0.0654119
740 4 0.332257 0.338642 0.0711527
739 2 0.337054 0.344247 0.0472625
741 4 0.341851 0.349853 0.0233723
226 2 0.384191 0.400401 0.0385413
227 4 0.390629 0.379878 0.0257928
1303 2 0.413159 0.354749 0.00823578
1305 4 0.406437 0.368848 0.0277601
1045 2 0.500106 0.357196 0.0244775
280 2 0.464448 0.356013 0.0664231
282 4 0.487903 0.360612 0.0590808
1047 4 0.505085 0.367106 0.046887
1046 4 0.495128 0.347286 0.00206799
281 4 0.440994 0.351414 0.0737654
104 3 0.494985 0.366069 0.0767608
550 2 0.0291278 0.50101 0.0507051
313 2 0.0269844 0.440579 0.0614404
552 4 0.0399356 0.480608 0.0603044
314 4 0.0422332 0.460286 0.0593742
1790 4 0.0728022 0.508637 0.0854645
1786 2 0.155126 0.489822 0.0313021
1787 4 0.173644 0.473064 0.0324843
1103 4 0.116596 0.412125 0.00433442
243 4 0.219954 0.441921 0.0482347
241 2 0.200924 0.458129 0.0488129
242 4 0.181894 0.474338 0.0493912
251 4 0.31152 0.425996 0.0816243
524 4 0.328698 0.429142 0.0932698
271 2 0.260179 0.478695 0.061858
272 4 0.259193 0.453718 0.0624449
273 4 0.261165 0.503672 0.0612711
228 4 0.377753 0.420924 0.0512898
525 4 0.364974 0.433942 0.0591856
523 2 0.346836 0.431542 0.0762277
1583 4 0.49126 0.505165 0.0661782
1582 2 0.480983 0.503805 0.0889313
1667 4 0.0556696 0.0730362 0.0867718
16 1 0.0256234 0.0695202 0.108152
19 3 0.0227674 0.0689522 0.131173
17 3 0.0465005 0.0779603 0.103455
20 3 0.00981667 0.0829085 0.0986894
18 3 0.0240721 0.0480679 0.0994462
1422 4 0.0135316 0.0581882 0.147751
1475 4 0.29943 0.0338699 0.0948642
652 2 0.253384 0.0703032 0.149131
654 4 0.250374 0.0480534 0.138128
1476 4 0.267901 0.0438664 0.13237
1474 2 0.283666 0.0388682 0.113617
486 4 0.329664 0.000651124 0.141931
297 4 0.391857 0.0226203 0.150549
295 2 0.412941 0.0360358 0.151381
484 2 0.353244 0.00876749 0.140118
485 4 0.376824 0.0168838 0.138305
296 4 0.434024 0.0494512 0.152212
745 2 0.476808 0.0214969 0.111584
746 4 0.462787 0.0341598 0.127962
557 4 0.447656 0.0486859 0.135313
556 2 0.460915 0.0698469 0.13406
2480 4 0.0173229 0.0810343 0.149739
450 4 0.0696425 0.107408 0.123198
236 4 0.125288 0.131448 0.156919
449 4 0.110573 0.127691 0.143545
448 2 0.0901075 0.11755 0.133371
235 2 0.147686 0.138203 0.165745
237 4 0.170083 0.144958 0.174571
462 4 0.328477 0.171564 0.08653
580 2 0.322575 0.134615 0.133764
581 4 0.302544 0.149126 0.130104
30 3 0.288386 0.150087 0.143557
26 1 0.282547 0.162106 0.161999
582 4 0.342605 0.120104 0.137423
653 4 0.256393 0.092553 0.160134
758 4 0.345854 0.10245 0.145191
558 4 0.474175 0.0910079 0.132807
771 4 0.487396 0.103851 0.140569
769 2 0.483429 0.120165 0.159096
476 4 0.227902 0.221642 0.156385
475 2 0.250921 0.212015 0.154766
27 3 0.301354 0.166341 0.174549
477 4 0.27394 0.202388 0.153146
29 3 0.273084 0.182307 0.155613
756 4 0.353384 0.252542 0.166076
630 4 0.41003 0.228079 0.11489
254 4 0.402036 0.243057 0.125734
624 4 0.445337 0.229017 0.165888
629 4 0.446214 0.219531 0.148331
628 2 0.428122 0.223805 0.131611
338 4 0.0642341 0.245278 0.16084
611 4 0.259897 0.287354 0.0983349
279 4 0.268194 0.300166 0.159483
277 2 0.262434 0.301597 0.135194
278 4 0.256673 0.303029 0.110906
285 4 0.262809 0.281401 0.164214
255 4 0.362128 0.260681 0.150177
253 2 0.382082 0.251869 0.137956
619 2 0.0264521 0.36274 0.15428
620 4 0.0188187 0.382135 0.14047
621 4 0.0340856 0.343344 0.16809
454 2 0.118696 0.339206 0.0841533
455 4 0.128951 0.355319 0.10029
537 4 0.130844 0.396327 0.148357
535 2 0.132596 0.385832 0.125731
536 4 0.134348 0.375336 0.103104
647 4 0.120721 0.407447 0.159778
625 2 0.211693 0.401135 0.137854
627 4 0.216736 0.391235 0.115454
1439 4 0.223065 0.403923 0.102232
1438 2 0.221202 0.414074 0.079458
626 4 0.206651 0.411035 0.160254
386 4 0.322857 0.350629 0.0832772
385 2 0.326627 0.372254 0.0952495
387 4 0.330397 0.393879 0.107222
302 4 0.338749 0.40744 0.12494
12 3 0.385585 0.378397 0.122123
11 1 0.369664 0.39274 0.130486
15 3 0.350314 0.390125 0.118763
672 4 0.404848 0.376565 0.126828
13 3 0.366096 0.387762 0.152866
14 3 0.377335 0.414534 0.128343
670 2 0.415518 0.366926 0.106372
671 4 0.426188 0.357287 0.085917
1431 4 0.161199 0.493275 0.139487
1620 4 0.158308 0.485667 0.121199
1429 2 0.167287 0.477682 0.158061
1574 4 0.232509 0.475485 0.137668
639 4 0.243201 0.459523 0.128765
301 2 0.318056 0.42044 0.130227
638 4 0.292432 0.451874 0.133067
637 2 0.267817 0.455698 0.130916
303 4 0.297362 0.43344 0.135514
659 4 0.339578 0.430262 0.163724
495 4 0.38233 0.431459 0.120227
1559 4 0.372742 0.48964 0.127924
493 2 0.373323 0.454651 0.117736
494 4 0.364317 0.477842 0.115245
1584 4 0.470706 0.502444 0.111684
1674 4 0.456589 0.495478 0.125696
1420 2 0.00357822 0.0401785 0.161956
688 2 0.164045 0.0384977 0.215423
690 4 0.155154 0.0612225 0.209972
674 4 0.161853 0.0795175 0.211815
1506 4 0.231298 0.00757307 0.183905
689 4 0.172936 0.0157729 0.220874
1505 4 0.189321 0.0182045 0.208917
1504 2 0.21031 0.0128888 0.196411
22 3 0.37611 0.0608323 0.220655
698 4 0.395339 0.0606484 0.228711
697 2 0.394733 0.0357043 0.230324
699 4 0.394127 0.0107602 0.231938
333 4 0.403489 0.0795219 0.224608
21 1 0.371505 0.08321 0.217975
25 3 0.364576 0.0869348 0.196603
742 2 0.508415 0.0122121 0.247567
349 2 0.478834 0.0810841 0.215301
350 4 0.463382 0.0919452 0.231686
2481 4 0.00232692 0.114084 0.184142
511 2 0.0181917 0.139902 0.216729
513 4 0.0264736 0.15642 0.233573
578 4 0.03671 0.15492 0.251683
2479 2 0.00982491 0.0975592 0.166941
673 2 0.151221 0.10173 0.216144
675 4 0.140588 0.123942 0.220474
546 4 0.128333 0.130933 0.235319
693 4 0.245853 0.101196 0.17464
28 3 0.267495 0.150028 0.174882
691 2 0.260947 0.10819 0.193305
1701 4 0.295021 0.104698 0.21786
692 4 0.276042 0.115185 0.211971
1699 2 0.319167 0.0982294 0.217265
757 2 0.346333 0.0983588 0.169853
23 3 0.35479 0.0892675 0.232885
1700 4 0.343312 0.0917612 0.216671
759 4 0.346812 0.0942674 0.194515
24 3 0.39077 0.0954021 0.22229
351 4 0.494286 0.0702231 0.198917
331 2 0.425134 0.0880028 0.233816
332 4 0.446778 0.0964837 0.243023
770 4 0.479462 0.13648 0.177624
312 4 0.467546 0.129247 0.192013
310 2 0.476674 0.140405 0.212442
311 4 0.485801 0.151563 0.232872
577 2 0.0457944 0.177824 0.247434
529 2 0.0262078 0.221633 0.220405
530 4 0.0484913 0.216227 0.230375
579 4 0.0548787 0.200728 0.243185
362 4 0.161785 0.228739 0.200575
361 2 0.139032 0.236434 0.207524
371 4 0.211858 0.206164 0.160148
370 2 0.195442 0.214009 0.177299
372 4 0.179027 0.221855 0.194449
754 2 0.344668 0.234139 0.180587
755 4 0.335952 0.215737 0.195097
622 2 0.446868 0.248273 0.181763
337 2 0.0559996 0.26384 0.175427
339 4 0.047765 0.282403 0.190015
704 4 0.0427224 0.29926 0.178424
703 2 0.028455 0.31447 0.192218
705 4 0.0141876 0.329681 0.206012
363 4 0.11628 0.24413 0.214473
395 4 0.119686 0.258054 0.227393
394 2 0.108648 0.260112 0.249734
283 2 0.276129 0.277199 0.184952
284 4 0.28945 0.272996 0.20569
528 4 0.423692 0.327915 0.176328
526 2 0.434224 0.305582 0.180266
623 4 0.448398 0.26753 0.197638
527 4 0.444756 0.28325 0.184203
646 2 0.107249 0.398533 0.178863
648 4 0.0937779 0.38962 0.197948
300 4 0.0840888 0.373871 0.202904
298 2 0.0878558 0.362418 0.224809
734 4 0.135629 0.398232 0.20958
299 4 0.0916227 0.350966 0.246714
733 2 0.144219 0.400209 0.232978
416 4 0.198251 0.417392 0.213001
290 4 0.209451 0.410984 0.229091
597 4 0.362804 0.402415 0.166424
345 4 0.359558 0.365744 0.219297
596 4 0.35135 0.368586 0.201426
595 2 0.357077 0.385501 0.183925
343 2 0.366177 0.358498 0.242294
542 4 0.426597 0.336655 0.194991
541 2 0.423643 0.345551 0.21817
417 4 0.166349 0.450575 0.19346
1430 4 0.173375 0.462089 0.176634
415 2 0.1823 0.433983 0.203231
438 4 0.287266 0.455946 0.229992
436 2 0.302313 0.461529 0.249164
645 4 0.374419 0.420494 0.16798
658 2 0.3386 0.449639 0.179496
643 2 0.394991 0.432409 0.175726
644 4 0.415563 0.444323 0.183473
660 4 0.337622 0.469017 0.195268
231 4 0.340757 0.487817 0.18949
229 2 0.358292 0.503903 0.197168
447 4 0.430551 0.444109 0.196445
445 2 0.44269 0.449011 0.217747
446 4 0.454829 0.453914 0.23905
1403 4 0.0381443 0.990797 0.285254
233 4 0.0342153 0.00957529 0.291759
232 2 0.0293316 0.0337703 0.29575
234 4 0.0244479 0.0579654 0.299741
317 4 0.0428658 0.0647917 0.304834
723 4 0.169311 0.0735815 0.304049
721 2 0.170446 0.0767565 0.279274
599 4 0.161048 0.0871049 0.315677
1405 2 0.206726 0.0366092 0.28961
1406 4 0.192056 0.0534576 0.27838
1407 4 0.221396 0.0197608 0.300839
743 4 0.49687 0.0178262 0.269023
425 4 0.477374 0.024649 0.269749
424 2 0.475857 0.0479832 0.278603
426 4 0.47434 0.0713174 0.287457
316 2 0.060512 0.0822297 0.307949
318 4 0.0781582 0.0996677 0.311064
544 2 0.11718 0.135311 0.257265
392 4 0.101158 0.14581 0.29743
545 4 0.106027 0.139688 0.279211
391 2 0.105748 0.147765 0.321931
722 4 0.17158 0.0799316 0.254499
403 2 0.220774 0.152646 0.298566
404 4 0.236081 0.133198 0.302123
405 4 0.205466 0.172093 0.29501
521 4 0.498966 0.166273 0.231931
258 4 0.480386 0.0817717 0.303249
256 2 0.48399 0.0958475 0.323597
444 4 0.038118 0.231993 0.268931
442 2 0.0621402 0.238532 0.271245
443 4 0.0861623 0.245072 0.27356
401 4 0.186274 0.176983 0.289151
400 2 0.190254 0.201589 0.291116
402 4 0.194233 0.226196 0.293081
763 2 0.45676 0.212647 0.311786
765 4 0.458462 0.193015 0.296395
764 4 0.455057 0.232279 0.327176
396 4 0.0976101 0.262169 0.272075
750 4 0.0900488 0.362499 0.263792
2493 4 0.00212262 0.390898 0.316602
262 2 0.0138781 0.410764 0.249567
365 4 0.00542993 0.371456 0.320478
366 4 0.0517772 0.368365 0.301955
749 4 0.0524758 0.349956 0.294314
364 2 0.0286036 0.36991 0.311217
748 2 0.0712623 0.356228 0.279053
263 4 0.0383874 0.413063 0.253948
735 4 0.152808 0.402187 0.256377
289 2 0.206956 0.402202 0.252368
677 4 0.15882 0.413849 0.272301
291 4 0.204462 0.39342 0.275646
414 4 0.206906 0.40101 0.295249
412 2 0.222483 0.416469 0.30723
727 2 0.311419 0.405788 0.315294
308 4 0.331431 0.369164 0.317711
729 4 0.321896 0.384234 0.308166
307 2 0.344379 0.362174 0.297495
344 4 0.372796 0.351252 0.265291
309 4 0.357327 0.355185 0.27728
543 4 0.420689 0.354448 0.24135
615 4 0.418105 0.353151 0.261292
614 4 0.455447 0.361128 0.293582
613 2 0.436776 0.35714 0.277437
2862 4 0.476416 0.393209 0.26757
120 3 0.481801 0.416912 0.297771
116 1 0.491535 0.41471 0.318241
119 3 0.476228 0.419904 0.334888
2923 2 0.480838 0.359599 0.313499
2925 4 0.459094 0.348443 0.308214
713 4 0.473241 0.410441 0.279598
777 4 0.0609967 0.423883 0.322103
602 4 0.058171 0.437359 0.336312
775 2 0.0750891 0.42908 0.302114
776 4 0.0891815 0.434277 0.282124
1757 4 0.0946751 0.452381 0.287573
1756 2 0.109745 0.471531 0.293174
1758 4 0.124814 0.490681 0.298775
1775 4 0.138231 0.499407 0.312185
1544 4 0.206818 0.503889 0.340837
767 4 0.206363 0.509682 0.268018
676 2 0.171272 0.434385 0.279259
678 4 0.183724 0.45492 0.286217
768 4 0.193398 0.461463 0.270769
766 2 0.19988 0.485573 0.269393
413 4 0.238061 0.431928 0.31921
437 4 0.317361 0.467111 0.268336
433 2 0.298089 0.461061 0.305719
435 4 0.304471 0.472875 0.284627
434 4 0.291708 0.449247 0.326812
728 4 0.300941 0.427342 0.322422
712 2 0.459418 0.424829 0.264529
714 4 0.445595 0.439218 0.249459
2756 4 0.99674 0.0463863 0.407277
730 2 0.0773132 0.0669825 0.40401
606 4 0.13836 0.0539633 0.344508
604 2 0.120051 0.063879 0.358351
605 4 0.101741 0.0737948 0.372194
732 4 0.0846852 0.0720198 0.380655
683 4 0.245674 0.0587931 0.375816
249 4 0.297594 0.0258649 0.356884
684 4 0.278783 0.0280968 0.354317
682 2 0.262229 0.0434449 0.365067
247 2 0.31794 0.0290423 0.371065
321 4 0.257663 0.0749278 0.379009
248 4 0.338287 0.0322197 0.385246
633 4 0.351925 0.047527 0.389768
631 2 0.366621 0.0580626 0.407036
632 4 0.381317 0.0685982 0.424305
1749 4 0.505097 0.0282572 0.344801
1747 2 0.48857 0.0111545 0.337084
2584 2 0.00981663 0.129141 0.388976
2586 4 0.00891469 0.153766 0.393216
393 4 0.110339 0.14972 0.346431
399 4 0.0982961 0.13568 0.353956
397 2 0.109207 0.142364 0.375437
398 4 0.120119 0.149048 0.396918
598 2 0.171392 0.0932061 0.337608
600 4 0.181736 0.0993073 0.359538
685 2 0.209264 0.135067 0.365181
687 4 0.191937 0.117562 0.360875
686 4 0.226591 0.152571 0.369488
410 4 0.24001 0.148192 0.384181
409 2 0.248382 0.163088 0.402436
319 2 0.261007 0.0874029 0.400419
419 4 0.375324 0.160064 0.344877
418 2 0.356156 0.151187 0.358255
420 4 0.336988 0.142311 0.371634
762 4 0.466758 0.149239 0.383706
257 4 0.487594 0.109923 0.343946
760 2 0.47182 0.138487 0.361707
761 4 0.476881 0.127735 0.339709
515 4 0.45593 0.0924387 0.409797
514 2 0.452977 0.112162 0.424879
390 4 0.0928498 0.217841 0.420003
388 2 0.10202 0.201712 0.403241
274 2 0.149907 0.194021 0.368654
276 4 0.128042 0.196125 0.380598
389 4 0.11119 0.185583 0.38648
275 4 0.171772 0.191917 0.356709
473 4 0.229529 0.227631 0.357957
474 4 0.18811 0.200792 0.349904
472 2 0.208819 0.214212 0.35393
708 4 0.249439 0.228493 0.358342
707 4 0.298748 0.23159 0.366072
706 2 0.274094 0.230042 0.362207
497 4 0.314676 0.228508 0.354601
496 2 0.329967 0.247107 0.361342
377 4 0.39953 0.238998 0.338525
716 4 0.388443 0.172373 0.338114
717 4 0.397728 0.220852 0.330099
715 2 0.393085 0.196612 0.334106
270 4 0.496863 0.246076 0.378383
1258 2 0.131446 0.335206 0.373315
1260 4 0.133301 0.337472 0.398146
489 4 0.225073 0.252706 0.413429
509 4 0.24739 0.306519 0.379221
488 4 0.245855 0.286717 0.383228
508 2 0.238029 0.329536 0.38201
487 2 0.235464 0.269711 0.398328
376 2 0.381682 0.252995 0.349047
378 4 0.363835 0.266993 0.359569
498 4 0.345257 0.265706 0.368084
266 4 0.378958 0.284008 0.355322
265 2 0.383673 0.307828 0.361287
267 4 0.388388 0.331647 0.367253
306 4 0.491819 0.265277 0.385342
304 2 0.479768 0.285469 0.393842
305 4 0.467717 0.305661 0.402341
407 4 0.0304576 0.407529 0.398435
1259 4 0.129591 0.332939 0.348483
504 4 0.163212 0.386245 0.371127
502 2 0.171232 0.40594 0.357976
510 4 0.228667 0.352552 0.384799
374 4 0.217932 0.370535 0.386588
373 2 0.232366 0.38734 0.374992
375 4 0.246799 0.404144 0.363396
3 3 0.253904 0.418839 0.351383
561 4 0.470431 0.414911 0.412452
753 4 0.474131 0.407545 0.3499
751 2 0.476248 0.414778 0.373741
601 2 0.0656816 0.431111 0.359328
679 2 0.0293021 0.493508 0.410043
680 4 0.0367321 0.47271 0.421766
406 2 0.0356162 0.429868 0.40841
408 4 0.0407748 0.452208 0.418385
603 4 0.0731922 0.424862 0.382344
549 4 0.0883577 0.437784 0.380596
547 2 0.105616 0.449409 0.394459
548 4 0.122875 0.461035 0.408321
635 4 0.200708 0.48472 0.337695
503 4 0.179252 0.425635 0.344825
634 2 0.19021 0.462245 0.334552
636 4 0.179713 0.439771 0.331408
2 3 0.286338 0.431605 0.337322
5 3 0.254017 0.444477 0.323809
1 1 0.26472 0.437407 0.342627
668 4 0.279494 0.461129 0.370294
4 3 0.265174 0.454459 0.358356
667 2 0.292822 0.482086 0.373182
752 4 0.478366 0.422011 0.397581
731 4 0.0699412 0.0619452 0.427366
368 4 0.0793394 0.0734302 0.441621
341 4 0.16799 0.0756582 0.436378
2430 4 0.181049 0.0599107 0.437751
441 4 0.222572 0.00556693 0.426921
2428 2 0.193831 0.0384878 0.436059
2429 4 0.206612 0.0170648 0.434366
726 4 0.276909 0.111356 0.479145
1218 4 0.403183 0.0705486 0.464017
468 4 0.367774 0.0787517 0.436918
2879 4 0.458491 0.993035 0.467517
2878 2 0.462348 0.010076 0.449631
2880 4 0.466206 0.0271173 0.431746
642 4 0.474982 0.0443209 0.435267
640 2 0.483945 0.0676291 0.436518
641 4 0.492909 0.0909374 0.437768
367 2 0.0584655 0.0811805 0.452996
719 4 0.0447576 0.0921362 0.483605
369 4 0.0375917 0.0889308 0.464371
718 2 0.0239332 0.0997183 0.495183
1152 4 0.15946 0.120685 0.484129
342 4 0.168355 0.116454 0.465297
340 2 0.168172 0.0960561 0.450838
320 4 0.26435 0.0998781 0.421828
725 4 0.252109 0.106073 0.436044
724 2 0.264509 0.108715 0.457594
432 4 0.291221 0.09752 0.482986
467 4 0.371995 0.128526 0.434591
466 2 0.369885 0.103639 0.435754
576 4 0.385614 0.141055 0.442813
574 2 0.410514 0.14288 0.441448
3158 4 0.505851 0.102305 0.446068
575 4 0.435413 0.144706 0.440083
516 4 0.450025 0.131886 0.43996
617 4 0.0396957 0.259683 0.400451
259 2 0.0625001 0.185457 0.493018
260 4 0.0727759 0.206139 0.483434
471 4 0.0656063 0.218387 0.467914
469 2 0.0728683 0.22557 0.445092
470 4 0.0801303 0.232754 0.42227
616 2 0.01566 0.258926 0.407299
651 4 0.240181 0.239787 0.416853
649 2 0.24182 0.214858 0.415841
650 4 0.243459 0.189929 0.414828
411 4 0.256753 0.177983 0.42069
2455 2 0.391026 0.232109 0.449844
2457 4 0.414499 0.223497 0.449676
2456 4 0.367553 0.240722 0.450012
696 4 0.058055 0.290412 0.432701
694 2 0.0810782 0.280915 0.430483
695 4 0.104101 0.271418 0.428264
878 4 0.0917485 0.282383 0.511392
326 4 0.142163 0.345631 0.416679
585 4 0.349914 0.291093 0.415349
583 2 0.360564 0.276062 0.432255
584 4 0.371213 0.26103 0.449161
1010 4 0.447193 0.317227 0.464827
1009 2 0.454017 0.308028 0.442601
1011 4 0.460841 0.298828 0.420376
709 2 0.133906 0.400083 0.48469
325 2 0.150544 0.360614 0.434858
327 4 0.158924 0.375596 0.453036
8 3 0.161806 0.368095 0.496305
711 4 0.145237 0.380008 0.494375
7 3 0.177384 0.37084 0.46221
6 1 0.180787 0.363544 0.483759
9 3 0.184752 0.340684 0.4834
1191 4 0.219916 0.376122 0.497777
1189 2 0.240055 0.367068 0.486045
10 3 0.19874 0.374406 0.492609
1190 4 0.260194 0.358013 0.474314
803 4 0.276383 0.352835 0.484258
238 2 0.378503 0.392981 0.47385
240 4 0.37513 0.415689 0.463942
239 4 0.381875 0.370274 0.483758
559 2 0.4682 0.405606 0.435552
2507 4 0.453423 0.335539 0.467508
560 4 0.465968 0.3963 0.458652
2506 2 0.452244 0.359874 0.461884
2508 4 0.451065 0.384208 0.456259
1382 4 0.0318236 0.444114 0.478696
540 4 0.0447288 0.455998 0.487508
1381 2 0.00923126 0.444698 0.467999
570 4 0.139529 0.428713 0.467873
568 2 0.133957 0.441826 0.447326
710 4 0.122574 0.420157 0.475006
569 4 0.128385 0.454939 0.426779
1393 2 0.234342 0.500031 0.45196
1394 4 0.25042 0.494859 0.470398
1400 4 0.320544 0.495263 0.442519
1401 4 0.326987 0.449385 0.423694
1399 2 0.323766 0.472324 0.433106
586 2 0.329423 0.491422 0.484088
1444 2 0.271267 0.480986 0.492893
1446 4 0.266321 0.48169 0.468393
588 4 0.330987 0.496646 0.459686
334 2 0.362673 0.427033 0.432687
335 4 0.378921 0.41167 0.443874
336 4 0.346425 0.442396 0.421499
1032 4 0.118541 0.0791873 0.563526
1154 4 0.109572 0.06364 0.572873
1030 2 0.134337 0.0803609 0.544179
1180 2 0.217848 0.0523417 0.574912
1182 4 0.201622 0.0673836 0.563265
950 4 0.209322 0.0785399 0.549567
961 2 0.269212 0.016558 0.575849
843 4 0.330184 0.0684102 0.523135
962 4 0.285671 0.997983 0.57281
2195 4 0.29842 0.988747 0.561019
841 2 0.354797 0.0711312 0.526596
1216 2 0.394156 0.0716417 0.487309
1217 4 0.385129 0.0727349 0.5106
842 4 0.37941 0.0738523 0.530056
1033 2 0.0566744 0.146533 0.539359
1034 4 0.0528666 0.148568 0.514731
1035 4 0.0604822 0.144498 0.563987
1082 4 0.0637899 0.141246 0.584107
261 4 0.0522243 0.164775 0.502602
720 4 0.00310872 0.1073 0.50676
1031 4 0.150132 0.0815345 0.524832
951 4 0.167839 0.089976 0.52409
1151 4 0.164043 0.135601 0.531639
1150 2 0.161751 0.128143 0.507884
949 2 0.188581 0.0842579 0.536828
939 4 0.183047 0.144406 0.531321
937 2 0.20085 0.160348 0.538674
431 4 0.319361 0.0839446 0.522031
430 2 0.305291 0.0907323 0.502509
857 4 0.363946 0.153597 0.575514
899 4 0.378622 0.141709 0.567112
898 2 0.385972 0.162782 0.555838
808 2 0.490401 0.0940508 0.57975
879 4 0.111763 0.246381 0.539747
1270 2 0.11949 0.233911 0.572213
1272 4 0.10164 0.240129 0.555846
938 4 0.218654 0.17629 0.546027
900 4 0.393321 0.183855 0.544564
872 4 0.401307 0.201241 0.541195
873 4 0.370555 0.23379 0.563456
871 2 0.385931 0.217515 0.552326
813 4 0.371221 0.252484 0.570002
811 2 0.348724 0.246877 0.579363
877 2 0.101756 0.264382 0.525569
804 4 0.310904 0.330171 0.51246
1204 2 0.387571 0.313163 0.559998
1206 4 0.369563 0.330378 0.557875
1205 4 0.40558 0.295947 0.56212
983 4 0.0495787 0.399965 0.545866
982 2 0.0257589 0.400803 0.553422
1041 4 0.0631777 0.393894 0.558074
1039 2 0.0796543 0.389556 0.576373
984 4 0.00193912 0.40164 0.560979
3263 4 0.00563243 0.398189 0.581039
897 4 0.179981 0.408485 0.540705
895 2 0.192792 0.40108 0.520551
1137 4 0.184673 0.403544 0.559511
1135 2 0.175369 0.407884 0.58231
896 4 0.205604 0.393676 0.500396
929 4 0.307962 0.327381 0.532194
802 2 0.293644 0.341503 0.498359
930 4 0.356828 0.329336 0.542631
928 2 0.332395 0.328358 0.537413
1001 4 0.450951 0.400458 0.542994
926 4 0.452905 0.382363 0.536227
925 2 0.470867 0.374681 0.52062
1000 2 0.448649 0.407813 0.56678
927 4 0.488828 0.367 0.505014
1936 2 0.0335687 0.478204 0.559732
1937 4 0.0427223 0.482521 0.536868
539 4 0.041462 0.444174 0.535987
538 2 0.0430954 0.450086 0.511748
1881 4 0.040644 0.494361 0.520116
1161 4 0.181116 0.493325 0.587735
882 4 0.287808 0.473534 0.573743
880 2 0.290757 0.478105 0.549339
881 4 0.293706 0.482676 0.524934
1445 4 0.276214 0.480282 0.517392
1172 4 0.272205 0.462383 0.580056
587 4 0.327859 0.486198 0.508489
1953 4 0.362061 0.489273 0.577569
1185 4 0.0122854 0.0341975 0.655232
945 4 0.029261 0.0291528 0.664922
1057 2 0.100487 0.0412511 0.648011
1155 4 0.109917 0.0533405 0.621806
1059 4 0.103117 0.0635113 0.636932
1153 2 0.109745 0.0584903 0.59734
825 4 0.0960494 0.998393 0.661145
1181 4 0.234073 0.0372998 0.586559
963 4 0.252753 0.0351331 0.578889
1142 4 0.391553 0.0731527 0.64471
2282 4 0.498578 0.0307021 0.605212
2281 2 0.480431 0.0171414 0.594632
41 1 0.502143 0.0590861 0.62238
44 3 0.480327 0.0530632 0.6275
1081 2 0.0493062 0.156383 0.597756
1221 4 0.158117 0.100632 0.629697
1219 2 0.170139 0.120534 0.638891
1220 4 0.182162 0.140437 0.648086
1212 4 0.197781 0.14269 0.635496
1210 2 0.217573 0.143714 0.650741
1211 4 0.237365 0.144739 0.665986
1005 4 0.323806 0.100981 0.597547
1003 2 0.310411 0.0992957 0.618592
1004 4 0.297016 0.0976099 0.639638
887 4 0.291684 0.118028 0.643474
886 2 0.273158 0.133359 0.650327
1141 2 0.377926 0.0941164 0.644802
856 2 0.344858 0.157426 0.591204
1024 2 0.389238 0.14778 0.66343
1143 4 0.364299 0.11508 0.644894
1025 4 0.377473 0.129936 0.650454
1026 4 0.401003 0.165624 0.676405
810 4 0.483748 0.0850093 0.602093
3045 4 0.00426841 0.190192 0.602526
1083 4 0.0348224 0.17152 0.611404
1199 4 0.0142062 0.173844 0.605913
3043 2 0.00239793 0.214761 0.606773
3044 4 0.00052745 0.239331 0.61102
1271 4 0.137341 0.227694 0.58858
909 4 0.155684 0.231443 0.585747
907 2 0.172398 0.243414 0.599978
796 2 0.316265 0.204434 0.598509
797 4 0.321342 0.180473 0.603532
798 4 0.311188 0.228396 0.593486
812 4 0.326227 0.24127 0.588724
858 4 0.32577 0.161255 0.606893
906 4 0.48201 0.220338 0.613048
904 2 0.472677 0.243479 0.611448
908 4 0.189112 0.255385 0.614209
947 4 0.180954 0.271937 0.619895
946 2 0.194806 0.284363 0.636595
948 4 0.208659 0.296789 0.653294
1065 4 0.221597 0.294984 0.670132
1239 4 0.284507 0.267613 0.594702
1237 2 0.304551 0.280177 0.586605
1238 4 0.324595 0.29274 0.578507
792 4 0.323744 0.307492 0.59263
954 4 0.406256 0.289792 0.581647
790 2 0.345181 0.319785 0.596438
791 4 0.366618 0.332077 0.600246
905 4 0.463344 0.26662 0.609849
953 4 0.447686 0.266704 0.597495
952 2 0.426971 0.278248 0.589571
3262 2 0.997926 0.406456 0.603342
1281 4 0.0824766 0.349888 0.660296
894 4 0.0984316 0.353529 0.649293
991 2 0.127228 0.392656 0.604867
992 4 0.147183 0.406911 0.599991
892 2 0.123012 0.349033 0.650181
1040 4 0.0961308 0.385217 0.594673
993 4 0.107273 0.378401 0.609743
893 4 0.147592 0.344538 0.651069
1136 4 0.166066 0.412225 0.605108
1027 2 0.24273 0.383483 0.667377
1029 4 0.25652 0.40075 0.655678
1139 4 0.265727 0.418243 0.661928
1002 4 0.446347 0.415167 0.590567
1910 4 0.459448 0.407705 0.603367
1909 2 0.453758 0.418597 0.625142
1938 4 0.0244151 0.473887 0.582596
936 4 0.0131341 0.489364 0.586867
2022 4 0.0181546 0.474383 0.65019
2243 4 0.16193 0.490785 0.579808
1160 4 0.218748 0.46062 0.5916
1159 2 0.199932 0.476972 0.589668
1173 4 0.228999 0.444476 0.597757
1171 2 0.250602 0.45343 0.588906
891 4 0.369029 0.501253 0.644379
889 2 0.387685 0.49086 0.657384
1269 4 0.416483 0.476359 0.653598
1951 2 0.364227 0.491283 0.602397
1952 4 0.366392 0.493294 0.627226
1911 4 0.448069 0.42949 0.646917
1267 2 0.433219 0.458414 0.658397
1268 4 0.449956 0.440468 0.663196
943 2 0.0400064 0.0471772 0.678517
944 4 0.0507518 0.0652017 0.692113
1075 2 0.0588738 0.0651578 0.72673
1076 4 0.0568002 0.0792102 0.706153
1077 4 0.0609474 0.0511054 0.747306
1058 4 0.0978581 0.018991 0.65909
830 4 0.307839 0.0879091 0.73183
829 2 0.329717 0.0815722 0.721516
831 4 0.351595 0.0752353 0.711202
3387 4 0.0185041 0.142702 0.709209
35 3 0.0766521 0.163017 0.743622
32 3 0.102554 0.145929 0.722886
31 1 0.0964582 0.151795 0.744277
34 3 0.112957 0.165374 0.753321
888 4 0.254633 0.148689 0.657179
1208 4 0.0779435 0.263108 0.711785
1207 2 0.0535254 0.258268 0.714132
1209 4 0.0291073 0.253427 0.716478
851 4 0.00988015 0.185302 0.753231
822 4 0.13541 0.243407 0.742197
1278 4 0.147112 0.230245 0.735915
820 2 0.116576 0.253936 0.729564
1276 2 0.15381 0.209166 0.747576
977 4 0.313662 0.202629 0.719486
916 2 0.332594 0.233755 0.704041
918 4 0.324786 0.210005 0.703618
3357 4 0.491177 0.223536 0.673558
3122 4 0.479899 0.240925 0.671745
1263 4 0.458305 0.209645 0.748862
1261 2 0.443739 0.229966 0.749051
1243 2 0.0105263 0.30604 0.717254
3188 4 0.023076 0.261925 0.734263
1244 4 0.0172439 0.328114 0.726886
1245 4 0.00380875 0.283966 0.707621
1179 4 0.989904 0.270268 0.707621
821 4 0.0977424 0.264465 0.71693
1063 2 0.246446 0.292941 0.672017
1241 4 0.244116 0.291186 0.711673
1240 2 0.253777 0.294384 0.734512
1064 4 0.271294 0.290898 0.673902
1098 4 0.290255 0.296234 0.680602
917 4 0.340401 0.257504 0.704463
1097 4 0.330442 0.268308 0.690889
1096 2 0.310348 0.282271 0.685745
3121 2 0.484194 0.265176 0.676065
3123 4 0.488488 0.289426 0.680384
1262 4 0.429173 0.250288 0.749239
1279 2 0.0681533 0.365978 0.672989
3275 4 0.0594981 0.394442 0.699636
1280 4 0.05383 0.382069 0.685682
3274 2 0.0691867 0.401092 0.721706
3276 4 0.0788753 0.407741 0.743777
940 2 0.155069 0.390344 0.730395
942 4 0.152992 0.41474 0.735463
1028 4 0.22894 0.366216 0.679077
1068 4 0.210978 0.358839 0.682038
1067 4 0.170835 0.364097 0.711391
1066 2 0.190907 0.361468 0.696715
941 4 0.157146 0.365948 0.725327
1229 4 0.344572 0.390956 0.685369
1228 2 0.339026 0.408362 0.702441
2021 4 0.0384084 0.469595 0.69566
1981 2 0.0265458 0.48781 0.734101
2020 2 0.0282815 0.471989 0.672925
1983 4 0.0285572 0.480444 0.710292
1080 4 0.153501 0.428423 0.76448
1138 2 0.280545 0.43451 0.673803
1140 4 0.295362 0.450777 0.685677
1989 4 0.291121 0.456222 0.704359
1987 2 0.290727 0.465463 0.727589
890 4 0.406341 0.480467 0.670389
1230 4 0.333479 0.425767 0.719514
1250 4 0.468348 0.494342 0.744207
1100 4 0.449632 0.490562 0.73602
1203 4 0.0808076 0.0466931 0.747398
862 2 0.07624 0.0711702 0.813547
1283 4 0.131007 0.0618977 0.751566
1282 2 0.150714 0.0756311 0.758509
2047 2 0.154045 0.0205265 0.759368
864 4 0.0916692 0.0595568 0.82943
1201 2 0.103474 0.0485923 0.75778
2049 4 0.143205 0.0393876 0.771694
1202 4 0.126141 0.0504915 0.768162
1049 4 0.229148 0.0696887 0.819368
875 4 0.257335 0.992293 0.823024
1048 2 0.249685 0.0696639 0.833629
817 2 0.329656 0.0889342 0.818107
818 4 0.349657 0.0741373 0.815618
965 4 0.364889 0.0813441 0.804584
846 4 0.482443 0.00364444 0.763636
1106 4 0.064808 0.152148 0.755536
863 4 0.0608109 0.0827836 0.797665
832 2 0.071133 0.119551 0.780288
833 4 0.0670271 0.102017 0.797634
834 4 0.0752389 0.137086 0.762943
33 3 0.0942167 0.132515 0.756991
1284 4 0.17042 0.0893644 0.765453
1227 4 0.17699 0.112113 0.752304
1130 4 0.178272 0.132134 0.753956
1225 2 0.199472 0.103194 0.758645
1226 4 0.221953 0.0942746 0.764986
840 4 0.231868 0.109511 0.775573
1129 2 0.177633 0.156036 0.76127
838 2 0.238718 0.128494 0.790335
839 4 0.245568 0.147477 0.805096
959 4 0.262543 0.154979 0.797596
819 4 0.309655 0.103731 0.820596
1085 4 0.309103 0.1237 0.824174
1084 2 0.32144 0.142809 0.813789
964 2 0.384846 0.0958339 0.808702
966 4 0.404802 0.110324 0.812819
1299 4 0.35122 0.163599 0.796686