ITEM: TIMESTEP
540000
ITEM: NUMBER OF ATOMS
4590
ITEM: BOX BOUNDS pp pp pp
-9.9985700000000008e+00 9.9985700000000008e+00
-9.9985700000000008e+00 9.9985700000000008e+00
-9.9985700000000008e+00 9.9985700000000008e+00
ITEM: ATOMS id type xs ys zs
463 2 0.015217 0.0489216 0.0483688
465 4 0.0188285 0.0643566 0.0677052
464 4 0.0116055 0.0334865 0.0290324
3290 4 0.00491993 0.0409847 0.0113301
3289 2 0.00917942 0.0190809 4.91289e-05
1667 4 0.0732263 0.0712774 0.0828154
534 4 0.203331 0.0178741 0.0143353
1476 4 0.204181 0.0103309 0.0635788
567 4 0.174596 0.0780144 0.0608356
490 2 0.278842 0.048033 0.0310019
491 4 0.286003 0.0433819 0.0075015
492 4 0.271681 0.052684 0.0545022
557 4 0.375814 0.0740358 0.0701149
745 2 0.458107 0.0769549 0.0237569
747 4 0.475378 0.0712934 0.00658584
1826 4 0.462026 0.0131015 0.0521173
591 4 0.0131544 0.0838096 0.0739121
701 4 0.0620834 0.130006 0.027843
700 2 0.0798779 0.113397 0.0335584
423 4 0.069488 0.152982 0.00766567
589 2 0.0318304 0.100183 0.0767949
702 4 0.0976723 0.0967872 0.0392738
566 4 0.16739 0.123361 0.080646
565 2 0.170993 0.100688 0.0707408
358 2 0.28044 0.139274 0.00963559
360 4 0.262551 0.146509 0.0255354
556 2 0.372022 0.0971856 0.0614611
558 4 0.368231 0.120335 0.0528073
746 4 0.440836 0.0826164 0.040928
421 2 0.0601155 0.176161 0.00796164
553 2 0.0294699 0.214517 0.0358832
554 4 0.0173277 0.233621 0.0465023
422 4 0.050743 0.199339 0.00825761
555 4 0.0416121 0.195412 0.0252642
506 4 0.172928 0.237645 0.0787933
1133 4 0.19745 0.199326 0.00949959
665 4 0.371007 0.200124 0.0269426
828 4 0.446449 0.171946 0.00305056
770 4 0.446452 0.18622 0.0670823
771 4 0.450236 0.164535 0.0221806
769 2 0.448344 0.175378 0.0446314
292 2 0.140943 0.298968 0.041417
293 4 0.16107 0.286242 0.0490407
294 4 0.120816 0.311694 0.0337933
507 4 0.176859 0.275455 0.0463027
505 2 0.174894 0.25655 0.062548
481 2 0.248628 0.29733 0.0697794
482 4 0.240354 0.315555 0.0547946
756 4 0.293437 0.294747 0.0834109
572 4 0.340546 0.254192 0.0722153
571 2 0.355785 0.259236 0.0530444
573 4 0.371023 0.264281 0.0338734
1071 4 0.376214 0.273004 0.016478
1069 2 0.392208 0.265803 0.998659
280 2 0.454998 0.323784 0.0514817
281 4 0.432177 0.318198 0.0600379
671 4 0.417236 0.329848 0.066418
282 4 0.477818 0.329369 0.0429255
328 2 0.0322299 0.396775 0.0192907
330 4 0.0247344 0.406498 0.0410729
621 4 0.0201872 0.402349 0.0726192
455 4 0.0858401 0.351735 0.066791
454 2 0.110145 0.346838 0.0635591
456 4 0.134451 0.34194 0.0603272
287 4 0.170744 0.389554 0.00490855
252 4 0.309038 0.391263 0.0653656
250 2 0.298384 0.391942 0.042756
251 4 0.287729 0.392621 0.0201464
608 4 0.306552 0.375079 0.077555
227 4 0.468298 0.407902 0.0217963
551 4 0.0753738 0.460796 0.0769066
315 4 0.0172177 0.416254 0.0580966
313 2 0.0126954 0.436091 0.0726303
550 2 0.0956645 0.45399 0.0639781
552 4 0.115955 0.447184 0.0510496
245 4 0.212388 0.4665 0.0316143
244 2 0.235877 0.459412 0.0267972
246 4 0.259366 0.452324 0.0219801
272 4 0.269402 0.469308 0.0131532
271 2 0.283614 0.489651 0.0162171
562 2 0.464742 0.497551 0.0368129
564 4 0.465819 0.502176 0.0613613
563 4 0.463664 0.492926 0.0122645
226 2 0.476818 0.430422 0.0285385
228 4 0.485337 0.452942 0.0352807
19 3 0.0414368 0.0357884 0.153575
20 3 0.0706598 0.0490386 0.133875
1422 4 0.0365415 0.0188213 0.140681
16 1 0.0595922 0.0502368 0.153742
2480 4 0.0191156 0.0301435 0.150587
17 3 0.0519758 0.0717133 0.156889
1666 2 0.0711337 0.0472409 0.0893763
1668 4 0.0690411 0.0232044 0.0959373
652 2 0.305592 0.0612373 0.135986
654 4 0.304184 0.0463765 0.115928
653 4 0.307001 0.0760982 0.156045
296 4 0.369058 0.0568514 0.075325
295 2 0.362917 0.0467557 0.0973603
297 4 0.356777 0.03666 0.119396
485 4 0.357779 0.0171061 0.126412
484 2 0.343861 0.000252195 0.138552
758 4 0.413449 0.0704633 0.161146
1759 2 0.478547 0.0078084 0.158784
1761 4 0.460696 0.990488 0.161345
590 4 0.0505064 0.116556 0.0796777
582 4 0.31103 0.0958356 0.161791
339 4 0.0582067 0.235658 0.122117
476 4 0.145828 0.17453 0.113778
475 2 0.133479 0.182015 0.134191
477 4 0.121131 0.189499 0.154604
737 4 0.175267 0.208124 0.114905
736 2 0.195791 0.204251 0.101161
738 4 0.216316 0.200378 0.0874162
354 4 0.231242 0.212784 0.0906286
353 4 0.279024 0.224349 0.0814702
352 2 0.255133 0.218567 0.0860494
461 4 0.29555 0.211184 0.0842511
460 2 0.309835 0.203668 0.103346
462 4 0.324119 0.196152 0.122442
255 4 0.337937 0.185145 0.133033
324 4 0.396733 0.239366 0.0754829
254 4 0.38602 0.175882 0.122887
630 4 0.404422 0.182465 0.118651
253 2 0.361979 0.180513 0.12796
622 2 0.370076 0.245784 0.133487
628 2 0.414604 0.205134 0.121409
624 4 0.392008 0.245809 0.145494
623 4 0.348143 0.245758 0.121481
629 4 0.424786 0.227804 0.124167
518 4 0.512638 0.224733 0.127179
337 2 0.0746192 0.250364 0.133931
338 4 0.0910316 0.265069 0.145744
363 4 0.0973157 0.25933 0.165256
279 4 0.22373 0.266682 0.164429
277 2 0.246072 0.26745 0.15323
483 4 0.256902 0.279104 0.0847643
754 2 0.287229 0.28268 0.104411
755 4 0.28102 0.270612 0.125412
278 4 0.268414 0.268218 0.142031
741 4 0.359299 0.318198 0.081702
322 2 0.412472 0.256481 0.0846774
323 4 0.428211 0.273596 0.0938718
619 2 0.0281193 0.384299 0.0879969
620 4 0.0360513 0.36625 0.103375
647 4 0.0525152 0.388379 0.161809
537 4 0.153683 0.381075 0.137104
535 2 0.167522 0.378985 0.157823
626 4 0.207626 0.388265 0.0868314
625 2 0.207888 0.411055 0.0971156
611 4 0.241755 0.336817 0.137524
609 4 0.307579 0.354735 0.123225
607 2 0.307066 0.364907 0.10039
612 4 0.289383 0.347815 0.126972
610 2 0.265569 0.342316 0.132248
302 4 0.327534 0.39778 0.147397
387 4 0.340555 0.386684 0.157243
739 2 0.356442 0.333239 0.10147
385 2 0.35322 0.367538 0.147333
740 4 0.353586 0.34828 0.121238
15 3 0.394906 0.34812 0.151376
386 4 0.365884 0.348391 0.137424
14 3 0.408455 0.381101 0.139279
495 4 0.402923 0.398987 0.145101
11 1 0.413877 0.359687 0.146381
493 2 0.408633 0.411891 0.12446
670 2 0.419321 0.341219 0.0885889
672 4 0.421406 0.352589 0.11076
12 3 0.425118 0.348869 0.129477
595 2 0.464906 0.376862 0.157558
596 4 0.487471 0.380033 0.147267
13 3 0.42763 0.360774 0.165038
314 4 0.00817319 0.455928 0.0871639
627 4 0.20815 0.433844 0.1074
637 2 0.24535 0.490691 0.164889
639 4 0.245291 0.483894 0.140827
1438 2 0.236943 0.485051 0.109366
1440 4 0.217319 0.484132 0.0938979
1439 4 0.256567 0.48597 0.124833
301 2 0.335595 0.419909 0.155794
524 4 0.330651 0.501052 0.0963404
523 2 0.335688 0.478178 0.105091
525 4 0.340725 0.455303 0.113842
659 4 0.361656 0.438866 0.171456
494 4 0.414343 0.424794 0.103818
18 3 0.0739312 0.0447389 0.171137
450 4 0.147397 0.0751441 0.163847
673 2 0.131512 0.0355148 0.248303
674 4 0.147162 0.0160346 0.247423
690 4 0.164229 0.0246938 0.242223
1505 4 0.2117 0.0137719 0.203483
1504 2 0.214462 0.993616 0.188947
689 4 0.209498 0.0229446 0.221049
688 2 0.186864 0.0238192 0.231636
693 4 0.216227 0.0521295 0.189004
691 2 0.233839 0.0661522 0.199884
21 1 0.384951 0.0623525 0.230447
23 3 0.398302 0.0486015 0.243527
24 3 0.367361 0.0706675 0.243091
25 3 0.37688 0.0506841 0.212633
759 4 0.381148 0.0497308 0.1932
757 2 0.397299 0.060097 0.177173
742 2 0.469778 0.0363009 0.235856
744 4 0.457552 0.0213744 0.219954
379 2 0.99619 0.15215 0.189355
381 4 0.0115132 0.166941 0.202455
511 2 0.0354875 0.160028 0.227705
513 4 0.0584848 0.152094 0.23348
578 4 0.0729792 0.141289 0.240859
577 2 0.0820729 0.127608 0.22201
579 4 0.0911666 0.113926 0.20316
512 4 0.0124902 0.167962 0.22193
237 4 0.15495 0.163277 0.185942
448 2 0.165557 0.0904394 0.171684
235 2 0.170789 0.143929 0.185997
449 4 0.183718 0.105735 0.179522
236 4 0.186627 0.124582 0.186053
546 4 0.182591 0.155906 0.232928
722 4 0.19083 0.141077 0.243723
692 4 0.251451 0.0801749 0.210764
580 2 0.30119 0.101879 0.183968
581 4 0.291349 0.107922 0.206145
30 3 0.282556 0.118966 0.22109
26 1 0.295938 0.122063 0.239256
27 3 0.305908 0.102091 0.244814
29 3 0.312468 0.137592 0.234357
22 3 0.397628 0.0799779 0.222845
333 4 0.410317 0.0894718 0.234758
312 4 0.426484 0.135418 0.199918
311 4 0.464396 0.117145 0.17291
310 2 0.44544 0.126282 0.186414
544 2 0.167539 0.169615 0.247443
285 4 0.292387 0.224569 0.173459
284 4 0.267931 0.220243 0.216864
283 2 0.280159 0.222406 0.195161
764 4 0.414498 0.210146 0.215584
763 2 0.426127 0.23228 0.21579
765 4 0.437756 0.254414 0.215996
522 4 0.500621 0.233534 0.236498
527 4 0.45187 0.245154 0.174254
520 2 0.479331 0.223663 0.245128
395 4 0.0655462 0.260118 0.200216
394 2 0.056136 0.260844 0.22337
396 4 0.0467259 0.261571 0.246524
749 4 0.0835311 0.300596 0.238396
361 2 0.109174 0.261549 0.187157
750 4 0.121386 0.323725 0.215314
362 4 0.121032 0.263769 0.209058
372 4 0.138286 0.271726 0.206015
748 2 0.102458 0.31216 0.226855
370 2 0.157942 0.278137 0.220075
371 4 0.177598 0.284549 0.234136
345 4 0.226878 0.282973 0.221931
343 2 0.250441 0.290759 0.218877
344 4 0.274004 0.298546 0.215824
307 2 0.301822 0.312105 0.239345
309 4 0.290875 0.306797 0.217501
528 4 0.482637 0.282158 0.187846
526 2 0.467253 0.263656 0.18105
646 2 0.0717536 0.375939 0.171824
366 4 0.00292667 0.366392 0.245285
300 4 0.129698 0.340977 0.221622
648 4 0.090992 0.363499 0.181839
298 2 0.124652 0.363184 0.231944
299 4 0.119606 0.385392 0.242265
536 4 0.18136 0.376896 0.178543
289 2 0.238427 0.414123 0.214664
290 4 0.262272 0.409005 0.220175
597 4 0.44234 0.37369 0.16785
643 2 0.448183 0.363572 0.21105
644 4 0.456452 0.356467 0.233551
645 4 0.439913 0.370676 0.188548
263 4 0.0318885 0.466286 0.177165
262 2 0.0460135 0.456667 0.195418
264 4 0.0601384 0.447048 0.21367
417 4 0.173105 0.464804 0.207511
415 2 0.190179 0.447649 0.201235
638 4 0.245409 0.497488 0.188951
416 4 0.207253 0.430495 0.19496
291 4 0.214581 0.41924 0.209153
768 4 0.204925 0.477958 0.239917
766 2 0.221401 0.488175 0.224127
767 4 0.237877 0.498392 0.208337
1430 4 0.173917 0.48506 0.207198
1574 4 0.30466 0.496532 0.182709
303 4 0.343656 0.442038 0.164191
660 4 0.369137 0.486799 0.183591
658 2 0.365396 0.462833 0.177523
231 4 0.356609 0.497049 0.197163
232 2 0.0466675 0.0292149 0.297308
233 4 0.06202 0.0116207 0.288368
1403 4 0.0753786 0.00698873 0.302822
234 4 0.0313149 0.0468091 0.306248
2756 4 0.015108 0.0470243 0.317645
675 4 0.115862 0.054995 0.249183
429 4 0.0906092 0.0164184 0.322625
1701 4 0.303777 0.0492842 0.284088
1699 2 0.293295 0.029238 0.294739
1516 2 0.351177 0.00688532 0.272913
1518 4 0.35772 0.0303484 0.278557
697 2 0.379252 0.0482987 0.31246
699 4 0.364146 0.0438414 0.29304
1747 2 0.463298 0.00435677 0.303354
1749 4 0.478113 0.00373644 0.323486
743 4 0.482005 0.0512274 0.251759
257 4 0.429107 0.0696777 0.31853
480 4 0.481452 0.024346 0.320849
351 4 0.467321 0.0550079 0.266095
349 2 0.455683 0.0648714 0.285906
1748 4 0.448482 0.0049771 0.283222
350 4 0.444045 0.0747348 0.305716
530 4 0.0158669 0.141998 0.270677
399 4 0.090577 0.161422 0.310018
397 2 0.0952845 0.136871 0.309533
398 4 0.0999921 0.112319 0.309048
732 4 0.106402 0.114086 0.327969
721 2 0.194236 0.118017 0.252767
723 4 0.197643 0.0949565 0.261812
404 4 0.246052 0.140885 0.306149
403 2 0.231442 0.161039 0.303797
599 4 0.223985 0.135299 0.336049
28 3 0.283271 0.129391 0.257263
249 4 0.256141 0.135206 0.321222
248 4 0.287088 0.106223 0.294709
247 2 0.271614 0.120714 0.307966
632 4 0.354012 0.106683 0.296548
631 2 0.371496 0.121206 0.306967
633 4 0.388981 0.13573 0.317386
331 2 0.426933 0.0985949 0.251064
332 4 0.443548 0.107718 0.267369
762 4 0.434819 0.113573 0.285634
760 2 0.453196 0.129322 0.291915
761 4 0.471573 0.14507 0.298195
390 4 0.079005 0.227268 0.306587
392 4 0.1448 0.19384 0.278068
391 2 0.122162 0.192439 0.288591
393 4 0.0995246 0.191037 0.299115
545 4 0.152486 0.183323 0.261957
388 2 0.0984161 0.238081 0.318053
389 4 0.117827 0.248894 0.329519
405 4 0.216832 0.181193 0.301445
706 2 0.289091 0.179521 0.331976
708 4 0.26629 0.187148 0.325111
473 4 0.255764 0.203933 0.325337
420 4 0.405026 0.184422 0.332029
418 2 0.408565 0.207737 0.323718
521 4 0.458041 0.213791 0.253758
419 4 0.412105 0.231052 0.315408
443 4 0.032091 0.256562 0.259159
444 4 0.0455354 0.294378 0.28899
442 2 0.0388132 0.27547 0.274074
401 4 0.187307 0.259295 0.277682
400 2 0.199532 0.256514 0.299315
402 4 0.211758 0.253733 0.320948
308 4 0.31277 0.317412 0.26119
496 2 0.310234 0.31503 0.301513
497 4 0.301824 0.316745 0.278029
498 4 0.318645 0.313314 0.324997
615 4 0.402468 0.331422 0.296714
543 4 0.417326 0.31874 0.301121
541 2 0.441386 0.325536 0.300797
542 4 0.465446 0.332332 0.300472
2493 4 0.00585465 0.374302 0.30132
364 2 0.0130441 0.370864 0.267709
365 4 0.0231616 0.375335 0.290133
603 4 0.0834832 0.369606 0.330392
601 2 0.0895558 0.381273 0.309127
734 4 0.124442 0.399553 0.256438
733 2 0.141324 0.393657 0.273914
602 4 0.0956284 0.39294 0.287863
735 4 0.158206 0.387761 0.29139
677 4 0.159109 0.394291 0.310189
777 4 0.0813713 0.407153 0.284064
676 2 0.18243 0.385295 0.310792
678 4 0.205752 0.3763 0.311395
729 4 0.284479 0.388626 0.256945
727 2 0.292505 0.390518 0.28055
434 4 0.320338 0.393037 0.300122
728 4 0.300531 0.39241 0.304154
433 2 0.333484 0.396491 0.321108
613 2 0.383657 0.337964 0.311831
614 4 0.364847 0.344506 0.326949
447 4 0.44631 0.358286 0.249432
445 2 0.444153 0.377623 0.265136
446 4 0.441996 0.396959 0.280841
1756 2 0.0714149 0.490406 0.285575
1757 4 0.0680166 0.467803 0.295712
776 4 0.0836164 0.456757 0.289991
775 2 0.0824939 0.431955 0.287027
549 4 0.0280692 0.477019 0.327498
413 4 0.156838 0.487661 0.275589
414 4 0.188378 0.467679 0.242322
412 2 0.172608 0.47767 0.258956
437 4 0.266776 0.463512 0.261655
436 2 0.286142 0.479327 0.261512
438 4 0.305508 0.495142 0.26137
713 4 0.400121 0.445637 0.308312
593 4 0.382261 0.494171 0.324108
120 3 0.499898 0.43086 0.309255
712 2 0.421362 0.453956 0.298076
714 4 0.442603 0.462276 0.28784
2755 2 0.999173 0.0473633 0.33691
317 4 0.0639999 0.0611955 0.363872
428 4 0.068641 0.0425116 0.359193
427 2 0.0796251 0.029465 0.340909
316 2 0.0518617 0.0823772 0.35847
1782 4 0.107207 0.0124017 0.367255
606 4 0.176617 0.0606782 0.36132
604 2 0.198357 0.067442 0.371653
605 4 0.220098 0.0742059 0.381986
683 4 0.302929 0.0517873 0.371952
682 2 0.290868 0.0726594 0.37859
725 4 0.339838 0.0672227 0.426745
698 4 0.394357 0.0527561 0.331881
425 4 0.407342 0.0282964 0.418576
424 2 0.421507 0.0373888 0.400087
426 4 0.435672 0.0464811 0.381597
256 2 0.435985 0.0615502 0.341153
258 4 0.442863 0.0534227 0.363777
2586 4 0.015258 0.0997901 0.391075
318 4 0.0397236 0.103559 0.353068
731 4 0.122711 0.087022 0.366728
730 2 0.114557 0.100554 0.347349
686 4 0.142956 0.154436 0.402873
685 2 0.160637 0.140088 0.392544
687 4 0.178318 0.12574 0.382214
600 4 0.188942 0.137945 0.371625
598 2 0.206464 0.136622 0.353837
684 4 0.278807 0.0935316 0.385229
320 4 0.28139 0.0993535 0.404716
468 4 0.380686 0.149999 0.413911
514 2 0.448646 0.164643 0.406727
515 4 0.46012 0.16405 0.38452
2653 2 0.00431027 0.224842 0.396784
2654 4 0.029275 0.226205 0.397069
474 4 0.221184 0.193686 0.359977
472 2 0.238474 0.19881 0.342657
276 4 0.197401 0.236323 0.38683
707 4 0.311892 0.171895 0.338842
466 2 0.361579 0.166124 0.414223
451 2 0.491499 0.171172 0.368087
453 4 0.467013 0.175184 0.371174
304 2 0.496801 0.216391 0.406685
618 4 0.0587742 0.308904 0.40104
347 4 0.0527562 0.298173 0.416772
616 2 0.0804268 0.299836 0.392431
617 4 0.102079 0.290769 0.383821
275 4 0.167662 0.276515 0.387798
274 2 0.182532 0.256419 0.387314
508 2 0.251509 0.313077 0.368016
510 4 0.243257 0.325505 0.388082
374 4 0.230449 0.3148 0.399157
509 4 0.25976 0.300649 0.347951
488 4 0.301106 0.260871 0.382938
376 2 0.318066 0.282875 0.359581
377 4 0.320696 0.266478 0.378274
378 4 0.315435 0.299271 0.340888
487 2 0.292625 0.264892 0.406113
716 4 0.393268 0.259485 0.370659
715 2 0.372909 0.257433 0.385028
717 4 0.35255 0.25538 0.399396
269 4 0.4722 0.284422 0.378294
268 2 0.479358 0.271698 0.398593
406 2 0.0602709 0.404197 0.373433
408 4 0.077004 0.392071 0.38751
373 2 0.220786 0.336842 0.405937
502 2 0.217558 0.398583 0.39958
503 4 0.221024 0.418238 0.384519
375 4 0.211123 0.358884 0.412716
504 4 0.214093 0.378927 0.414641
435 4 0.34663 0.399944 0.342094
336 4 0.353876 0.41236 0.403945
334 2 0.357474 0.389053 0.412251
561 4 0.454833 0.397407 0.406
752 4 0.471648 0.404032 0.396941
751 2 0.482065 0.402754 0.374247
753 4 0.492483 0.401476 0.351554
407 4 0.0435378 0.416323 0.359357
681 4 0.027957 0.423646 0.406929
547 2 0.0366788 0.456495 0.338893
548 4 0.0452884 0.435972 0.350288
500 4 0.105528 0.486303 0.359903
499 2 0.125979 0.500685 0.360227
1437 4 0.261218 0.481456 0.33626
668 4 0.297679 0.440275 0.390931
5 3 0.267509 0.473553 0.354386
1 1 0.284473 0.45836 0.354635
2 3 0.303361 0.467947 0.345664
4 3 0.288985 0.451888 0.376455
3 3 0.278697 0.439835 0.341911
667 2 0.311805 0.451168 0.408452
592 2 0.406329 0.495281 0.330793
119 3 0.491242 0.419974 0.344243
594 4 0.430397 0.496391 0.337477
718 2 0.0608153 0.0528852 0.48999
719 4 0.0835316 0.0569541 0.480368
720 4 0.038099 0.0488162 0.499613
368 4 0.0901283 0.0561033 0.439035
367 2 0.113804 0.0637868 0.441406
369 4 0.137479 0.0714704 0.443778
2428 2 0.221918 0.0050754 0.474743
341 4 0.21071 0.0403916 0.464923
340 2 0.189624 0.0527327 0.470238
2430 4 0.211357 0.0212114 0.458828
342 4 0.168538 0.0650739 0.475553
1152 4 0.167954 0.0713809 0.494968
1182 4 0.240158 0.0895606 0.467866
1180 2 0.252135 0.0747737 0.484085
441 4 0.259944 0.00550659 0.460894
724 2 0.320555 0.0700956 0.442401
432 4 0.28649 0.0637161 0.504374
963 4 0.28827 0.041659 0.497498
430 2 0.306486 0.0763907 0.496333
2878 2 0.488493 0.0661514 0.443637
2880 4 0.473524 0.0763699 0.460861
642 4 0.486091 0.0911591 0.462369
471 4 0.0473469 0.165367 0.498829
1034 4 0.112499 0.142158 0.475768
1033 2 0.0986973 0.162517 0.480261
319 2 0.269205 0.119232 0.413747
726 4 0.301273 0.0729684 0.458057
321 4 0.25702 0.13911 0.422779
431 4 0.326483 0.0890653 0.488292
574 2 0.407815 0.14582 0.441931
576 4 0.396663 0.132195 0.459684
516 4 0.437172 0.165236 0.428935
641 4 0.476861 0.128135 0.494746
640 2 0.481476 0.109647 0.478558
575 4 0.418967 0.159445 0.424178
458 4 0.0137495 0.19426 0.463961
457 2 0.00489444 0.172941 0.454356
260 4 0.0738233 0.230912 0.44066
469 2 0.0351679 0.187204 0.498842
261 4 0.0930109 0.19844 0.473494
259 2 0.0834171 0.214676 0.457077
1035 4 0.0848955 0.182877 0.484754
411 4 0.242703 0.223641 0.485524
409 2 0.261513 0.207438 0.482551
410 4 0.280322 0.191235 0.479578
467 4 0.342472 0.182249 0.414535
306 4 0.489717 0.238152 0.416757
346 2 0.0445278 0.286824 0.437476
348 4 0.0362995 0.275475 0.458181
695 4 0.0895647 0.257437 0.486888
694 2 0.114163 0.258141 0.482458
696 4 0.13876 0.258844 0.478027
7 3 0.141206 0.340357 0.489088
1260 4 0.14675 0.261383 0.496032
10 3 0.177282 0.333767 0.496017
650 4 0.245302 0.272498 0.462233
489 4 0.284145 0.268913 0.429288
651 4 0.292843 0.271976 0.446733
649 2 0.269072 0.272237 0.454483
812 4 0.331167 0.303585 0.487375
267 4 0.353931 0.269611 0.414726
266 4 0.374995 0.287098 0.456574
265 2 0.364463 0.278355 0.43565
813 4 0.36137 0.268996 0.507176
811 2 0.346269 0.28629 0.497276
270 4 0.486516 0.258974 0.418892
2456 4 0.497137 0.288199 0.446638
583 2 0.460037 0.269637 0.454353
584 4 0.482406 0.274711 0.444399
585 4 0.437669 0.264562 0.464307
383 4 0.0727911 0.412323 0.474222
326 4 0.0955601 0.355146 0.44434
327 4 0.121526 0.340818 0.484604
325 2 0.108543 0.347982 0.464472
6 1 0.161262 0.349924 0.495038
709 2 0.166302 0.373764 0.444596
710 4 0.166855 0.365008 0.421182
8 3 0.167003 0.365814 0.479134
711 4 0.165748 0.38252 0.46801
588 4 0.411128 0.416184 0.429197
238 2 0.379772 0.375271 0.459994
240 4 0.367778 0.371147 0.438446
335 4 0.361073 0.365745 0.420557
239 4 0.391766 0.379396 0.481542
559 2 0.444579 0.381826 0.422651
560 4 0.434325 0.366245 0.439303
680 4 0.0279699 0.439567 0.454334
1381 2 0.00260858 0.476082 0.455041
1383 4 0.0145441 0.454193 0.453146
679 2 0.0279634 0.431607 0.430632
570 4 0.126562 0.477659 0.41755
568 2 0.117069 0.472433 0.440083
384 4 0.104028 0.451372 0.473868
382 2 0.0884095 0.431848 0.474045
569 4 0.107575 0.467206 0.462616
636 4 0.202629 0.463104 0.424041
634 2 0.209499 0.456532 0.447166
772 2 0.242034 0.431967 0.48062
774 4 0.228141 0.436432 0.460317
635 4 0.216369 0.44996 0.470292
669 4 0.32593 0.462061 0.425974
1400 4 0.386162 0.498561 0.437655
586 2 0.411618 0.440882 0.433059
587 4 0.412108 0.465581 0.436921
1126 2 0.0226966 0.0583474 0.533211
1127 4 0.0204413 0.0479946 0.510563
1128 4 0.024952 0.0687002 0.555858
2237 4 0.00272865 0.0192077 0.500279
1058 4 0.120252 0.0559185 0.544722
1057 2 0.131783 0.0766783 0.552548
961 2 0.293678 0.0214675 0.511218
962 4 0.299086 0.00127593 0.524938
1032 4 0.252112 0.0931648 0.572372
1181 4 0.264112 0.0599868 0.500305
1217 4 0.394628 0.0568395 0.519994
841 2 0.358795 0.078703 0.511075
842 4 0.375078 0.0641247 0.52322
1216 2 0.410929 0.0520062 0.538327
1218 4 0.42723 0.0471728 0.55666
1062 4 0.495916 0.998055 0.568615
937 2 0.105363 0.155216 0.565659
1059 4 0.143314 0.097438 0.560373
1155 4 0.149617 0.112767 0.571298
1151 4 0.160699 0.118306 0.510657
1150 2 0.164326 0.0948433 0.502812
938 4 0.0953914 0.162558 0.543938
1153 2 0.162038 0.132509 0.580306
898 2 0.32008 0.147451 0.569039
899 4 0.295448 0.147305 0.564748
900 4 0.344712 0.147597 0.573329
843 4 0.342511 0.0932814 0.49893
3158 4 0.466438 0.135751 0.510793
3157 2 0.476917 0.158345 0.508584
878 4 0.0756372 0.185507 0.562917
877 2 0.0823278 0.204395 0.577873
470 4 0.0229888 0.20904 0.498856
797 4 0.251911 0.214388 0.572047
856 2 0.258747 0.188027 0.544928
857 4 0.259064 0.164492 0.536492
796 2 0.251226 0.238837 0.577239
858 4 0.25843 0.211562 0.553364
871 2 0.385854 0.243747 0.529667
872 4 0.404482 0.235664 0.544255
3159 4 0.487396 0.180939 0.506376
1258 2 0.15933 0.275341 0.512526
1259 4 0.171911 0.289299 0.529021
791 4 0.332131 0.263255 0.578139
873 4 0.367225 0.25183 0.515079
1136 4 0.0916769 0.343825 0.5692
1135 2 0.112292 0.350072 0.581895
9 3 0.158898 0.359998 0.515807
1189 2 0.221883 0.357008 0.537808
896 4 0.194003 0.357427 0.567323
1191 4 0.199505 0.351495 0.547503
895 2 0.171139 0.361397 0.576632
1190 4 0.244261 0.362522 0.528112
802 2 0.264305 0.393763 0.520315
803 4 0.26276 0.369067 0.5239
804 4 0.265851 0.41846 0.516729
929 4 0.338799 0.394454 0.545493
928 2 0.359059 0.389457 0.559267
930 4 0.379319 0.38446 0.573042
925 2 0.485685 0.378274 0.513634
927 4 0.48735 0.398743 0.49937
926 4 0.484019 0.357806 0.527898
1001 4 0.443007 0.401085 0.550485
1171 2 0.23832 0.438681 0.545706
1173 4 0.223728 0.45465 0.558245
1172 4 0.252913 0.422712 0.533167
882 4 0.327108 0.419104 0.525178
880 2 0.322089 0.4372 0.541686
881 4 0.317069 0.455296 0.558194
1952 4 0.327102 0.456856 0.575133
773 4 0.255927 0.427502 0.500924
1951 2 0.344523 0.473828 0.58093
1000 2 0.442473 0.424422 0.559443
661 2 0.481037 0.4733 0.520251
663 4 0.484371 0.449138 0.514748
662 4 0.477703 0.497461 0.525754
1002 4 0.44194 0.44776 0.568402
1910 4 0.432931 0.465695 0.575925
1909 2 0.43022 0.490013 0.581069
2319 4 0.0580475 0.0053945 0.657064
1185 4 0.00527605 0.0338873 0.641217
1183 2 0.0119587 0.0530255 0.655854
945 4 0.0566138 0.025727 0.659819
825 4 0.112957 0.0034165 0.606938
1030 2 0.237222 0.0795401 0.587131
951 4 0.225636 0.0467396 0.600323
1031 4 0.222332 0.0659154 0.601891
949 2 0.220333 0.0230612 0.594291
950 4 0.21503 0.999383 0.588258
2282 4 0.44416 0.00491597 0.663549
810 4 0.465307 0.0935488 0.643634
2283 4 0.450891 0.997142 0.61461
2281 2 0.447525 0.00102906 0.639079
1082 4 0.0471124 0.125948 0.645682
1083 4 0.0714679 0.0943254 0.615556
1081 2 0.0592901 0.110136 0.630619
939 4 0.115334 0.147873 0.587381
1283 4 0.192327 0.0924569 0.622836
1154 4 0.174459 0.152251 0.589315
1284 4 0.18205 0.118713 0.664136
1282 2 0.187189 0.105585 0.643486
1005 4 0.341224 0.108852 0.609105
1003 2 0.341121 0.100863 0.632798
1004 4 0.341018 0.0928737 0.65649
808 2 0.482187 0.0971554 0.625545
45 3 0.456573 0.0900131 0.66174
809 4 0.499067 0.100762 0.607455
1208 4 0.0636569 0.243601 0.649359
879 4 0.0890185 0.223282 0.592829
1272 4 0.0996635 0.221887 0.610809
1270 2 0.11491 0.204601 0.6205
1271 4 0.130157 0.187315 0.630191
1221 4 0.184187 0.169025 0.586118
1212 4 0.222326 0.17031 0.641222
1219 2 0.194308 0.169911 0.608964
1220 4 0.204429 0.170796 0.63181
1210 2 0.233776 0.184859 0.658027
1025 4 0.414356 0.202108 0.662326
1193 4 0.366594 0.213837 0.657005
1024 2 0.427272 0.202548 0.640922
1026 4 0.440189 0.202989 0.619518
1244 4 0.0305307 0.263202 0.616829
1243 2 0.0272748 0.279239 0.635734
1245 4 0.0240189 0.295276 0.654639
1207 2 0.0803234 0.261905 0.652878
984 4 0.00414117 0.322942 0.621098
948 4 0.163778 0.304299 0.595998
1209 4 0.0969899 0.280209 0.656397
798 4 0.250542 0.263286 0.582432
946 2 0.181017 0.297804 0.612904
947 4 0.198255 0.291309 0.629811
1239 4 0.246842 0.32963 0.611465
790 2 0.311033 0.276466 0.580492
792 4 0.289936 0.289677 0.582844
1238 4 0.287746 0.307189 0.593465
1237 2 0.267294 0.31841 0.602465
953 4 0.442614 0.300689 0.592406
954 4 0.44499 0.338609 0.624919
952 2 0.443802 0.319649 0.608662
3121 2 0.501229 0.266584 0.662662
983 4 0.0246888 0.3583 0.592318
1039 2 0.0529217 0.401084 0.611696
1041 4 0.0282853 0.39812 0.61477
1040 4 0.077558 0.404047 0.608623
982 2 0.014415 0.340621 0.606708
897 4 0.148276 0.365368 0.585942
1137 4 0.132907 0.356319 0.59459
992 4 0.120533 0.405187 0.657274
991 2 0.101562 0.40914 0.641473
1204 2 0.38393 0.380782 0.611879
1206 4 0.373266 0.376273 0.589718
1205 4 0.394594 0.385291 0.634041
993 4 0.0825904 0.413092 0.625673
1159 2 0.166004 0.438957 0.619369
1160 4 0.14572 0.433455 0.605825
1188 4 0.208176 0.487032 0.654136
1161 4 0.186288 0.444459 0.632914
889 2 0.302771 0.438873 0.592569
891 4 0.284881 0.454614 0.584994
890 4 0.32066 0.423133 0.600144
1953 4 0.361944 0.490801 0.586728
1269 4 0.443889 0.485652 0.628934
1184 4 0.0186413 0.0721636 0.670492
4338 4 0.00723075 0.00515515 0.712569
943 2 0.066175 0.0460537 0.6708
944 4 0.0757362 0.0663804 0.681781
1076 4 0.0602095 0.070659 0.69452
43 3 0.442663 0.0568738 0.672963
1163 4 0.482602 0.0495184 0.677579
42 3 0.476804 0.0679937 0.684073
41 1 0.455553 0.0751971 0.679006
845 4 0.496587 0.0226928 0.746306
1075 2 0.0649645 0.085536 0.714046
1077 4 0.0697195 0.100413 0.733571
1105 2 0.0806088 0.161618 0.725221
1107 4 0.0758245 0.168208 0.701581
1106 4 0.0853931 0.155029 0.748862
1227 4 0.206052 0.158978 0.715818
1148 4 0.239496 0.112498 0.740612
1225 2 0.22398 0.141991 0.719716
1226 4 0.241908 0.125004 0.723615
44 3 0.44645 0.0854612 0.697719
1142 4 0.444919 0.158153 0.702792
1141 2 0.42987 0.173404 0.689904
851 4 0.0727198 0.186332 0.71167
852 4 0.0481697 0.22243 0.687279
850 2 0.0604448 0.204381 0.699474
1178 4 0.0334093 0.219016 0.673138
1177 2 0.0184413 0.238851 0.675915
909 4 0.163642 0.172926 0.66834
907 2 0.182225 0.172924 0.685069
908 4 0.200808 0.172923 0.701797
1211 4 0.245226 0.199407 0.674832
829 2 0.332829 0.182274 0.722555
830 4 0.313559 0.18026 0.706751
886 2 0.283865 0.195425 0.685324
888 4 0.263943 0.194017 0.670279
887 4 0.303786 0.196832 0.700369
831 4 0.352099 0.184288 0.738359
1192 2 0.357622 0.213629 0.680343
1194 4 0.34865 0.21342 0.70368
1262 4 0.404395 0.222011 0.723074
1143 4 0.414821 0.188656 0.677016
3356 4 0.487374 0.208469 0.734457
3355 2 0.486767 0.224707 0.715453
1261 2 0.429336 0.222095 0.721309
3357 4 0.48616 0.240945 0.69645
1263 4 0.454277 0.222178 0.719543
1145 4 0.475193 0.215827 0.748821
1179 4 0.00347329 0.258686 0.678693
821 4 0.145065 0.249806 0.734725
1065 4 0.252228 0.291633 0.711289
1064 4 0.278933 0.260333 0.739713
1063 2 0.265581 0.275983 0.725501
3122 4 0.492947 0.253005 0.681954
3274 2 0.0219109 0.389942 0.746745
892 2 0.0659064 0.414145 0.70558
894 4 0.0437398 0.405267 0.712997
3276 4 0.0373683 0.392418 0.727248
1067 4 0.153221 0.41233 0.694413
941 4 0.145994 0.4054 0.712302
1028 4 0.219647 0.400063 0.686846
1066 2 0.177035 0.408941 0.687585
1068 4 0.200848 0.405552 0.680757
1027 2 0.244413 0.399263 0.683502
1029 4 0.269179 0.398462 0.680158
1139 4 0.282277 0.412517 0.676169
1098 4 0.277859 0.334388 0.756497
806 4 0.363044 0.3469 0.659502
807 4 0.360359 0.367607 0.704941
805 2 0.361701 0.357254 0.682221
1019 4 0.392555 0.397426 0.747226
1018 2 0.374558 0.384358 0.735802
1020 4 0.356561 0.37129 0.724377
1281 4 0.00637318 0.462453 0.712178
1279 2 0.0167804 0.439845 0.709781
1983 4 0.0173392 0.479538 0.710428
1981 2 0.0227398 0.492517 0.731106
1280 4 0.0271876 0.417237 0.707384
893 4 0.0880729 0.423023 0.698163
2172 4 0.13089 0.488401 0.673981
940 2 0.135279 0.418355 0.730809
1176 4 0.190702 0.494632 0.721229
1174 2 0.214005 0.485585 0.721799
1175 4 0.237307 0.476539 0.72237
1138 2 0.299448 0.425583 0.688803
1140 4 0.316619 0.438649 0.701437
1228 2 0.337432 0.434329 0.746872
1229 4 0.33335 0.458418 0.752182
1100 4 0.47687 0.447121 0.697646
1099 2 0.488977 0.465744 0.686167
1101 4 0.501084 0.484367 0.674688
1203 4 0.0739168 0.0715129 0.751597
1201 2 0.0777822 0.0477467 0.758335
1202 4 0.0816477 0.0239805 0.765073
911 4 0.104919 0.0733483 0.784297
2049 4 0.100025 0.0190739 0.759373
910 2 0.0944388 0.0791568 0.806242
912 4 0.0839584 0.0849653 0.828188
1149 4 0.220604 0.0828998 0.776218
1048 2 0.32128 0.997883 0.754452
1255 2 0.296388 0.0792187 0.799798
1256 4 0.309913 0.0605546 0.809488
1050 4 0.324702 0.0224512 0.757596
846 4 0.470158 0.0200472 0.788676
1113 4 0.453875 0.0316899 0.791966
844 2 0.483373 0.02137 0.767491
1111 2 0.438157 0.0511345 0.791798
1112 4 0.422439 0.0705791 0.79163
980 4 0.428533 0.0207726 0.818689
864 4 0.0579014 0.0963586 0.749807
862 2 0.0388368 0.108443 0.760563
863 4 0.0197722 0.120526 0.77132
33 3 0.120586 0.12761 0.776959
31 1 0.115767 0.150303 0.777427
35 3 0.100839 0.155417 0.761006
34 3 0.107063 0.156126 0.798133
32 3 0.135202 0.162106 0.773943
1147 2 0.23005 0.097699 0.758415
1130 4 0.21431 0.15113 0.790412
838 2 0.252564 0.113247 0.81601
1257 4 0.282863 0.0978828 0.790107
839 4 0.270133 0.111394 0.798316
958 2 0.304518 0.149056 0.819113
959 4 0.303927 0.130475 0.802393
817 2 0.36961 0.0867071 0.822475
1084 2 0.34059 0.120521 0.783068
1085 4 0.342126 0.0975526 0.792829
1086 4 0.339053 0.143489 0.773307
819 4 0.359729 0.095338 0.80119
1299 4 0.345812 0.160528 0.782832
1073 4 0.138046 0.243695 0.801597