ITEM: TIMESTEP
1310000
ITEM: NUMBER OF ATOMS
4590
ITEM: BOX BOUNDS pp pp pp
-9.9985700000000008e+00 9.9985700000000008e+00
-9.9985700000000008e+00 9.9985700000000008e+00
-9.9985700000000008e+00 9.9985700000000008e+00
ITEM: ATOMS id type xs ys zs
463 2 0.0525288 0.0725466 0.0240078
464 4 0.0484607 0.0538055 0.00796407
3290 4 0.0663382 0.0446877 0.0081599
1668 4 0.0370751 0.0284172 0.0623492
1666 2 0.061134 0.0289091 0.0691394
1667 4 0.0851929 0.0294011 0.0759295
1476 4 0.221927 0.024965 0.057643
1474 2 0.239772 0.020155 0.0408028
1475 4 0.257617 0.0153449 0.0239626
490 2 0.291034 0.0196485 0.00853012
986 4 0.343521 0.0455061 0.0337265
985 2 0.355231 0.0343153 0.0146789
745 2 0.453087 0.0664965 0.0197725
747 4 0.458328 0.0663812 0.0442204
2722 2 0.474611 0.0699233 0.0836915
2724 4 0.46833 0.07385 0.0598103
1826 4 0.451763 0.0084694 0.0409356
465 4 0.0565969 0.0912877 0.0400515
591 4 0.0525813 0.0878259 0.0604367
701 4 0.0545627 0.112319 0.0360541
700 2 0.0403382 0.1327 0.0333209
702 4 0.0261138 0.153081 0.0305877
3234 4 0.0179857 0.146905 0.986553
589 2 0.0518476 0.0978773 0.0833192
2760 4 0.0145904 0.152748 0.0465438
423 4 0.113868 0.157977 0.0351177
567 4 0.152288 0.126747 0.0669968
566 4 0.189053 0.0930182 0.0636236
1133 4 0.217321 0.140413 0.00918787
360 4 0.234701 0.149692 0.00633574
358 2 0.250891 0.142362 0.023923
565 2 0.170671 0.109883 0.0653102
359 4 0.267082 0.135033 0.0415103
553 2 0.0461693 0.197887 0.0301401
422 4 0.0691489 0.173047 0.0516637
555 4 0.0610646 0.190467 0.0488014
554 4 0.031274 0.205308 0.0114787
2835 4 0.0137442 0.213463 0.014202
421 2 0.0915086 0.165512 0.0433907
506 4 0.192324 0.231691 0.0504425
737 4 0.197111 0.211405 0.0503273
736 2 0.209604 0.195619 0.065157
354 4 0.239363 0.179575 0.0704072
353 4 0.285776 0.19796 0.0733367
461 4 0.291836 0.215424 0.0689126
352 2 0.262569 0.188767 0.071872
323 4 0.398438 0.233137 0.0456279
1071 4 0.383468 0.243812 0.0411256
1069 2 0.384611 0.249088 0.0167117
322 2 0.422738 0.228525 0.0492904
1014 4 0.493687 0.217601 0.0073898
324 4 0.447038 0.223912 0.0529528
1170 4 0.0563986 0.320733 0.0158184
1056 4 0.0683796 0.304636 0.0172765
294 4 0.142392 0.329508 0.035986
292 2 0.155816 0.308832 0.0318006
293 4 0.169239 0.288157 0.0276153
505 2 0.186964 0.252091 0.0370152
507 4 0.181605 0.272491 0.0235879
481 2 0.276822 0.284288 0.0163574
482 4 0.292124 0.271029 0.031027
483 4 0.261519 0.297547 0.00168787
573 4 0.398721 0.284384 0.0468843
571 2 0.376435 0.287922 0.0576542
572 4 0.354149 0.291459 0.068424
756 4 0.331608 0.292074 0.0939821
456 4 0.148751 0.348184 0.0393894
454 2 0.145388 0.36574 0.0568722
455 4 0.142024 0.383297 0.074355
607 2 0.246863 0.362509 0.082878
252 4 0.277365 0.386629 0.061404
250 2 0.279287 0.411268 0.0576097
608 4 0.265092 0.375765 0.0720541
524 4 0.374275 0.401133 0.0643472
671 4 0.414346 0.354019 0.0721741
281 4 0.425588 0.358587 0.0568857
280 2 0.450293 0.355236 0.0587803
282 4 0.474999 0.351885 0.060675
104 3 0.490575 0.360514 0.0674088
550 2 0.0278478 0.490276 0.0487365
552 4 0.0272824 0.471691 0.0654531
314 4 0.0351112 0.458496 0.0774782
793 2 0.161317 0.492375 0.989512
795 4 0.142779 0.477042 0.996327
246 4 0.208754 0.501946 0.0217993
244 2 0.212392 0.483064 0.00581769
1440 4 0.23358 0.495506 0.0687977
251 4 0.281209 0.435908 0.0538154
272 4 0.246992 0.493653 0.0540612
523 2 0.362686 0.42321 0.066201
228 4 0.416119 0.423968 0.0120895
525 4 0.351096 0.445288 0.0680549
1559 4 0.35614 0.489033 0.0839856
19 3 0.0442216 0.0349302 0.136853
20 3 0.0733263 0.0116263 0.131609
1422 4 0.0319766 0.0177397 0.142984
16 1 0.0673183 0.0327952 0.137477
17 3 0.0765684 0.0476969 0.122593
2480 4 0.0209751 0.0378628 0.139175
18 3 0.075148 0.0376307 0.158777
652 2 0.244641 0.0540749 0.149025
654 4 0.235611 0.0439016 0.128045
484 2 0.322005 0.0220335 0.121179
486 4 0.309871 0.00535025 0.135308
485 4 0.334138 0.0387168 0.10705
297 4 0.344684 0.0363958 0.0902179
296 4 0.36649 0.0812978 0.0872166
295 2 0.355587 0.0588468 0.0887173
2723 4 0.480892 0.0659966 0.107573
2744 4 0.496882 0.00714981 0.171609
590 4 0.0511139 0.107929 0.106202
449 4 0.13925 0.111948 0.171759
582 4 0.324736 0.0933961 0.138175
580 2 0.312084 0.0965236 0.159513
557 4 0.373996 0.0788244 0.106576
758 4 0.366716 0.0951288 0.163069
556 2 0.392641 0.0934457 0.114559
771 4 0.443031 0.160604 0.0839623
558 4 0.411287 0.108067 0.122543
337 2 0.0760539 0.246591 0.120487
339 4 0.0943642 0.231936 0.129156
477 4 0.155202 0.217873 0.13019
738 4 0.222097 0.179834 0.0799868
475 2 0.179127 0.212696 0.135289
476 4 0.203051 0.20752 0.140388
460 2 0.310213 0.212138 0.0855458
277 2 0.288703 0.23852 0.137984
278 4 0.293621 0.23749 0.11349
462 4 0.328591 0.208851 0.102179
755 4 0.3048 0.250738 0.102551
279 4 0.283785 0.239551 0.162477
255 4 0.336297 0.208886 0.120866
254 4 0.382341 0.19245 0.110354
630 4 0.394102 0.206642 0.104008
253 2 0.359319 0.200668 0.11561
769 2 0.463831 0.170606 0.0935809
628 2 0.413169 0.222493 0.10723
770 4 0.484631 0.180607 0.103199
624 4 0.436359 0.232919 0.129579
629 4 0.432236 0.238344 0.110452
622 2 0.435571 0.241503 0.153049
338 4 0.0577437 0.261246 0.111819
611 4 0.221263 0.298334 0.132075
610 2 0.22824 0.319974 0.121672
754 2 0.318204 0.271406 0.0982666
741 4 0.347287 0.300937 0.0859193
739 2 0.357076 0.31874 0.100493
596 4 0.463777 0.325865 0.143997
621 4 0.0317368 0.399518 0.105994
619 2 0.0457051 0.386817 0.122387
620 4 0.0596735 0.374116 0.138781
647 4 0.0761858 0.369461 0.148817
315 4 0.0327848 0.409749 0.0883849
646 2 0.10025 0.375184 0.152469
648 4 0.124314 0.380907 0.156121
612 4 0.235217 0.341613 0.111269
609 4 0.228633 0.349253 0.093702
536 4 0.16645 0.38257 0.15024
535 2 0.170872 0.359797 0.159568
302 4 0.333988 0.403584 0.143491
740 4 0.366865 0.336543 0.115067
387 4 0.337705 0.384591 0.148973
385 2 0.350927 0.364845 0.141197
386 4 0.364149 0.345099 0.133421
12 3 0.407164 0.369795 0.132646
11 1 0.407013 0.382792 0.151625
15 3 0.385477 0.387618 0.157241
672 4 0.397367 0.358904 0.118956
670 2 0.405856 0.356461 0.0955652
14 3 0.418674 0.402399 0.147383
495 4 0.426649 0.41001 0.130917
595 2 0.44624 0.340108 0.154709
313 2 0.033948 0.434122 0.0829315
1789 2 0.0596354 0.491972 0.112718
1791 4 0.0545363 0.489706 0.137091
1466 4 0.0473167 0.502541 0.149987
1790 4 0.0647346 0.494239 0.0883449
626 4 0.179955 0.430723 0.129362
625 2 0.200019 0.440106 0.140962
627 4 0.220084 0.44949 0.152561
1438 2 0.241768 0.492156 0.092184
1439 4 0.249955 0.488806 0.11557
638 4 0.236998 0.455704 0.159571
637 2 0.246652 0.474935 0.146837
639 4 0.256306 0.494166 0.134104
301 2 0.339426 0.422449 0.158974
494 4 0.415275 0.449512 0.10244
493 2 0.420962 0.429761 0.116678
450 4 0.118079 0.0681965 0.18352
690 4 0.164203 0.0277789 0.231897
674 4 0.149216 0.0213971 0.242707
688 2 0.174688 0.00622347 0.224783
691 2 0.247412 0.0424594 0.203559
692 4 0.234497 0.0317233 0.222082
653 4 0.253672 0.0642482 0.170004
693 4 0.260327 0.0531954 0.185035
1661 4 0.305582 0.0111496 0.153449
1700 4 0.320297 0.0632419 0.218222
1699 2 0.298161 0.0543766 0.225744
1701 4 0.276024 0.0455113 0.233265
21 1 0.353684 0.0666303 0.231829
25 3 0.358682 0.0537723 0.213709
759 4 0.366602 0.0577629 0.196302
23 3 0.330809 0.0663005 0.235704
757 2 0.366659 0.0764459 0.179686
22 3 0.364479 0.058201 0.25031
1760 4 0.478934 0.00714863 0.166564
513 4 0.0343323 0.150842 0.204004
511 2 0.0117509 0.157383 0.195491
448 2 0.128665 0.090072 0.17764
236 4 0.139991 0.125593 0.185369
235 2 0.147039 0.149423 0.188133
237 4 0.154088 0.173253 0.190898
546 4 0.196084 0.123321 0.248777
581 4 0.299431 0.0996512 0.180851
28 3 0.256679 0.105761 0.219381
30 3 0.2846 0.0954069 0.196339
26 1 0.27899 0.108882 0.213821
29 3 0.282726 0.131086 0.208219
27 3 0.292007 0.103509 0.23201
24 3 0.360803 0.0884271 0.228276
312 4 0.406271 0.122853 0.186102
310 2 0.421531 0.141371 0.19313
311 4 0.436791 0.159888 0.200158
577 2 0.0680969 0.1616 0.205892
578 4 0.0456539 0.161367 0.216912
531 4 0.99533 0.185457 0.252376
579 4 0.0905399 0.161833 0.194872
283 2 0.272975 0.246427 0.192565
285 4 0.269476 0.230067 0.173983
522 4 0.490076 0.209399 0.247159
703 2 0.0143159 0.323004 0.213138
704 4 0.0154662 0.315202 0.18941
443 4 0.0917401 0.276466 0.243476
396 4 0.0878093 0.280361 0.224906
394 2 0.0969408 0.273449 0.202679
395 4 0.106072 0.266536 0.180453
363 4 0.121728 0.266561 0.167688
361 2 0.145477 0.265762 0.17547
537 4 0.175293 0.337024 0.168896
362 4 0.169225 0.264963 0.183251
372 4 0.18051 0.254776 0.197737
370 2 0.18527 0.25744 0.222138
371 4 0.19003 0.260104 0.246539
284 4 0.276474 0.262786 0.211147
343 2 0.287439 0.320955 0.228852
345 4 0.282833 0.327749 0.205234
623 4 0.434783 0.250087 0.17652
527 4 0.437309 0.251187 0.198055
526 2 0.455195 0.268402 0.195066
528 4 0.473081 0.285616 0.192077
705 4 0.0131655 0.330805 0.236865
300 4 0.128078 0.383125 0.174481
298 2 0.132661 0.394449 0.196298
299 4 0.137245 0.405772 0.218114
597 4 0.428703 0.354352 0.165422
13 3 0.417242 0.371057 0.168832
643 2 0.449795 0.36971 0.200105
644 4 0.456329 0.375903 0.223432
645 4 0.44326 0.363517 0.176779
447 4 0.452063 0.391828 0.233847
263 4 0.0433001 0.450259 0.219477
262 2 0.0493632 0.441495 0.196858
264 4 0.0554262 0.432732 0.174239
417 4 0.161187 0.46748 0.191813
1430 4 0.164717 0.487165 0.191754
290 4 0.211382 0.430545 0.216544
416 4 0.203594 0.446388 0.207859
415 2 0.182391 0.456934 0.199836
289 2 0.219788 0.442113 0.237055
766 2 0.225812 0.500061 0.211035
768 4 0.20651 0.497095 0.195421
767 4 0.245114 0.503028 0.226649
303 4 0.344863 0.441314 0.174457
659 4 0.328489 0.441679 0.186496
660 4 0.332547 0.475919 0.222716
658 2 0.330518 0.458799 0.204606
713 4 0.381114 0.46456 0.245414
712 2 0.405135 0.46062 0.239697
231 4 0.339457 0.492297 0.231266
445 2 0.444763 0.415596 0.236487
446 4 0.437463 0.439365 0.239126
714 4 0.429155 0.45668 0.233981
232 2 0.0368613 0.0390652 0.304986
234 4 0.0268689 0.0604142 0.296646
317 4 0.0333628 0.078716 0.291298
233 4 0.0468537 0.0177161 0.313325
673 2 0.144384 0.0277166 0.266411
675 4 0.139551 0.0340361 0.290115
1406 4 0.220054 0.00531336 0.332354
723 4 0.240333 0.0747131 0.261213
1518 4 0.366547 0.00535427 0.301321
697 2 0.378727 0.0345745 0.285942
699 4 0.380483 0.0201184 0.306268
698 4 0.376971 0.0490306 0.265617
333 4 0.385868 0.0652709 0.252116
331 2 0.406237 0.0781481 0.258784
744 4 0.484366 0.993657 0.282614
743 4 0.465719 0.0378982 0.268625
742 2 0.475043 0.0157774 0.27562
351 4 0.476075 0.0530435 0.276996
349 2 0.460602 0.0726046 0.275229
316 2 0.0516207 0.0957859 0.290629
318 4 0.0698786 0.112856 0.28996
399 4 0.138034 0.1446 0.324695
393 4 0.144828 0.160365 0.312708
545 4 0.198884 0.16521 0.275947
722 4 0.214471 0.116479 0.25186
721 2 0.227402 0.095596 0.256536
544 2 0.197484 0.144265 0.262362
599 4 0.226917 0.149772 0.303812
404 4 0.245842 0.155169 0.302344
598 2 0.207944 0.139327 0.316306
600 4 0.188971 0.128883 0.328801
332 4 0.426606 0.0910254 0.265452
350 4 0.445129 0.0921658 0.273462
762 4 0.423703 0.114571 0.304275
760 2 0.434942 0.128619 0.28691
761 4 0.44618 0.142667 0.269546
257 4 0.465409 0.0959338 0.330477
529 2 0.0159439 0.196464 0.26127
530 4 0.0365576 0.207472 0.270163
391 2 0.163602 0.168355 0.298256
275 4 0.155418 0.20007 0.341924
392 4 0.182376 0.176346 0.283804
403 2 0.247391 0.179381 0.296296
401 4 0.232875 0.210772 0.283756
400 2 0.217149 0.2302 0.284434
402 4 0.201424 0.249628 0.285112
405 4 0.24894 0.203592 0.290248
765 4 0.382153 0.176263 0.282111
763 2 0.404275 0.18501 0.27441
521 4 0.441718 0.20321 0.258288
520 2 0.465897 0.206304 0.252723
764 4 0.426396 0.193756 0.266709
2769 4 0.500017 0.171844 0.313616
442 2 0.0714594 0.288066 0.252382
444 4 0.0511788 0.299665 0.261289
390 4 0.099389 0.278469 0.324628
344 4 0.292045 0.314162 0.25247
309 4 0.307497 0.311387 0.26419
307 2 0.312695 0.327111 0.282923
615 4 0.422306 0.320287 0.305617
541 2 0.452409 0.307512 0.299002
542 4 0.476938 0.312123 0.300494
543 4 0.427879 0.302901 0.297511
748 2 0.0755729 0.369355 0.259727
749 4 0.0570712 0.354683 0.267948
365 4 0.0202588 0.388552 0.310286
364 2 0.0367782 0.373405 0.299201
366 4 0.0532977 0.358258 0.288117
549 4 0.0169648 0.401139 0.324619
750 4 0.0940747 0.384027 0.251506
734 4 0.108726 0.370811 0.252201
733 2 0.128578 0.359202 0.262013
735 4 0.148431 0.347593 0.271825
678 4 0.162033 0.349735 0.330819
676 2 0.153399 0.341977 0.308673
601 2 0.10674 0.398319 0.321948
603 4 0.11296 0.374178 0.323882
677 4 0.144764 0.33422 0.286527
497 4 0.32287 0.350024 0.319904
308 4 0.317893 0.342835 0.301656
729 4 0.325938 0.358341 0.292466
727 2 0.321251 0.37962 0.30473
728 4 0.316564 0.4009 0.316994
434 4 0.328644 0.418568 0.325363
614 4 0.401551 0.361497 0.324898
613 2 0.411929 0.340892 0.315258
602 4 0.10052 0.422459 0.320013
777 4 0.113865 0.4241 0.306462
1757 4 0.105823 0.470805 0.273671
1756 2 0.0932437 0.492358 0.272116
776 4 0.120463 0.469832 0.287336
775 2 0.117164 0.446966 0.296899
291 4 0.228194 0.45368 0.257566
1545 4 0.195709 0.480872 0.313763
414 4 0.209916 0.456459 0.265262
413 4 0.19848 0.492567 0.297914
412 2 0.204198 0.474513 0.281588
1543 2 0.183859 0.495286 0.330406
1435 2 0.249109 0.464105 0.312984
1436 4 0.226346 0.472862 0.318495
438 4 0.321852 0.482832 0.27455
437 4 0.293869 0.456136 0.306252
436 2 0.30786 0.469484 0.290401
1437 4 0.271871 0.455349 0.307473
5 3 0.285408 0.450428 0.325854
2 3 0.307278 0.420958 0.319061
433 2 0.35293 0.421005 0.319937
435 4 0.377216 0.423442 0.314512
2862 4 0.508455 0.443437 0.292479
120 3 0.500758 0.432274 0.307312
2861 4 0.470775 0.449338 0.260136
2860 2 0.489615 0.446387 0.276308
2584 2 0.00672714 0.0736487 0.407786
428 4 0.0853365 0.0394413 0.369493
427 2 0.0756252 0.0173379 0.375997
606 4 0.133858 0.0324597 0.389861
731 4 0.0990346 0.0543454 0.37764
730 2 0.114064 0.0736855 0.372613
604 2 0.149472 0.0207303 0.374247
605 4 0.165085 0.00900082 0.358632
682 2 0.217149 0.0443737 0.396261
684 4 0.221064 0.0274428 0.378284
683 4 0.213233 0.0613046 0.414239
249 4 0.304638 0.0827241 0.326869
247 2 0.315318 0.0858083 0.349266
439 2 0.264388 0.0123506 0.411783
425 4 0.392241 0.043629 0.379061
1749 4 0.477073 0.00424462 0.326876
424 2 0.414788 0.0532568 0.37415
480 4 0.488811 0.0137896 0.337244
256 2 0.461588 0.0772052 0.346596
426 4 0.437335 0.0628847 0.369239
258 4 0.457767 0.0584766 0.362714
2878 2 0.487947 0.0624447 0.411508
397 2 0.134647 0.129111 0.344028
732 4 0.129093 0.0930256 0.367586
398 4 0.13126 0.113622 0.363362
686 4 0.179867 0.141109 0.39151
685 2 0.185861 0.141762 0.367244
687 4 0.191854 0.142414 0.342978
248 4 0.325997 0.0888926 0.371663
321 4 0.277914 0.112018 0.376379
319 2 0.268476 0.114135 0.399436
633 4 0.341572 0.101491 0.378224
632 4 0.379875 0.120643 0.352402
631 2 0.360723 0.111067 0.365313
420 4 0.418251 0.168099 0.376322
2654 4 0.017418 0.23796 0.371653
2653 2 0.996872 0.234185 0.357913
274 2 0.144164 0.221616 0.347778
276 4 0.132909 0.243162 0.353632
474 4 0.173471 0.205796 0.33673
472 2 0.196958 0.206454 0.34528
473 4 0.220445 0.207113 0.35383
708 4 0.239538 0.202886 0.362895
706 2 0.256325 0.196082 0.380131
707 4 0.273112 0.189278 0.397366
419 4 0.39448 0.209104 0.360376
716 4 0.397485 0.229133 0.361648
715 2 0.372795 0.232988 0.362486
717 4 0.348104 0.236843 0.363324
453 4 0.492608 0.166917 0.406383
418 2 0.406366 0.188601 0.368349
269 4 0.460337 0.259219 0.377782
516 4 0.434705 0.181384 0.418488
617 4 0.0596596 0.255982 0.379701
347 4 0.026538 0.294468 0.409584
618 4 0.0211285 0.275546 0.404867
616 2 0.040394 0.265764 0.392284
388 2 0.115808 0.270573 0.341752
389 4 0.132227 0.262678 0.358877
374 4 0.231587 0.318569 0.355191
510 4 0.244759 0.303827 0.350103
508 2 0.268011 0.295071 0.352905
509 4 0.291264 0.286316 0.355707
488 4 0.311731 0.268545 0.393154
498 4 0.316054 0.318048 0.357743
487 2 0.295783 0.26346 0.411728
376 2 0.331033 0.276879 0.360657
378 4 0.327655 0.301365 0.356885
377 4 0.334411 0.252394 0.364429
268 2 0.485034 0.256005 0.380001
548 4 0.0400389 0.419675 0.364926
547 2 0.0285019 0.410407 0.344773
502 2 0.211997 0.404284 0.388084
504 4 0.217081 0.383541 0.375082
373 2 0.226814 0.340928 0.365312
375 4 0.222041 0.363288 0.375433
496 2 0.319462 0.334036 0.338824
3 3 0.283948 0.420402 0.348524
561 4 0.46945 0.411802 0.405274
407 4 0.0403382 0.422961 0.38492
406 2 0.0577276 0.432506 0.400141
710 4 0.157154 0.431536 0.425437
503 4 0.206913 0.425027 0.401086
636 4 0.194073 0.436963 0.409383
1 1 0.297673 0.433848 0.335515
668 4 0.324145 0.446344 0.366017
4 3 0.314477 0.443038 0.348614
667 2 0.337045 0.43612 0.384839
669 4 0.349945 0.425897 0.40366
336 4 0.368509 0.42147 0.410029
594 4 0.446087 0.491044 0.39213
753 4 0.501478 0.435056 0.355366
119 3 0.50912 0.422298 0.342642
752 4 0.475042 0.429924 0.397503
593 4 0.45856 0.473105 0.347148
751 2 0.48826 0.43249 0.376434
592 2 0.452323 0.482074 0.369639
718 2 0.0574274 0.0395597 0.488766
2586 4 0.0224205 0.0798756 0.426228
719 4 0.0738757 0.0460299 0.471081
368 4 0.0974449 0.0474579 0.425412
367 2 0.107723 0.0410106 0.447274
369 4 0.118001 0.0345634 0.469137
2430 4 0.211843 0.0376919 0.463249
2428 2 0.232409 0.033098 0.44979
340 2 0.212562 0.0803635 0.492074
2429 4 0.252974 0.0285041 0.436331
1182 4 0.244535 0.0633906 0.492066
441 4 0.272071 0.0281924 0.429537
1180 2 0.267754 0.055023 0.496069
432 4 0.32336 0.0879894 0.474736
2880 4 0.472452 0.0763996 0.425304
642 4 0.474987 0.0717082 0.444856
937 2 0.138717 0.157707 0.485621
342 4 0.200117 0.10186 0.489209
467 4 0.326089 0.129493 0.423864
726 4 0.305761 0.0949554 0.467454
724 2 0.285934 0.102277 0.454095
725 4 0.266107 0.109599 0.440736
320 4 0.259037 0.116251 0.422493
430 2 0.334776 0.0932932 0.496339
466 2 0.339867 0.120559 0.44272
468 4 0.353645 0.111625 0.461575
515 4 0.480948 0.162892 0.423004
641 4 0.468176 0.115831 0.467384
640 2 0.471581 0.0937697 0.45612
3158 4 0.470899 0.128338 0.483
3157 2 0.473958 0.150693 0.472226
469 2 0.040301 0.221265 0.458485
470 4 0.0163182 0.2143 0.45726
471 4 0.0642839 0.228229 0.45971
261 4 0.128638 0.196089 0.477533
260 4 0.0934067 0.224969 0.456907
259 2 0.111022 0.210529 0.46722
938 4 0.137914 0.179539 0.473459
411 4 0.248725 0.203377 0.451916
409 2 0.251595 0.186232 0.469889
650 4 0.238587 0.220673 0.447991
651 4 0.268395 0.246975 0.417654
410 4 0.254465 0.169088 0.487861
649 2 0.253491 0.233824 0.432822
576 4 0.412342 0.187619 0.480765
585 4 0.403978 0.252228 0.427412
574 2 0.415893 0.182912 0.456467
514 2 0.457827 0.172138 0.420746
575 4 0.419444 0.178205 0.432168
3159 4 0.477017 0.173048 0.461452
2814 4 0.022706 0.32041 0.467116
348 4 0.0252418 0.326073 0.448316
346 2 0.0258899 0.31027 0.42895
695 4 0.119177 0.309619 0.458433
694 2 0.121833 0.29601 0.47924
696 4 0.124488 0.282401 0.500046
489 4 0.279835 0.258375 0.430302
267 4 0.344654 0.281212 0.429975
265 2 0.368601 0.274757 0.426806
266 4 0.392548 0.268302 0.423637
583 2 0.422439 0.250143 0.444146
2457 4 0.483421 0.302469 0.465753
2455 2 0.46725 0.283406 0.466293
2456 4 0.451079 0.264344 0.466833
584 4 0.440899 0.248058 0.460881
2813 4 0.0194753 0.366537 0.486157
2812 2 0.0210906 0.343474 0.476636
709 2 0.165214 0.40787 0.425084
326 4 0.0863702 0.395199 0.430054
10 3 0.164016 0.345858 0.464708
7 3 0.134283 0.367651 0.458885
327 4 0.117705 0.375611 0.463746
325 2 0.102038 0.385405 0.4469
6 1 0.15711 0.367352 0.461713
9 3 0.162527 0.380077 0.480344
8 3 0.167129 0.376325 0.442805
711 4 0.173274 0.384203 0.424731
804 4 0.28626 0.38602 0.496495
334 2 0.371851 0.397145 0.414751
335 4 0.375193 0.37282 0.419474
238 2 0.371658 0.356292 0.458441
240 4 0.366348 0.369809 0.438087
239 4 0.376969 0.342774 0.478794
2712 4 0.491888 0.409369 0.458316
2506 2 0.506611 0.356852 0.452115
2508 4 0.486822 0.372075 0.450764
559 2 0.476443 0.402268 0.427306
560 4 0.483436 0.392734 0.449337
408 4 0.0751171 0.442052 0.415361
680 4 0.022927 0.458561 0.467006
679 2 0.0148153 0.477558 0.452917
1381 2 0.0017923 0.442907 0.495136
1383 4 0.00355278 0.454833 0.47323
681 4 0.00670364 0.496555 0.438829
382 2 0.124127 0.426976 0.496
570 4 0.138538 0.439883 0.42795
568 2 0.139009 0.451506 0.450083
569 4 0.13948 0.463129 0.472216
384 4 0.133401 0.445988 0.482669
774 4 0.209486 0.471658 0.465582
772 2 0.209901 0.454774 0.484019
634 2 0.201903 0.451741 0.42797
635 4 0.209733 0.466519 0.446558
1401 4 0.357489 0.477268 0.48859
586 2 0.388519 0.50495 0.42567
1400 4 0.367846 0.469513 0.440286
1399 2 0.362667 0.473391 0.464438
588 4 0.375118 0.483961 0.427917
1126 2 0.0183159 0.0546605 0.525481
1127 4 0.0414668 0.0462265 0.521229
720 4 0.0409791 0.0330896 0.506452
1059 4 0.115337 0.0769175 0.571565
951 4 0.203213 0.0608204 0.576072
1031 4 0.212448 0.0438154 0.571275
1030 2 0.236619 0.0457265 0.565169
949 2 0.178658 0.061933 0.571487
341 4 0.225006 0.058867 0.494939
961 2 0.293346 0.0144294 0.527334
963 4 0.298536 0.0299136 0.5084
1032 4 0.26079 0.0476376 0.559063
2195 4 0.288173 0.0138347 0.559396
1181 4 0.290973 0.0466554 0.500073
841 2 0.369987 0.0702873 0.535225
843 4 0.349933 0.0802958 0.524143
842 4 0.390042 0.0602788 0.546308
1217 4 0.405543 0.0728951 0.54739
4466 4 0.456647 0.0152544 0.561092
1062 4 0.471817 0.00363166 0.565906
1218 4 0.448581 0.064937 0.523202
1216 2 0.427062 0.068916 0.535296
4465 2 0.443001 0.0316159 0.574179
1033 2 0.0721051 0.157406 0.506262
1035 4 0.06422 0.135186 0.514584
939 4 0.139521 0.135876 0.497784
1151 4 0.151295 0.128623 0.512216
1155 4 0.119772 0.0951235 0.578614
1150 2 0.168764 0.111649 0.506569
1152 4 0.186233 0.0946742 0.500923
857 4 0.285718 0.153992 0.54249
899 4 0.302327 0.165855 0.545242
431 4 0.346193 0.0985969 0.517943
1199 4 0.0188685 0.173598 0.570524
1034 4 0.0799902 0.179626 0.49794
877 2 0.0790426 0.236494 0.575483
858 4 0.24852 0.181999 0.560729
898 2 0.324822 0.175357 0.550612
856 2 0.267119 0.167996 0.551609
798 4 0.277784 0.24242 0.568939
796 2 0.264742 0.221088 0.56912
797 4 0.2517 0.199756 0.569301
900 4 0.347318 0.184858 0.555983
871 2 0.350078 0.223332 0.560436
872 4 0.359975 0.200374 0.560046
904 2 0.485759 0.241669 0.58089
878 4 0.0849989 0.255926 0.56092
1258 2 0.161334 0.267403 0.521781
1260 4 0.140094 0.272556 0.509637
1259 4 0.182574 0.26225 0.533925
812 4 0.310572 0.292332 0.536672
811 2 0.315794 0.270339 0.54736
873 4 0.34018 0.24629 0.560826
813 4 0.321017 0.248347 0.558048
953 4 0.468049 0.277644 0.601915
1137 4 0.139828 0.36676 0.566806
383 4 0.114853 0.407964 0.509331
897 4 0.159092 0.358867 0.568114
1135 2 0.123782 0.368161 0.58593
895 2 0.184044 0.357284 0.568317
1189 2 0.22777 0.348007 0.533483
896 4 0.208997 0.3557 0.568521
1191 4 0.208872 0.347521 0.549847
1190 4 0.246669 0.348493 0.517119
803 4 0.265141 0.350368 0.524487
1173 4 0.252567 0.404472 0.574969
802 2 0.275701 0.368194 0.510491
928 2 0.378259 0.382144 0.551207
929 4 0.360733 0.390669 0.535543
1206 4 0.394686 0.353696 0.569529
930 4 0.395784 0.373619 0.566872
1204 2 0.408527 0.334566 0.577754
925 2 0.471241 0.397607 0.533434
926 4 0.472969 0.422102 0.538145
927 4 0.469513 0.373112 0.528723
538 2 0.054637 0.471714 0.527773
540 4 0.0407034 0.451179 0.530829
539 4 0.0685705 0.49225 0.524716
936 4 0.00439479 0.456572 0.568147
1382 4 3.18146e-05 0.430982 0.517041
1160 4 0.190623 0.439604 0.565998
773 4 0.210317 0.43789 0.502457
1171 2 0.271485 0.417344 0.564891
1172 4 0.290404 0.430217 0.554812
882 4 0.283733 0.447002 0.548095
880 2 0.288225 0.465888 0.532337
881 4 0.292717 0.484774 0.516579
1454 4 0.293227 0.501822 0.505589
1001 4 0.468345 0.419056 0.5575
1000 2 0.463203 0.439224 0.571355
663 4 0.482412 0.440031 0.538348
661 2 0.500644 0.451372 0.525535
1002 4 0.458062 0.459393 0.585211
1185 4 0.0286472 0.0371007 0.654861
945 4 0.045971 0.0265152 0.656309
1183 2 0.00924626 0.0493816 0.644963
943 2 0.0637216 0.0441241 0.656441
944 4 0.0814723 0.0617331 0.656572
1058 4 0.0958833 0.0394173 0.598323
1057 2 0.10561 0.0581674 0.584944
825 4 0.101725 0.020054 0.595171
823 2 0.112213 0.999749 0.605314
950 4 0.154104 0.0630456 0.566902
2194 2 0.287487 0.0209387 0.583359
2196 4 0.2868 0.0280426 0.607323
1004 4 0.326316 0.0541251 0.632304
1003 2 0.338344 0.0588382 0.653712
4467 4 0.429354 0.0479774 0.587265
2283 4 0.415314 0.0514277 0.601783
2282 4 0.443457 0.0582133 0.642558
2281 2 0.429385 0.0548205 0.62217
43 3 0.45249 0.0435364 0.652151
45 3 0.489664 0.0387369 0.648591
810 4 0.506087 0.0462361 0.639881
41 1 0.473354 0.0490919 0.660649
44 3 0.476345 0.0720895 0.659899
1081 2 0.0372803 0.160102 0.611606
1083 4 0.0255873 0.141452 0.623464
1153 2 0.140817 0.107434 0.584159
1154 4 0.161862 0.119744 0.589704
1221 4 0.163823 0.10711 0.607479
1219 2 0.183761 0.115577 0.619968
1220 4 0.203698 0.124045 0.632456
1212 4 0.220237 0.13527 0.639582
1210 2 0.244057 0.133791 0.647036
1283 4 0.183087 0.105135 0.658515
1211 4 0.267878 0.132312 0.654491
1026 4 0.436088 0.169938 0.665896
1082 4 0.0489733 0.178752 0.599747
879 4 0.0730863 0.217061 0.590046
1209 4 0.0622925 0.243956 0.656483
1272 4 0.091289 0.207882 0.597289
1270 2 0.107107 0.202799 0.615975
1271 4 0.122924 0.197715 0.63466
909 4 0.142335 0.200543 0.641437
907 2 0.162931 0.214215 0.64519
908 4 0.183527 0.227886 0.648942
947 4 0.192911 0.235096 0.632214
946 2 0.203004 0.233333 0.609406
948 4 0.213097 0.23157 0.586598
1142 4 0.347829 0.184187 0.666451
1141 2 0.366194 0.188167 0.649956
1143 4 0.384559 0.192146 0.633461
1025 4 0.402554 0.181391 0.630611
1024 2 0.419321 0.175664 0.648254
1243 2 0.0386126 0.302512 0.65943
1244 4 0.0601948 0.313299 0.652869
1238 4 0.259372 0.303261 0.587618
791 4 0.247514 0.258928 0.63829
1237 2 0.257122 0.328067 0.58544
792 4 0.259818 0.292871 0.603689
790 2 0.253666 0.2759 0.620989
905 4 0.478996 0.261813 0.594069
952 2 0.454116 0.298019 0.597924
954 4 0.440182 0.318393 0.593934
3121 2 0.490412 0.258476 0.654849
3123 4 0.498884 0.276698 0.639971
1205 4 0.422368 0.315436 0.585979
983 4 0.0185276 0.371316 0.646642
1039 2 0.056866 0.391922 0.642541
1041 4 0.0363168 0.378485 0.63781
1040 4 0.0774152 0.405358 0.647271
1136 4 0.107736 0.369562 0.605055
993 4 0.0938399 0.41421 0.638412
1239 4 0.254871 0.352874 0.583261
991 2 0.116882 0.423573 0.635847
992 4 0.139924 0.432937 0.633283
2172 4 0.114889 0.465984 0.653333
2170 2 0.110944 0.490446 0.649981
1159 2 0.192606 0.459333 0.581231
2243 4 0.186159 0.497486 0.597177
1161 4 0.19459 0.479061 0.596464
891 4 0.311229 0.474479 0.595371
1952 4 0.322578 0.491277 0.592519
890 4 0.310299 0.424571 0.598381
889 2 0.310764 0.449525 0.596876
1910 4 0.459526 0.477669 0.587037
1909 2 0.443319 0.496184 0.591478
2319 4 0.0204344 0.0292545 0.699327
1075 2 0.0367703 0.0384977 0.733081
1076 4 0.0199609 0.0266653 0.718847
1005 4 0.350372 0.0635512 0.67512
1163 4 0.490181 0.0388725 0.694298
42 3 0.474554 0.0421472 0.682546
1282 2 0.194283 0.107824 0.680709
1284 4 0.20548 0.110513 0.702903
1227 4 0.217555 0.125499 0.70908
1225 2 0.219765 0.141564 0.728112
888 4 0.271694 0.129039 0.675097
886 2 0.293056 0.136765 0.685544
887 4 0.314418 0.144491 0.695992
830 4 0.31939 0.13722 0.7134
829 2 0.333084 0.155672 0.723258
1146 4 0.476816 0.136682 0.729797
1144 2 0.47531 0.152507 0.710497
3270 4 0.479477 0.142919 0.748705
1105 2 0.0586923 0.196375 0.735853
1107 4 0.0432769 0.196351 0.716167
851 4 0.0271877 0.201283 0.702994
850 2 0.0132599 0.221482 0.707809
1106 4 0.0741078 0.196398 0.755539
1178 4 0.00270985 0.245694 0.69297
852 4 0.999332 0.241681 0.712624
822 4 0.143469 0.23535 0.705768
1278 4 0.149743 0.21732 0.710647
1276 2 0.156274 0.204781 0.731269
916 2 0.284834 0.243276 0.738797
918 4 0.302396 0.227488 0.747013
831 4 0.346779 0.174123 0.733117
1192 2 0.38838 0.223803 0.715773
1194 4 0.412091 0.216137 0.717825
1262 4 0.42328 0.213075 0.701102
1193 4 0.364669 0.231468 0.713722
1261 2 0.440008 0.194512 0.70021
1263 4 0.456735 0.175949 0.699318
1145 4 0.473803 0.168332 0.691197
3122 4 0.48194 0.240253 0.669727
1245 4 0.0170305 0.291726 0.66599
1207 2 0.0631649 0.253705 0.679492
1179 4 0.99828 0.291444 0.673272
1208 4 0.0640374 0.263453 0.7025
1177 2 0.000494963 0.268569 0.683121
820 2 0.134593 0.255572 0.71749
821 4 0.125716 0.275795 0.729213
1064 4 0.207607 0.280644 0.7219
1063 2 0.20998 0.267912 0.700512
1065 4 0.212354 0.25518 0.679124
917 4 0.267272 0.259063 0.73058
1097 4 0.262114 0.266554 0.749326
1096 2 0.259635 0.291411 0.748245
807 4 0.423911 0.320388 0.723391
806 4 0.426352 0.271149 0.715011
805 2 0.425132 0.295769 0.719201
894 4 0.0828227 0.383628 0.691657
892 2 0.0803504 0.408509 0.691514
941 4 0.153469 0.414068 0.699137
940 2 0.141867 0.418108 0.720914
1067 4 0.173441 0.415507 0.703888
1066 2 0.196863 0.407068 0.70157
1068 4 0.220285 0.398628 0.699251
1028 4 0.230545 0.401109 0.680523
1027 2 0.251259 0.414174 0.685564
1140 4 0.302888 0.396818 0.739189
1138 2 0.296751 0.410798 0.719389
1018 2 0.40853 0.347515 0.74298
1230 4 0.362732 0.402827 0.753297
1020 4 0.428884 0.333445 0.739384
3330 4 0.48996 0.421099 0.698202
1280 4 0.0392761 0.424488 0.738855
2020 2 0.0742099 0.494286 0.729379
1281 4 0.0567193 0.46685 0.718807
1279 2 0.0479977 0.445669 0.728831
2021 4 0.060026 0.476647 0.740002
893 4 0.0778782 0.433389 0.691372
942 4 0.130264 0.422148 0.742691
1175 4 0.234736 0.505518 0.700371
1029 4 0.271973 0.427239 0.690604
1139 4 0.290614 0.424779 0.699588
1989 4 0.320314 0.456679 0.739654
1229 4 0.332604 0.442208 0.746802
1228 2 0.347668 0.422518 0.750049
3328 2 0.469195 0.422804 0.712025
3329 4 0.448429 0.424509 0.725848
1077 4 0.0535798 0.0503301 0.747316
1203 4 0.0687811 0.0528362 0.761235
1201 2 0.0895023 0.0431168 0.771302
1202 4 0.110223 0.0333974 0.781369
2049 4 0.111392 0.014702 0.774664
1148 4 0.199095 0.0358932 0.755014
1147 2 0.211375 0.040589 0.776282
1149 4 0.223655 0.0452849 0.79755
1256 4 0.313729 0.0751346 0.758707
1049 4 0.257727 0.0314409 0.836685
1048 2 0.277739 0.0182349 0.829593
1255 2 0.295086 0.0624771 0.769543
1257 4 0.276443 0.0498196 0.780378
1050 4 0.297751 0.00502892 0.8225
1112 4 0.410805 0.0122709 0.809139
846 4 0.465964 0.0435824 0.780681
1113 4 0.448119 0.0357679 0.785553
1111 2 0.429462 0.0240194 0.797346
844 2 0.490181 0.0498032 0.780489
864 4 0.0400597 0.0957687 0.810244
911 4 0.0446078 0.097581 0.829096
862 2 0.0253613 0.109355 0.795259
832 2 0.0253195 0.157237 0.764771
863 4 0.0106629 0.122941 0.780274
833 4 0.0182823 0.133245 0.764921