ITEM: TIMESTEP
2910000
ITEM: NUMBER OF ATOMS
4590
ITEM: BOX BOUNDS pp pp pp
-9.9985700000000008e+00 9.9985700000000008e+00
-9.9985700000000008e+00 9.9985700000000008e+00
-9.9985700000000008e+00 9.9985700000000008e+00
ITEM: ATOMS id type xs ys zs
463 2 0.0227276 0.0372865 0.0224079
464 4 0.0230751 0.0129324 0.0280589
1668 4 0.0497821 0.0483397 0.0555049
1666 2 0.0370053 0.0523216 0.0766254
3290 4 0.0685044 0.0431596 0.0513804
465 4 0.0223801 0.0616407 0.0167569
3289 2 0.0790246 0.039291 0.0290301
3291 4 0.0895448 0.0354225 0.00667975
565 2 0.177178 0.0458116 0.0277022
567 4 0.194591 0.0384162 0.044051
490 2 0.293028 0.0144018 0.0600241
491 4 0.292576 0.0345151 0.0451771
985 2 0.292975 0.0443761 0.016589
987 4 0.299546 0.0525119 0.0393002
745 2 0.477001 0.0378757 0.0585801
746 4 0.458062 0.0504186 0.0481313
747 4 0.49594 0.0253328 0.0690289
1826 4 0.509375 0.0127892 0.0653354
2724 4 0.49435 0.0687288 0.0593369
460 2 0.292528 0.150153 0.0587885
462 4 0.309247 0.134422 0.0488801
422 4 0.050425 0.188076 0.0120649
421 2 0.0731728 0.17803 0.00945747
506 4 0.171994 0.244068 0.0581003
737 4 0.18717 0.231639 0.0551155
736 2 0.199376 0.210253 0.0507729
738 4 0.211583 0.188868 0.0464304
354 4 0.222978 0.186978 0.0302594
352 2 0.243904 0.178739 0.0411867
461 4 0.275809 0.165884 0.0686968
353 4 0.264829 0.170499 0.0521141
665 4 0.341498 0.212634 0.0159049
1069 2 0.3843 0.244715 0.00115519
1071 4 0.373575 0.253179 0.0220961
828 4 0.50263 0.232182 0.017292
826 2 0.504075 0.21994 0.995538
323 4 0.481108 0.255938 0.0521167
2807 4 0.0151189 0.269277 0.998794
505 2 0.149922 0.25344 0.0510158
292 2 0.104555 0.286168 0.0647791
293 4 0.124981 0.272204 0.0611817
507 4 0.12785 0.262811 0.0439313
287 4 0.119618 0.300894 0.00775455
286 2 0.139493 0.314709 0.00148534
612 4 0.286205 0.290909 0.0515935
610 2 0.274642 0.27486 0.0668869
609 4 0.279633 0.310171 0.053271
607 2 0.280587 0.335138 0.0542318
611 4 0.26308 0.25881 0.0821803
572 4 0.336481 0.302516 0.998761
573 4 0.355958 0.265794 0.0265614
571 2 0.346219 0.284155 0.0126614
254 4 0.404367 0.257916 0.0893539
324 4 0.456371 0.260953 0.00894669
322 2 0.46874 0.258446 0.0305317
1046 4 0.495341 0.32552 0.00826704
1045 2 0.493185 0.335776 0.0309687
1288 2 0.196604 0.416675 0.999306
1289 4 0.19095 0.396524 0.0129871
988 2 0.184376 0.3597 0.00745366
989 4 0.192717 0.37863 0.0214981
741 4 0.330784 0.347952 0.0101403
739 2 0.330191 0.353826 0.0344369
250 2 0.287626 0.39064 0.0408008
252 4 0.273162 0.370247 0.0410743
608 4 0.281542 0.360105 0.0551926
740 4 0.329597 0.3597 0.0587334
386 4 0.328626 0.365611 0.0777893
251 4 0.302091 0.411033 0.0405273
524 4 0.320253 0.412508 0.0497291
226 2 0.390363 0.384702 0.0272444
228 4 0.384265 0.408862 0.0293157
227 4 0.39646 0.360542 0.0251731
525 4 0.364234 0.410773 0.0259935
523 2 0.342244 0.411641 0.0378613
1305 4 0.382637 0.353493 0.0134713
671 4 0.419388 0.336318 0.0860502
281 4 0.434691 0.330647 0.074642
280 2 0.458094 0.339244 0.0727535
282 4 0.481497 0.347842 0.070865
1047 4 0.49103 0.346031 0.0536703
552 4 0.0260407 0.454623 0.069745
314 4 0.0132402 0.440101 0.0740718
550 2 0.0149172 0.472556 0.0563345
1786 2 0.170301 0.48344 0.0739402
243 4 0.237343 0.461875 0.0628669
1440 4 0.235783 0.455901 0.0838622
241 2 0.216794 0.469901 0.0510982
242 4 0.196245 0.477927 0.0393295
1787 4 0.183941 0.473762 0.055354
1290 4 0.202258 0.436826 0.985626
271 2 0.281903 0.475741 0.0739769
273 4 0.276714 0.495315 0.0593106
1583 4 0.451649 0.445747 0.058283
1582 2 0.454492 0.468698 0.0677885
1584 4 0.457334 0.491649 0.0772941
1667 4 0.0242286 0.0563036 0.0977459
16 1 0.0414998 0.0497547 0.131531
2480 4 0.0145602 0.0591269 0.165167
18 3 0.0549778 0.0686064 0.132699
19 3 0.0222313 0.053006 0.144043
17 3 0.0356013 0.0461778 0.109587
20 3 0.0528417 0.0316003 0.139305
1422 4 0.0178501 0.0367943 0.158102
652 2 0.241131 0.0415956 0.162986
654 4 0.241371 0.0383948 0.138189
1476 4 0.259507 0.047952 0.139697
1475 4 0.290569 0.0457857 0.100567
1474 2 0.275038 0.0468689 0.120132
297 4 0.370502 0.0478674 0.116169
295 2 0.395398 0.0501685 0.116432
296 4 0.420294 0.0524696 0.116695
484 2 0.351088 0.0116269 0.118424
485 4 0.361311 0.0319079 0.107967
557 4 0.421624 0.0709143 0.109892
556 2 0.444121 0.0786096 0.11763
2479 2 0.0120367 0.0839468 0.166836
450 4 0.0950887 0.0837278 0.101573
236 4 0.132333 0.125508 0.11836
449 4 0.131545 0.117944 0.100621
448 2 0.113317 0.100836 0.101097
235 2 0.155091 0.134583 0.113373
237 4 0.177849 0.143659 0.108386
580 2 0.317693 0.130314 0.146712
582 4 0.329224 0.109029 0.140453
581 4 0.306161 0.151598 0.152972
758 4 0.339947 0.0921103 0.145623
558 4 0.466617 0.0863049 0.125368
771 4 0.479008 0.0938578 0.138819
769 2 0.487616 0.114836 0.149355
370 2 0.175084 0.219824 0.165597
371 4 0.198088 0.210933 0.161483
476 4 0.193128 0.191722 0.160632
285 4 0.261027 0.257518 0.167405
29 3 0.259317 0.176513 0.158513
624 4 0.454139 0.244001 0.143988
339 4 0.0471996 0.30392 0.156174
456 4 0.0906291 0.316692 0.0784149
294 4 0.0841292 0.300133 0.0683764
279 4 0.25428 0.251806 0.149686
277 2 0.260232 0.257688 0.126124
278 4 0.266185 0.263569 0.102562
754 2 0.348694 0.251854 0.141837
756 4 0.344163 0.24361 0.11867
253 2 0.38117 0.252271 0.0967851
255 4 0.357973 0.246627 0.104216
630 4 0.423374 0.252075 0.0888707
629 4 0.457525 0.250291 0.125358
628 2 0.440449 0.251183 0.107114
619 2 0.0373112 0.384611 0.120777
620 4 0.0606082 0.375828 0.118477
621 4 0.0140142 0.393393 0.123077
315 4 0.00493084 0.415067 0.116557
2787 4 0.00682275 0.36026 0.0832552
454 2 0.0989322 0.335579 0.0925399
455 4 0.107235 0.354466 0.106665
537 4 0.146395 0.390412 0.159527
535 2 0.143364 0.388818 0.134759
536 4 0.140333 0.387224 0.109991
625 2 0.230454 0.40213 0.13461
627 4 0.214757 0.416659 0.12166
626 4 0.246151 0.387601 0.14756
670 2 0.414716 0.353167 0.103924
385 2 0.345656 0.372005 0.094944
387 4 0.362685 0.378399 0.112099
12 3 0.40514 0.386651 0.112422
11 1 0.393343 0.399213 0.127659
15 3 0.371121 0.397912 0.12285
672 4 0.410044 0.370016 0.121797
302 4 0.350103 0.396881 0.115896
13 3 0.397339 0.390885 0.148944
104 3 0.490986 0.348449 0.0882813
313 2 0.00908552 0.427584 0.0953144
1466 4 0.00515264 0.481628 0.109351
1465 2 0.0222914 0.499613 0.112178
1431 4 0.181811 0.498859 0.152151
1788 4 0.156661 0.493119 0.0925264
1438 2 0.219394 0.443844 0.0983955
1439 4 0.203006 0.431788 0.112929
272 4 0.287092 0.456167 0.0886432
1574 4 0.276062 0.497457 0.124882
639 4 0.266998 0.483275 0.132847
638 4 0.302058 0.451425 0.148883
637 2 0.284528 0.46735 0.140865
303 4 0.324325 0.434905 0.135654
659 4 0.321842 0.44504 0.153958
301 2 0.337214 0.415893 0.125775
1559 4 0.35948 0.485518 0.127098
14 3 0.400456 0.421259 0.126314
494 4 0.405509 0.48636 0.108902
495 4 0.410614 0.438795 0.123468
493 2 0.408061 0.462578 0.116185
674 4 0.135412 0.0700004 0.217716
690 4 0.144777 0.0589258 0.203019
689 4 0.180212 0.0249464 0.19351
1505 4 0.187174 0.013526 0.17894
653 4 0.24089 0.0447965 0.187783
688 2 0.162494 0.0419361 0.198265
693 4 0.253743 0.0603352 0.186481
691 2 0.272174 0.0689594 0.201011
1699 2 0.32665 0.074102 0.219997
692 4 0.290604 0.0775835 0.215542
1701 4 0.30341 0.0697072 0.228108
1700 4 0.34989 0.0784968 0.211887
22 3 0.385992 0.0518194 0.222987
698 4 0.406593 0.0540544 0.224928
21 1 0.380561 0.0725967 0.214743
333 4 0.413724 0.0732226 0.220313
23 3 0.362904 0.0811907 0.227103
25 3 0.374512 0.0706432 0.192874
759 4 0.356547 0.0797439 0.191145
697 2 0.41055 0.0357124 0.241453
349 2 0.50253 0.0824851 0.228612
331 2 0.437006 0.0822152 0.218816
2481 4 0.00951313 0.108767 0.168505
513 4 0.026045 0.149131 0.220898
578 4 0.0297419 0.163346 0.235113
673 2 0.146233 0.0830783 0.236075
30 3 0.293545 0.161952 0.16435
28 3 0.263167 0.140232 0.169157
26 1 0.271831 0.16166 0.171209
757 2 0.348247 0.0859271 0.168384
24 3 0.399053 0.0864846 0.216632
770 4 0.496223 0.135815 0.159891
312 4 0.482972 0.138627 0.174699
310 2 0.485382 0.138843 0.199585
350 4 0.478175 0.0881025 0.22793
332 4 0.460288 0.0912079 0.217319
311 4 0.487793 0.139059 0.224471
577 2 0.0320416 0.187887 0.239312
529 2 0.0127601 0.238187 0.218254
530 4 0.0189902 0.222591 0.236777
579 4 0.0343413 0.212428 0.243511
372 4 0.15208 0.228715 0.169711
362 4 0.15407 0.238463 0.186087
361 2 0.131739 0.248794 0.190529
363 4 0.109407 0.259126 0.194971
475 2 0.216989 0.185137 0.157099
477 4 0.24085 0.178552 0.153567
27 3 0.270774 0.168025 0.193289
622 2 0.46026 0.254398 0.165888
704 4 0.0320117 0.306358 0.169836
337 2 0.0653914 0.291878 0.168391
531 4 0.0065299 0.253783 0.19973
2483 4 0.994477 0.246641 0.185545
703 2 0.0228222 0.318776 0.189496
705 4 0.0136326 0.331195 0.209155
2615 4 0.0196281 0.336477 0.226186
338 4 0.0835832 0.279837 0.180607
395 4 0.0975166 0.275067 0.194967
396 4 0.0959129 0.288462 0.24312
394 2 0.0967148 0.281765 0.219043
283 2 0.280466 0.268425 0.178733
284 4 0.299905 0.279333 0.190061
755 4 0.353225 0.260097 0.165003
528 4 0.422262 0.302871 0.217224
623 4 0.466381 0.264796 0.187788
527 4 0.447748 0.265772 0.195433
526 2 0.435005 0.284322 0.206328
542 4 0.427804 0.317762 0.229189
647 4 0.141337 0.402933 0.173516
300 4 0.0933678 0.366869 0.204146
646 2 0.126572 0.388705 0.187825
648 4 0.111808 0.374477 0.202133
298 2 0.0995228 0.362382 0.227961
289 2 0.227694 0.407404 0.236047
596 4 0.3453 0.362491 0.190381
345 4 0.33139 0.353362 0.202105
645 4 0.389001 0.398901 0.169572
597 4 0.377587 0.38442 0.159118
595 2 0.361443 0.373456 0.17475
343 2 0.340205 0.361002 0.224221
2861 4 0.49793 0.381019 0.23594
263 4 0.0550342 0.433662 0.226954
417 4 0.170891 0.445747 0.196572
1429 2 0.178124 0.480587 0.168816
416 4 0.199924 0.406945 0.20891
290 4 0.216629 0.415591 0.215174
1430 4 0.174438 0.462314 0.185481
415 2 0.185407 0.426346 0.202741
438 4 0.290184 0.45362 0.221323
436 2 0.290548 0.459706 0.245572
658 2 0.337718 0.45669 0.169366
643 2 0.392199 0.420369 0.181986
229 2 0.353576 0.493102 0.211787
644 4 0.395396 0.441836 0.1944
660 4 0.353593 0.46834 0.184775
231 4 0.362495 0.471532 0.202824
447 4 0.391265 0.445651 0.214549
445 2 0.406614 0.443866 0.234206
1403 4 0.0274272 0.0133485 0.264025
233 4 0.0131536 0.026902 0.271631
232 2 0.0262618 0.0463914 0.280205
234 4 0.03937 0.0658808 0.28878
317 4 0.0577052 0.0616244 0.294618
316 2 0.0720288 0.0811109 0.300965
1407 4 0.232309 0.000679878 0.286703
1405 2 0.214233 0.0151741 0.277304
1406 4 0.196157 0.0296683 0.267904
721 2 0.183371 0.081481 0.286021
723 4 0.201969 0.0716055 0.299502
599 4 0.201935 0.0745338 0.319934
249 4 0.315207 0.045199 0.333991
1518 4 0.400132 0.00836053 0.271
699 4 0.414508 0.0173703 0.257978
425 4 0.484344 0.0310734 0.285822
424 2 0.472781 0.0493521 0.298365
258 4 0.46434 0.085457 0.301049
426 4 0.461217 0.0676308 0.310909
318 4 0.0863524 0.100597 0.307312
393 4 0.0839962 0.14261 0.321741
675 4 0.157054 0.0961561 0.254434
391 2 0.0879856 0.142396 0.297059
392 4 0.091975 0.142181 0.272376
544 2 0.13146 0.128356 0.262158
545 4 0.110697 0.141834 0.265689
546 4 0.152222 0.114879 0.258628
399 4 0.0947508 0.144914 0.338019
722 4 0.164773 0.0913565 0.272539
404 4 0.245505 0.0935955 0.292921
403 2 0.234329 0.115581 0.288813
405 4 0.223152 0.137567 0.284704
401 4 0.240465 0.141884 0.275242
256 2 0.476526 0.0991364 0.318064
257 4 0.488713 0.112816 0.33508
400 2 0.242065 0.166813 0.274173
402 4 0.243665 0.191742 0.273104
707 4 0.278947 0.201374 0.329635
765 4 0.420165 0.205131 0.335774
763 2 0.438331 0.196685 0.320813
764 4 0.456497 0.188239 0.305852
442 2 0.082479 0.270709 0.273862
444 4 0.0638572 0.25907 0.285818
749 4 0.0683069 0.337309 0.292335
443 4 0.101101 0.282348 0.261906
497 4 0.312902 0.270404 0.311672
496 2 0.327199 0.258026 0.328029
498 4 0.341496 0.245649 0.344387
615 4 0.415774 0.326877 0.287243
541 2 0.430534 0.318458 0.254033
543 4 0.433264 0.319155 0.278877
613 2 0.425669 0.333434 0.309249
366 4 0.0539979 0.350394 0.297999
365 4 0.00624927 0.364597 0.302364
364 2 0.0301236 0.357496 0.300181
601 2 0.0864209 0.379664 0.32813
602 4 0.0785049 0.383617 0.304744
748 2 0.0884109 0.339016 0.277567
299 4 0.105678 0.357894 0.251776
750 4 0.108515 0.340724 0.262799
777 4 0.089849 0.395849 0.293482
735 4 0.145079 0.390635 0.29757
733 2 0.154993 0.367688 0.298116
734 4 0.164907 0.34474 0.298662
677 4 0.154348 0.393993 0.279862
291 4 0.23876 0.399217 0.256921
414 4 0.252893 0.404764 0.269769
412 2 0.258095 0.41302 0.29279
413 4 0.263296 0.421277 0.315811
5 3 0.26893 0.414582 0.333137
309 4 0.335945 0.36844 0.262531
344 4 0.34902 0.368642 0.246336
307 2 0.337128 0.370395 0.28743
308 4 0.338311 0.372351 0.312329
2924 4 0.494936 0.367722 0.321489
2923 2 0.473578 0.357993 0.330112
2862 4 0.474499 0.399629 0.276007
2860 2 0.486215 0.390324 0.255973
120 3 0.482265 0.402265 0.296902
713 4 0.466022 0.41617 0.289684
116 1 0.500839 0.400035 0.309888
262 2 0.0399764 0.435552 0.246825
264 4 0.0249185 0.437442 0.266696
1757 4 0.120522 0.455494 0.274929
776 4 0.112542 0.439488 0.284463
775 2 0.101196 0.417668 0.288972
1756 2 0.115779 0.479343 0.280751
1640 4 0.216181 0.515512 0.265259
767 4 0.200041 0.503264 0.271231
676 2 0.162181 0.417129 0.274519
678 4 0.170014 0.440265 0.269176
768 4 0.180497 0.457278 0.273257
766 2 0.190269 0.480271 0.272244
504 4 0.212127 0.421006 0.307958
502 2 0.212692 0.438742 0.325574
1436 4 0.261589 0.493491 0.323428
437 4 0.290912 0.465793 0.26982
1437 4 0.280566 0.465021 0.286959
1435 2 0.271078 0.479256 0.305194
433 2 0.318446 0.461324 0.328135
435 4 0.317909 0.479276 0.31074
446 4 0.421963 0.442082 0.253863
712 2 0.444481 0.425807 0.281423
714 4 0.422939 0.435445 0.273161
731 4 0.0829357 0.0605204 0.402355
368 4 0.0775664 0.0627112 0.421132
2757 4 0.991203 0.0895035 0.405645
730 2 0.103128 0.0676017 0.38942
604 2 0.142566 0.0787915 0.348268
732 4 0.12332 0.074683 0.376485
606 4 0.15597 0.0663973 0.331184
684 4 0.302476 0.0576061 0.345288
682 2 0.280372 0.0630516 0.355627
321 4 0.256712 0.0807214 0.380422
683 4 0.258267 0.0684971 0.365967
319 2 0.265286 0.0866261 0.403155
247 2 0.334875 0.0540873 0.346614
248 4 0.354543 0.0629756 0.359238
633 4 0.347783 0.0757305 0.373389
631 2 0.344279 0.0744733 0.398114
1749 4 0.490385 0.0162896 0.337859
2586 4 0.999579 0.155147 0.411437
2584 2 0.000768848 0.130172 0.411552
2585 4 0.0019582 0.105197 0.411666
397 2 0.112076 0.155122 0.352878
605 4 0.129161 0.0911858 0.365353
398 4 0.129402 0.16533 0.367738
598 2 0.202234 0.0871205 0.341537
600 4 0.202532 0.0997073 0.363139
685 2 0.200205 0.132863 0.375288
687 4 0.195892 0.117429 0.356095
686 4 0.204519 0.148296 0.39448
410 4 0.224093 0.148101 0.398655
716 4 0.386435 0.168966 0.393055
760 2 0.481391 0.134195 0.360265
761 4 0.472734 0.114539 0.347462
390 4 0.0864436 0.229693 0.411834
388 2 0.102874 0.240809 0.396614
473 4 0.228776 0.208195 0.348039
474 4 0.180375 0.219825 0.352809
472 2 0.204575 0.21401 0.350424
708 4 0.241627 0.202261 0.362909
275 4 0.174612 0.237057 0.360821
651 4 0.266929 0.23758 0.395401
649 2 0.261926 0.218881 0.411228
706 2 0.260287 0.201818 0.346272
489 4 0.266567 0.254092 0.38493
650 4 0.256923 0.200182 0.427055
419 4 0.370413 0.158169 0.388468
377 4 0.38521 0.209651 0.346678
717 4 0.386124 0.189895 0.34764
715 2 0.386279 0.179431 0.370347
376 2 0.371669 0.230334 0.350425
378 4 0.358128 0.251017 0.354171
762 4 0.490047 0.15385 0.373068
269 4 0.490268 0.251737 0.339635
274 2 0.152656 0.24867 0.363693
276 4 0.130699 0.260282 0.366565
389 4 0.119305 0.251926 0.381394
1258 2 0.142726 0.317572 0.390236
1259 4 0.145012 0.32728 0.367307
508 2 0.22625 0.334078 0.361491
509 4 0.234352 0.311929 0.369794
487 2 0.251834 0.273271 0.378584
488 4 0.2371 0.292449 0.372238
266 4 0.365949 0.305399 0.381515
585 4 0.375631 0.293038 0.394911
583 2 0.382897 0.271204 0.404694
265 2 0.344555 0.318169 0.379422
584 4 0.390162 0.249371 0.414477
268 2 0.492923 0.258403 0.363587
270 4 0.495579 0.265069 0.387539
306 4 0.482762 0.266244 0.402564
603 4 0.0943369 0.37571 0.351515
547 2 0.102397 0.409234 0.380193
549 4 0.0947399 0.389362 0.367092
510 4 0.218149 0.356228 0.353188
375 4 0.243483 0.407463 0.379275
374 4 0.232497 0.370164 0.34783
373 2 0.23799 0.388814 0.363553
729 4 0.335312 0.374807 0.332116
3 3 0.274195 0.418698 0.37019
267 4 0.32316 0.33094 0.377329
727 2 0.327346 0.398131 0.336327
728 4 0.31938 0.421454 0.340537
614 4 0.435563 0.339991 0.331256
2925 4 0.45222 0.348264 0.338735
119 3 0.49587 0.405656 0.331846
679 2 0.0425065 0.493411 0.384376
407 4 0.0274559 0.422099 0.386631
680 4 0.0510052 0.473708 0.397211
406 2 0.0400827 0.440331 0.398177
408 4 0.0527096 0.458564 0.409723
569 4 0.111464 0.441841 0.409596
548 4 0.110054 0.429106 0.393295
635 4 0.167113 0.473696 0.378003
1545 4 0.241584 0.499145 0.3233
634 2 0.190551 0.470295 0.369987
636 4 0.213989 0.466893 0.361971
503 4 0.213257 0.456478 0.343189
434 4 0.318982 0.443371 0.34553
2 3 0.300266 0.430422 0.345787
1 1 0.277645 0.4281 0.34926
668 4 0.271148 0.458443 0.366733
4 3 0.267712 0.449046 0.34825
667 2 0.285155 0.476796 0.376332
1401 4 0.315509 0.457281 0.411359
336 4 0.345401 0.433966 0.405822
718 2 0.0401078 0.0463868 0.489557
719 4 0.0339581 0.0456208 0.465333
369 4 0.047307 0.0589182 0.460764
367 2 0.0624367 0.0608147 0.440948
441 4 0.215263 0.00539943 0.45034
341 4 0.175383 0.0709528 0.466682
2430 4 0.177062 0.0518489 0.460718
2428 2 0.193882 0.0336003 0.46376
2429 4 0.210702 0.0153517 0.466802
632 4 0.340775 0.0732161 0.422839
468 4 0.342159 0.0925737 0.430496
641 4 0.500654 0.0840319 0.420294
2878 2 0.453357 0.00603905 0.433102
2880 4 0.473107 0.0213491 0.432258
642 4 0.479066 0.0394603 0.427227
640 2 0.48986 0.0617461 0.423761
340 2 0.183053 0.0937705 0.473443
1152 4 0.197132 0.126259 0.496281
342 4 0.190722 0.116588 0.480204
320 4 0.27386 0.0925307 0.425889
725 4 0.258507 0.0944393 0.438238
724 2 0.271766 0.0909178 0.459142
432 4 0.287725 0.105665 0.486269
726 4 0.285024 0.0873964 0.480046
418 2 0.353365 0.147484 0.403314
420 4 0.336317 0.1368 0.418159
467 4 0.36146 0.124562 0.463737
466 2 0.351809 0.108568 0.447116
574 2 0.395875 0.137547 0.442603
576 4 0.372411 0.12997 0.446747
575 4 0.41934 0.145124 0.438459
3158 4 0.505443 0.0918179 0.43881
516 4 0.429507 0.162735 0.4385
514 2 0.45365 0.160122 0.444453
515 4 0.477794 0.157508 0.450407
260 4 0.0596144 0.187907 0.472641
259 2 0.0677444 0.174917 0.492398
469 2 0.0735468 0.203652 0.44069
471 4 0.0581842 0.188 0.452699
470 4 0.0889093 0.219303 0.428681
409 2 0.232136 0.169073 0.409639
411 4 0.240179 0.190045 0.420623
2455 2 0.384514 0.220241 0.441034
2457 4 0.370854 0.203774 0.453973
2456 4 0.398174 0.236709 0.428095
618 4 0.0112261 0.259012 0.415926
616 2 0.0106455 0.268528 0.43904
617 4 0.010065 0.278044 0.462155
695 4 0.0928962 0.270241 0.440206
1260 4 0.140441 0.307865 0.413164
694 2 0.106914 0.287028 0.428087
696 4 0.120932 0.303815 0.415969
1010 4 0.467048 0.321198 0.471181
304 2 0.474947 0.263722 0.42618
2507 4 0.47048 0.337075 0.482562
1009 2 0.468544 0.296322 0.469139
1011 4 0.470039 0.271447 0.467098
305 4 0.467131 0.2612 0.449797
326 4 0.102212 0.373272 0.443268
325 2 0.121756 0.365431 0.456748
7 3 0.157165 0.349591 0.479203
327 4 0.1413 0.357589 0.470229
6 1 0.159935 0.359929 0.499564
8 3 0.154498 0.382381 0.497379
709 2 0.137236 0.414984 0.488725
711 4 0.140663 0.395058 0.503435
10 3 0.181624 0.357795 0.506172
1189 2 0.226556 0.35114 0.502257
1191 4 0.201736 0.351684 0.499276
335 4 0.34331 0.413097 0.451218
238 2 0.343935 0.383088 0.481504
240 4 0.349232 0.396015 0.460768
239 4 0.338637 0.37016 0.50224
2506 2 0.482542 0.350961 0.465626
2508 4 0.494604 0.364847 0.448689
538 2 0.0540957 0.49706 0.494007
540 4 0.045461 0.481913 0.476086
1382 4 0.0383525 0.465399 0.466267
1381 2 0.0151524 0.460448 0.474168
710 4 0.133809 0.434911 0.474016
568 2 0.117346 0.437769 0.433555
384 4 0.133099 0.490809 0.487479
570 4 0.123228 0.433698 0.457513
1394 4 0.220898 0.492927 0.482925
1446 4 0.241059 0.496282 0.48255
1399 2 0.326614 0.476564 0.422763
1400 4 0.337719 0.495846 0.434166
334 2 0.344356 0.423531 0.42852
1127 4 0.0299627 0.0543421 0.522467
720 4 0.0462575 0.0471528 0.51378
1031 4 0.167778 0.0762392 0.556766
949 2 0.190254 0.0573178 0.56715
950 4 0.21479 0.0582091 0.571878
1182 4 0.230799 0.052491 0.561692
951 4 0.165718 0.0564265 0.562423
1180 2 0.25419 0.0437627 0.560332
963 4 0.291052 0.0197731 0.554483
1181 4 0.277581 0.0350345 0.558972
1216 2 0.39188 0.0509957 0.515322
1218 4 0.396632 0.0264805 0.516587
1217 4 0.387128 0.0755108 0.514056
1035 4 0.0795942 0.138681 0.573714
1033 2 0.0816261 0.150563 0.551808
1034 4 0.0836579 0.162445 0.529903
261 4 0.0758743 0.161927 0.512155
1030 2 0.146536 0.0894194 0.557234
1032 4 0.125293 0.1026 0.557703
1154 4 0.116912 0.103966 0.576756
1151 4 0.19122 0.167774 0.523525
1150 2 0.194176 0.147017 0.509903
843 4 0.325278 0.096967 0.532564
431 4 0.30825 0.108066 0.531806
857 4 0.330139 0.135507 0.571779
856 2 0.311165 0.144901 0.585081
430 2 0.297988 0.106866 0.509038
899 4 0.339344 0.127881 0.553989
841 2 0.348192 0.0878196 0.528508
842 4 0.371106 0.0786723 0.524453
898 2 0.358145 0.144356 0.554495
900 4 0.376946 0.160832 0.555001
938 4 0.143755 0.169292 0.565005
937 2 0.164465 0.17468 0.552072
879 4 0.114264 0.241244 0.534913
877 2 0.104268 0.25252 0.514961
1272 4 0.113027 0.231826 0.553667
939 4 0.185175 0.180068 0.53914
811 2 0.327414 0.229865 0.585083
872 4 0.387855 0.177263 0.559082
813 4 0.352093 0.231387 0.581367
873 4 0.367102 0.219076 0.577018
871 2 0.377478 0.198169 0.56805
878 4 0.0942723 0.263796 0.495008
1239 4 0.275249 0.277826 0.565993
1205 4 0.395725 0.285295 0.561219
1204 2 0.372554 0.294172 0.55814
1206 4 0.349383 0.303049 0.55506
930 4 0.351984 0.321011 0.563829
954 4 0.408048 0.275825 0.573592
952 2 0.430024 0.268251 0.582803
982 2 0.0332665 0.391681 0.582834
984 4 0.00897748 0.386815 0.58623
983 4 0.0575555 0.396548 0.579437
9 3 0.145909 0.349855 0.515062
1135 2 0.16644 0.375411 0.576787
896 4 0.19329 0.343647 0.518846
1137 4 0.173483 0.353343 0.567375
897 4 0.190531 0.342036 0.568751
895 2 0.191911 0.342841 0.543798
1190 4 0.251375 0.350597 0.505237
802 2 0.291323 0.351938 0.52115
804 4 0.313345 0.348724 0.532547
929 4 0.311055 0.347706 0.553204
928 2 0.331519 0.334358 0.558517
803 4 0.269301 0.355151 0.509753
1001 4 0.458358 0.386431 0.557841
926 4 0.469193 0.391145 0.542255
925 2 0.479118 0.37232 0.529131
1000 2 0.460661 0.402865 0.576544
927 4 0.489044 0.353494 0.516007
934 2 0.0103641 0.484742 0.576586
936 4 0.0318326 0.495438 0.583648
539 4 0.0627303 0.512207 0.511929
1938 4 0.0440315 0.495361 0.567199
382 2 0.12972 0.493109 0.512146
383 4 0.12634 0.49541 0.536813
992 4 0.162287 0.41787 0.588914
882 4 0.27477 0.46461 0.57402
880 2 0.277376 0.479389 0.554021
881 4 0.279982 0.494167 0.534021
1445 4 0.277679 0.485957 0.515002
1444 2 0.259369 0.49112 0.498776
1183 2 0.00164672 0.0447732 0.648459
1185 4 0.0238585 0.034618 0.653815
1155 4 0.0892555 0.0764331 0.608025
1059 4 0.0984587 0.0612464 0.618287
825 4 0.0953511 0.996653 0.622193
1058 4 0.0966299 0.0134559 0.632897
1057 2 0.0975443 0.0373511 0.625592
1221 4 0.165916 0.091347 0.617962
1005 4 0.300591 0.0770008 0.60668
2282 4 0.446569 0.0288744 0.611869
2281 2 0.446808 0.0168091 0.58997
43 3 0.460935 0.0428942 0.612012
41 1 0.47192 0.061752 0.619892
44 3 0.456461 0.0778084 0.626344
45 3 0.485543 0.0701489 0.603689
42 3 0.484605 0.0558779 0.638161
1163 4 0.501566 0.0513271 0.649381
1082 4 0.066556 0.149294 0.584377
1081 2 0.0437632 0.149127 0.594655
1083 4 0.0209704 0.14896 0.604934
1199 4 0.00588301 0.160465 0.595929
1153 2 0.103084 0.0901995 0.59239
1219 2 0.177655 0.0996152 0.638431
1220 4 0.189395 0.107883 0.658901
1212 4 0.20446 0.120635 0.661575
1210 2 0.227803 0.129596 0.661462
1004 4 0.31107 0.0854828 0.654836
1003 2 0.305831 0.0812418 0.630758
887 4 0.310046 0.116244 0.65501
858 4 0.292191 0.154295 0.598382
1143 4 0.369342 0.143265 0.645825
1025 4 0.385638 0.144434 0.633356
1141 2 0.362491 0.130076 0.665931
1270 2 0.123522 0.224003 0.57497
1271 4 0.134017 0.216181 0.596274
909 4 0.150345 0.204369 0.60194
907 2 0.156218 0.210043 0.625573
908 4 0.162091 0.215716 0.649206
947 4 0.173558 0.230241 0.65783
812 4 0.302735 0.228343 0.588799
798 4 0.284607 0.219121 0.590593
796 2 0.285593 0.194227 0.588472
797 4 0.286579 0.169333 0.586351
1024 2 0.385398 0.169211 0.630008
1026 4 0.385159 0.193988 0.62666
905 4 0.459727 0.251114 0.607784
904 2 0.479852 0.243502 0.595048
946 2 0.170253 0.253781 0.665583
1237 2 0.282677 0.285855 0.588478
792 4 0.301588 0.291416 0.626317
790 2 0.326183 0.294327 0.629752
1238 4 0.290104 0.293883 0.610962
791 4 0.350778 0.297239 0.633188
953 4 0.452001 0.260676 0.592014
1041 4 0.0617986 0.412541 0.591437
1136 4 0.159397 0.397479 0.586199
1002 4 0.462964 0.419298 0.595248
3330 4 0.502852 0.400108 0.661912
1910 4 0.476011 0.418584 0.611236
2022 4 0.0387104 0.502913 0.663917
1039 2 0.0812383 0.428265 0.59151
991 2 0.139475 0.426596 0.594267
993 4 0.116663 0.435322 0.59962
1040 4 0.100678 0.44399 0.591583
1161 4 0.177757 0.501861 0.590884
1171 2 0.24179 0.45633 0.59863
1160 4 0.215167 0.468692 0.591886
1159 2 0.196462 0.485277 0.591385
1173 4 0.218117 0.455184 0.606596
1172 4 0.265464 0.457477 0.590665
1952 4 0.358395 0.505941 0.62123
1269 4 0.416244 0.487377 0.66141
1267 2 0.428419 0.465613 0.659593
1911 4 0.446034 0.447297 0.639122
1909 2 0.461023 0.43294 0.625179
1268 4 0.440593 0.443849 0.657776
945 4 0.0428527 0.0398867 0.654737
943 2 0.0480187 0.0417151 0.679132
1076 4 0.0516516 0.0351252 0.721394
944 4 0.0531846 0.0435435 0.703528
1075 2 0.0701763 0.0360607 0.738161
1077 4 0.088701 0.0369963 0.754929
846 4 0.498613 0.00924456 0.738814
32 3 0.105767 0.129341 0.738575
35 3 0.0883742 0.156319 0.757617
1283 4 0.167258 0.0940606 0.675288
1227 4 0.180979 0.116524 0.724327
1284 4 0.184597 0.0949202 0.722185
1282 2 0.175927 0.0944904 0.698736
1211 4 0.251145 0.138557 0.661349
831 4 0.326264 0.0753177 0.70618
830 4 0.305721 0.101213 0.668655
888 4 0.269356 0.142884 0.666644
886 2 0.289701 0.129564 0.660827
829 2 0.315992 0.0882653 0.687417
1142 4 0.35564 0.116886 0.686038
1107 4 0.0413441 0.195816 0.750336
851 4 0.0260331 0.189682 0.740333
850 2 0.00802487 0.202012 0.728133
1207 2 0.0750309 0.245372 0.702134
1208 4 0.0937833 0.22913 0.699013
822 4 0.147131 0.203795 0.695441
1278 4 0.156497 0.205032 0.713382
820 2 0.123398 0.209466 0.689985
821 4 0.0996654 0.215138 0.68453
1276 2 0.156862 0.190363 0.733627
976 2 0.277767 0.190126 0.747415
977 4 0.290936 0.196727 0.727212
916 2 0.303143 0.239021 0.722214
918 4 0.296626 0.21508 0.725305
3122 4 0.501429 0.236641 0.689113
3121 2 0.476612 0.23783 0.691917
3123 4 0.451795 0.239018 0.69472
1261 2 0.446065 0.231655 0.744421
1263 4 0.454144 0.208124 0.746913
1145 4 0.454299 0.187932 0.746206
1209 4 0.0562784 0.261613 0.705254
1244 4 0.0489437 0.27933 0.70103
1243 2 0.024603 0.281153 0.70645
3188 4 0.0239125 0.259979 0.747495
1064 4 0.226491 0.303747 0.692141
1063 2 0.2049 0.296061 0.682143
1065 4 0.18331 0.288376 0.672145
948 4 0.166948 0.277322 0.673336
1240 2 0.232997 0.310554 0.73021
1242 4 0.225223 0.314946 0.753565
1241 4 0.24077 0.306161 0.706855
917 4 0.309659 0.262962 0.719123
1097 4 0.296982 0.27071 0.70522
1096 2 0.277842 0.286158 0.700729
1098 4 0.258702 0.301607 0.696237
1008 4 0.3528 0.262782 0.719498
1006 2 0.358072 0.270494 0.742691
1262 4 0.437987 0.255186 0.741929
1194 4 0.435053 0.274599 0.736571
1279 2 0.0507358 0.363398 0.707665
3275 4 0.0391684 0.38525 0.738577
1280 4 0.0378909 0.380964 0.719979
1281 4 0.0635807 0.345832 0.695351
3274 2 0.0549108 0.402109 0.748229
894 4 0.0826566 0.349321 0.69096
893 4 0.131489 0.338569 0.690224
892 2 0.107073 0.343945 0.690592
940 2 0.152683 0.388243 0.750221
942 4 0.136946 0.405834 0.758473
1028 4 0.239477 0.371609 0.717187
941 4 0.168419 0.370652 0.741969
1068 4 0.226822 0.362922 0.704732
1067 4 0.182488 0.362868 0.727866
1066 2 0.204655 0.362895 0.716299
1029 4 0.279399 0.384137 0.6898
1139 4 0.288248 0.400642 0.680754
1027 2 0.259438 0.377873 0.703494
1229 4 0.36668 0.390217 0.678756
1228 2 0.375542 0.40848 0.693355
2020 2 0.0359174 0.509199 0.687956
1078 2 0.168637 0.444445 0.750478
1080 4 0.181588 0.423111 0.748954
2172 4 0.22529 0.496206 0.684334
1175 4 0.265711 0.493177 0.680203
1138 2 0.288503 0.424675 0.687649
1140 4 0.288758 0.448707 0.694545
1989 4 0.284903 0.449521 0.713932
1987 2 0.297878 0.461243 0.731805
1230 4 0.384403 0.426743 0.707953
1100 4 0.480966 0.489377 0.721897
1250 4 0.481125 0.499778 0.739667
1249 2 0.493703 0.483634 0.754032
864 4 0.0610065 0.0793494 0.840557
1203 4 0.092375 0.0328497 0.774468
1201 2 0.106661 0.0124621 0.772138
2049 4 0.13565 0.0051027 0.775042
1147 2 0.199338 0.0620351 0.788488
1149 4 0.2023 0.0386948 0.796951
1049 4 0.220941 0.035664 0.801028
1048 2 0.245206 0.0384612 0.806371
1050 4 0.269472 0.0412584 0.811714
818 4 0.356938 0.0565569 0.811635
817 2 0.350676 0.0770764 0.798792
975 4 0.35855 0.99908 0.829464
3387 4 0.998864 0.103667 0.762499
1106 4 0.0679432 0.153799 0.755607
832 2 0.0467029 0.125987 0.779497
863 4 0.0302425 0.104612 0.81029
833 4 0.0289139 0.115525 0.793614
33 3 0.0775473 0.120498 0.761773
834 4 0.0644919 0.136448 0.765379
862 2 0.0456245 0.0919808 0.825423
31 1 0.0955747 0.134731 0.758481
34 3 0.110923 0.132187 0.775696
1073 4 0.125086 0.14736 0.774987
1148 4 0.196376 0.0853754 0.780024
1225 2 0.184772 0.120492 0.748721
1226 4 0.188565 0.12446 0.773114
840 4 0.194753 0.124785 0.79126
838 2 0.219479 0.127605 0.793677
839 4 0.244205 0.130426 0.796093
959 4 0.261071 0.13422 0.807118
958 2 0.271065 0.155325 0.816056
819 4 0.344415 0.0975958 0.78595
1084 2 0.349771 0.132208 0.810324
1085 4 0.339268 0.113045 0.798172
1086 4 0.360273 0.151371 0.822476
3268 2 0.503873 0.148008 0.798677
3270 4 0.485649 0.148721 0.781573
1146 4 0.481214 0.148628 0.761419
1105 2 0.0546437 0.174808 0.752972
778 2 0.0867323 0.201264 0.813438
779 4 0.0657686 0.212927 0.820486
1214 4 0.0471466 0.209371 0.817159
1213 2 0.0282581 0.225304 0.813342
1277 4 0.157227 0.175694 0.753872
1072 2 0.125849 0.16814 0.788872
1074 4 0.126612 0.18892 0.802756
780 4 0.107696 0.189601 0.806389
1131 4 0.16412 0.177643 0.772885
1130 4 0.201952 0.18717 0.804169
1129 2 0.183036 0.182407 0.788527
978 4 0.264599 0.183524 0.767619