ITEM: TIMESTEP
630000
ITEM: NUMBER OF ATOMS
4590
ITEM: BOX BOUNDS pp pp pp
-9.9985700000000008e+00 9.9985700000000008e+00
-9.9985700000000008e+00 9.9985700000000008e+00
-9.9985700000000008e+00 9.9985700000000008e+00
ITEM: ATOMS id type xs ys zs
463 2 0.0286129 0.0506691 0.0501473
465 4 0.0295531 0.0736005 0.0600694
464 4 0.0276727 0.0277378 0.0402252
3290 4 0.0185291 0.0296973 0.0217533
591 4 0.0272023 0.0800384 0.0785113
3289 2 0.0256291 0.0146419 0.00309575
1476 4 0.205659 0.00883322 0.0689067
1474 2 0.22083 0.00197249 0.0502533
490 2 0.270495 0.0307413 0.0356587
491 4 0.285571 0.0397971 0.0178856
492 4 0.255418 0.0216854 0.0534318
296 4 0.36384 0.0620887 0.0854898
745 2 0.451938 0.0721833 0.0171759
1826 4 0.457587 0.0215256 0.0486818
746 4 0.43448 0.0845223 0.0301435
1825 2 0.480729 0.0124876 0.0514997
701 4 0.0637647 0.125629 0.0119833
700 2 0.0773595 0.116297 0.0307791
589 2 0.0415185 0.100032 0.0739865
590 4 0.0558346 0.120026 0.0694617
423 4 0.061549 0.144561 0.00477686
702 4 0.0909543 0.106965 0.0495748
565 2 0.167686 0.0981932 0.0767842
567 4 0.176455 0.0779868 0.0649521
358 2 0.283688 0.141634 0.00540808
359 4 0.306253 0.150185 0.0119575
556 2 0.369974 0.100404 0.0710151
558 4 0.372795 0.118321 0.053805
421 2 0.0644696 0.168542 0.0112242
553 2 0.0442606 0.211969 0.0431233
554 4 0.0222373 0.220831 0.0509737
422 4 0.0673901 0.192523 0.0176715
555 4 0.0662838 0.203108 0.035273
506 4 0.176141 0.236992 0.0648187
1133 4 0.21161 0.192063 0.0253932
505 2 0.173325 0.251122 0.0443839
354 4 0.234182 0.221062 0.0873625
665 4 0.373191 0.210405 0.00531628
1069 2 0.382213 0.244493 0.0120272
324 4 0.406388 0.253169 0.0647247
828 4 0.454283 0.181456 0.00826156
770 4 0.451956 0.196056 0.0714045
771 4 0.460261 0.174791 0.026913
769 2 0.456109 0.185423 0.0491588
1014 4 0.466366 0.193439 0.995071
292 2 0.15889 0.304002 0.0371749
294 4 0.149472 0.322614 0.0509617
456 4 0.129356 0.327519 0.0502292
293 4 0.168308 0.28539 0.0233882
507 4 0.170508 0.265253 0.0239491
481 2 0.236361 0.285929 0.0507127
482 4 0.245148 0.304648 0.0366572
483 4 0.227574 0.26721 0.0647682
572 4 0.364296 0.288018 0.0709422
571 2 0.359391 0.267331 0.0577841
573 4 0.354486 0.246643 0.0446261
1071 4 0.361783 0.249472 0.0255542
322 2 0.416884 0.261003 0.0860236
281 4 0.433741 0.328888 0.0603297
671 4 0.425288 0.328576 0.0780722
328 2 0.0334485 0.394897 0.0124765
330 4 0.0148161 0.409481 0.0205583
315 4 0.0184708 0.411806 0.07047
455 4 0.121073 0.36648 0.0804634
454 2 0.125215 0.346999 0.0653463
252 4 0.306347 0.392352 0.054468
250 2 0.287697 0.3984 0.038951
251 4 0.269046 0.404448 0.023434
608 4 0.31229 0.386994 0.0732217
280 2 0.458448 0.332218 0.0622507
282 4 0.483154 0.335548 0.0641717
227 4 0.487372 0.413882 0.0339219
1047 4 0.463974 0.354905 0.00787967
551 4 0.0673602 0.471715 0.0686983
313 2 0.0199096 0.436755 0.0696543
314 4 0.0213485 0.461703 0.0688386
550 2 0.0923169 0.470299 0.0692779
552 4 0.117274 0.468882 0.0698575
245 4 0.206885 0.461594 0.995861
244 2 0.228207 0.467032 0.00773404
246 4 0.249529 0.47247 0.0196071
272 4 0.264703 0.473923 0.0330275
271 2 0.278142 0.491164 0.0208908
226 2 0.483874 0.434463 0.0201598
228 4 0.480376 0.455043 0.00639779
1667 4 0.0809441 0.0768799 0.0973511
19 3 0.0405235 0.0294789 0.15387
20 3 0.0602047 0.0487346 0.128188
1422 4 0.0300469 0.00910537 0.157299
16 1 0.0515338 0.0493716 0.149237
2480 4 0.0268978 0.0248246 0.170491
17 3 0.0364936 0.0667141 0.150714
1666 2 0.0690756 0.0551722 0.0937325
1668 4 0.057207 0.0334646 0.0901139
450 4 0.154369 0.0729296 0.162559
652 2 0.309655 0.066556 0.13474
654 4 0.319346 0.0516847 0.11713
653 4 0.299965 0.0814273 0.15235
557 4 0.367153 0.0824866 0.0882252
295 2 0.372938 0.0417661 0.0968654
297 4 0.382035 0.0214434 0.108241
485 4 0.367317 0.0131339 0.119606
484 2 0.349995 0.00813651 0.136932
758 4 0.411972 0.0638607 0.153003
1784 4 0.403326 0.00056633 0.150222
1759 2 0.46555 0.0116381 0.153855
1760 4 0.484278 0.0247783 0.143767
566 4 0.158918 0.118399 0.0886162
476 4 0.156057 0.169314 0.145525
582 4 0.299681 0.0853956 0.171605
339 4 0.0736088 0.218196 0.125312
337 2 0.0780337 0.23463 0.143629
475 2 0.13173 0.168103 0.151174
477 4 0.107403 0.166891 0.156824
737 4 0.175851 0.217723 0.0955533
736 2 0.199459 0.210302 0.0919834
738 4 0.223068 0.202881 0.0884135
353 4 0.282993 0.212067 0.081255
352 2 0.258587 0.216564 0.0843087
461 4 0.302755 0.216849 0.0831817
460 2 0.315505 0.203103 0.0997237
462 4 0.328256 0.189356 0.116266
255 4 0.347434 0.183486 0.117406
254 4 0.385565 0.192521 0.148473
630 4 0.400535 0.200068 0.136649
253 2 0.366499 0.188003 0.132939
628 2 0.414368 0.211717 0.119383
629 4 0.428201 0.223366 0.102117
2590 2 0.49623 0.217318 0.164468
338 4 0.0824585 0.251064 0.161947
611 4 0.250495 0.31707 0.139132
277 2 0.249097 0.260759 0.157934
756 4 0.297004 0.303177 0.103502
754 2 0.28687 0.285176 0.117588
755 4 0.276735 0.267175 0.131675
278 4 0.2573 0.2648 0.134663
741 4 0.362701 0.307429 0.0778684
622 2 0.377145 0.267587 0.133961
624 4 0.399103 0.264182 0.122496
623 4 0.355187 0.270991 0.145426
739 2 0.354529 0.327513 0.0903181
323 4 0.42738 0.268837 0.107323
527 4 0.468007 0.252363 0.143275
526 2 0.459263 0.267816 0.16088
621 4 0.0178683 0.408083 0.0904417
619 2 0.0308215 0.387334 0.0956262
620 4 0.0437747 0.366585 0.100811
647 4 0.0539194 0.368509 0.157887
537 4 0.158978 0.385996 0.145837
535 2 0.176501 0.373643 0.158703
626 4 0.190237 0.415199 0.0978999
609 4 0.282246 0.366356 0.107458
607 2 0.297268 0.376675 0.0903401
612 4 0.267293 0.35939 0.118456
610 2 0.258894 0.33823 0.128794
302 4 0.335451 0.398745 0.165555
387 4 0.326389 0.382961 0.158605
385 2 0.335913 0.368099 0.140897
740 4 0.346357 0.347598 0.102768
15 3 0.413662 0.346911 0.17033
386 4 0.345438 0.353237 0.123189
495 4 0.406002 0.39197 0.135702
14 3 0.408547 0.377929 0.149609
11 1 0.423744 0.361701 0.156249
670 2 0.421527 0.334918 0.101964
672 4 0.417766 0.341261 0.125855
12 3 0.431276 0.3505 0.137623
625 2 0.209924 0.427027 0.107783
627 4 0.229612 0.438856 0.117666
1438 2 0.238743 0.49821 0.113449
637 2 0.250959 0.482298 0.169421
639 4 0.261432 0.482168 0.146716
1439 4 0.254316 0.484009 0.126902
523 2 0.331055 0.482687 0.113291
525 4 0.329604 0.47362 0.136547
301 2 0.349449 0.419098 0.161683
659 4 0.380437 0.451907 0.158104
303 4 0.363447 0.439451 0.157812
493 2 0.421396 0.411633 0.134446
494 4 0.43679 0.431296 0.133191
18 3 0.0684988 0.0528192 0.164687
1505 4 0.21475 0.0123512 0.206967
1504 2 0.206823 0.998938 0.187411
689 4 0.196741 0.0102214 0.214391
688 2 0.177903 0.013692 0.230462
693 4 0.209651 0.0712205 0.185397
691 2 0.232377 0.0613075 0.188625
692 4 0.255104 0.0513946 0.191853
21 1 0.376089 0.0609482 0.233821
23 3 0.377514 0.0393279 0.242124
24 3 0.353873 0.0675468 0.232681
25 3 0.38557 0.0619707 0.21314
759 4 0.384166 0.0699061 0.194125
757 2 0.398069 0.0668834 0.173564
744 4 0.465631 0.00571304 0.230766
381 4 0.0133185 0.16267 0.206918
578 4 0.0762812 0.158441 0.241448
577 2 0.0956111 0.143375 0.236495
579 4 0.114941 0.128308 0.231541
448 2 0.156326 0.0885401 0.181993
449 4 0.158283 0.104151 0.201426
235 2 0.168327 0.145507 0.196083
236 4 0.168895 0.120539 0.194879
722 4 0.191277 0.137637 0.25128
580 2 0.284956 0.0940117 0.189885
581 4 0.270232 0.102628 0.208164
30 3 0.278191 0.11824 0.215461
26 1 0.28995 0.12803 0.23233
29 3 0.307737 0.140111 0.223609
28 3 0.276079 0.142057 0.244547
311 4 0.456218 0.143569 0.173551
312 4 0.456152 0.10119 0.200098
310 2 0.456185 0.12238 0.186824
513 4 0.062043 0.172322 0.237746
511 2 0.0416633 0.176349 0.223831
512 4 0.0212836 0.180375 0.209916
237 4 0.167758 0.170475 0.197287
285 4 0.292192 0.212583 0.183843
284 4 0.296785 0.226635 0.231615
283 2 0.294488 0.219609 0.207729
764 4 0.442914 0.221205 0.235726
763 2 0.434429 0.242594 0.225944
2591 4 0.49599 0.195482 0.176646
395 4 0.0725119 0.258449 0.184095
394 2 0.0605581 0.261089 0.205897
396 4 0.0486043 0.26373 0.227698
749 4 0.0799341 0.306276 0.20138
443 4 0.0568345 0.260953 0.245599
363 4 0.0871801 0.266749 0.173084
361 2 0.10908 0.27505 0.181839
750 4 0.110842 0.337314 0.225507
362 4 0.13098 0.283351 0.190595
372 4 0.143884 0.280979 0.205725
748 2 0.0953879 0.321795 0.213444
370 2 0.15734 0.272059 0.224818
279 4 0.240895 0.256719 0.181206
371 4 0.170797 0.263139 0.243911
345 4 0.236895 0.287512 0.214125
343 2 0.261875 0.288364 0.21344
344 4 0.286854 0.289216 0.212754
309 4 0.289386 0.293389 0.231836
765 4 0.425944 0.263983 0.216162
528 4 0.45052 0.283269 0.178486
646 2 0.0759637 0.367704 0.169659
300 4 0.110879 0.35634 0.216834
648 4 0.0980079 0.366899 0.181431
298 2 0.115832 0.367174 0.238817
536 4 0.194024 0.36129 0.171569
289 2 0.221018 0.399304 0.21355
290 4 0.233807 0.382766 0.227266
416 4 0.188501 0.42098 0.195367
291 4 0.208229 0.415842 0.199835
595 2 0.485804 0.370384 0.166665
13 3 0.441832 0.371648 0.166845
597 4 0.462448 0.371282 0.175545
643 2 0.440996 0.374516 0.207497
644 4 0.434106 0.363539 0.22888
645 4 0.447886 0.385494 0.186115
447 4 0.44161 0.379456 0.240028
263 4 0.0435564 0.490441 0.185037
262 2 0.048649 0.466224 0.18861
264 4 0.0537415 0.442006 0.192184
1430 4 0.159278 0.481535 0.196442
417 4 0.165915 0.464396 0.205648
415 2 0.177208 0.442688 0.200508
638 4 0.240486 0.482428 0.192125
766 2 0.220772 0.491255 0.216993
414 4 0.197121 0.470883 0.249053
768 4 0.206446 0.481535 0.235034
660 4 0.3754 0.481306 0.198242
658 2 0.377918 0.466607 0.178173
232 2 0.046822 0.0333311 0.290632
233 4 0.0698979 0.0264367 0.283913
1403 4 0.0708804 0.00564352 0.284225
234 4 0.0237461 0.0402255 0.297351
2756 4 0.0152509 0.0470694 0.3157
1402 2 0.0881153 0.995479 0.299219
690 4 0.159066 0.0171626 0.246534
675 4 0.121796 0.0748194 0.258955
673 2 0.134191 0.053331 0.255826
674 4 0.146586 0.0318426 0.252697
1701 4 0.290992 0.0333904 0.263832
1699 2 0.291184 0.0182719 0.283746
22 3 0.387337 0.0751242 0.248022
1516 2 0.353951 0.999937 0.294541
1518 4 0.353491 0.0229755 0.304247
697 2 0.385412 0.0497781 0.309198
699 4 0.362846 0.0391576 0.310967
698 4 0.407979 0.0603985 0.30743
742 2 0.47286 0.0246066 0.245462
1749 4 0.470929 0.00966384 0.322334
743 4 0.480089 0.0435003 0.260157
257 4 0.433268 0.0787667 0.310069
351 4 0.480281 0.054254 0.276487
349 2 0.463347 0.0700174 0.285971
350 4 0.446413 0.0857809 0.295454
399 4 0.0801848 0.152907 0.308262
397 2 0.0899711 0.132109 0.318102
398 4 0.0997574 0.111311 0.327943
732 4 0.118403 0.104298 0.32226
393 4 0.0928835 0.166323 0.300194
546 4 0.180775 0.155794 0.253314
721 2 0.195047 0.113739 0.257594
723 4 0.198817 0.0898411 0.263908
403 2 0.231446 0.162516 0.308957
599 4 0.221271 0.127973 0.323095
404 4 0.237651 0.141447 0.320907
27 3 0.298181 0.111708 0.246294
249 4 0.259073 0.139896 0.326529
248 4 0.302473 0.132087 0.302946
247 2 0.280773 0.135992 0.314738
333 4 0.389691 0.0932576 0.256769
632 4 0.338564 0.107063 0.28802
631 2 0.357498 0.106248 0.304329
633 4 0.376433 0.105433 0.320639
331 2 0.412541 0.0895809 0.266233
332 4 0.43539 0.0859042 0.275696
762 4 0.432206 0.106755 0.284936
760 2 0.448509 0.122032 0.296163
761 4 0.464811 0.137308 0.307389
529 2 0.0155651 0.18099 0.287785
530 4 0.0374034 0.19295 0.290066
544 2 0.161072 0.168154 0.262489
390 4 0.0968065 0.233656 0.306689
392 4 0.130023 0.193327 0.280389
391 2 0.111453 0.179825 0.290292
545 4 0.141368 0.180515 0.271664
388 2 0.114375 0.247545 0.317806
405 4 0.225241 0.183585 0.297008
401 4 0.183675 0.226618 0.288213
400 2 0.198722 0.230781 0.307743
402 4 0.21377 0.234943 0.327273
706 2 0.274383 0.200032 0.333239
708 4 0.253209 0.211171 0.325973
707 4 0.295556 0.188892 0.340504
418 2 0.403873 0.208147 0.31894
419 4 0.411376 0.220137 0.298321
520 2 0.483994 0.233519 0.248229
521 4 0.459945 0.228373 0.243715
444 4 0.0397544 0.300392 0.271164
442 2 0.0482945 0.280673 0.258382
389 4 0.131944 0.261435 0.328923
307 2 0.295278 0.304644 0.253372
308 4 0.301171 0.315899 0.274908
496 2 0.318157 0.31978 0.302004
497 4 0.306505 0.332421 0.283849
498 4 0.32981 0.307139 0.320159
615 4 0.407984 0.332573 0.318839
543 4 0.420021 0.315591 0.319351
2837 4 0.50345 0.265537 0.30026
541 2 0.438798 0.312526 0.303127
542 4 0.457574 0.309462 0.286902
366 4 0.0182588 0.359512 0.246029
2493 4 0.00334813 0.384721 0.299538
364 2 0.0194255 0.373687 0.266593
365 4 0.0205922 0.387863 0.287157
603 4 0.0765561 0.348069 0.304665
299 4 0.120785 0.378008 0.260801
601 2 0.0853369 0.370652 0.310836
734 4 0.124529 0.39697 0.264937
733 2 0.136801 0.394814 0.286615
602 4 0.0941177 0.393235 0.317007
735 4 0.149073 0.392658 0.308293
677 4 0.160867 0.383344 0.320161
777 4 0.0906925 0.407792 0.304933
676 2 0.185689 0.383083 0.317164
678 4 0.210511 0.382821 0.314167
729 4 0.272346 0.384509 0.270738
727 2 0.294162 0.384127 0.282947
434 4 0.316429 0.387126 0.314061
728 4 0.315979 0.383744 0.295157
613 2 0.3887 0.346514 0.326514
433 2 0.336421 0.393557 0.327632
614 4 0.369415 0.360456 0.334189
2537 4 0.494182 0.368007 0.323355
445 2 0.455533 0.387848 0.259025
446 4 0.469457 0.39624 0.278022
1756 2 0.0695064 0.487316 0.282605
1757 4 0.0565275 0.466371 0.286855
776 4 0.0644521 0.449086 0.294588
775 2 0.0775723 0.428439 0.299761
413 4 0.177025 0.455707 0.292256
412 2 0.187073 0.463295 0.270654
437 4 0.258945 0.469064 0.275463
436 2 0.279469 0.483014 0.272404
438 4 0.299993 0.496963 0.269345
713 4 0.401953 0.426365 0.285101
593 4 0.395894 0.471758 0.338538
712 2 0.417511 0.445759 0.287753
714 4 0.433069 0.465152 0.290404
2585 4 0.0160664 0.0680964 0.377696
429 4 0.0720888 0.0128582 0.350295
2757 4 0.0227088 0.05441 0.3646
2755 2 0.0189798 0.0507397 0.34015
317 4 0.0678976 0.0705815 0.355351
427 2 0.0783134 0.036794 0.35397
428 4 0.0845381 0.0607299 0.357645
731 4 0.102964 0.065434 0.349681
606 4 0.165276 0.0529967 0.375656
730 2 0.110683 0.0848661 0.33597
604 2 0.184931 0.0612249 0.362574
605 4 0.204587 0.0694531 0.349492
683 4 0.266679 0.0412173 0.373311
682 2 0.275878 0.0636877 0.379281
725 4 0.325377 0.0794584 0.408594
480 4 0.478775 0.0222509 0.33645
478 2 0.487359 0.0456856 0.337972
424 2 0.443698 0.043408 0.397822
426 4 0.441346 0.0537168 0.375164
256 2 0.435178 0.0713901 0.333883
258 4 0.437087 0.0640136 0.357697
2879 4 0.487628 0.0509748 0.40958
316 2 0.0553437 0.0916188 0.35035
318 4 0.0427898 0.112656 0.34535
685 2 0.172532 0.153009 0.383327
687 4 0.186007 0.136665 0.370043
600 4 0.18294 0.123323 0.354873
598 2 0.202106 0.125648 0.338984
684 4 0.285077 0.0861581 0.385252
320 4 0.284113 0.0973897 0.402577
319 2 0.276269 0.11493 0.418576
514 2 0.448447 0.157144 0.405296
451 2 0.48698 0.170906 0.364233
515 4 0.451763 0.156647 0.380518
2654 4 0.0242422 0.22495 0.392756
686 4 0.159056 0.169352 0.396612
275 4 0.135999 0.245831 0.373239
274 2 0.155297 0.249402 0.38873
474 4 0.213682 0.229934 0.377989
472 2 0.231242 0.222322 0.361898
276 4 0.174596 0.252973 0.404222
473 4 0.248801 0.21471 0.345808
420 4 0.396369 0.196157 0.339558
467 4 0.338843 0.179227 0.413651
453 4 0.465011 0.17308 0.375973
618 4 0.0569681 0.300657 0.412539
616 2 0.0643622 0.295477 0.389222
347 4 0.0433705 0.301439 0.42842
617 4 0.0717562 0.290297 0.365905
510 4 0.241699 0.306239 0.386359
374 4 0.247456 0.312321 0.40365
508 2 0.254369 0.302363 0.365155
509 4 0.267039 0.298486 0.34395
488 4 0.309806 0.272006 0.389106
376 2 0.324906 0.291628 0.356704
377 4 0.321065 0.273073 0.373018
378 4 0.328747 0.310183 0.340391
487 2 0.292153 0.273452 0.406753
716 4 0.375648 0.253671 0.367394
715 2 0.361468 0.255138 0.387936
717 4 0.347287 0.256604 0.408477
269 4 0.465429 0.26263 0.35971
268 2 0.467678 0.262387 0.384611
270 4 0.469927 0.262145 0.409512
406 2 0.0710566 0.411375 0.389091
408 4 0.0867207 0.39457 0.398961
373 2 0.246304 0.334825 0.414487
502 2 0.222801 0.388456 0.408671
503 4 0.203306 0.400707 0.398922
504 4 0.242295 0.376205 0.41842
435 4 0.356412 0.399987 0.341203
334 2 0.352663 0.400982 0.409827
561 4 0.456107 0.387213 0.402946
752 4 0.468606 0.399712 0.392736
751 2 0.48692 0.402901 0.376015
559 2 0.434566 0.379303 0.412877
549 4 0.0531602 0.472726 0.344455
407 4 0.0553925 0.42818 0.379222
547 2 0.0563685 0.449067 0.35188
548 4 0.0595769 0.425408 0.359304
681 4 0.00807904 0.434502 0.406106
500 4 0.114339 0.4634 0.348277
499 2 0.127531 0.484457 0.34549
570 4 0.118523 0.445106 0.410702
1435 2 0.241156 0.494074 0.355423
3 3 0.283 0.437618 0.342739
1437 4 0.261042 0.480085 0.349588
668 4 0.302089 0.446569 0.381968
5 3 0.278121 0.474926 0.341316
1 1 0.290393 0.458151 0.350624
2 3 0.312495 0.460821 0.344833
4 3 0.288555 0.458885 0.373743
667 2 0.309928 0.449385 0.405544
336 4 0.342377 0.421398 0.399699
592 2 0.411168 0.491163 0.342457
718 2 0.0438896 0.0572437 0.484921
719 4 0.0639145 0.0461901 0.474822
720 4 0.0238647 0.0682973 0.495021
368 4 0.120392 0.032563 0.44063
367 2 0.123162 0.0565573 0.447094
2429 4 0.234975 0.00914478 0.477946
2428 2 0.213767 0.0210628 0.472172
341 4 0.187549 0.0450353 0.480457
340 2 0.176912 0.0675495 0.478185
2430 4 0.192558 0.0329808 0.466398
1182 4 0.234748 0.0910476 0.477024
1180 2 0.247367 0.0745899 0.490991
441 4 0.247296 0.00663726 0.462395
724 2 0.321385 0.0758854 0.433017
726 4 0.317394 0.0723124 0.45744
963 4 0.277659 0.0512814 0.511157
425 4 0.446051 0.0330993 0.42048
2878 2 0.482646 0.068821 0.426369
2880 4 0.477663 0.0866673 0.443158
457 2 0.00819007 0.162241 0.45227
458 4 0.0331308 0.161117 0.4509
369 4 0.125931 0.0805516 0.453558
342 4 0.166276 0.0900637 0.475913
1034 4 0.106526 0.141311 0.471367
1033 2 0.0910797 0.159783 0.478104
321 4 0.268425 0.13247 0.434576
468 4 0.366097 0.139763 0.427809
466 2 0.35247 0.159495 0.42073
431 4 0.328285 0.0928477 0.489762
576 4 0.402498 0.129417 0.464101
843 4 0.345353 0.0939961 0.498953
574 2 0.421597 0.143995 0.457181
642 4 0.476354 0.0865752 0.4631
516 4 0.44513 0.157641 0.430073
641 4 0.455151 0.124367 0.488058
640 2 0.465752 0.105471 0.475579
575 4 0.440696 0.158572 0.45026
3158 4 0.466905 0.134228 0.499999
471 4 0.0143671 0.1842 0.483301
261 4 0.0734858 0.194737 0.47294
259 2 0.0837484 0.212883 0.459135
1035 4 0.0756337 0.178255 0.484841
260 4 0.094011 0.231029 0.44533
411 4 0.244194 0.192453 0.488369
409 2 0.266941 0.187635 0.479174
410 4 0.289687 0.182816 0.469978
304 2 0.497251 0.227944 0.417836
585 4 0.442548 0.244766 0.451725
346 2 0.0213473 0.289602 0.428225
348 4 0.999324 0.277765 0.42803
695 4 0.0922145 0.281391 0.483773
694 2 0.115691 0.281866 0.492365
10 3 0.174662 0.329086 0.491812
696 4 0.139167 0.28234 0.500957
650 4 0.251935 0.264504 0.490861
489 4 0.274499 0.274898 0.424401
651 4 0.269835 0.273173 0.444979
649 2 0.260885 0.268839 0.46792
267 4 0.345549 0.276412 0.413191
812 4 0.3316 0.292299 0.503874
266 4 0.361255 0.29762 0.455667
265 2 0.353402 0.287016 0.434429
306 4 0.482651 0.247212 0.411453
2456 4 0.481782 0.286243 0.451238
583 2 0.453938 0.266243 0.44588
584 4 0.465328 0.287721 0.440035
2812 2 0.00257789 0.351783 0.456535
2814 4 0.0174909 0.352649 0.476585
710 4 0.17366 0.372434 0.422767
327 4 0.121533 0.342492 0.488898
7 3 0.139072 0.339285 0.496533
326 4 0.104369 0.33641 0.442324
325 2 0.112951 0.339451 0.465611
6 1 0.160937 0.34638 0.497399
709 2 0.163074 0.37235 0.44542
711 4 0.152489 0.372266 0.468072
8 3 0.163745 0.363874 0.482416
375 4 0.245152 0.357328 0.425324
238 2 0.387748 0.385542 0.454995
240 4 0.371374 0.376974 0.438152
335 4 0.362949 0.380565 0.419954
239 4 0.404121 0.394111 0.471837
560 4 0.413026 0.371394 0.422808
927 4 0.466093 0.421303 0.501612
680 4 0.0211614 0.455026 0.449791
1381 2 0.0145507 0.485023 0.468632
1383 4 0.0300871 0.466442 0.462423
679 2 0.0146202 0.444764 0.427949
568 2 0.112388 0.44956 0.434529
540 4 0.0675078 0.486028 0.489617
569 4 0.106253 0.454015 0.458355
382 2 0.100145 0.435592 0.498965
384 4 0.10354 0.447267 0.477117
772 2 0.231797 0.433268 0.482824
774 4 0.220465 0.436127 0.46072
636 4 0.167317 0.461922 0.42262
635 4 0.20695 0.445058 0.448027
634 2 0.187134 0.45349 0.435324
669 4 0.317766 0.452201 0.42912
773 4 0.243129 0.430409 0.504929
1400 4 0.377715 0.486033 0.442832
588 4 0.387322 0.422045 0.427771
586 2 0.403783 0.439909 0.433695
587 4 0.420243 0.457774 0.439618
1126 2 0.0135433 0.0599033 0.536381
1127 4 0.0153789 0.0700592 0.513607
1128 4 0.0117076 0.0497474 0.559155
2237 4 0.0198076 0.0139242 0.526735
1058 4 0.124206 0.0419479 0.577159
1057 2 0.134959 0.0640932 0.572785
1059 4 0.145713 0.0862384 0.568411
1030 2 0.24039 0.0790412 0.5796
961 2 0.288899 0.0289509 0.511577
962 4 0.30014 0.00662031 0.511997
432 4 0.288336 0.0667584 0.504734
430 2 0.30831 0.0798031 0.497248
1181 4 0.259986 0.0581322 0.504959
1217 4 0.390941 0.0676226 0.535555
842 4 0.388404 0.0769291 0.517822
1216 2 0.412957 0.074889 0.544919
1218 4 0.434972 0.0821554 0.554283
937 2 0.103658 0.161545 0.547646
1155 4 0.158562 0.0979554 0.577692
1150 2 0.170123 0.103549 0.518996
938 4 0.0903816 0.168674 0.527693
1153 2 0.163702 0.122379 0.579194
939 4 0.116934 0.154417 0.567598
1152 4 0.172735 0.0901115 0.498073
1151 4 0.16751 0.116987 0.53992
1032 4 0.248968 0.100206 0.569419
1154 4 0.168842 0.146802 0.580695
898 2 0.317315 0.167633 0.559695
899 4 0.292842 0.16408 0.556002
857 4 0.253504 0.158145 0.570339
841 2 0.366879 0.0854626 0.508387
3157 2 0.47988 0.149739 0.514703
878 4 0.0647639 0.213196 0.566761
470 4 0.0401832 0.204999 0.520739
1199 4 0.0059052 0.172384 0.553303
469 2 0.0272751 0.194599 0.50202
877 2 0.0860085 0.211636 0.579854
797 4 0.251282 0.214245 0.56251
856 2 0.261543 0.181611 0.567193
796 2 0.257228 0.238212 0.566434
858 4 0.269582 0.205077 0.564046
900 4 0.341788 0.171186 0.563388
871 2 0.383961 0.23333 0.539911
872 4 0.401169 0.216202 0.545882
3159 4 0.492854 0.165251 0.529408
1258 2 0.165286 0.288777 0.523223
1259 4 0.178638 0.306487 0.534767
1260 4 0.151934 0.271068 0.511679
1239 4 0.253753 0.331961 0.586581
798 4 0.263174 0.262179 0.570358
791 4 0.331061 0.257496 0.570609
790 2 0.310618 0.270905 0.575849
792 4 0.290174 0.284313 0.581088
1238 4 0.288526 0.300721 0.568814
1237 2 0.27114 0.316341 0.577698
873 4 0.366752 0.250459 0.53394
813 4 0.356095 0.266493 0.539013
811 2 0.343848 0.279396 0.521443
953 4 0.431981 0.29002 0.589922
9 3 0.165641 0.353576 0.518951
1135 2 0.109981 0.353849 0.584654
897 4 0.144986 0.369677 0.575652
1137 4 0.12696 0.365467 0.570444
895 2 0.166234 0.363385 0.564072
1189 2 0.223588 0.360427 0.532051
896 4 0.187482 0.357093 0.552492
1191 4 0.206223 0.361454 0.550012
1190 4 0.240954 0.3594 0.514091
802 2 0.261432 0.394168 0.512959
803 4 0.253363 0.3727 0.522918
929 4 0.345613 0.399153 0.547051
928 2 0.359615 0.382125 0.558849
930 4 0.373617 0.365098 0.570646
925 2 0.471376 0.407178 0.521556
926 4 0.476659 0.393054 0.5415
383 4 0.0967494 0.423918 0.520814
2244 4 0.130373 0.518433 0.561892
1171 2 0.244728 0.443735 0.540344
1173 4 0.231972 0.461698 0.552168
804 4 0.269501 0.415636 0.503
1172 4 0.257483 0.425772 0.528519
882 4 0.306672 0.437598 0.556975
880 2 0.308732 0.450531 0.535676
881 4 0.310792 0.463465 0.514376
1952 4 0.327817 0.454534 0.583372
1001 4 0.437926 0.42104 0.546529
1000 2 0.439712 0.438501 0.564336
661 2 0.486943 0.481491 0.51671
663 4 0.493112 0.461528 0.530444
1910 4 0.42848 0.466241 0.573538
1909 2 0.430493 0.490026 0.580982
2319 4 0.0638664 0.0118298 0.65645
1185 4 0.0196262 0.0358784 0.648511
1183 2 0.0130849 0.0511676 0.667183
945 4 0.0744947 0.0289098 0.653573
943 2 0.0717598 0.0506013 0.665705
2317 2 0.0441712 0.00111432 0.667515
825 4 0.118902 0.01554 0.621188
951 4 0.234322 0.0500303 0.607381
1031 4 0.231812 0.0578767 0.589782
949 2 0.222813 0.0279279 0.605332
950 4 0.211303 0.00582558 0.603282
1004 4 0.338349 0.0884902 0.671118
2282 4 0.425169 0.014434 0.662932
2281 2 0.44013 0.01108 0.643181
45 3 0.459613 0.0723078 0.650848
43 3 0.433409 0.0491876 0.664863
4467 4 0.458599 0.0130386 0.604444
2283 4 0.455091 0.00772606 0.62343
1082 4 0.0343744 0.116071 0.638176
1081 2 0.0583206 0.110761 0.633321
1083 4 0.0822668 0.105452 0.628466
1283 4 0.149463 0.12148 0.645372
1282 2 0.166063 0.121004 0.664064
1221 4 0.176584 0.142086 0.598649
1219 2 0.18592 0.155863 0.617309
1005 4 0.371825 0.104377 0.637537
1003 2 0.355087 0.0964337 0.654327
810 4 0.468607 0.0821315 0.634054
808 2 0.488764 0.0885582 0.620729
879 4 0.107253 0.210076 0.592947
1272 4 0.109976 0.212591 0.613761
1270 2 0.110852 0.202013 0.6364
1271 4 0.111728 0.191435 0.659039
1212 4 0.203699 0.174853 0.654024
1220 4 0.195255 0.16964 0.63597
1210 2 0.227672 0.181938 0.653513
1211 4 0.251645 0.189024 0.653002
888 4 0.262236 0.195956 0.668854
1193 4 0.354102 0.21198 0.657292
1024 2 0.420726 0.209026 0.648499
1025 4 0.410696 0.189767 0.660895
1026 4 0.430756 0.228286 0.636103
1208 4 0.056698 0.269433 0.650481
1244 4 0.0291259 0.262779 0.625244
1243 2 0.0248812 0.279359 0.643472
1245 4 0.0206364 0.295939 0.6617
1207 2 0.0816725 0.269362 0.649277
1209 4 0.106647 0.269292 0.648074
948 4 0.170863 0.287437 0.605548
946 2 0.190215 0.277489 0.617865
947 4 0.209567 0.26754 0.630182
952 2 0.437653 0.310115 0.603677
954 4 0.443326 0.33021 0.617432
3123 4 0.490859 0.290761 0.65521
3121 2 0.487775 0.270354 0.669324
983 4 0.0108968 0.378934 0.621427
1039 2 0.0464258 0.38716 0.612677
1041 4 0.0279192 0.370638 0.615792
1040 4 0.0649323 0.403683 0.609563
982 2 0.000466448 0.361399 0.635881
993 4 0.0751112 0.411075 0.625027
1136 4 0.0930014 0.342232 0.598863
992 4 0.122581 0.400841 0.636968
991 2 0.0988461 0.405958 0.630998
890 4 0.298767 0.408539 0.620458
1204 2 0.381585 0.366421 0.610402
1206 4 0.387588 0.359527 0.58713
1205 4 0.375581 0.373316 0.633674
806 4 0.35747 0.366395 0.661892
2129 4 0.0250275 0.484927 0.62674
1160 4 0.153292 0.463882 0.58728
1159 2 0.172687 0.462108 0.60296
1161 4 0.192082 0.460335 0.61864
891 4 0.321019 0.436211 0.585247
889 2 0.309893 0.422375 0.602853
1951 2 0.341992 0.475092 0.584632
1953 4 0.356167 0.495651 0.585892
1268 4 0.433662 0.50415 0.647586
1002 4 0.441499 0.455962 0.582143
1269 4 0.480161 0.488452 0.657183
1267 2 0.456911 0.496301 0.652384
1184 4 0.00654365 0.0664568 0.685855
944 4 0.069025 0.0722927 0.677837
1076 4 0.0662256 0.0848286 0.695031
1075 2 0.0680259 0.0693145 0.714556
1077 4 0.0698262 0.0538004 0.734082
41 1 0.452186 0.0619293 0.669709
1163 4 0.488314 0.053594 0.685135
42 3 0.468702 0.0480775 0.67774
44 3 0.447079 0.0777067 0.685939
1105 2 0.0672262 0.16309 0.740454
1284 4 0.182663 0.120529 0.682757
1227 4 0.19771 0.152064 0.692436
1225 2 0.207416 0.138765 0.711254
1226 4 0.217121 0.125466 0.730072
1142 4 0.422382 0.150941 0.706325
1107 4 0.0623552 0.174811 0.718912
851 4 0.0667519 0.194131 0.71774
852 4 0.0283328 0.202305 0.68679
850 2 0.0475424 0.198218 0.702265
1178 4 0.0219107 0.215018 0.674289
1177 2 0.0110465 0.235775 0.683023
909 4 0.176171 0.195991 0.663701
907 2 0.182252 0.181277 0.682982
908 4 0.188332 0.166564 0.702262
829 2 0.32424 0.185074 0.715729
830 4 0.303821 0.1796 0.702378
886 2 0.285275 0.189285 0.675916
887 4 0.308314 0.182615 0.682978
831 4 0.34466 0.190548 0.729081
1192 2 0.361839 0.21387 0.680994
1194 4 0.369577 0.215759 0.704695
1262 4 0.410664 0.246775 0.712111
1143 4 0.427713 0.181633 0.667206
1141 2 0.425047 0.166287 0.686765
3356 4 0.472135 0.223766 0.729015
3355 2 0.486142 0.230624 0.709471
1261 2 0.431552 0.234672 0.718623
3357 4 0.500149 0.237482 0.689928
1263 4 0.452439 0.222569 0.725134
1145 4 0.467547 0.220819 0.748236
3122 4 0.48469 0.249947 0.683439
821 4 0.133609 0.255726 0.750662
1065 4 0.270582 0.303835 0.707271
1064 4 0.264276 0.259142 0.7288
1063 2 0.267429 0.281489 0.718036
1008 4 0.343804 0.277829 0.749443
892 2 0.0581711 0.399551 0.702544
894 4 0.0373729 0.398126 0.716349
3276 4 0.031065 0.404233 0.734815
893 4 0.0789692 0.400977 0.688738
1067 4 0.157915 0.42544 0.686543
1066 2 0.18169 0.419047 0.682182
1068 4 0.205466 0.412654 0.67782
1027 2 0.242505 0.413635 0.679472
1029 4 0.264633 0.406144 0.67056
1139 4 0.281013 0.4054 0.681648
1138 2 0.303128 0.416542 0.68511
807 4 0.366249 0.348395 0.707714
805 2 0.361859 0.357395 0.684803
1018 2 0.369639 0.361848 0.742179
1020 4 0.354786 0.352711 0.72426
1230 4 0.355374 0.422252 0.729926
1281 4 0.0152032 0.460429 0.707125
1279 2 0.0152058 0.438618 0.719351
1983 4 0.0175789 0.479013 0.701419
1981 2 0.0132425 0.499883 0.71449
1280 4 0.0152085 0.416807 0.731577
941 4 0.143283 0.415237 0.695384
2172 4 0.115462 0.480487 0.682175
940 2 0.129878 0.422155 0.715324
942 4 0.116473 0.429072 0.735265
1028 4 0.220377 0.421126 0.688383
1176 4 0.19818 0.498983 0.679297
1174 2 0.215999 0.48607 0.691168
1175 4 0.233818 0.473158 0.70304
1140 4 0.325242 0.427684 0.688571
1987 2 0.324673 0.499379 0.736851
1228 2 0.351354 0.446654 0.733604
1229 4 0.347334 0.471057 0.737283
1989 4 0.343203 0.486803 0.72573
1101 4 0.497424 0.482704 0.668247
1100 4 0.486606 0.452572 0.706663
1099 2 0.492015 0.467638 0.687455
1250 4 0.49242 0.456564 0.748334
3329 4 0.497302 0.455249 0.725897
1203 4 0.0607295 0.0526553 0.751565
1201 2 0.0744774 0.0367656 0.765119
864 4 0.0488579 0.0907288 0.771144
1202 4 0.0882253 0.0208759 0.778672
911 4 0.0992605 0.0580706 0.794742
2049 4 0.100558 0.0135898 0.763644
910 2 0.0922381 0.0771803 0.809257
1149 4 0.23283 0.0875191 0.763716
1048 2 0.316269 0.00326294 0.762038
1256 4 0.31143 0.0688815 0.799982
1050 4 0.315693 0.0191911 0.781303
975 4 0.352301 0.998708 0.823826
846 4 0.457943 0.0178944 0.777257
1113 4 0.448957 0.0314803 0.789094
844 2 0.477438 0.0232212 0.762535
1111 2 0.433917 0.0512605 0.79187
1112 4 0.418876 0.0710406 0.794646
1106 4 0.0720972 0.151369 0.761996
862 2 0.0393563 0.113741 0.773455
863 4 0.0298546 0.136753 0.775766
833 4 0.0142053 0.132955 0.787899
35 3 0.0835237 0.135773 0.770377
912 4 0.0852157 0.0962899 0.823772
33 3 0.11457 0.121621 0.786298
31 1 0.104951 0.140366 0.776577
34 3 0.105233 0.158085 0.791556
32 3 0.117146 0.146173 0.757957
1148 4 0.223507 0.13343 0.746223
1147 2 0.228169 0.110475 0.754969
1130 4 0.226439 0.151594 0.785704
840 4 0.226597 0.12304 0.813725
838 2 0.250589 0.116007 0.813374
1255 2 0.299508 0.0908562 0.799614
1257 4 0.287585 0.112831 0.799246
839 4 0.274581 0.108975 0.813023
958 2 0.302176 0.146314 0.821196
959 4 0.294238 0.131111 0.803002
960 4 0.310115 0.161517 0.83939
817 2 0.367422 0.0782066 0.828512
1084 2 0.351679 0.119271 0.787072
1085 4 0.348083 0.0968543 0.797548
1086 4 0.355276 0.141687 0.776595