ITEM: TIMESTEP
2320000
ITEM: NUMBER OF ATOMS
4590
ITEM: BOX BOUNDS pp pp pp
-9.9985700000000008e+00 9.9985700000000008e+00
-9.9985700000000008e+00 9.9985700000000008e+00
-9.9985700000000008e+00 9.9985700000000008e+00
ITEM: ATOMS id type xs ys zs
463 2 0.057191 0.0548727 0.0160428
3290 4 0.0724874 0.0191427 0.0209709
464 4 0.0685159 0.0340141 0.0081787
465 4 0.045866 0.0757313 0.0239069
1667 4 0.0468055 0.997941 0.0824194
567 4 0.159892 0.0787773 0.0629726
3289 2 0.0917945 0.0127956 0.00640624
565 2 0.16474 0.0559262 0.054056
566 4 0.169588 0.0330751 0.0451394
490 2 0.296237 0.015295 0.0535841
491 4 0.306237 0.00266915 0.0344591
986 4 0.309967 0.0200412 0.0246729
2264 4 0.301245 0.0453303 0.00515846
557 4 0.404809 0.0631181 0.0845393
296 4 0.388574 0.050449 0.0899016
745 2 0.451764 0.0573294 0.0570738
747 4 0.472644 0.0470323 0.0661943
746 4 0.430884 0.0676266 0.0479532
2724 4 0.489511 0.0504841 0.0793956
1826 4 0.50577 0.0388399 0.0886728
701 4 0.0359908 0.0870385 0.0105976
700 2 0.0414814 0.11076 0.00491192
555 4 0.0330574 0.148561 0.00279287
359 4 0.235377 0.14919 0.024378
358 2 0.213911 0.156376 0.0137607
828 4 0.480737 0.183601 0.0140412
836 4 0.0435919 0.257289 0.0129847
422 4 0.0984988 0.21489 0.0491597
421 2 0.101496 0.200484 0.0289443
423 4 0.104493 0.186078 0.00872891
360 4 0.192444 0.163563 0.00314337
737 4 0.174483 0.207743 0.0772875
506 4 0.189152 0.220875 0.0770852
505 2 0.174255 0.240507 0.0728621
666 4 0.323306 0.183826 0.000322052
665 4 0.357581 0.187959 0.0364998
664 2 0.340444 0.185893 0.0184109
1071 4 0.398585 0.251861 0.996267
323 4 0.485242 0.251027 0.0332087
322 2 0.466681 0.254179 0.0496624
324 4 0.448119 0.257331 0.066116
2807 4 0.00942835 0.254932 0.0365985
294 4 0.131423 0.305176 0.0441855
292 2 0.139327 0.288601 0.0611551
456 4 0.11726 0.319221 0.0510018
293 4 0.147231 0.272026 0.0781248
507 4 0.159358 0.260139 0.068639
483 4 0.288645 0.272727 0.00303429
739 2 0.345385 0.32953 0.0759764
254 4 0.384801 0.274243 0.0644124
573 4 0.391812 0.268084 0.00497652
741 4 0.351882 0.321794 0.0531045
630 4 0.402719 0.26636 0.0706665
253 2 0.361875 0.270497 0.0736623
454 2 0.102719 0.339395 0.0484061
455 4 0.0881785 0.359569 0.0458104
608 4 0.263134 0.368415 0.0769503
252 4 0.274707 0.375537 0.0611626
250 2 0.291817 0.383292 0.0446617
251 4 0.308927 0.391047 0.0281608
524 4 0.314509 0.410323 0.0328293
523 2 0.339312 0.413412 0.0335003
226 2 0.388664 0.397061 0.0116772
228 4 0.36615 0.403732 0.0202677
525 4 0.364115 0.416501 0.0341713
670 2 0.405985 0.372888 0.0800141
671 4 0.422265 0.379748 0.06232
281 4 0.442457 0.380774 0.0574087
280 2 0.465262 0.370938 0.054514
282 4 0.488066 0.361102 0.0516193
104 3 0.491597 0.355835 0.0708108
1047 4 0.506663 0.354133 0.0433606
1045 2 0.507659 0.35059 0.0186294
313 2 0.0578329 0.425511 0.0718827
552 4 0.0413433 0.453406 0.0623455
314 4 0.0597575 0.450331 0.0695491
550 2 0.0225256 0.464538 0.0502149
551 4 0.00370779 0.47567 0.0380843
1224 4 0.160766 0.46007 0.98683
243 4 0.222063 0.472493 0.0557883
1440 4 0.214086 0.470249 0.0746383
1290 4 0.232363 0.435579 0.00356996
1583 4 0.46716 0.462832 0.0774568
16 1 0.0464954 0.000469047 0.124656
1422 4 0.0206135 0.0257661 0.143727
2480 4 0.0151988 0.0418554 0.132603
18 3 0.0657126 0.0128007 0.128784
19 3 0.0277732 0.0126115 0.131016
2479 2 0.00886971 0.064767 0.124846
1420 2 0.00845784 0.0171286 0.163797
17 3 0.0451916 0.996052 0.102118
652 2 0.234105 0.0419981 0.150689
654 4 0.243068 0.029729 0.130832
1476 4 0.246021 0.0204294 0.113784
492 4 0.286236 0.0279209 0.072709
1474 2 0.265842 0.0118831 0.101163
485 4 0.346445 0.00175056 0.0940314
297 4 0.364468 0.0068498 0.0855756
295 2 0.376521 0.0286494 0.0877386
556 2 0.419493 0.0805829 0.0947646
236 4 0.140512 0.150061 0.12284
449 4 0.133715 0.137564 0.139134
450 4 0.150079 0.0908246 0.13218
448 2 0.141897 0.114194 0.135657
582 4 0.325368 0.122814 0.167316
558 4 0.434176 0.0980476 0.10499
771 4 0.440406 0.101628 0.123395
769 2 0.435008 0.10548 0.147504
770 4 0.429611 0.109332 0.171612
338 4 0.0307629 0.240254 0.144903
235 2 0.14559 0.1701 0.136905
237 4 0.150668 0.19014 0.15097
361 2 0.12054 0.251017 0.169568
372 4 0.141963 0.215957 0.17139
736 2 0.18954 0.188534 0.0827165
738 4 0.204597 0.169325 0.0881455
354 4 0.222312 0.178239 0.0897061
476 4 0.210546 0.207797 0.160958
477 4 0.248668 0.180329 0.178073
475 2 0.229607 0.194063 0.169515
352 2 0.246445 0.184596 0.0881749
371 4 0.190548 0.212601 0.160034
370 2 0.166255 0.214279 0.165712
279 4 0.243655 0.231689 0.151186
353 4 0.270579 0.190954 0.0866437
461 4 0.290058 0.190452 0.0837472
460 2 0.312951 0.187141 0.0932414
462 4 0.335844 0.183829 0.102736
277 2 0.245644 0.242028 0.128507
624 4 0.428268 0.242851 0.129549
337 2 0.0444038 0.258349 0.155472
395 4 0.0685525 0.292846 0.16157
704 4 0.0197851 0.338711 0.146615
339 4 0.0580447 0.276443 0.16604
363 4 0.116552 0.275674 0.170712
612 4 0.247144 0.311513 0.0986642
755 4 0.334222 0.256097 0.152482
610 2 0.255124 0.287817 0.0984349
611 4 0.263103 0.264122 0.0982055
278 4 0.247634 0.252367 0.105829
754 2 0.338026 0.259625 0.128023
756 4 0.34183 0.263152 0.103564
628 2 0.411128 0.254559 0.0910424
255 4 0.33895 0.266751 0.0829122
629 4 0.419538 0.242757 0.111418
622 2 0.427622 0.256125 0.150729
315 4 0.0559084 0.400691 0.0742162
621 4 0.0613036 0.387035 0.0880634
619 2 0.0692324 0.388578 0.111726
620 4 0.0771613 0.390122 0.135389
647 4 0.108717 0.388667 0.141719
537 4 0.128298 0.387741 0.141523
535 2 0.137276 0.381858 0.118941
536 4 0.146254 0.375974 0.0963589
646 2 0.103516 0.372715 0.160257
609 4 0.253802 0.32883 0.106048
607 2 0.258468 0.348622 0.0914991
386 4 0.326525 0.343086 0.114051
385 2 0.333076 0.365841 0.12208
740 4 0.338888 0.337266 0.0988482
387 4 0.339628 0.388596 0.130109
12 3 0.390148 0.378806 0.111967
11 1 0.38633 0.394393 0.128448
15 3 0.364035 0.398925 0.129467
672 4 0.389705 0.366029 0.0977083
13 3 0.393596 0.385791 0.148737
302 4 0.346386 0.408697 0.130728
14 3 0.398115 0.413725 0.123365
626 4 0.201603 0.439329 0.164525
1438 2 0.219631 0.455824 0.0942941
625 2 0.218958 0.443621 0.147045
1439 4 0.225176 0.441399 0.11395
638 4 0.249654 0.462795 0.130273
637 2 0.249086 0.487778 0.13111
627 4 0.236312 0.447913 0.129564
272 4 0.27103 0.500758 0.0947281
303 4 0.322545 0.439952 0.161638
1559 4 0.346778 0.501402 0.10938
301 2 0.334466 0.424324 0.146183
494 4 0.370862 0.472799 0.105679
495 4 0.384392 0.426052 0.117183
493 2 0.377627 0.449425 0.111431
1584 4 0.448318 0.485362 0.11793
1582 2 0.457739 0.474097 0.0976934
674 4 0.157575 0.0433511 0.242589
653 4 0.225142 0.0542673 0.170546
689 4 0.195719 0.0226372 0.208367
690 4 0.151722 0.0274606 0.231643
688 2 0.173721 0.0250489 0.220005
693 4 0.229888 0.0609402 0.188549
1505 4 0.20682 0.00900373 0.197553
691 2 0.247919 0.0666086 0.204918
692 4 0.265949 0.072277 0.221287
1699 2 0.306447 0.0802874 0.220358
1701 4 0.283879 0.0739072 0.211689
21 1 0.369266 0.0759081 0.223865
25 3 0.372399 0.0785174 0.201459
22 3 0.377123 0.0552557 0.23026
23 3 0.346653 0.0772202 0.228902
333 4 0.394144 0.0806963 0.244466
698 4 0.388918 0.0608992 0.247079
1784 4 0.435333 0.99422 0.175989
511 2 0.00669027 0.148229 0.212822
578 4 0.0418746 0.15367 0.238323
513 4 0.0222415 0.152633 0.2319
318 4 0.0386611 0.0933229 0.253573
28 3 0.226062 0.1365 0.181604
27 3 0.249108 0.132686 0.211048
26 1 0.247349 0.140994 0.18967
29 3 0.250941 0.163911 0.190209
758 4 0.341508 0.132137 0.174795
580 2 0.30267 0.128164 0.176336
581 4 0.279973 0.133514 0.185357
30 3 0.262947 0.130993 0.176429
1700 4 0.329015 0.0866677 0.229027
759 4 0.370818 0.0937401 0.187729
24 3 0.380925 0.0922861 0.23545
757 2 0.356163 0.112939 0.181262
312 4 0.4306 0.126118 0.181623
311 4 0.471234 0.137905 0.208282
310 2 0.450917 0.132012 0.194952
521 4 0.481373 0.14603 0.223922
577 2 0.0387134 0.17629 0.248497
529 2 0.00640361 0.222629 0.237341
530 4 0.0191299 0.210664 0.255231
362 4 0.124528 0.22636 0.168424
396 4 0.0636435 0.322133 0.201806
443 4 0.0637551 0.307293 0.214745
394 2 0.066098 0.30749 0.181688
442 2 0.0504772 0.305106 0.235818
703 2 0.010125 0.33778 0.169659
705 4 0.000464919 0.336849 0.192702
285 4 0.257045 0.24108 0.16282
284 4 0.278789 0.268835 0.198281
283 2 0.267917 0.254958 0.180551
345 4 0.274718 0.313207 0.248071
623 4 0.426975 0.269399 0.171908
527 4 0.439557 0.281421 0.183341
526 2 0.44347 0.294908 0.204028
528 4 0.447382 0.308395 0.224716
264 4 0.0438327 0.426715 0.222498
262 2 0.0301462 0.412227 0.237596
263 4 0.0164597 0.397739 0.252695
2615 4 0.00805043 0.345159 0.208658
299 4 0.101836 0.329546 0.243343
648 4 0.0983147 0.356763 0.178795
300 4 0.102096 0.34847 0.197055
298 2 0.101966 0.339008 0.220199
289 2 0.217501 0.400259 0.243432
597 4 0.389035 0.375122 0.169168
596 4 0.351816 0.341737 0.170147
595 2 0.370425 0.35843 0.169657
645 4 0.398582 0.394069 0.170788
643 2 0.412766 0.403519 0.189083
644 4 0.426951 0.412968 0.207377
447 4 0.412081 0.421089 0.216169
1430 4 0.190072 0.478854 0.178599
417 4 0.201712 0.463007 0.179705
290 4 0.207916 0.413062 0.224213
416 4 0.205029 0.431719 0.218573
415 2 0.203371 0.447363 0.199139
659 4 0.339338 0.451761 0.165424
658 2 0.345563 0.466947 0.184287
660 4 0.351787 0.482134 0.20315
231 4 0.358754 0.493413 0.21786
445 2 0.420076 0.432444 0.236962
232 2 0.03583 0.0228482 0.292503
234 4 0.0280452 0.0463294 0.288869
317 4 0.0151959 0.0595621 0.282038
316 2 0.0269285 0.0764425 0.267805
673 2 0.149959 0.0577647 0.261548
675 4 0.142343 0.0721784 0.280506
1406 4 0.196508 0.00487753 0.299551
1518 4 0.393876 0.0040321 0.283121
697 2 0.39492 0.042314 0.262691
699 4 0.400922 0.0237289 0.278303
425 4 0.415502 0.0274644 0.319746
351 4 0.495671 0.0586183 0.252303
349 2 0.478345 0.0765348 0.250313
424 2 0.438117 0.0340518 0.328133
426 4 0.460732 0.0406392 0.336521
258 4 0.469246 0.056488 0.327989
391 2 0.132241 0.144833 0.320086
392 4 0.146557 0.134931 0.302136
545 4 0.135018 0.143522 0.286828
544 2 0.151079 0.145579 0.267775
546 4 0.167139 0.147636 0.248722
723 4 0.237187 0.102986 0.270248
722 4 0.190496 0.085132 0.268866
721 2 0.213842 0.094059 0.269557
599 4 0.236008 0.117997 0.309929
404 4 0.220501 0.130342 0.30868
598 2 0.2258 0.105796 0.329219
403 2 0.213169 0.149704 0.294661
331 2 0.417863 0.0882888 0.246694
350 4 0.461018 0.0944513 0.248323
256 2 0.471755 0.0796552 0.318925
332 4 0.441581 0.0958814 0.248922
762 4 0.443018 0.155915 0.30741
761 4 0.477899 0.121076 0.315794
760 2 0.460459 0.138496 0.311602
257 4 0.474265 0.102822 0.30986
579 4 0.0355522 0.19891 0.258671
405 4 0.205836 0.169066 0.280642
401 4 0.21957 0.180784 0.271986
400 2 0.226886 0.204464 0.275295
402 4 0.234202 0.228143 0.278605
765 4 0.43666 0.22382 0.323006
764 4 0.478298 0.196823 0.329183
763 2 0.457479 0.210321 0.326094
444 4 0.0371993 0.302919 0.256892
750 4 0.0859999 0.335263 0.254139
734 4 0.157713 0.330418 0.314013
343 2 0.293912 0.313172 0.264096
309 4 0.329428 0.321337 0.288668
344 4 0.313105 0.313138 0.28012
496 2 0.347982 0.284992 0.32621
497 4 0.351242 0.304557 0.310986
541 2 0.449203 0.320535 0.265357
542 4 0.453688 0.308607 0.243845
543 4 0.444719 0.332464 0.286869
2493 4 0.994816 0.354373 0.328596
365 4 0.010296 0.358323 0.315671
366 4 0.0487035 0.32695 0.309245
749 4 0.0665901 0.3317 0.300088
364 2 0.0294997 0.342637 0.312458
748 2 0.076295 0.333482 0.277114
602 4 0.10646 0.390817 0.30428
777 4 0.115013 0.409134 0.306486
735 4 0.176879 0.367358 0.286286
601 2 0.102571 0.385689 0.328441
677 4 0.169766 0.380904 0.299067
733 2 0.167296 0.348888 0.30015
676 2 0.18273 0.401992 0.302592
291 4 0.227087 0.387456 0.262652
412 2 0.249773 0.405457 0.296704
414 4 0.235904 0.400649 0.276463
2 3 0.312759 0.422462 0.324416
613 2 0.406393 0.326118 0.302025
728 4 0.330392 0.40927 0.324348
614 4 0.385627 0.314138 0.309126
307 2 0.344218 0.339236 0.297945
727 2 0.348465 0.392746 0.3193
729 4 0.366538 0.376221 0.314251
308 4 0.359009 0.357135 0.307221
615 4 0.427159 0.338098 0.294923
2924 4 0.486306 0.392661 0.317477
2537 4 0.499852 0.390717 0.299107
118 3 0.501335 0.407991 0.312814
1757 4 0.117377 0.46398 0.281309
776 4 0.131132 0.449137 0.281174
775 2 0.123073 0.429135 0.29383
1756 2 0.1145 0.488544 0.284981
678 4 0.195695 0.423079 0.306117
768 4 0.206209 0.462974 0.275478
766 2 0.201306 0.485588 0.266005
413 4 0.263641 0.410265 0.316946
438 4 0.281438 0.463293 0.256894
1435 2 0.264422 0.468596 0.327458
437 4 0.283901 0.437826 0.29986
436 2 0.282669 0.45056 0.278377
1437 4 0.273387 0.449692 0.313767
5 3 0.276195 0.426089 0.317872
1 1 0.291774 0.42123 0.333757
434 4 0.334022 0.431595 0.328254
433 2 0.346012 0.450683 0.317436
435 4 0.358003 0.469771 0.306617
446 4 0.428071 0.443798 0.257755
714 4 0.431974 0.445253 0.277797
2862 4 0.497198 0.442326 0.267619
120 3 0.492241 0.434651 0.28783
713 4 0.481489 0.451721 0.280467
712 2 0.456732 0.448487 0.279132
428 4 0.0465797 0.0236056 0.329875
427 2 0.0550484 0.00144122 0.337762
605 4 0.124944 0.0709697 0.362206
730 2 0.105712 0.0754723 0.400311
604 2 0.147401 0.0632513 0.354378
606 4 0.169858 0.0555329 0.346549
683 4 0.23799 0.044014 0.375109
682 2 0.247297 0.0384843 0.35257
321 4 0.241695 0.0453128 0.393241
319 2 0.23692 0.0595716 0.413218
684 4 0.256604 0.0329545 0.330032
249 4 0.308299 0.0568143 0.34368
247 2 0.332976 0.060495 0.345311
248 4 0.357654 0.0641758 0.346943
633 4 0.375342 0.0720009 0.355204
631 2 0.384395 0.086335 0.373583
1749 4 0.492737 0.996444 0.351302
480 4 0.500328 0.0145821 0.350631
732 4 0.121949 0.0747527 0.381311
393 4 0.117926 0.154735 0.338035
399 4 0.106141 0.140629 0.345897
398 4 0.110528 0.110923 0.385885
397 2 0.108334 0.125776 0.365891
686 4 0.212544 0.121866 0.409885
600 4 0.215592 0.0935948 0.348509
685 2 0.209036 0.113067 0.386745
687 4 0.205529 0.104267 0.363605
410 4 0.228727 0.131763 0.415959
632 4 0.393447 0.100669 0.391961
420 4 0.384429 0.118662 0.38601
468 4 0.393764 0.0945902 0.411228
418 2 0.380607 0.143133 0.38944
419 4 0.376785 0.167603 0.39287
515 4 0.457085 0.173121 0.39013
2654 4 0.0142703 0.255654 0.393175
390 4 0.0812038 0.219534 0.389403
470 4 0.0700534 0.213559 0.40388
617 4 0.067095 0.23245 0.410908
388 2 0.101994 0.228669 0.37894
389 4 0.122784 0.237805 0.368476
276 4 0.128879 0.253916 0.377617
473 4 0.200591 0.194983 0.327593
474 4 0.176149 0.233447 0.348181
472 2 0.18837 0.214215 0.337887
708 4 0.210433 0.189599 0.34467
706 2 0.227031 0.178035 0.359365
651 4 0.22514 0.236139 0.40625
649 2 0.23108 0.211967 0.40862
707 4 0.24363 0.166471 0.374061
650 4 0.23702 0.187796 0.41099
377 4 0.342512 0.244955 0.396088
717 4 0.343071 0.22609 0.402868
716 4 0.373014 0.186046 0.402084
715 2 0.358042 0.206068 0.402476
268 2 0.499088 0.237657 0.359903
270 4 0.484359 0.254024 0.371751
618 4 0.0332762 0.261124 0.387782
616 2 0.0501856 0.246787 0.399345
274 2 0.149287 0.253398 0.36318
275 4 0.169696 0.252879 0.348744
374 4 0.226143 0.331552 0.340476
489 4 0.21783 0.248909 0.419536
510 4 0.234297 0.33362 0.358313
487 2 0.229155 0.27025 0.413092
488 4 0.240479 0.291591 0.406649
508 2 0.236627 0.313414 0.372855
509 4 0.238957 0.293208 0.387397
378 4 0.330202 0.267987 0.353442
376 2 0.336357 0.256471 0.374765
498 4 0.344722 0.265428 0.341434
265 2 0.341053 0.315239 0.373647
266 4 0.360834 0.309102 0.387655
585 4 0.378275 0.300147 0.389125
583 2 0.38744 0.281891 0.403543
267 4 0.321273 0.321376 0.359638
304 2 0.49229 0.276087 0.405967
306 4 0.486221 0.269932 0.382505
547 2 0.0856746 0.409289 0.374979
549 4 0.0938932 0.386058 0.370741
603 4 0.0986823 0.380561 0.352603
373 2 0.225247 0.356533 0.341065
502 2 0.204648 0.414942 0.363549
504 4 0.214465 0.39632 0.350057
375 4 0.22435 0.381513 0.341654
503 4 0.194832 0.433565 0.37704
3 3 0.288408 0.39974 0.341835
2923 2 0.474149 0.375209 0.330622
2925 4 0.461992 0.357756 0.343767
680 4 0.999667 0.466076 0.406718
548 4 0.077456 0.43252 0.379217
407 4 0.0659429 0.445769 0.388876
406 2 0.0443105 0.450227 0.400595
408 4 0.022678 0.454685 0.412314
569 4 0.0938978 0.459685 0.39883
568 2 0.111923 0.446743 0.410353
1543 2 0.225566 0.497362 0.358451
1436 4 0.255456 0.4875 0.341149
635 4 0.180345 0.469528 0.428656
636 4 0.184189 0.434071 0.393602
634 2 0.182267 0.451799 0.411129
1545 4 0.250411 0.494824 0.359676
1401 4 0.337394 0.464043 0.400491
668 4 0.306812 0.439625 0.361485
4 3 0.290392 0.436535 0.351143
667 2 0.324987 0.436776 0.378418
669 4 0.343162 0.433927 0.395351
336 4 0.345731 0.44799 0.409504
119 3 0.493205 0.443237 0.324477
593 4 0.468393 0.492206 0.371343
752 4 0.479505 0.416294 0.382998
561 4 0.480709 0.411117 0.402172
753 4 0.499797 0.435066 0.341326
751 2 0.489651 0.42568 0.362162
718 2 0.0332983 0.0506438 0.485588
719 4 0.057251 0.0485529 0.478727
369 4 0.0729131 0.0618697 0.485304
367 2 0.0811503 0.0675278 0.462384
720 4 0.00934565 0.0527347 0.492449
731 4 0.0894739 0.076192 0.419311
368 4 0.0893875 0.073186 0.439464
441 4 0.19162 0.99958 0.446914
2430 4 0.191421 0.0648968 0.422228
2428 2 0.190013 0.0418352 0.431786
2429 4 0.188604 0.0187736 0.441344
341 4 0.19361 0.0828062 0.433197
320 4 0.232145 0.0738304 0.433194
725 4 0.23849 0.0695504 0.451098
724 2 0.260282 0.0774847 0.460445
430 2 0.302605 0.0736435 0.496577
432 4 0.279228 0.075134 0.487834
726 4 0.282073 0.0854191 0.469792
2879 4 0.440942 0.00765846 0.425187
2878 2 0.447728 0.0186776 0.446581
2880 4 0.454514 0.0296968 0.467975
642 4 0.463514 0.0441041 0.477357
640 2 0.476195 0.0648133 0.471399
2586 4 0.00772941 0.109074 0.457769
938 4 0.116878 0.170601 0.495669
409 2 0.239606 0.153957 0.41973
340 2 0.197563 0.0934317 0.455483
1152 4 0.204847 0.118111 0.491545
342 4 0.201516 0.104057 0.477769
1150 2 0.189181 0.131926 0.505289
467 4 0.364267 0.0999397 0.451253
466 2 0.379016 0.0972649 0.431241
576 4 0.406774 0.138727 0.483456
641 4 0.488876 0.0855224 0.46544
514 2 0.456843 0.164273 0.413514
574 2 0.422874 0.145661 0.465627
575 4 0.438974 0.152595 0.447798
469 2 0.0753976 0.197662 0.422424
260 4 0.0787446 0.167453 0.455323
471 4 0.0807418 0.181765 0.440969
261 4 0.0971996 0.176078 0.500993
259 2 0.0879721 0.171766 0.478158
411 4 0.250485 0.176152 0.423501
516 4 0.4566 0.155425 0.436899
695 4 0.116286 0.280872 0.45422
694 2 0.130399 0.299212 0.444753
696 4 0.144512 0.317553 0.435286
1260 4 0.163708 0.317884 0.428877
1258 2 0.18836 0.32089 0.431781
1259 4 0.213011 0.323897 0.434686
584 4 0.396604 0.263634 0.417962
2456 4 0.410227 0.249769 0.415817
2455 2 0.431563 0.255066 0.427728
2457 4 0.452899 0.260364 0.43964
326 4 0.0791021 0.403327 0.453898
325 2 0.0929339 0.382498 0.454041
10 3 0.155562 0.35709 0.463528
709 2 0.138497 0.415002 0.457737
7 3 0.119241 0.348575 0.462457
327 4 0.106766 0.361669 0.454184
6 1 0.136051 0.357669 0.475259
8 3 0.13054 0.379618 0.480381
9 3 0.138168 0.345275 0.494761
711 4 0.140316 0.395288 0.473008
238 2 0.348579 0.410088 0.490251
240 4 0.354028 0.41175 0.465905
2508 4 0.488729 0.365544 0.452699
559 2 0.483608 0.396461 0.422221
1382 4 0.0316772 0.466711 0.47209
1381 2 0.0202176 0.466965 0.449869
540 4 0.0459193 0.454742 0.478874
1383 4 0.00875794 0.467219 0.427648
710 4 0.136679 0.434716 0.442465
382 2 0.151628 0.498258 0.499563
774 4 0.168374 0.483403 0.421656
570 4 0.129948 0.433801 0.421876
772 2 0.152976 0.491361 0.439677
1399 2 0.33037 0.482228 0.416149
1400 4 0.323347 0.500412 0.431807
335 4 0.344829 0.417895 0.449432
334 2 0.34528 0.432943 0.429468
951 4 0.185511 0.0667451 0.548422
1031 4 0.176349 0.0614737 0.565355
949 2 0.208697 0.0691694 0.539383
1182 4 0.249898 0.0646922 0.523665
950 4 0.231884 0.0715937 0.530344
961 2 0.315702 0.0266047 0.550826
1180 2 0.265347 0.0461426 0.530179
963 4 0.297503 0.0393413 0.539349
1181 4 0.280796 0.027593 0.536692
431 4 0.325983 0.072153 0.50532
962 4 0.333902 0.0138681 0.562303
842 4 0.38702 0.0653022 0.498584
1217 4 0.397161 0.0710571 0.515093
841 2 0.363071 0.0716877 0.495291
843 4 0.339122 0.0780732 0.491997
1032 4 0.141467 0.0941088 0.580149
1030 2 0.158908 0.0777913 0.572752
939 4 0.15824 0.158834 0.521192
937 2 0.137559 0.164718 0.50843
1151 4 0.173515 0.145742 0.519032
898 2 0.345085 0.163963 0.577257
1216 2 0.415348 0.0860965 0.523354
1218 4 0.433534 0.101136 0.531615
1035 4 0.0675562 0.17316 0.558679
1082 4 0.0708965 0.184905 0.575256
1033 2 0.07896 0.179918 0.537479
1034 4 0.0903638 0.186676 0.516278
877 2 0.0858015 0.239256 0.576037
1272 4 0.1141 0.219884 0.581517
811 2 0.312112 0.220787 0.535316
812 4 0.288919 0.218919 0.544468
796 2 0.273601 0.19994 0.580751
798 4 0.27817 0.214426 0.560889
813 4 0.335305 0.222655 0.526164
900 4 0.359453 0.175142 0.560117
872 4 0.371415 0.184059 0.548167
873 4 0.355361 0.228273 0.531193
871 2 0.363388 0.206166 0.53968
878 4 0.0769333 0.260577 0.566448
896 4 0.199045 0.334782 0.525774
1191 4 0.217376 0.328657 0.532555
1189 2 0.240402 0.334678 0.524891
1239 4 0.261712 0.313569 0.581077
1205 4 0.393409 0.289925 0.554689
1204 2 0.380197 0.308871 0.564262
954 4 0.412702 0.298755 0.557728
952 2 0.432582 0.289091 0.569415
1137 4 0.175309 0.379953 0.555374
897 4 0.184146 0.381099 0.537328
895 2 0.191595 0.357941 0.531551
1135 2 0.170353 0.395473 0.574341
1190 4 0.263428 0.340699 0.517227
803 4 0.277652 0.342913 0.502392
802 2 0.299095 0.3473 0.514482
804 4 0.320538 0.351687 0.526571
929 4 0.314288 0.361068 0.543074
239 4 0.34313 0.408426 0.514596
928 2 0.333484 0.351313 0.555783
930 4 0.35268 0.341558 0.568493
1000 2 0.463002 0.413891 0.567663
539 4 0.0464165 0.484508 0.519054
936 4 0.0257482 0.478248 0.538902
1938 4 0.0450692 0.48762 0.539025
1936 2 0.0542842 0.508136 0.549949
934 2 0.00370964 0.474379 0.55006
538 2 0.0461679 0.469625 0.498964
383 4 0.161573 0.501293 0.522302
2244 4 0.153308 0.484766 0.532732
2242 2 0.162243 0.488036 0.555854
2243 4 0.171178 0.491307 0.578976
1172 4 0.260393 0.447098 0.561852
882 4 0.261242 0.465396 0.552748
880 2 0.272458 0.480876 0.536632
1001 4 0.481429 0.414281 0.550766
1057 2 0.083545 0.0379334 0.60861
1185 4 0.0259748 0.0700826 0.657901
945 4 0.0455691 0.076046 0.655711
825 4 0.0527223 0.0241815 0.637085
1058 4 0.0691502 0.0267409 0.625719
823 2 0.0590884 0.00768501 0.654763
1059 4 0.0979397 0.0491259 0.591502
1155 4 0.0999634 0.0669944 0.601196
1003 2 0.302567 0.0734112 0.649288
1004 4 0.32224 0.0683164 0.634721
1005 4 0.282895 0.0785059 0.663856
2282 4 0.45941 0.0332055 0.633974
2281 2 0.449675 0.0192311 0.615668
43 3 0.456653 0.039447 0.653489
41 1 0.473924 0.0549246 0.654243
44 3 0.465255 0.0764278 0.655174
45 3 0.487179 0.0526786 0.635861
1081 2 0.0512752 0.172862 0.585011
1199 4 0.0213646 0.144144 0.599891
1083 4 0.031654 0.16082 0.594766
1198 2 0.9997 0.144918 0.587432
1153 2 0.107052 0.0880316 0.612701
1154 4 0.11414 0.109069 0.624207
1221 4 0.131037 0.116677 0.62356
1219 2 0.149604 0.114551 0.640171
1220 4 0.168171 0.112426 0.656782
1212 4 0.238189 0.142381 0.628328
1210 2 0.257194 0.147752 0.643662
856 2 0.299883 0.154944 0.606014
857 4 0.318818 0.138887 0.603044
1211 4 0.276199 0.153123 0.658997
858 4 0.280948 0.171001 0.608983
899 4 0.330717 0.152783 0.594396
879 4 0.0946697 0.217935 0.585625
1270 2 0.13338 0.205438 0.588209
1271 4 0.152659 0.190993 0.594902
909 4 0.165372 0.192639 0.610744
907 2 0.171164 0.206187 0.630945
908 4 0.176956 0.219735 0.651146
947 4 0.171597 0.239827 0.652991
797 4 0.269031 0.185455 0.600612
1025 4 0.381322 0.190104 0.644534
1024 2 0.379303 0.214901 0.642045
1143 4 0.368786 0.187422 0.661996
1026 4 0.377285 0.239699 0.639556
904 2 0.447443 0.249103 0.605929
906 4 0.448746 0.224956 0.612285
946 2 0.186603 0.255172 0.665818
1237 2 0.279933 0.307757 0.597183
792 4 0.305808 0.295849 0.631523
791 4 0.321688 0.339575 0.649868
790 2 0.313748 0.317712 0.640695
1238 4 0.298154 0.301946 0.613289
1206 4 0.366985 0.327818 0.573835
905 4 0.44614 0.27325 0.599573
953 4 0.452462 0.279427 0.581101
983 4 0.0343878 0.401173 0.635071
1041 4 0.0534844 0.396138 0.63073
1039 2 0.0761528 0.40663 0.629618
982 2 0.010133 0.396607 0.639076
1040 4 0.0988212 0.417122 0.628506
1136 4 0.165397 0.410992 0.593309
1002 4 0.444576 0.4135 0.58456
3330 4 0.486336 0.417357 0.652616
993 4 0.115097 0.423813 0.638409
992 4 0.153262 0.411646 0.608474
991 2 0.134179 0.41773 0.623441
1161 4 0.18458 0.496743 0.593917
1160 4 0.229028 0.477736 0.606717
1159 2 0.206804 0.487239 0.600317
1175 4 0.230236 0.470264 0.624975
1174 2 0.24955 0.482656 0.634904
1171 2 0.25904 0.454753 0.585617
1173 4 0.257688 0.462408 0.609381
1176 4 0.268864 0.495048 0.644833
889 2 0.343597 0.474125 0.644115
891 4 0.349074 0.481683 0.620919
1952 4 0.349602 0.482671 0.601878
1911 4 0.442619 0.464165 0.629671
1910 4 0.444014 0.422267 0.602407
1909 2 0.443316 0.443216 0.616039
3328 2 0.493133 0.430216 0.632278
3183 4 0.500523 0.41948 0.666337
1268 4 0.429302 0.477717 0.636256
1267 2 0.432355 0.487328 0.659136
3329 4 0.499931 0.443074 0.61194
943 2 0.0489997 0.0742586 0.680413
944 4 0.0524304 0.0724713 0.705116
1075 2 0.0501109 0.0541297 0.735708
1076 4 0.0454213 0.0755071 0.723617
831 4 0.333561 0.0650202 0.733622
42 3 0.486478 0.0511435 0.673144
1163 4 0.496122 0.0499227 0.690877
1283 4 0.156556 0.118638 0.673934
32 3 0.0944281 0.128875 0.763873
1282 2 0.159878 0.116852 0.698652
1284 4 0.163201 0.115066 0.723369
1227 4 0.176833 0.12865 0.726421
1225 2 0.19238 0.128431 0.746002
888 4 0.291448 0.148747 0.671591
886 2 0.30636 0.130902 0.680777
887 4 0.321272 0.113057 0.689963
830 4 0.335165 0.103296 0.701481
829 2 0.334363 0.0841582 0.717552
1107 4 0.0244848 0.189169 0.735925
851 4 0.0219033 0.197975 0.71792
850 2 0.0059367 0.217198 0.718769
822 4 0.136141 0.228985 0.689264
1278 4 0.148163 0.223178 0.704801
820 2 0.11164 0.229145 0.684279
821 4 0.0871387 0.229305 0.679295
1276 2 0.165203 0.217523 0.722203
1277 4 0.182243 0.211867 0.739605
1131 4 0.188627 0.194548 0.733435
916 2 0.306873 0.21178 0.721575
918 4 0.310122 0.189926 0.73328
917 4 0.303624 0.233635 0.70987
1142 4 0.325712 0.176466 0.684915
1008 4 0.331828 0.234496 0.744288
1097 4 0.287251 0.248034 0.71219
977 4 0.309164 0.17027 0.736657
1141 2 0.347249 0.181944 0.673456
1194 4 0.394393 0.239314 0.730388
3122 4 0.488157 0.224498 0.670236
1262 4 0.408809 0.231595 0.742071
3123 4 0.441535 0.213177 0.68434
3121 2 0.464846 0.218838 0.677288
1261 2 0.426351 0.213778 0.742038
1263 4 0.443894 0.195961 0.742004
1145 4 0.462579 0.194488 0.749585
1209 4 0.040999 0.269814 0.705342
1207 2 0.0572459 0.251965 0.698815
1208 4 0.0734928 0.234115 0.692288
948 4 0.201609 0.270516 0.678645
1065 4 0.218386 0.27991 0.67504
1064 4 0.223897 0.326239 0.69304
1063 2 0.221141 0.303074 0.68404
1098 4 0.265467 0.261362 0.755185
1096 2 0.276359 0.254698 0.733687
1192 2 0.401021 0.262774 0.735948
893 4 0.0800022 0.322257 0.664553
1279 2 0.0908312 0.403754 0.702544
892 2 0.0844535 0.346395 0.669321
894 4 0.0889048 0.370533 0.67409
1281 4 0.0836944 0.387146 0.685269
940 2 0.156043 0.401031 0.72233
942 4 0.154668 0.41016 0.745567
941 4 0.157418 0.391901 0.699094
1067 4 0.170886 0.404401 0.692022
1028 4 0.223453 0.412952 0.665613
1029 4 0.266782 0.38954 0.674284
1027 2 0.245118 0.401246 0.669948
1139 4 0.27894 0.404737 0.680541
1983 4 0.0289444 0.503646 0.70889
1280 4 0.097968 0.420362 0.719819
1066 2 0.191921 0.415501 0.684311
1068 4 0.212957 0.426602 0.6766
1138 2 0.288212 0.420861 0.697252
1140 4 0.297483 0.436984 0.713963
1989 4 0.299584 0.455791 0.717904
1987 2 0.312233 0.462517 0.738396
1230 4 0.383368 0.414961 0.706243
890 4 0.338121 0.466567 0.667311
1228 2 0.36384 0.419041 0.69117
1229 4 0.344312 0.423122 0.676098
1100 4 0.456458 0.486 0.732694
1099 2 0.46312 0.502491 0.71512
1250 4 0.452291 0.48611 0.752051
1077 4 0.0548005 0.0327523 0.747799
1203 4 0.0731565 0.0360269 0.753198
864 4 0.0333277 0.0716235 0.835272
1201 2 0.095881 0.0322866 0.762934
2049 4 0.135718 0.0182224 0.771857
1202 4 0.118606 0.0285462 0.772669
1148 4 0.175329 0.0652222 0.785732
1147 2 0.198854 0.0604805 0.778713
1149 4 0.222379 0.0557388 0.771695
1049 4 0.232327 0.0443094 0.785154
1048 2 0.249174 0.0432396 0.803599
1050 4 0.266022 0.0421699 0.822043
817 2 0.366345 0.0768766 0.806647
818 4 0.363073 0.0607363 0.825461
846 4 0.483741 0.0273513 0.767881
1113 4 0.474114 0.0104276 0.770418
844 2 0.498176 0.0477641 0.767521
832 2 0.0377896 0.138339 0.790698
863 4 0.0225551 0.104058 0.798766
833 4 0.0237655 0.124443 0.806041
33 3 0.0692302 0.148755 0.783432
834 4 0.0518137 0.152235 0.775355
862 2 0.0279414 0.0878406 0.817019
1106 4 0.0588912 0.159506 0.75683
31 1 0.0858295 0.14994 0.767262
34 3 0.102887 0.163941 0.774432
1226 4 0.207927 0.128213 0.765584
1130 4 0.208145 0.172446 0.773824
840 4 0.200337 0.139486 0.780399
838 2 0.216739 0.136529 0.799037
839 4 0.233142 0.133573 0.817676
959 4 0.246563 0.142567 0.82945
978 4 0.30471 0.139675 0.775962
958 2 0.2612 0.124372 0.838388
960 4 0.275837 0.106177 0.847327
819 4 0.369617 0.0930169 0.787833
1084 2 0.372397 0.135298 0.775849
1085 4 0.366466 0.111985 0.782665
1086 4 0.378329 0.158612 0.769033
3268 2 0.486464 0.15338 0.813096
3270 4 0.476047 0.145607 0.791736
1146 4 0.46648 0.153042 0.777293
1105 2 0.041688 0.174338 0.746378
35 3 0.0770973 0.157711 0.747717
778 2 0.0516319 0.222183 0.802561
779 4 0.0311236 0.225754 0.78871
780 4 0.0721402 0.218612 0.816411
1214 4 0.029581 0.245839 0.790183
1073 4 0.109965 0.181232 0.777543
1072 2 0.13407 0.187847 0.778123
1074 4 0.158176 0.194463 0.778704
869 4 0.0866951 0.209014 0.826896
1129 2 0.198386 0.183497 0.753629
976 2 0.306937 0.154973 0.756309
1299 4 0.390737 0.175022 0.771373
1006 2 0.338878 0.251432 0.761279
1297 2 0.388625 0.18467 0.794343
1298 4 0.386514 0.194318 0.817314
47 3 0.400314 0.207472 0.824588
49 3 0.40702 0.244269 0.828284
1144 2 0.464529 0.173765 0.763439
1213 2 0.00665382 0.254 0.79592
1241 4 0.248629 0.273299 0.759432
1240 2 0.228931 0.287383 0.753204
1242 4 0.209233 0.301468 0.746975
801 4 0.316049 0.337684 0.827537
1166 4 0.415865 0.258704 0.812386
1043 4 0.395211 0.261286 0.817783
1042 2 0.376561 0.256924 0.80171
1007 4 0.345928 0.268367 0.778269
1044 4 0.357911 0.252561 0.785637
1193 4 0.407649 0.286233 0.741507
806 4 0.417298 0.333359 0.765551
805 2 0.392949 0.336986 0.761174
1167 4 0.462037 0.241179 0.80453
1165 2 0.438951 0.249941 0.808458
1306 2 0.491027 0.27447 0.812689
1307 4 0.473037 0.2583 0.806358
848 4 0.00500142 0.389677 0.828868