ITEM: TIMESTEP
680000
ITEM: NUMBER OF ATOMS
4590
ITEM: BOX BOUNDS pp pp pp
-9.9985700000000008e+00 9.9985700000000008e+00
-9.9985700000000008e+00 9.9985700000000008e+00
-9.9985700000000008e+00 9.9985700000000008e+00
ITEM: ATOMS id type xs ys zs
463 2 0.0223618 0.0584089 0.0479688
465 4 0.0185224 0.0709394 0.0692626
464 4 0.0262011 0.0458784 0.0266751
3290 4 0.0448378 0.0440405 0.0197815
591 4 0.0333667 0.0840628 0.0635307
3289 2 0.0423117 0.0226778 0.00703659
1476 4 0.192608 0.026005 0.0495216
1474 2 0.214533 0.014033 0.0484653
567 4 0.180907 0.094606 0.0539204
490 2 0.269501 0.0196339 0.0232932
491 4 0.285257 0.0315065 0.00793108
492 4 0.253746 0.00776117 0.0386553
745 2 0.456659 0.0609253 0.0255021
1826 4 0.463399 0.0157953 0.0652269
746 4 0.444561 0.0659123 0.0468085
1825 2 0.48256 0.999822 0.0635252
747 4 0.468756 0.0559384 0.00419577
701 4 0.0641514 0.129488 0.0118132
700 2 0.0780139 0.118349 0.0293901
589 2 0.0478506 0.10245 0.0723226
590 4 0.0623346 0.120838 0.0811145
423 4 0.0722508 0.14878 0.0103546
3234 4 0.0633325 0.112722 0.997991
702 4 0.0918764 0.107211 0.0469671
565 2 0.180719 0.112281 0.0716052
358 2 0.280077 0.14162 0.0106668
359 4 0.301321 0.154394 0.007399
556 2 0.369788 0.105748 0.0701346
558 4 0.359587 0.124792 0.057547
421 2 0.0687685 0.173407 0.0129164
553 2 0.049714 0.215871 0.0456105
554 4 0.038434 0.21597 0.0679248
422 4 0.0652863 0.198034 0.0154782
555 4 0.060994 0.215772 0.0232961
506 4 0.176845 0.238793 0.0790594
1133 4 0.221162 0.187367 0.0149385
505 2 0.170497 0.25566 0.0617277
738 4 0.222805 0.203893 0.0851848
1132 2 0.217464 0.191333 0.99053
353 4 0.287809 0.228073 0.0790439
352 2 0.264134 0.221222 0.0832552
461 4 0.302164 0.212331 0.0802749
665 4 0.384003 0.204984 0.00390126
1069 2 0.382306 0.240675 0.0179055
324 4 0.412793 0.235779 0.0751338
573 4 0.349482 0.257349 0.0341733
1071 4 0.357888 0.243349 0.0225749
828 4 0.436316 0.190804 0.00395082
770 4 0.45094 0.17625 0.0590705
771 4 0.49193 0.186443 0.0322993
769 2 0.471435 0.181346 0.0456849
1014 4 0.468295 0.21113 0.00675555
292 2 0.153153 0.29892 0.0298342
294 4 0.134058 0.315053 0.0303808
456 4 0.129117 0.32957 0.0431221
293 4 0.172248 0.282787 0.0292876
507 4 0.164148 0.272527 0.0443959
481 2 0.236407 0.280295 0.0440542
482 4 0.231638 0.303266 0.0527014
483 4 0.241175 0.257324 0.0354071
572 4 0.354103 0.293579 0.0683315
571 2 0.351793 0.275464 0.0512524
281 4 0.436671 0.334357 0.0666401
671 4 0.42437 0.341788 0.0794626
328 2 0.0210698 0.393994 0.00582426
330 4 0.00362251 0.410773 0.999561
315 4 0.025749 0.407244 0.0753561
1168 2 0.0435844 0.342888 0.0136252
1169 4 0.0520622 0.365716 0.019297
329 4 0.0385172 0.377215 0.0120874
454 2 0.135671 0.340446 0.0646611
287 4 0.147603 0.366531 0.00103826
252 4 0.293231 0.379112 0.0656569
250 2 0.279757 0.394881 0.0516942
251 4 0.266282 0.41065 0.0377314
608 4 0.30559 0.371501 0.078769
280 2 0.461355 0.33046 0.0674685
282 4 0.486039 0.326563 0.0682968
227 4 0.476142 0.405727 0.0325871
1047 4 0.495142 0.347929 0.0141109
551 4 0.059081 0.466094 0.0674401
313 2 0.0164074 0.429549 0.0690006
314 4 0.00706582 0.451854 0.0626452
550 2 0.0791894 0.480567 0.0640671
552 4 0.0992978 0.495039 0.0606941
244 2 0.215975 0.474811 0.00851958
246 4 0.238579 0.481908 0.0165127
272 4 0.245682 0.474922 0.0336641
271 2 0.263837 0.491735 0.0300705
226 2 0.471215 0.425198 0.0176942
228 4 0.466288 0.444668 0.0028013
563 4 0.464228 0.498055 0.0351729
19 3 0.0457183 0.0253168 0.15693
20 3 0.055217 0.0298494 0.120779
1422 4 0.0305577 0.0090916 0.150427
16 1 0.0553153 0.0395968 0.141361
17 3 0.0430777 0.0590593 0.140586
1666 2 0.0620768 0.0470104 0.0844064
1668 4 0.0581023 0.0223405 0.0852875
18 3 0.0770774 0.0446638 0.147617
1667 4 0.0660512 0.0716804 0.0835254
450 4 0.168564 0.0585045 0.183578
652 2 0.30209 0.0711485 0.132158
654 4 0.303233 0.0715386 0.107183
653 4 0.300947 0.0707583 0.157132
582 4 0.292964 0.0848527 0.169742
296 4 0.376395 0.0673736 0.0879114
557 4 0.379988 0.0867033 0.0827222
295 2 0.374464 0.0458955 0.100566
297 4 0.372533 0.0244173 0.113221
485 4 0.376775 0.0112263 0.128394
484 2 0.356444 0.00248953 0.140033
758 4 0.405087 0.0440937 0.149161
1759 2 0.465687 0.0156931 0.155993
1760 4 0.488416 0.0257051 0.158882
566 4 0.180531 0.129955 0.08929
477 4 0.124539 0.154371 0.138972
339 4 0.0735633 0.226933 0.119177
337 2 0.0728622 0.238656 0.14125
476 4 0.159355 0.184552 0.158404
475 2 0.141947 0.169461 0.148688
354 4 0.240459 0.214372 0.0874666
737 4 0.174339 0.214971 0.0905738
736 2 0.198572 0.209432 0.0878793
460 2 0.315084 0.203686 0.099859
462 4 0.328003 0.195041 0.119443
255 4 0.344156 0.183124 0.119557
254 4 0.386957 0.18319 0.145419
630 4 0.400462 0.188961 0.132385
253 2 0.365557 0.183157 0.132488
628 2 0.410951 0.210622 0.125606
624 4 0.405099 0.24383 0.115595
629 4 0.421439 0.232283 0.118826
2590 2 0.494495 0.218009 0.159509
2591 4 0.48313 0.195757 0.160453
2592 4 0.50586 0.24026 0.158566
338 4 0.0721611 0.25038 0.163324
611 4 0.23822 0.3184 0.146788
277 2 0.252171 0.268731 0.160573
756 4 0.297037 0.302489 0.0969681
754 2 0.288729 0.284503 0.112222
755 4 0.28042 0.266518 0.127476
278 4 0.26567 0.259772 0.141529
741 4 0.361341 0.310227 0.0782603
622 2 0.393028 0.263807 0.124561
623 4 0.380957 0.283784 0.133527
739 2 0.355683 0.330974 0.0910166
322 2 0.427721 0.255704 0.0728286
323 4 0.442649 0.27563 0.0705234
527 4 0.465817 0.280805 0.156968
526 2 0.453133 0.273397 0.177202
621 4 0.0303115 0.40253 0.0935104
619 2 0.0343472 0.381203 0.105921
620 4 0.0383829 0.359875 0.118331
647 4 0.0641437 0.362293 0.141602
646 2 0.0748611 0.370466 0.162662
455 4 0.142226 0.351322 0.0862
537 4 0.16595 0.397058 0.1497
535 2 0.175956 0.376231 0.159255
626 4 0.20138 0.409929 0.119347
609 4 0.276891 0.361937 0.118589
607 2 0.29124 0.366719 0.0986789
612 4 0.258164 0.35742 0.122696
610 2 0.248192 0.33791 0.134742
387 4 0.332104 0.384581 0.157967
385 2 0.335808 0.36745 0.140135
740 4 0.350025 0.351721 0.103773
15 3 0.408756 0.345208 0.169392
386 4 0.339513 0.350319 0.122303
495 4 0.399757 0.399368 0.155909
14 3 0.398427 0.378365 0.154847
672 4 0.401966 0.345842 0.123986
493 2 0.409101 0.414502 0.138335
11 1 0.414846 0.361974 0.155234
670 2 0.413168 0.343815 0.101724
12 3 0.41734 0.353444 0.134017
13 3 0.435039 0.371149 0.162051
625 2 0.203276 0.434775 0.121419
627 4 0.205172 0.45962 0.123492
1438 2 0.232705 0.500375 0.114188
639 4 0.240045 0.476668 0.147774
1439 4 0.235546 0.494148 0.138237
523 2 0.337337 0.482059 0.115126
525 4 0.355827 0.484947 0.131707
659 4 0.382153 0.451624 0.161769
524 4 0.318846 0.47917 0.0985451
494 4 0.418446 0.429636 0.120762
2480 4 0.0226957 0.0291026 0.158752
2479 2 0.997989 0.0306476 0.155233
690 4 0.147797 0.0255807 0.238722
674 4 0.14716 0.0439843 0.247823
1505 4 0.20373 0.00752095 0.200102
1504 2 0.207483 0.999385 0.176759
689 4 0.188628 0.0101167 0.214342
688 2 0.168213 0.0178487 0.226532
693 4 0.204518 0.0696899 0.182801
691 2 0.226918 0.0637835 0.192211
692 4 0.249318 0.0578771 0.20162
21 1 0.377234 0.0676038 0.222931
23 3 0.376201 0.0444865 0.221219
24 3 0.357323 0.0758035 0.231577
25 3 0.381159 0.0767454 0.202446
759 4 0.383674 0.0580636 0.192138
757 2 0.394381 0.0510786 0.170649
22 3 0.394403 0.0732469 0.237162
744 4 0.474215 0.0169967 0.225371
742 2 0.47519 0.0330563 0.24451
381 4 0.00442929 0.173476 0.208275
513 4 0.051668 0.154711 0.244086
577 2 0.091372 0.145286 0.22884
579 4 0.116146 0.145054 0.22547
448 2 0.159018 0.0811845 0.188013
449 4 0.149472 0.103865 0.192447
235 2 0.164187 0.14347 0.203424
236 4 0.158945 0.120293 0.195643
580 2 0.285643 0.106027 0.180843
581 4 0.278322 0.127201 0.191944
30 3 0.294645 0.130371 0.206099
26 1 0.28989 0.135842 0.227689
29 3 0.302795 0.15396 0.234291
28 3 0.26736 0.140985 0.229775
27 3 0.294717 0.117925 0.241284
333 4 0.397696 0.0911189 0.246168
311 4 0.462584 0.145915 0.184429
312 4 0.437415 0.102724 0.185743
310 2 0.45 0.124319 0.185086
578 4 0.0665977 0.145519 0.23221
511 2 0.0359614 0.168636 0.2305
512 4 0.0202548 0.18256 0.216913
237 4 0.169429 0.166646 0.211206
285 4 0.286705 0.213842 0.187814
284 4 0.275722 0.205443 0.235872
283 2 0.281214 0.209642 0.211843
764 4 0.4359 0.223721 0.24008
763 2 0.424918 0.238266 0.222962
520 2 0.475953 0.239649 0.245434
521 4 0.454259 0.227323 0.247042
395 4 0.0690068 0.260019 0.188923
394 2 0.0665623 0.261838 0.21374
396 4 0.0641179 0.263657 0.238557
443 4 0.0736302 0.268722 0.255883
749 4 0.0837198 0.305192 0.205023
363 4 0.0864814 0.265211 0.182918
361 2 0.109284 0.274234 0.178042
362 4 0.132088 0.283258 0.173166
372 4 0.150019 0.274589 0.176817
748 2 0.101258 0.322734 0.208165
370 2 0.160526 0.265747 0.197711
279 4 0.238672 0.27769 0.179618
371 4 0.171034 0.256905 0.218606
345 4 0.232489 0.285273 0.216909
343 2 0.256218 0.292665 0.214171
344 4 0.279946 0.300057 0.211433
309 4 0.288192 0.309039 0.227597
765 4 0.413935 0.25281 0.205844
528 4 0.440449 0.265989 0.197436
750 4 0.118796 0.340276 0.211307
300 4 0.108927 0.353019 0.224213
648 4 0.0855785 0.378639 0.183722
298 2 0.116323 0.368876 0.242074
536 4 0.185961 0.355404 0.168811
289 2 0.224616 0.406041 0.216145
290 4 0.245797 0.394191 0.222157
291 4 0.203436 0.417891 0.210133
302 4 0.348335 0.396681 0.160318
595 2 0.474015 0.373606 0.163765
597 4 0.45199 0.374399 0.175574
643 2 0.432265 0.378265 0.208267
644 4 0.434815 0.381228 0.232963
645 4 0.429716 0.375302 0.18357
447 4 0.447897 0.383922 0.247695
263 4 0.0431389 0.49793 0.199189
262 2 0.041972 0.473045 0.201321
264 4 0.0408051 0.448159 0.203452
1430 4 0.162926 0.478545 0.190093
417 4 0.16763 0.463433 0.176539
637 2 0.24381 0.486926 0.170264
416 4 0.191528 0.4237 0.19527
415 2 0.179579 0.443566 0.185904
638 4 0.247574 0.497184 0.192753
766 2 0.21618 0.487646 0.219181
768 4 0.200289 0.488978 0.238438
767 4 0.232072 0.486314 0.199923
1429 2 0.17391 0.497486 0.178019
301 2 0.356259 0.420258 0.162865
303 4 0.364183 0.443836 0.165411
660 4 0.376275 0.493917 0.187797
658 2 0.379214 0.472771 0.174783
231 4 0.37727 0.485221 0.206583
232 2 0.0400044 0.0320886 0.297809
233 4 0.0645609 0.0290611 0.294204
1403 4 0.0677068 0.0108105 0.28811
234 4 0.015448 0.0351161 0.301414
2756 4 0.0147376 0.0404791 0.320416
1402 2 0.0826868 0.993531 0.298218
675 4 0.118263 0.080023 0.266977
673 2 0.132711 0.0620037 0.2574
1701 4 0.286993 0.0488618 0.271196
1699 2 0.287598 0.0249848 0.278592
1700 4 0.288202 0.00110778 0.285988
1518 4 0.356756 0.0211114 0.30571
697 2 0.388862 0.0472015 0.300347
699 4 0.370048 0.0320667 0.293856
698 4 0.407677 0.0623364 0.306839
1749 4 0.471312 0.0112711 0.325337
743 4 0.476165 0.049116 0.26365
257 4 0.433031 0.0822062 0.316339
351 4 0.481958 0.0639923 0.277214
349 2 0.460647 0.0726751 0.286994
531 4 0.998992 0.169866 0.282887
399 4 0.0967707 0.157284 0.301141
397 2 0.100323 0.136947 0.315247
398 4 0.103876 0.116611 0.329353
732 4 0.117492 0.102208 0.328918
722 4 0.176011 0.133196 0.239703
546 4 0.174204 0.153381 0.242999
721 2 0.194981 0.121949 0.251486
723 4 0.213951 0.110703 0.263269
403 2 0.235992 0.163373 0.303231
599 4 0.225804 0.126472 0.320859
404 4 0.237071 0.140483 0.313233
249 4 0.256031 0.137856 0.319041
248 4 0.29252 0.107917 0.302521
247 2 0.274275 0.122887 0.310781
632 4 0.347047 0.0937819 0.285736
631 2 0.360801 0.0947508 0.306595
633 4 0.374554 0.0957196 0.327453
331 2 0.413351 0.0930219 0.26557
350 4 0.439337 0.0813578 0.296774
332 4 0.429006 0.0949248 0.284973
762 4 0.436125 0.113694 0.287493
760 2 0.456715 0.127862 0.28679
761 4 0.477305 0.14203 0.286086
529 2 0.015802 0.185432 0.292901
530 4 0.0326119 0.200999 0.302915
393 4 0.0986378 0.176009 0.306041
544 2 0.158074 0.164313 0.258667
390 4 0.0932118 0.219031 0.313349
392 4 0.127863 0.18843 0.267411
391 2 0.113251 0.182219 0.286726
545 4 0.141944 0.175246 0.274335
388 2 0.113258 0.232729 0.319325
405 4 0.234912 0.186264 0.29323
401 4 0.190579 0.200698 0.285111
400 2 0.199912 0.210749 0.306017
402 4 0.209245 0.220799 0.326923
708 4 0.249581 0.197016 0.337275
418 2 0.405255 0.223495 0.32329
419 4 0.410927 0.244795 0.311487
444 4 0.0598577 0.30788 0.28377
442 2 0.066744 0.288301 0.269826
389 4 0.133304 0.246426 0.3253
307 2 0.299819 0.310566 0.24968
308 4 0.311445 0.312093 0.271763
496 2 0.322997 0.323159 0.305186
497 4 0.312763 0.328712 0.283059
498 4 0.333231 0.317606 0.327313
615 4 0.411402 0.312545 0.318991
543 4 0.425883 0.298325 0.315512
541 2 0.438367 0.302859 0.294327
542 4 0.45085 0.307392 0.273143
366 4 0.0255983 0.364812 0.24508
2493 4 0.999788 0.380991 0.294049
364 2 0.00791357 0.372365 0.261061
365 4 0.990229 0.379917 0.277042
603 4 0.0813434 0.348037 0.308079
299 4 0.123719 0.384733 0.259936
601 2 0.0918168 0.370477 0.311533
734 4 0.129201 0.402596 0.267497
733 2 0.138244 0.400147 0.290679
602 4 0.10229 0.392917 0.314986
735 4 0.147287 0.397698 0.313861
677 4 0.15908 0.382965 0.320763
777 4 0.0923597 0.409066 0.310998
676 2 0.182027 0.374939 0.314914
678 4 0.204973 0.366912 0.309065
729 4 0.265283 0.385383 0.290516
727 2 0.289506 0.386687 0.296575
434 4 0.312051 0.391829 0.321148
728 4 0.313729 0.387992 0.302635
613 2 0.392909 0.329214 0.316683
433 2 0.331945 0.385136 0.334736
614 4 0.374416 0.345883 0.314374
2537 4 0.508856 0.367495 0.310921
445 2 0.463041 0.395785 0.263667
446 4 0.478186 0.407649 0.279639
1756 2 0.0703664 0.486702 0.282618
1757 4 0.0604291 0.463864 0.284818
776 4 0.0752844 0.449889 0.287703
775 2 0.083822 0.429478 0.299351
414 4 0.18975 0.480554 0.254828
413 4 0.185895 0.443492 0.288178
412 2 0.187823 0.462023 0.271503
437 4 0.264826 0.454649 0.274625
436 2 0.284373 0.470154 0.276264
438 4 0.30392 0.485659 0.277902
713 4 0.399492 0.434812 0.29474
712 2 0.415702 0.453137 0.289583
714 4 0.431912 0.471462 0.284425
2862 4 0.506223 0.434608 0.289169
2585 4 0.0116327 0.0681403 0.37747
429 4 0.0754942 0.0113882 0.345843
2757 4 0.998438 0.065576 0.36048
2755 2 0.00658802 0.0530276 0.340448
317 4 0.0778889 0.0799712 0.343175
427 2 0.0911745 0.0304848 0.349667
428 4 0.106855 0.0495814 0.353492
731 4 0.0975725 0.0570199 0.336788
606 4 0.171302 0.0323423 0.376695
604 2 0.183553 0.0432555 0.357828
605 4 0.195804 0.0541686 0.33896
683 4 0.259479 0.0451646 0.381727
682 2 0.276391 0.0594494 0.393352
725 4 0.340407 0.0440229 0.417073
480 4 0.483083 0.028127 0.330719
478 2 0.492728 0.0511728 0.329693
424 2 0.444242 0.0442269 0.39657
426 4 0.452778 0.0525802 0.374603
256 2 0.436684 0.0698998 0.337796
258 4 0.440337 0.0575934 0.359252
2879 4 0.496528 0.0624667 0.41057
316 2 0.0589739 0.0929995 0.353057
318 4 0.0400588 0.106028 0.36294
730 2 0.107532 0.079614 0.332853
686 4 0.174933 0.17186 0.384913
685 2 0.171817 0.150241 0.372744
687 4 0.168702 0.128621 0.360575
600 4 0.185834 0.123439 0.350758
598 2 0.205819 0.124956 0.335809
684 4 0.293302 0.0737342 0.404976
320 4 0.293524 0.0935013 0.398604
466 2 0.356917 0.149225 0.417002
514 2 0.447249 0.158229 0.408484
451 2 0.488806 0.163255 0.362433
515 4 0.460268 0.160871 0.387302
2654 4 0.0160852 0.223239 0.364148
2653 2 0.993954 0.220809 0.375526
275 4 0.158363 0.233347 0.370901
274 2 0.170298 0.25293 0.380862
474 4 0.217589 0.226736 0.380423
472 2 0.225754 0.218077 0.358434
276 4 0.182233 0.272514 0.390823
473 4 0.233919 0.209418 0.336444
706 2 0.273542 0.192368 0.331847
707 4 0.297502 0.18772 0.326418
420 4 0.399582 0.202195 0.335094
467 4 0.336565 0.163513 0.414392
716 4 0.355111 0.233034 0.371053
453 4 0.465537 0.156481 0.368585
618 4 0.0496395 0.303117 0.399066
616 2 0.0516112 0.287299 0.379802
617 4 0.0535828 0.27148 0.360539
510 4 0.261304 0.301169 0.389495
374 4 0.266709 0.319409 0.396656
508 2 0.263276 0.298675 0.364694
509 4 0.265247 0.296181 0.339894
488 4 0.304952 0.271894 0.386645
376 2 0.324649 0.297737 0.360064
377 4 0.309207 0.288461 0.377404
378 4 0.340092 0.307012 0.342724
487 2 0.287688 0.269582 0.404583
715 2 0.350743 0.249866 0.389019
717 4 0.346375 0.266698 0.406985
267 4 0.331358 0.275049 0.417959
269 4 0.465784 0.279738 0.362827
268 2 0.466084 0.264915 0.382961
270 4 0.466384 0.250093 0.403095
306 4 0.484243 0.247783 0.410708
406 2 0.065696 0.414225 0.378552
408 4 0.0789737 0.393732 0.383927
373 2 0.254362 0.341081 0.398398
502 2 0.218535 0.389073 0.403041
503 4 0.200669 0.402449 0.391769
435 4 0.351838 0.378442 0.348324
334 2 0.357819 0.412849 0.409054
561 4 0.467298 0.3852 0.401639
752 4 0.472583 0.402959 0.392488
751 2 0.484107 0.41291 0.372655
559 2 0.442551 0.382901 0.404373
753 4 0.495631 0.422861 0.352822
549 4 0.0667833 0.474194 0.326072
407 4 0.0524184 0.434719 0.373176
547 2 0.0603205 0.454391 0.339902
548 4 0.0538577 0.434588 0.353731
681 4 0.0232097 0.430394 0.41943
500 4 0.129592 0.46434 0.333548
499 2 0.135759 0.48734 0.341173
570 4 0.123335 0.447156 0.428936
1435 2 0.245032 0.498272 0.343726
3 3 0.290197 0.43828 0.334868
1437 4 0.264827 0.483741 0.348435
668 4 0.290996 0.457192 0.384558
5 3 0.2656 0.464842 0.345217
1 1 0.285056 0.454384 0.350762
2 3 0.302056 0.469866 0.351432
4 3 0.283062 0.444523 0.371672
667 2 0.305063 0.458941 0.405155
593 4 0.408114 0.470066 0.355311
336 4 0.351935 0.43682 0.40506
592 2 0.417615 0.484847 0.337522
119 3 0.489045 0.414527 0.334625
718 2 0.0461094 0.0627861 0.487122
719 4 0.0684151 0.0581085 0.476839
720 4 0.0238038 0.0674638 0.497406
368 4 0.113861 0.0481906 0.427031
367 2 0.126906 0.0670223 0.437049
369 4 0.139951 0.0858541 0.447067
2429 4 0.242915 0.00715903 0.471702
2428 2 0.219751 0.0159061 0.468226
341 4 0.201213 0.0414208 0.475529
340 2 0.190021 0.0634507 0.479348
2430 4 0.196586 0.0246533 0.46475
1180 2 0.246979 0.0657178 0.482318
439 2 0.270019 0.00377121 0.448177
441 4 0.260239 0.016964 0.467031
724 2 0.326165 0.0635466 0.423489
726 4 0.311923 0.0830703 0.429906
430 2 0.309345 0.0728373 0.497709
425 4 0.435706 0.0358737 0.418537
2878 2 0.480688 0.0783616 0.421597
2880 4 0.464847 0.0942565 0.432624
342 4 0.178828 0.0854806 0.483167
1034 4 0.0965233 0.136997 0.469842
1182 4 0.234428 0.0815384 0.467575
1152 4 0.171664 0.0924973 0.499693
319 2 0.280339 0.112598 0.407911
321 4 0.267153 0.131695 0.417219
431 4 0.327496 0.0881342 0.505567
468 4 0.377269 0.134937 0.419612
576 4 0.411857 0.116765 0.464861
843 4 0.348359 0.0880353 0.507046
574 2 0.419334 0.139142 0.456583
642 4 0.461897 0.0929031 0.452004
516 4 0.43423 0.155586 0.429667
641 4 0.468663 0.127038 0.487916
640 2 0.46528 0.109971 0.46996
575 4 0.426811 0.16152 0.448305
457 2 0.995394 0.167935 0.449415
458 4 0.0178528 0.172041 0.439219
471 4 0.00563848 0.210969 0.474881
261 4 0.0802494 0.196377 0.486727
259 2 0.0829792 0.216942 0.47277
1035 4 0.0764096 0.177772 0.490665
469 2 0.0204167 0.205901 0.494403
1033 2 0.0864665 0.157385 0.480254
260 4 0.085709 0.237507 0.458813
411 4 0.243806 0.188139 0.490729
409 2 0.268781 0.187851 0.491887
410 4 0.293756 0.187563 0.493045
304 2 0.490176 0.227054 0.423369
585 4 0.440419 0.255634 0.465452
347 4 0.0480385 0.313623 0.416525
346 2 0.0273296 0.303952 0.426663
695 4 0.0928266 0.285053 0.497054
10 3 0.164295 0.316836 0.480424
650 4 0.273066 0.266344 0.489452
489 4 0.270424 0.26727 0.422521
651 4 0.279139 0.275416 0.440651
649 2 0.276102 0.27088 0.465052
266 4 0.36649 0.297293 0.445738
265 2 0.348924 0.286171 0.431848
2455 2 0.497936 0.297975 0.471429
2456 4 0.478329 0.306429 0.458419
583 2 0.45012 0.277785 0.459097
584 4 0.45982 0.299937 0.452741
2814 4 0.00694557 0.352082 0.448156
327 4 0.128541 0.345341 0.473196
7 3 0.141573 0.345387 0.488261
326 4 0.0893475 0.345164 0.442139
325 2 0.108944 0.345253 0.457667
6 1 0.163474 0.339114 0.485078
709 2 0.169729 0.374361 0.437117
711 4 0.158898 0.360533 0.454912
8 3 0.172247 0.351235 0.467343
504 4 0.236402 0.375697 0.414313
710 4 0.18056 0.388189 0.419322
375 4 0.242014 0.362753 0.40014
804 4 0.281066 0.415639 0.484982
238 2 0.374246 0.383497 0.452277
240 4 0.361749 0.379232 0.431045
335 4 0.363702 0.388878 0.413047
239 4 0.386744 0.387761 0.473509
560 4 0.417804 0.380603 0.407108
927 4 0.463281 0.418502 0.512406
680 4 0.0159685 0.474837 0.44118
1381 2 0.015036 0.478715 0.483143
1383 4 0.0218735 0.474362 0.45949
679 2 0.0195891 0.452616 0.430305
540 4 0.088412 0.492301 0.47675
568 2 0.120577 0.431388 0.448144
569 4 0.117819 0.415619 0.467351
382 2 0.105039 0.420705 0.50325
384 4 0.121001 0.409855 0.487354
772 2 0.223745 0.439838 0.489724
774 4 0.216865 0.448332 0.467236
636 4 0.15738 0.462716 0.444106
635 4 0.206267 0.45452 0.450705
634 2 0.181823 0.458618 0.447406
669 4 0.31913 0.46069 0.425752
587 4 0.415517 0.45595 0.442226
1399 2 0.355631 0.487293 0.451769
586 2 0.39736 0.442843 0.431102
588 4 0.379204 0.429735 0.419978
1400 4 0.373746 0.475086 0.439603
1126 2 0.0159661 0.0635553 0.538672
1127 4 0.0255509 0.0624494 0.515605
1128 4 0.00638126 0.0646612 0.561739
2237 4 0.0449828 0.999487 0.55113
1058 4 0.116254 0.0326589 0.564079
1057 2 0.127475 0.0538036 0.571302
961 2 0.2869 0.0245274 0.510208
962 4 0.295047 0.00369187 0.521374
432 4 0.291195 0.0575404 0.489852
1181 4 0.25953 0.0498972 0.49706
963 4 0.278753 0.0453629 0.499042
1217 4 0.407253 0.0644431 0.524407
842 4 0.39659 0.0757823 0.511985
841 2 0.372474 0.0819088 0.509516
1216 2 0.424887 0.0656815 0.542089
1218 4 0.442522 0.0669199 0.559772
4466 4 0.491125 0.00193969 0.575515
1059 4 0.138696 0.0749483 0.578525
937 2 0.113079 0.168701 0.528943
1153 2 0.163229 0.108453 0.58046
939 4 0.11682 0.154632 0.549272
1154 4 0.17013 0.132456 0.581642
1150 2 0.174505 0.102866 0.522268
1151 4 0.177346 0.113235 0.544842
1032 4 0.246629 0.0996069 0.568266
898 2 0.319503 0.162145 0.563348
899 4 0.294727 0.158801 0.562952
857 4 0.276055 0.15419 0.555975
3157 2 0.477108 0.151797 0.515248
3158 4 0.462401 0.142634 0.497223
878 4 0.0694245 0.210766 0.552874
470 4 0.0351949 0.200833 0.513925
1199 4 0.999715 0.181968 0.552897
938 4 0.109339 0.182769 0.508615
877 2 0.0818716 0.213997 0.574317
797 4 0.252646 0.22057 0.555017
856 2 0.26588 0.17699 0.55732
796 2 0.254886 0.244333 0.562465
858 4 0.255705 0.19979 0.558664
900 4 0.344279 0.165488 0.563743
871 2 0.376098 0.234612 0.520191
872 4 0.397258 0.221635 0.517186
3159 4 0.491814 0.160961 0.533274
1260 4 0.158372 0.282235 0.509423
694 2 0.116043 0.283345 0.506179
696 4 0.139259 0.281637 0.515304
1258 2 0.171445 0.292381 0.528167
1259 4 0.184519 0.302526 0.546911
798 4 0.257127 0.268097 0.569913
791 4 0.318094 0.259416 0.566494
790 2 0.300572 0.27705 0.569177
792 4 0.28305 0.294684 0.571861
1238 4 0.264237 0.296319 0.565574
1237 2 0.257307 0.316974 0.577843
812 4 0.311287 0.301587 0.522858
873 4 0.354938 0.24759 0.523196
813 4 0.341842 0.262227 0.518624
811 2 0.326565 0.281907 0.520741
953 4 0.453792 0.299564 0.588208
1135 2 0.106676 0.354757 0.57618
897 4 0.14384 0.360052 0.568017
1137 4 0.125732 0.365724 0.564273
9 3 0.175452 0.343604 0.504436
895 2 0.168817 0.360105 0.566884
1189 2 0.22359 0.376245 0.536842
896 4 0.193795 0.360158 0.565751
1191 4 0.20782 0.366637 0.5537
1190 4 0.239359 0.385852 0.519984
802 2 0.266416 0.397765 0.494526
803 4 0.251766 0.379892 0.504069
929 4 0.344673 0.391297 0.535206
928 2 0.355385 0.382849 0.55616
930 4 0.366096 0.374401 0.577114
925 2 0.47357 0.401717 0.527819
926 4 0.48386 0.384932 0.543232
1001 4 0.467133 0.43188 0.560043
383 4 0.0890777 0.431555 0.519146
1173 4 0.230663 0.463747 0.558611
773 4 0.230625 0.431344 0.512212
1171 2 0.247669 0.446583 0.552181
1172 4 0.264676 0.429419 0.54575
882 4 0.283137 0.43335 0.54263
880 2 0.297661 0.446273 0.526907
881 4 0.312186 0.459196 0.511185
1000 2 0.445053 0.443199 0.563127
661 2 0.485199 0.478211 0.519406
663 4 0.483159 0.453364 0.521321
1910 4 0.416997 0.470289 0.577567
1909 2 0.428035 0.492657 0.57931
1002 4 0.422972 0.454519 0.56621
2319 4 0.0610592 0.0210331 0.658737
1185 4 0.0280564 0.0426038 0.654607
945 4 0.0722541 0.0355462 0.655783
943 2 0.0714279 0.0575713 0.66759
2317 2 0.0464616 0.00752918 0.673894
823 2 0.130674 0.003494 0.607362
825 4 0.121897 0.0164959 0.626833
1030 2 0.239462 0.0778282 0.578241
951 4 0.23137 0.0388144 0.599042
1031 4 0.232295 0.0560495 0.588216
949 2 0.216327 0.0194695 0.604008
950 4 0.201284 0.000124554 0.608974
2282 4 0.440995 0.0314855 0.657783
2281 2 0.448426 0.0123522 0.643504
45 3 0.465838 0.0739242 0.649344
2283 4 0.455857 0.993219 0.629226
810 4 0.482672 0.0699868 0.640538
4465 2 0.472717 0.999749 0.592293
1082 4 0.0492315 0.120497 0.636102
1081 2 0.0709122 0.108904 0.631548
1155 4 0.156327 0.0844498 0.579278
1083 4 0.092593 0.0973119 0.626994
1283 4 0.16656 0.122975 0.633298
1282 2 0.172167 0.129278 0.656835
1221 4 0.167102 0.142594 0.597943
1219 2 0.18441 0.159316 0.604727
1005 4 0.35104 0.101204 0.62304
1003 2 0.360351 0.0959031 0.645632
808 2 0.496884 0.0742045 0.620403
879 4 0.0943188 0.217229 0.59576
1272 4 0.107044 0.22109 0.611465
1270 2 0.113301 0.212076 0.633933
1271 4 0.119557 0.203062 0.656401
1212 4 0.210405 0.175803 0.628329
1220 4 0.201717 0.176037 0.61151
1210 2 0.232723 0.178767 0.639206
909 4 0.161775 0.193334 0.663061
1211 4 0.255041 0.181731 0.650083
888 4 0.260943 0.193726 0.66463
1024 2 0.417835 0.220139 0.657038
1026 4 0.406167 0.238357 0.644501
1143 4 0.424658 0.182521 0.664917
1208 4 0.065735 0.253917 0.646076
1244 4 0.0225962 0.276919 0.617708
1243 2 0.0254305 0.290681 0.63839
1245 4 0.0282648 0.304443 0.659072
1207 2 0.0857355 0.264442 0.656771
1209 4 0.105736 0.274968 0.667465
948 4 0.161393 0.296184 0.617605
946 2 0.180403 0.279964 0.616756
947 4 0.199413 0.263744 0.615908
952 2 0.450958 0.311901 0.609771
954 4 0.448123 0.324237 0.631334
3123 4 0.474001 0.289376 0.662362
3121 2 0.486642 0.271017 0.67369
983 4 0.0180534 0.371659 0.61688
1039 2 0.0513651 0.385452 0.62089
1041 4 0.0378606 0.365091 0.615579
1040 4 0.0648695 0.405814 0.626202
993 4 0.0830065 0.415885 0.632987
1136 4 0.0876198 0.34379 0.588087
992 4 0.132109 0.411304 0.641275
991 2 0.107558 0.413594 0.637131
1239 4 0.250378 0.337628 0.590113
1204 2 0.38727 0.375998 0.611325
1206 4 0.380968 0.366468 0.589084
1205 4 0.393572 0.385529 0.633565
806 4 0.345326 0.357477 0.672311
2129 4 0.01854 0.470953 0.63759
1160 4 0.152866 0.468231 0.605231
1159 2 0.174689 0.456039 0.60467
1161 4 0.196511 0.443847 0.604109
1188 4 0.208374 0.498574 0.66591
1952 4 0.342026 0.455732 0.589024
890 4 0.297036 0.411242 0.599304
891 4 0.334291 0.439394 0.581409
889 2 0.315663 0.425318 0.590357
1951 2 0.346757 0.479356 0.595709
1953 4 0.351487 0.50298 0.602395
1269 4 0.486978 0.487421 0.658193
1267 2 0.465621 0.498381 0.651195
1183 2 0.0165109 0.0599804 0.668389
1184 4 0.00496533 0.0773569 0.682171
944 4 0.0706018 0.0795965 0.679396
1075 2 0.0513769 0.0719533 0.718904
1077 4 0.0415056 0.0649285 0.740776
43 3 0.439685 0.0506266 0.663159
41 1 0.45729 0.0648095 0.668384
1163 4 0.490876 0.0618784 0.681822
42 3 0.4737 0.05269 0.679012
1076 4 0.0612482 0.078978 0.697032
1105 2 0.0701649 0.167299 0.7408
1284 4 0.177774 0.13558 0.680373
1227 4 0.184291 0.144512 0.696439
1225 2 0.202372 0.142434 0.713584
1226 4 0.220453 0.140355 0.730728
908 4 0.200484 0.175984 0.689543
1004 4 0.369662 0.0906024 0.668224
44 3 0.44997 0.0816139 0.682612
1142 4 0.425958 0.152351 0.704777
1107 4 0.0671166 0.187566 0.726477
851 4 0.0683212 0.191391 0.706879
852 4 0.0243517 0.195987 0.683506
850 2 0.0463365 0.193689 0.695193
1178 4 0.0113976 0.211132 0.686101
1177 2 0.00637265 0.235463 0.683284
821 4 0.138763 0.251949 0.742086
907 2 0.18113 0.184659 0.676302
829 2 0.322371 0.177612 0.724162
830 4 0.307255 0.166818 0.707423
886 2 0.276371 0.181508 0.680053
887 4 0.291799 0.169289 0.695476
1193 4 0.357876 0.21199 0.674525
1025 4 0.429502 0.201921 0.669574
831 4 0.337486 0.188406 0.740901
1192 2 0.374297 0.218636 0.69217
1194 4 0.390719 0.225282 0.709815
1262 4 0.411063 0.225721 0.709649
1141 2 0.425308 0.167436 0.684847
3356 4 0.479563 0.221272 0.732966
3355 2 0.491175 0.226838 0.711533
1261 2 0.425884 0.219712 0.728869
3357 4 0.502787 0.232405 0.690101
1263 4 0.440706 0.213703 0.748089
1145 4 0.461027 0.222017 0.745929
1065 4 0.273547 0.293796 0.709566
1064 4 0.259345 0.246815 0.719151
1063 2 0.266446 0.270305 0.714358
3122 4 0.499282 0.252658 0.685019
892 2 0.0600083 0.400473 0.707279
894 4 0.0394749 0.396569 0.721001
3276 4 0.0318082 0.383268 0.73452
893 4 0.0805417 0.404378 0.693556
1066 2 0.179363 0.412286 0.684419
1068 4 0.203587 0.406729 0.68168
1027 2 0.245784 0.418577 0.678816
1028 4 0.221775 0.413355 0.683449
1029 4 0.269794 0.423799 0.674183
1139 4 0.282036 0.412209 0.685624
1138 2 0.306846 0.41392 0.688219
807 4 0.374418 0.352708 0.712704
805 2 0.359872 0.355093 0.692508
1018 2 0.380934 0.348313 0.751415
1020 4 0.367603 0.355781 0.731624
1281 4 0.0159416 0.46076 0.723218
1279 2 0.0213284 0.436497 0.720483
1983 4 0.0221497 0.47035 0.706073
1280 4 0.0267152 0.412235 0.717747
2170 2 0.105131 0.498076 0.670271
1067 4 0.155139 0.417843 0.687158
941 4 0.138549 0.417215 0.698722
2172 4 0.103092 0.481542 0.688917
940 2 0.124931 0.425042 0.718176
942 4 0.111313 0.43287 0.73763
1176 4 0.211067 0.51205 0.681374
1174 2 0.226111 0.497033 0.694541
1175 4 0.241155 0.482016 0.707708
1140 4 0.331655 0.415631 0.690813
1987 2 0.321581 0.503215 0.731517
1230 4 0.364172 0.436706 0.749053
1228 2 0.349186 0.455041 0.741026
1229 4 0.3342 0.473376 0.733
1989 4 0.340815 0.490098 0.722397
1101 4 0.490551 0.491094 0.677527
1100 4 0.478277 0.462201 0.716453
1099 2 0.484414 0.476647 0.69699
1250 4 0.4648 0.463397 0.730933
3329 4 0.496663 0.454853 0.723905
1203 4 0.0531856 0.0609443 0.757589
1201 2 0.0687879 0.0417243 0.761101
1202 4 0.0843902 0.0225042 0.764614
911 4 0.0926873 0.0556851 0.789885
2049 4 0.101455 0.0127408 0.758151
910 2 0.0934966 0.0664364 0.812444
1048 2 0.31488 0.00356656 0.760816
1256 4 0.294457 0.0711405 0.791906
1050 4 0.309161 0.0224013 0.776235
817 2 0.363892 0.0625123 0.831344
980 4 0.445046 0.998272 0.810362
846 4 0.469363 0.0400756 0.797559
1113 4 0.45953 0.0523328 0.81007
844 2 0.481392 0.0436367 0.77593
1111 2 0.436351 0.0614158 0.807738
1112 4 0.413173 0.0704987 0.805406
864 4 0.0491762 0.0778741 0.772149
1106 4 0.0732131 0.147033 0.755122
862 2 0.0400336 0.0999143 0.77962
863 4 0.0308911 0.121954 0.787091
833 4 0.0157778 0.134272 0.782475
35 3 0.0900496 0.138947 0.7634
912 4 0.0943058 0.0771877 0.835004
33 3 0.120525 0.124081 0.779768
31 1 0.111222 0.143258 0.770597
34 3 0.110907 0.160247 0.786398