ITEM: TIMESTEP
250000
ITEM: NUMBER OF ATOMS
4590
ITEM: BOX BOUNDS pp pp pp
-9.9985700000000008e+00 9.9985700000000008e+00
-9.9985700000000008e+00 9.9985700000000008e+00
-9.9985700000000008e+00 9.9985700000000008e+00
ITEM: ATOMS id type xs ys zs
463 2 0.0285357 0.050074 0.0332354
465 4 0.0285569 0.0750311 0.0347588
464 4 0.0285146 0.0251168 0.0317119
1667 4 0.0752928 0.0179414 0.0603696
702 4 0.103318 0.0941259 0.0674895
534 4 0.204081 0.0697181 0.00736772
490 2 0.278927 0.0429911 0.044949
491 4 0.273335 0.0652401 0.0548933
492 4 0.284519 0.020742 0.0350047
296 4 0.36097 0.0495363 0.0565735
745 2 0.454533 0.0665983 0.0381224
746 4 0.453794 0.0720499 0.0625133
747 4 0.455272 0.0611467 0.0137316
2975 4 0.465868 0.0501366 0.999331
2974 2 0.488273 0.0438944 0.990153
589 2 0.0267737 0.116294 0.0740661
590 4 0.0283526 0.13702 0.0601704
3233 4 0.0167919 0.129661 0.0107303
591 4 0.0251948 0.0955669 0.0879618
701 4 0.075597 0.0890566 0.0261789
700 2 0.0894575 0.0915912 0.0468342
422 4 0.119088 0.146369 0.019281
421 2 0.102238 0.131737 0.00800423
565 2 0.195912 0.11556 0.0469153
566 4 0.176792 0.106588 0.0335319
567 4 0.215032 0.124532 0.0602986
358 2 0.278976 0.126591 0.018054
359 4 0.299187 0.118571 0.00570962
360 4 0.258766 0.13461 0.0303984
557 4 0.365261 0.0670995 0.0462191
556 2 0.367013 0.0916106 0.0508361
558 4 0.368764 0.116122 0.0554532
553 2 0.0435208 0.233136 0.021809
555 4 0.059265 0.224975 0.00418244
554 4 0.0277766 0.241298 0.0394355
506 4 0.179694 0.259356 0.0375527
571 2 0.317583 0.252728 0.0504227
573 4 0.295656 0.263492 0.0450834
666 4 0.315041 0.225999 0.0180209
572 4 0.33951 0.241964 0.055762
324 4 0.408694 0.238305 0.0559827
322 2 0.419709 0.248512 0.0759745
664 2 0.332019 0.211379 0.00692195
665 4 0.348997 0.196759 0.995823
771 4 0.43942 0.175949 0.0631439
770 4 0.486992 0.175019 0.0477557
769 2 0.463206 0.175484 0.0554498
1014 4 0.469305 0.205468 0.993853
292 2 0.131523 0.314266 0.0217264
294 4 0.112846 0.325074 0.00909649
293 4 0.150201 0.303459 0.0343562
483 4 0.224721 0.308686 0.0748997
505 2 0.172447 0.282775 0.0424727
507 4 0.165201 0.306195 0.0473928
481 2 0.244766 0.316233 0.0619988
357 4 0.239596 0.270741 0.00736189
482 4 0.264811 0.323779 0.0490979
1071 4 0.37929 0.255666 0.0229143
1069 2 0.402358 0.265281 0.0236989
956 4 0.364658 0.320986 0.00516186
1070 4 0.425425 0.274895 0.0244834
671 4 0.458109 0.332106 0.0647428
280 2 0.466234 0.332045 0.0229577
282 4 0.472154 0.340148 5.62576e-05
330 4 0.0308755 0.405701 0.0391032
621 4 0.0150154 0.365012 0.0878087
328 2 0.0231083 0.395304 0.0177317
454 2 0.119548 0.369094 0.0825464
455 4 0.104886 0.37464 0.0630676
288 4 0.160049 0.41437 0.00946957
286 2 0.155317 0.389889 0.00761297
287 4 0.150585 0.365407 0.00575637
252 4 0.289637 0.40319 0.0670731
250 2 0.281319 0.402079 0.0435201
251 4 0.273 0.400968 0.0199672
608 4 0.305354 0.389941 0.0686764
281 4 0.460313 0.323943 0.0458591
552 4 0.0921765 0.414703 0.050143
550 2 0.0715425 0.428795 0.0492225
551 4 0.0509085 0.442886 0.0483021
315 4 0.00394239 0.424166 0.074533
1788 4 0.0778944 0.49943 0.0818365
241 2 0.165581 0.502318 0.0683355
242 4 0.152487 0.494674 0.0484534
1786 2 0.0996831 0.494432 0.0706359
1787 4 0.121472 0.489434 0.0594354
245 4 0.222295 0.437494 0.0326935
244 2 0.242514 0.451488 0.0372276
246 4 0.262732 0.465482 0.0417618
272 4 0.282307 0.4668 0.0417212
271 2 0.295415 0.482337 0.0271617
524 4 0.334568 0.49907 0.0745224
227 4 0.483332 0.440561 0.0559795
562 2 0.444149 0.488515 0.0221668
563 4 0.460711 0.478801 0.0061504
226 2 0.49874 0.458859 0.0487035
1666 2 0.0785391 0.0195977 0.0851062
1668 4 0.0817853 0.0212541 0.109843
19 3 0.0368089 0.0428667 0.161861
20 3 0.0720757 0.0494488 0.150434
450 4 0.163087 0.0662712 0.129034
448 2 0.173033 0.0820617 0.145674
1505 4 0.217477 0.0478107 0.180684
1504 2 0.226318 0.025515 0.173619
1506 4 0.235159 0.00321926 0.166554
652 2 0.302755 0.0347731 0.148732
654 4 0.300478 0.0243984 0.171367
653 4 0.305032 0.0451478 0.126097
295 2 0.367357 0.0441533 0.0801408
297 4 0.373743 0.0387703 0.103708
758 4 0.423716 0.0557482 0.154179
380 4 0.994336 0.134438 0.160508
237 4 0.1699 0.156279 0.135333
449 4 0.182979 0.0978523 0.162315
235 2 0.179882 0.136839 0.147483
236 4 0.189864 0.117398 0.159632
693 4 0.224446 0.106104 0.157603
582 4 0.289969 0.101851 0.143993
580 2 0.29398 0.106621 0.168207
312 4 0.427734 0.114141 0.159478
629 4 0.461501 0.168737 0.117719
476 4 0.126345 0.165439 0.10599
475 2 0.117246 0.170832 0.128647
477 4 0.108148 0.176225 0.151303
337 2 0.0820807 0.251641 0.150343
737 4 0.181193 0.2078 0.113426
736 2 0.204808 0.19995 0.115851
738 4 0.228424 0.192101 0.118276
354 4 0.255007 0.209076 0.119215
284 4 0.278252 0.236372 0.174084
352 2 0.276556 0.221744 0.118625
460 2 0.334589 0.20344 0.0989109
461 4 0.331064 0.226681 0.0903887
283 2 0.268494 0.213462 0.171831
255 4 0.354207 0.181334 0.0956949
462 4 0.338114 0.180199 0.107433
630 4 0.412136 0.169512 0.109767
254 4 0.40264 0.169383 0.0922152
253 2 0.378424 0.175359 0.0939551
628 2 0.436819 0.169125 0.113743
517 2 0.49838 0.246028 0.0993147
518 4 0.49166 0.222158 0.0961151
339 4 0.0733538 0.263019 0.129859
277 2 0.2442 0.276547 0.164684
353 4 0.298104 0.234413 0.118036
754 2 0.270191 0.298836 0.116909
755 4 0.25366 0.280341 0.120042
756 4 0.286722 0.317331 0.113775
278 4 0.250614 0.27958 0.140708
741 4 0.350326 0.305719 0.0976836
622 2 0.384563 0.269639 0.156664
624 4 0.403454 0.253322 0.155221
739 2 0.352126 0.33052 0.0950625
623 4 0.365672 0.285955 0.158106
323 4 0.430724 0.258719 0.0959662
528 4 0.460352 0.256273 0.187233
672 4 0.439496 0.322045 0.110053
670 2 0.448803 0.327075 0.087398
526 2 0.481504 0.265325 0.177443
519 4 0.505101 0.269898 0.102514
619 2 0.0134523 0.348182 0.106233
620 4 0.0118893 0.331351 0.124658
456 4 0.134211 0.363548 0.102025
537 4 0.165823 0.335756 0.130238
648 4 0.0977772 0.344997 0.178184
535 2 0.180966 0.346416 0.147038
626 4 0.234445 0.412892 0.129242
609 4 0.30841 0.353669 0.102965
607 2 0.306882 0.371805 0.0858207
612 4 0.277794 0.349187 0.133697
610 2 0.269032 0.343952 0.156523
740 4 0.353926 0.355321 0.0924413
387 4 0.338842 0.396257 0.141799
15 3 0.386189 0.362794 0.1356
385 2 0.348366 0.377732 0.127969
386 4 0.35789 0.359206 0.114138
11 1 0.408935 0.361711 0.135932
14 3 0.417728 0.374644 0.118791
13 3 0.416919 0.369191 0.156394
12 3 0.415525 0.33988 0.132908
495 4 0.433498 0.385336 0.124167
493 2 0.434244 0.410327 0.123937
597 4 0.475266 0.395378 0.173329
595 2 0.495084 0.407339 0.163876
313 2 0.00886466 0.444141 0.0887443
314 4 0.0137869 0.464116 0.102956
243 4 0.178675 0.509962 0.0882176
625 2 0.229171 0.422189 0.106638
627 4 0.223897 0.431485 0.0840343
637 2 0.259969 0.484967 0.138298
525 4 0.342375 0.487926 0.122643
523 2 0.338471 0.493498 0.0985825
638 4 0.272401 0.471549 0.155345
658 2 0.382582 0.460188 0.151207
659 4 0.358156 0.464524 0.154328
660 4 0.407008 0.455852 0.148086
494 4 0.43499 0.435318 0.123706
16 1 0.0579805 0.04983 0.168317
17 3 0.0565944 0.0713161 0.176415
18 3 0.0660955 0.0360014 0.18509
1422 4 0.00432562 0.0119476 0.165663
579 4 0.0966744 0.0839999 0.218658
1420 2 0.0222201 0.995852 0.172439
673 2 0.131071 0.0456198 0.223522
674 4 0.148761 0.0628171 0.219461
675 4 0.113381 0.0284224 0.227584
689 4 0.223468 0.0266754 0.2116
688 2 0.212205 0.0156365 0.231003
21 1 0.378465 0.0401684 0.228995
23 3 0.388249 0.0191448 0.229829
24 3 0.35659 0.0390348 0.236649
25 3 0.378825 0.0480647 0.207637
759 4 0.394007 0.0487194 0.193786
22 3 0.390357 0.0544477 0.242553
757 2 0.408862 0.0522338 0.173982
1760 4 0.485666 0.0166281 0.164759
742 2 0.457456 0.0631502 0.224008
743 4 0.465416 0.0868409 0.224766
744 4 0.449497 0.0394595 0.22325
379 2 0.00977983 0.148478 0.174275
381 4 0.0252241 0.162518 0.188041
511 2 0.0415135 0.159148 0.2274
513 4 0.0499832 0.149685 0.248939
577 2 0.0959238 0.108661 0.214602
578 4 0.0951731 0.133322 0.210546
692 4 0.231443 0.0784995 0.19871
723 4 0.212388 0.102808 0.236699
691 2 0.227944 0.0923019 0.178156
721 2 0.191148 0.115604 0.239909
581 4 0.297991 0.111391 0.192421
30 3 0.303598 0.125748 0.205451
26 1 0.307831 0.116701 0.225918
28 3 0.292143 0.100292 0.230719
27 3 0.328766 0.107167 0.225804
29 3 0.307213 0.133249 0.24217
310 2 0.442242 0.117852 0.179501
311 4 0.456751 0.121563 0.199524
333 4 0.419702 0.14374 0.24143
512 4 0.0330438 0.16861 0.205862
395 4 0.0386944 0.258659 0.206354
338 4 0.0908076 0.240264 0.170827
363 4 0.0871802 0.252734 0.185939
285 4 0.258736 0.190552 0.169577
764 4 0.355803 0.218571 0.191584
763 2 0.376401 0.226615 0.203254
765 4 0.397 0.234659 0.214924
520 2 0.472403 0.212407 0.246592
521 4 0.447784 0.216109 0.244276
522 4 0.497023 0.208705 0.248907
394 2 0.0225523 0.25501 0.225097
750 4 0.0642784 0.297147 0.240305
748 2 0.0807861 0.280684 0.249343
370 2 0.169095 0.262454 0.221497
361 2 0.106811 0.254404 0.201335
362 4 0.126441 0.256075 0.216731
372 4 0.145221 0.261259 0.214162
371 4 0.192968 0.26365 0.228831
279 4 0.237786 0.273513 0.18866
343 2 0.262207 0.287168 0.243677
344 4 0.279911 0.275121 0.230769
307 2 0.317628 0.273662 0.221135
309 4 0.306989 0.284654 0.201358
308 4 0.328268 0.262669 0.240913
647 4 0.0635795 0.370033 0.151643
263 4 0.0615643 0.411807 0.228444
300 4 0.11785 0.325581 0.22059
298 2 0.132917 0.338821 0.235519
646 2 0.0806783 0.357515 0.164914
536 4 0.196109 0.357076 0.163838
611 4 0.260271 0.338717 0.179349
303 4 0.313422 0.404293 0.195711
301 2 0.330087 0.404876 0.17708
729 4 0.320082 0.380211 0.243721
643 2 0.453109 0.377332 0.188649
644 4 0.449123 0.36678 0.210963
645 4 0.457094 0.387885 0.166334
447 4 0.457937 0.362601 0.228378
262 2 0.0478448 0.431814 0.222389
264 4 0.0341253 0.451822 0.216334
417 4 0.140305 0.442447 0.191898
415 2 0.164586 0.436756 0.193694
416 4 0.188867 0.431064 0.19549
291 4 0.204938 0.438974 0.18423
289 2 0.217379 0.429709 0.203841
290 4 0.22982 0.420445 0.223451
768 4 0.240616 0.479907 0.21427
766 2 0.254026 0.473954 0.194024
767 4 0.267437 0.468001 0.173778
1574 4 0.309233 0.505326 0.182797
302 4 0.346752 0.405458 0.158449
229 2 0.404846 0.494325 0.230421
231 4 0.405982 0.488894 0.206041
232 2 0.0300571 0.0461496 0.299206
233 4 0.0484989 0.0292676 0.298923
1402 2 0.0675829 0.00592478 0.276961
1403 4 0.0670765 0.0261093 0.291709
234 4 0.0116154 0.0630316 0.29949
429 4 0.0928835 0.00781531 0.328996
690 4 0.200942 0.00459772 0.250406
248 4 0.22467 0.0858972 0.278938
1701 4 0.231643 0.0197212 0.322875
1699 2 0.250239 0.0232457 0.306536
1700 4 0.268834 0.0267702 0.290197
257 4 0.398398 0.050817 0.329983
478 2 0.482785 0.034619 0.328459
480 4 0.469299 0.0137131 0.32596
351 4 0.445112 0.0617919 0.266247
529 2 0.00335957 0.136323 0.273221
530 4 0.0241055 0.141848 0.286038
398 4 0.0542302 0.142717 0.315632
731 4 0.140954 0.0748545 0.315477
546 4 0.164646 0.137873 0.261583
544 2 0.158025 0.161641 0.265635
722 4 0.169908 0.128401 0.243118
249 4 0.242299 0.12161 0.309179
247 2 0.233484 0.103754 0.294059
403 2 0.222452 0.15789 0.294691
600 4 0.195507 0.132885 0.330464
404 4 0.237066 0.138527 0.300748
632 4 0.352744 0.118648 0.300635
631 2 0.375035 0.109022 0.306607
633 4 0.397325 0.0993965 0.312579
349 2 0.451442 0.0795755 0.282644
331 2 0.439913 0.153768 0.252208
332 4 0.460124 0.163795 0.262985
350 4 0.457773 0.0973591 0.299041
392 4 0.116716 0.170168 0.269138
391 2 0.102226 0.188078 0.278855
393 4 0.0877363 0.205989 0.288572
545 4 0.151405 0.185409 0.269687
405 4 0.207837 0.177252 0.288634
706 2 0.31573 0.17761 0.309181
708 4 0.311473 0.171445 0.333036
707 4 0.319987 0.183775 0.285326
762 4 0.469699 0.173226 0.278254
418 2 0.43015 0.212922 0.313693
419 4 0.443299 0.195092 0.325284
761 4 0.478556 0.172493 0.327465
760 2 0.474127 0.172859 0.30286
420 4 0.417002 0.230752 0.302101
396 4 0.00641012 0.251362 0.24384
444 4 0.0126471 0.253664 0.312402
443 4 0.0139196 0.255785 0.262456
442 2 0.0132833 0.254724 0.287429
390 4 0.0670429 0.265128 0.318589
749 4 0.0972937 0.264222 0.25838
345 4 0.244503 0.299215 0.256586
400 2 0.206087 0.254048 0.30218
402 4 0.225699 0.254218 0.317688
401 4 0.186474 0.253877 0.286672
508 2 0.23877 0.31101 0.32662
496 2 0.306439 0.292635 0.292859
497 4 0.330048 0.287499 0.286424
498 4 0.28283 0.29777 0.299294
543 4 0.398575 0.308188 0.319769
615 4 0.384762 0.321985 0.317907
613 2 0.372435 0.338183 0.332427
541 2 0.421727 0.312498 0.311368
542 4 0.444879 0.316808 0.302967
366 4 0.00612746 0.343587 0.274163
364 2 0.0291803 0.343932 0.28384
365 4 0.0522331 0.344276 0.293516
602 4 0.0653212 0.413797 0.290167
299 4 0.147984 0.352061 0.250447
601 2 0.080931 0.394609 0.286516
603 4 0.0965409 0.375421 0.282865
734 4 0.154297 0.362678 0.266438
733 2 0.159082 0.36656 0.29067
676 2 0.19128 0.353483 0.336995
677 4 0.181355 0.373852 0.326424
735 4 0.163868 0.370442 0.314903
509 4 0.249994 0.333271 0.324712
727 2 0.334162 0.392657 0.260214
433 2 0.31762 0.389841 0.328168
728 4 0.348241 0.405103 0.276708
434 4 0.332436 0.391908 0.308133
445 2 0.456778 0.371361 0.251768
446 4 0.455619 0.380121 0.275159
1757 4 0.0640069 0.508802 0.271239
777 4 0.0888888 0.451886 0.277856
549 4 0.0367749 0.441952 0.318538
775 2 0.0959089 0.464591 0.298215
776 4 0.102929 0.477295 0.318574
414 4 0.140052 0.471781 0.278433
412 2 0.159106 0.46183 0.291203
413 4 0.178161 0.451879 0.303974
436 2 0.298622 0.447094 0.285044
437 4 0.283786 0.439251 0.266509
438 4 0.313459 0.454936 0.303579
713 4 0.409665 0.453815 0.292013
712 2 0.433718 0.46059 0.292875
714 4 0.457771 0.467365 0.293736
316 2 0.0431914 0.0781604 0.34965
317 4 0.0400204 0.0548167 0.358028
428 4 0.0625378 0.0215489 0.366295
427 2 0.0777107 0.0146821 0.347646
606 4 0.173577 0.0568479 0.377865
604 2 0.196569 0.057317 0.36805
605 4 0.219561 0.0577861 0.358236
683 4 0.297618 0.0837151 0.361599
682 2 0.284905 0.0846465 0.38311
698 4 0.378613 0.048094 0.332213
697 2 0.36128 0.0311372 0.338316
699 4 0.343948 0.0141804 0.344418
256 2 0.414417 0.0505423 0.349179
479 4 0.496271 0.0555248 0.330958
258 4 0.430437 0.0502676 0.368375
426 4 0.419223 0.0424983 0.383713
318 4 0.0463624 0.101504 0.341271
732 4 0.126447 0.0905278 0.360694
730 2 0.1337 0.0826911 0.338086
397 2 0.073922 0.127683 0.319007
399 4 0.0936138 0.112648 0.322381
685 2 0.160947 0.154499 0.411867
598 2 0.187339 0.155159 0.338359
686 4 0.184326 0.163311 0.410881
684 4 0.272192 0.0855779 0.40462
320 4 0.279598 0.0981166 0.418833
451 2 0.4743 0.1532 0.376689
453 4 0.452958 0.164306 0.3835
514 2 0.427353 0.144979 0.4039
515 4 0.446022 0.146328 0.387322
2653 2 0.00953925 0.225031 0.368745
2654 4 0.0335479 0.223558 0.375571
599 4 0.179172 0.177434 0.346254
474 4 0.236419 0.204942 0.344423
274 2 0.197799 0.247067 0.393364
276 4 0.220137 0.253538 0.402548
275 4 0.175462 0.240596 0.384181
472 2 0.261051 0.203672 0.340319
473 4 0.285683 0.202402 0.336215
488 4 0.292942 0.213435 0.388108
487 2 0.290995 0.234485 0.40146
715 2 0.361307 0.240264 0.360333
716 4 0.345723 0.223309 0.370071
717 4 0.376891 0.25722 0.350596
616 2 0.0703635 0.326344 0.370294
618 4 0.0605825 0.309963 0.386454
347 4 0.0455223 0.315129 0.397724
346 2 0.0466777 0.29967 0.417342
389 4 0.111653 0.25436 0.338456
388 2 0.089348 0.259744 0.328523
678 4 0.201206 0.333113 0.347567
375 4 0.164289 0.322311 0.385276
373 2 0.18759 0.316157 0.391935
510 4 0.227546 0.288749 0.328528
374 4 0.210892 0.310004 0.398595
376 2 0.295025 0.294207 0.348212
377 4 0.31571 0.28544 0.359187
378 4 0.27434 0.302975 0.337237
489 4 0.289048 0.255535 0.414813
268 2 0.490064 0.274944 0.395477
270 4 0.477606 0.263332 0.413784
408 4 0.0741755 0.414873 0.410012
406 2 0.078104 0.416924 0.385405
407 4 0.0820324 0.418976 0.360797
548 4 0.0716495 0.41522 0.34241
617 4 0.0801445 0.342725 0.354133
503 4 0.275511 0.401372 0.412646
435 4 0.302803 0.387775 0.348202
614 4 0.360107 0.354381 0.346948
336 4 0.379206 0.371051 0.396975
561 4 0.462045 0.381506 0.395683
752 4 0.451362 0.388507 0.378637
559 2 0.478451 0.373965 0.41298
560 4 0.494856 0.366424 0.430276
547 2 0.0542122 0.428586 0.330474
680 4 0.040198 0.454949 0.438993
499 2 0.120148 0.474888 0.376669
500 4 0.125588 0.489759 0.357318
501 4 0.114708 0.460018 0.39602
570 4 0.163926 0.471445 0.412035
5 3 0.293478 0.447236 0.368015
1 1 0.311309 0.461331 0.369445
2 3 0.30419 0.481795 0.37717
4 3 0.327 0.452772 0.384242
3 3 0.320882 0.464137 0.348496
593 4 0.423015 0.47275 0.344942
594 4 0.374637 0.478088 0.356426
592 2 0.398826 0.475419 0.350684
751 2 0.441483 0.410552 0.372186
753 4 0.431604 0.432597 0.365735
2237 4 0.0385989 0.0236337 0.507507
718 2 0.0481893 0.063709 0.469025
720 4 0.0367834 0.0473072 0.48406
719 4 0.0595952 0.0801107 0.453989
2236 2 0.0247541 0.00312976 0.503889
367 2 0.118257 0.0480439 0.445616
369 4 0.114969 0.071383 0.453962
368 4 0.121546 0.0247047 0.437271
342 4 0.178165 0.0722068 0.502404
340 2 0.178811 0.0474958 0.498645
341 4 0.179458 0.0227848 0.494886
1181 4 0.246275 0.0513088 0.492662
2430 4 0.197828 0.0200361 0.500508
441 4 0.264104 0.0353318 0.42677
439 2 0.279145 0.0163046 0.420692
726 4 0.317072 0.0758141 0.462426
1180 2 0.252954 0.0753627 0.494067
724 2 0.339784 0.085472 0.458417
424 2 0.403873 0.0369644 0.402658
425 4 0.388523 0.0314305 0.421604
725 4 0.362496 0.0951298 0.454408
2878 2 0.487004 0.0771727 0.453855
457 2 0.0120462 0.166745 0.428148
458 4 0.0296622 0.149158 0.42579
471 4 0.0111573 0.169313 0.492534
687 4 0.137569 0.145687 0.412853
321 4 0.267181 0.145469 0.429044
319 2 0.273389 0.121793 0.423938
1182 4 0.259633 0.0994166 0.495472
574 2 0.399496 0.154515 0.454652
575 4 0.407399 0.161864 0.432097
516 4 0.408684 0.14363 0.420478
576 4 0.391594 0.147166 0.477207
642 4 0.472256 0.112658 0.468001
2880 4 0.469358 0.0938499 0.459825
640 2 0.47243 0.122943 0.49079
459 4 0.99443 0.184332 0.430505
469 2 0.0263369 0.186289 0.482212
470 4 0.0415165 0.203266 0.471889
260 4 0.101673 0.206006 0.424557
261 4 0.126324 0.186189 0.463292
259 2 0.113999 0.196098 0.443924
1035 4 0.128921 0.191814 0.48166
1033 2 0.120911 0.18416 0.504074
695 4 0.113586 0.241911 0.470443
468 4 0.329352 0.16823 0.429025
411 4 0.260166 0.21065 0.476492
409 2 0.283082 0.20178 0.471872
410 4 0.305999 0.19291 0.467252
467 4 0.378898 0.168244 0.422243
466 2 0.354125 0.168237 0.425634
306 4 0.483964 0.220883 0.43599
304 2 0.485795 0.205082 0.416699
305 4 0.487626 0.189282 0.397407
348 4 0.0478331 0.284211 0.43696
327 4 0.10781 0.338614 0.479593
694 2 0.116121 0.261579 0.485673
696 4 0.118657 0.281246 0.500902
325 2 0.0962693 0.335845 0.457586
10 3 0.177755 0.328747 0.479246
6 1 0.162951 0.336622 0.494657
651 4 0.247511 0.275589 0.432758
649 2 0.261022 0.291075 0.446999
650 4 0.274534 0.306561 0.46124
266 4 0.318898 0.288651 0.433344
267 4 0.358183 0.264147 0.452237
265 2 0.338541 0.276399 0.44279
812 4 0.318415 0.308544 0.496973
583 2 0.46245 0.282371 0.468991
584 4 0.487396 0.280989 0.468006
585 4 0.437504 0.283753 0.469976
326 4 0.0847286 0.333077 0.435579
7 3 0.141815 0.329295 0.489293
502 2 0.252179 0.400807 0.421618
711 4 0.170081 0.376029 0.48521
504 4 0.228848 0.400243 0.43059
709 2 0.185398 0.378521 0.465604
710 4 0.200714 0.381014 0.445999
774 4 0.239208 0.414887 0.476264
8 3 0.163079 0.359825 0.494624
772 2 0.238085 0.402508 0.497958
334 2 0.377997 0.376339 0.421384
238 2 0.387989 0.373537 0.481558
240 4 0.370405 0.372804 0.463797
335 4 0.376788 0.381626 0.445792
239 4 0.405573 0.374271 0.499319
1381 2 0.0232246 0.486889 0.450311
1383 4 0.0337152 0.473512 0.431976
681 4 0.0469974 0.406476 0.449233
679 2 0.0435977 0.430713 0.444113
383 4 0.0808688 0.415465 0.461972
539 4 0.079499 0.486185 0.494087
540 4 0.126832 0.500145 0.486
568 2 0.149529 0.46259 0.430461
569 4 0.135132 0.453735 0.448887
382 2 0.101631 0.427303 0.454625
384 4 0.122394 0.43914 0.447279
538 2 0.103166 0.493165 0.490043
636 4 0.237133 0.478985 0.451954
634 2 0.240622 0.456288 0.461846
635 4 0.244111 0.433591 0.471739
668 4 0.304247 0.460442 0.432821
667 2 0.304176 0.44517 0.452619
669 4 0.304106 0.429898 0.472417
588 4 0.381811 0.434578 0.430226
587 4 0.429547 0.42429 0.441003
663 4 0.443747 0.459446 0.495786
586 2 0.405679 0.429434 0.435614
1126 2 0.0351485 0.0587805 0.523703
1127 4 0.02791 0.0398831 0.509017
1128 4 0.0423871 0.0776779 0.538389
1058 4 0.129121 0.0676272 0.56083
1057 2 0.140298 0.0787442 0.580237
1030 2 0.254784 0.0782754 0.572557
1152 4 0.191163 0.0859815 0.493517
961 2 0.295297 0.0349449 0.513672
963 4 0.301269 0.0583269 0.520214
962 4 0.289325 0.0115629 0.50713
432 4 0.307308 0.0679465 0.503956
430 2 0.324831 0.0821979 0.514682
1217 4 0.399853 0.0475261 0.553537
1216 2 0.411511 0.0278754 0.563693
841 2 0.375188 0.0667617 0.530518
842 4 0.393226 0.0501114 0.535269
1218 4 0.423168 0.00822461 0.573848
1062 4 0.483953 0.0226238 0.541372
938 4 0.0985592 0.15217 0.572054
937 2 0.109637 0.141763 0.552201
939 4 0.120715 0.131355 0.532348
1154 4 0.161182 0.149487 0.584756
1032 4 0.247588 0.0866876 0.550138
1151 4 0.175259 0.124311 0.52142
1150 2 0.183211 0.105146 0.507468
899 4 0.303296 0.139671 0.56652
898 2 0.323501 0.152746 0.559738
843 4 0.35715 0.0834119 0.525767
431 4 0.342353 0.0964494 0.525408
641 4 0.472604 0.133228 0.51358
877 2 0.0809729 0.211345 0.573317
878 4 0.0633034 0.21481 0.555968
1199 4 0.0132031 0.194169 0.558369
1034 4 0.112901 0.176505 0.526489
879 4 0.0986424 0.207879 0.590665
856 2 0.238419 0.22949 0.542278
858 4 0.257819 0.230348 0.558028
1221 4 0.200945 0.186843 0.57644
857 4 0.219018 0.228632 0.526528
797 4 0.210902 0.238375 0.584493
900 4 0.343705 0.165821 0.552955
872 4 0.414484 0.241334 0.506481
3159 4 0.483352 0.179777 0.537995
983 4 0.0322984 0.341472 0.554369
982 2 0.0202277 0.336664 0.575732
1258 2 0.152083 0.284896 0.525635
1260 4 0.13369 0.275403 0.511609
9 3 0.16851 0.328699 0.515745
1259 4 0.170476 0.29439 0.539662
813 4 0.333532 0.271903 0.527463
871 2 0.39874 0.258061 0.516354
873 4 0.382996 0.274789 0.526228
811 2 0.325974 0.290223 0.512218
1189 2 0.224933 0.351 0.568557
773 4 0.236961 0.390128 0.519653
1190 4 0.240074 0.35531 0.549131
802 2 0.27298 0.364946 0.542772
803 4 0.278222 0.363108 0.567151
804 4 0.267738 0.366783 0.518394
928 2 0.354571 0.380022 0.574524
929 4 0.358893 0.387721 0.551131
925 2 0.461994 0.376558 0.531821
927 4 0.464205 0.396831 0.546289
926 4 0.459783 0.356285 0.517354
1161 4 0.144284 0.435451 0.564047
1159 2 0.15334 0.453016 0.579365
1171 2 0.231381 0.454222 0.569333
1173 4 0.216909 0.465877 0.552602
882 4 0.311942 0.448319 0.514939
880 2 0.326287 0.468119 0.520171
881 4 0.340631 0.487919 0.525403
1952 4 0.342809 0.476762 0.568872
1002 4 0.404525 0.443983 0.557575
1951 2 0.351112 0.496496 0.581786
1000 2 0.429387 0.442208 0.559561
1001 4 0.454248 0.440432 0.561547
662 4 0.478577 0.480924 0.524531
661 2 0.461162 0.470185 0.510158
1185 4 0.00295942 0.0553713 0.642093
825 4 0.142814 0.0271902 0.65062
823 2 0.151469 0.00441703 0.644994
1031 4 0.261981 0.0698631 0.594976
949 2 0.272245 0.0294614 0.603922
951 4 0.265229 0.053408 0.605509
950 4 0.27926 0.00551474 0.602334
1092 4 0.32915 0.994535 0.651042
809 4 0.477535 0.0732123 0.614755
808 2 0.45952 0.0763029 0.631816
1083 4 0.0658363 0.0884802 0.611106
1082 4 0.0506894 0.0922416 0.658615
1081 2 0.0582628 0.0903609 0.634861
1059 4 0.151476 0.0898612 0.599645
1153 2 0.161494 0.127457 0.596577
1155 4 0.161805 0.105426 0.608398
909 4 0.157839 0.156236 0.653084
1284 4 0.173787 0.0912777 0.647245
1283 4 0.214381 0.120456 0.64601
1282 2 0.194084 0.105867 0.646628
1005 4 0.323966 0.0986871 0.655364
810 4 0.441505 0.0793936 0.648877
1272 4 0.113405 0.221104 0.5864
1270 2 0.126856 0.21313 0.60591
1271 4 0.140307 0.205157 0.625421
1210 2 0.226924 0.180406 0.655499
1212 4 0.214345 0.175705 0.634408
1219 2 0.19912 0.181837 0.600869
1220 4 0.197296 0.176831 0.625298
796 2 0.223904 0.236351 0.605754
798 4 0.236905 0.234326 0.627015
791 4 0.327966 0.23972 0.582253
1211 4 0.239503 0.185107 0.676591
904 2 0.48908 0.238741 0.606549
906 4 0.471553 0.233282 0.589573
1024 2 0.447956 0.202361 0.652885
1025 4 0.452995 0.222318 0.638689
905 4 0.506607 0.244201 0.623524
1243 2 0.0694829 0.271201 0.618917
1244 4 0.0666884 0.266137 0.594592
1245 4 0.0722774 0.276266 0.643242
1209 4 0.123222 0.26256 0.65814
946 2 0.182994 0.270293 0.625291
947 4 0.203613 0.256159 0.625782
948 4 0.162374 0.284428 0.624799
792 4 0.292635 0.27463 0.576441
790 2 0.310301 0.257175 0.579347
1238 4 0.303554 0.290569 0.583177
1237 2 0.298134 0.307312 0.600938
954 4 0.41635 0.278908 0.592639
952 2 0.440159 0.286277 0.594651
953 4 0.463967 0.293646 0.596664
984 4 0.00815714 0.331856 0.597095
1040 4 0.0797951 0.402494 0.633975
1039 2 0.0615376 0.391712 0.620723
1041 4 0.04328 0.380931 0.607472
3263 4 0.00306711 0.347128 0.608767
1137 4 0.115941 0.387838 0.582796
897 4 0.155508 0.386041 0.589524
1136 4 0.0962421 0.350076 0.609001
1135 2 0.106092 0.368957 0.595898
992 4 0.144081 0.412107 0.653777
991 2 0.121752 0.405965 0.644348
993 4 0.099424 0.399824 0.634919
1191 4 0.209793 0.346689 0.587983
896 4 0.192274 0.353014 0.581897
895 2 0.173891 0.369528 0.58571
1239 4 0.292714 0.324056 0.618699
806 4 0.334252 0.346413 0.658679
930 4 0.35025 0.372324 0.597917
1204 2 0.403816 0.402676 0.635319
1205 4 0.419483 0.386117 0.645591
1172 4 0.245853 0.442567 0.586063
1187 4 0.210399 0.488545 0.602563
1160 4 0.162396 0.47058 0.594684
1186 2 0.204856 0.503979 0.621437
889 2 0.312008 0.458785 0.604571
891 4 0.292199 0.471629 0.612807
1206 4 0.388149 0.419236 0.625047
890 4 0.331816 0.445941 0.596335
1269 4 0.424225 0.463666 0.649205
944 4 0.078918 0.0613584 0.678483
943 2 0.0713301 0.0392244 0.669669
945 4 0.0637421 0.0170904 0.660855
1147 2 0.216211 0.079 0.736523
1149 4 0.219794 0.0607666 0.753253
1090 2 0.340335 0.00593726 0.670279
1091 4 0.35152 0.01734 0.689516
1163 4 0.467909 0.0401172 0.675052
1162 2 0.489142 0.0456368 0.687045
42 3 0.427567 0.0670036 0.690131
2320 2 0.497147 0.00884145 0.742153
2283 4 0.424842 0.00482247 0.672132
45 3 0.428222 0.0903603 0.661029
1076 4 0.0365869 0.0921518 0.671695
862 2 0.0509371 0.12203 0.742906
864 4 0.0452865 0.119622 0.718669
1075 2 0.0331453 0.0997914 0.695253
1077 4 0.0297037 0.107431 0.718811
907 2 0.155525 0.146474 0.675987
908 4 0.153211 0.136713 0.69889
1227 4 0.158979 0.130462 0.716127
1148 4 0.212628 0.0972334 0.719794
1225 2 0.181186 0.121238 0.722977
1226 4 0.203393 0.112013 0.729827
829 2 0.332315 0.158219 0.717912
1003 2 0.335986 0.0901607 0.675563
831 4 0.342176 0.141841 0.734026
1004 4 0.348007 0.0816342 0.695762
43 3 0.410818 0.100542 0.692826
41 1 0.428833 0.0890701 0.683758
1142 4 0.415943 0.144604 0.723307
44 3 0.448723 0.0980319 0.691664
3425 4 0.499438 0.150055 0.704056
851 4 0.0648695 0.177898 0.720532
852 4 0.0334614 0.204349 0.691991
850 2 0.0491654 0.191123 0.706262
1213 2 0.0191692 0.216238 0.749665
1107 4 0.0685315 0.186067 0.739085
1178 4 0.00945653 0.231367 0.707739
1215 4 0.0127829 0.225117 0.72718
1105 2 0.0833131 0.184118 0.759157
1207 2 0.109896 0.244245 0.668728
1208 4 0.0965697 0.225929 0.679317
1129 2 0.197452 0.197823 0.742254
1131 4 0.206876 0.220798 0.745175
1130 4 0.188028 0.174849 0.739332
830 4 0.322453 0.174597 0.701797
886 2 0.281885 0.183185 0.684466
888 4 0.258558 0.186725 0.676193
887 4 0.305213 0.179644 0.69274
976 2 0.28273 0.205368 0.7511
978 4 0.267921 0.185286 0.749491
1193 4 0.374975 0.236604 0.687522
1192 2 0.360984 0.217677 0.695959
1194 4 0.346992 0.19875 0.704397
1143 4 0.42954 0.19217 0.716009
1141 2 0.422742 0.168387 0.719658
1026 4 0.442916 0.182405 0.66708
1261 2 0.438099 0.237754 0.720708
1263 4 0.451237 0.2466 0.70136
1262 4 0.424961 0.228909 0.740056
1145 4 0.494072 0.21061 0.735574
820 2 0.16542 0.267965 0.729799
821 4 0.16411 0.265582 0.704943
1065 4 0.238558 0.272817 0.690251
1063 2 0.254706 0.290838 0.696549
1064 4 0.270853 0.308859 0.702847
807 4 0.345481 0.329669 0.704442
3123 4 0.470178 0.277041 0.676788
3121 2 0.490047 0.26205 0.674399
3274 2 0.0051135 0.387695 0.724808
892 2 0.0523166 0.388943 0.690168
893 4 0.0647633 0.39203 0.668703
894 4 0.0398698 0.385856 0.711632
3276 4 0.0227463 0.376161 0.711346
940 2 0.13834 0.385389 0.739416
1067 4 0.161181 0.41132 0.716635
941 4 0.1573 0.400436 0.733148
1028 4 0.21585 0.385874 0.681029
1066 2 0.180384 0.402708 0.703135
1068 4 0.199587 0.394095 0.689635
1027 2 0.239153 0.391778 0.674151
805 2 0.339867 0.338041 0.681561
1029 4 0.262456 0.397681 0.667274
1019 4 0.393785 0.36651 0.709341
1281 4 0.0245373 0.460327 0.717096
1280 4 0.0546939 0.42178 0.706828
1279 2 0.0396156 0.441054 0.711962
1983 4 0.0349799 0.47792 0.713009
1981 2 0.0336689 0.489874 0.73493
1176 4 0.187206 0.495842 0.713432
1174 2 0.20928 0.499619 0.702313
1139 4 0.270016 0.430021 0.720009
1138 2 0.290768 0.44285 0.71454
1140 4 0.311521 0.45568 0.709071
1228 2 0.368418 0.459098 0.709431
1229 4 0.360648 0.482588 0.713037
1230 4 0.376188 0.435608 0.705825
1267 2 0.438843 0.472836 0.667299
1100 4 0.435324 0.450705 0.733695
1099 2 0.455582 0.451639 0.71907
1101 4 0.475841 0.452573 0.704445
1294 2 0.00494916 0.033396 0.807681
911 4 0.0793829 0.0492081 0.820925
1203 4 0.106574 0.0827347 0.768427
1201 2 0.106452 0.0582726 0.763253
1202 4 0.106329 0.0338105 0.758079
2049 4 0.0980082 0.0171427 0.76344
1255 2 0.282226 0.0696817 0.817461
1256 4 0.303249 0.0831518 0.818784
1257 4 0.261203 0.0562116 0.816138
975 4 0.362006 0.0203013 0.815579
973 2 0.360735 0.0126242 0.839341
1112 4 0.426478 0.0769546 0.820874
846 4 0.479448 0.06255 0.762146
1113 4 0.421281 0.0447083 0.783008
844 2 0.468835 0.0441101 0.775281
1111 2 0.423879 0.0608315 0.801941
845 4 0.458223 0.0256703 0.788416
863 4 0.0565878 0.124439 0.767143
832 2 0.0178988 0.120662 0.787451
833 4 0.0369518 0.126158 0.772221
34 3 0.103405 0.149888 0.826345
31 1 0.117495 0.156104 0.808988
33 3 0.126096 0.137214 0.798616
839 4 0.262515 0.150553 0.792497
838 2 0.267031 0.130193 0.80629
840 4 0.271547 0.109833 0.820083
1084 2 0.360543 0.137111 0.805607
1085 4 0.378085 0.123181 0.816717
1086 4 0.343002 0.151041 0.794498
819 4 0.368839 0.105223 0.817847
1214 4 0.0255555 0.207359 0.772149
1073 4 0.0804555 0.238379 0.78953
32 3 0.1349 0.168439 0.817594
1106 4 0.0980947 0.182169 0.779229
35 3 0.106089 0.168755 0.793872
1072 2 0.105253 0.238473 0.786328
1074 4 0.130051 0.238567 0.783127
1277 4 0.195921 0.221278 0.761831