ITEM: TIMESTEP
1320000
ITEM: NUMBER OF ATOMS
4590
ITEM: BOX BOUNDS pp pp pp
-9.9985700000000008e+00 9.9985700000000008e+00
-9.9985700000000008e+00 9.9985700000000008e+00
-9.9985700000000008e+00 9.9985700000000008e+00
ITEM: ATOMS id type xs ys zs
463 2 0.0488675 0.0762286 0.0273048
464 4 0.0453765 0.0537276 0.0169755
3290 4 0.0585149 0.0484326 0.00262484
1668 4 0.0404682 0.0304784 0.0507566
1666 2 0.0609843 0.027481 0.064731
1667 4 0.0815004 0.0244835 0.0787054
1476 4 0.226208 0.0349977 0.064105
1474 2 0.242147 0.0242088 0.0481449
1475 4 0.258086 0.01342 0.0321848
490 2 0.289522 0.016166 0.00817293
986 4 0.340715 0.0378214 0.0322507
985 2 0.354639 0.0277926 0.014065
745 2 0.457694 0.0661449 0.0167324
747 4 0.462309 0.0683032 0.0412115
2722 2 0.475202 0.0686248 0.0816764
2724 4 0.470088 0.0750198 0.0580516
1826 4 0.451344 0.0123137 0.0475617
465 4 0.0523586 0.0987297 0.0376341
591 4 0.0404269 0.092614 0.0554305
701 4 0.0613202 0.117392 0.031841
700 2 0.0451954 0.136312 0.0345277
702 4 0.0290706 0.155231 0.0372143
3234 4 0.01712 0.151335 0.992965
589 2 0.042862 0.101713 0.0785921
2760 4 0.0122262 0.144456 0.0411015
423 4 0.113318 0.159065 0.0363254
567 4 0.15009 0.129916 0.0639942
566 4 0.180024 0.091017 0.0735599
1133 4 0.216147 0.142228 0.010134
360 4 0.234799 0.148108 0.0129234
358 2 0.252287 0.138664 0.0280948
565 2 0.165057 0.110467 0.068777
359 4 0.269775 0.129221 0.0432663
553 2 0.0441712 0.194222 0.0298998
422 4 0.0692354 0.170826 0.056798
555 4 0.0532751 0.177002 0.0455766
554 4 0.0350674 0.211443 0.0142231
2835 4 0.0148353 0.212953 0.0174277
421 2 0.0912767 0.164945 0.0465617
506 4 0.194164 0.230219 0.0445806
737 4 0.19184 0.210098 0.0485032
736 2 0.206255 0.195143 0.0624219
354 4 0.239822 0.183438 0.0727398
353 4 0.288667 0.194063 0.0713075
461 4 0.291794 0.213443 0.0672819
352 2 0.264245 0.188751 0.0720237
323 4 0.405322 0.228661 0.0425511
1071 4 0.384886 0.225141 0.0410859
1069 2 0.383894 0.23308 0.017397
322 2 0.429979 0.226308 0.0459682
1014 4 0.493486 0.213958 0.00473
324 4 0.454636 0.223954 0.0493854
1170 4 0.0605704 0.319192 0.00227333
1056 4 0.0690665 0.309545 0.0183196
294 4 0.141203 0.333464 0.0349085
292 2 0.154304 0.312195 0.0338434
293 4 0.167406 0.290925 0.0327783
505 2 0.182988 0.251099 0.0365632
507 4 0.171812 0.27198 0.0285458
481 2 0.273006 0.286712 0.0122673
482 4 0.286109 0.269593 0.0249343
483 4 0.259903 0.30383 0.9996
573 4 0.388774 0.285642 0.0406208
571 2 0.37248 0.290454 0.0589658
572 4 0.356186 0.295265 0.0773108
756 4 0.331408 0.289835 0.100732
456 4 0.151125 0.350504 0.0378639
454 2 0.150874 0.364616 0.0585024
455 4 0.150623 0.378729 0.0791409
607 2 0.244946 0.361578 0.0830214
252 4 0.270988 0.388081 0.0606716
250 2 0.275608 0.412115 0.0555551
608 4 0.260923 0.374179 0.0684915
524 4 0.378726 0.398633 0.0669873
671 4 0.416215 0.355923 0.0744727
281 4 0.426079 0.359599 0.0569764
280 2 0.44995 0.352827 0.0538988
282 4 0.473821 0.346054 0.0508212
104 3 0.48743 0.354494 0.0617632
550 2 0.0202325 0.486781 0.0453675
552 4 0.0264076 0.466503 0.0586286
314 4 0.028727 0.459432 0.0759689
793 2 0.161363 0.491914 0.991372
795 4 0.144178 0.476072 0.000253489
246 4 0.220116 0.502672 0.0134594
244 2 0.217678 0.479979 0.00324829
1440 4 0.240079 0.496104 0.0690728
251 4 0.280228 0.43615 0.0504385
272 4 0.255628 0.490651 0.0578753
523 2 0.369143 0.42167 0.0686009
228 4 0.418184 0.425082 0.0145694
525 4 0.35956 0.444708 0.0702144
1559 4 0.353242 0.486313 0.0862405
19 3 0.0448056 0.0319914 0.136386
20 3 0.0712817 0.00588869 0.130443
1422 4 0.0277915 0.0169701 0.143047
16 1 0.0674196 0.0270375 0.137957
17 3 0.0792159 0.0419502 0.125011
2480 4 0.0231382 0.0374893 0.143269
18 3 0.0744525 0.0290228 0.15998
652 2 0.239207 0.0605326 0.151129
654 4 0.230252 0.0509557 0.129839
484 2 0.322213 0.0229615 0.11914
486 4 0.314196 0.00523718 0.134848
485 4 0.33023 0.0406859 0.103431
297 4 0.337868 0.0447933 0.0855514
296 4 0.372799 0.0805706 0.0862468
295 2 0.355333 0.0626819 0.0858991
2723 4 0.480317 0.0622299 0.105301
2744 4 0.494712 0.00233963 0.160878
590 4 0.0452972 0.110812 0.101754
449 4 0.139187 0.113693 0.175377
582 4 0.314057 0.0942369 0.135612
580 2 0.302444 0.097729 0.157478
557 4 0.379099 0.0718837 0.102552
758 4 0.371126 0.0976508 0.161428
556 2 0.3951 0.0884143 0.112344
771 4 0.454806 0.167257 0.0714748
558 4 0.411101 0.104945 0.122136
337 2 0.0820798 0.248194 0.123464
339 4 0.0971797 0.236428 0.139549
477 4 0.155 0.218642 0.128347
738 4 0.220671 0.180188 0.0763406
475 2 0.177057 0.213653 0.139013
476 4 0.199115 0.208665 0.149679
460 2 0.312212 0.213098 0.0817098
277 2 0.282604 0.240926 0.14254
278 4 0.290811 0.238375 0.11906
462 4 0.33263 0.212753 0.0961377
755 4 0.301774 0.249988 0.106627
279 4 0.274396 0.243476 0.16602
255 4 0.329658 0.207437 0.115905
254 4 0.377652 0.194478 0.110484
630 4 0.391705 0.206493 0.101551
253 2 0.353655 0.200957 0.113194
769 2 0.467091 0.175564 0.091606
628 2 0.412315 0.220574 0.103004
770 4 0.479376 0.18387 0.111737
624 4 0.43601 0.231161 0.124288
629 4 0.432926 0.234655 0.104457
622 2 0.436241 0.242344 0.14665
338 4 0.0669798 0.25996 0.107378
611 4 0.223533 0.296103 0.115509
610 2 0.226792 0.320868 0.116631
754 2 0.316591 0.269911 0.103679
741 4 0.346788 0.300704 0.0939453
739 2 0.354698 0.321909 0.104575
596 4 0.463078 0.323914 0.140314
621 4 0.0330728 0.402249 0.106675
619 2 0.0471052 0.387373 0.121061
620 4 0.0611376 0.372496 0.135447
647 4 0.0787676 0.365745 0.142287
315 4 0.04429 0.415805 0.0948162
646 2 0.101009 0.373859 0.15033
648 4 0.12325 0.381972 0.158372
612 4 0.230051 0.345632 0.117753
609 4 0.228969 0.348976 0.0975514
536 4 0.174693 0.376642 0.140301
535 2 0.171737 0.357512 0.156128
302 4 0.325885 0.405152 0.149555
740 4 0.362607 0.343113 0.115206
387 4 0.327676 0.384815 0.149934
385 2 0.345238 0.369798 0.140384
386 4 0.362801 0.35478 0.130833
12 3 0.410272 0.366156 0.132504
11 1 0.408391 0.379862 0.150882
15 3 0.38698 0.379153 0.158608
672 4 0.394868 0.362114 0.119269
670 2 0.405542 0.359018 0.0968708
14 3 0.413851 0.401539 0.144663
495 4 0.42367 0.41569 0.133267
595 2 0.446404 0.338002 0.152508
313 2 0.0365085 0.437618 0.0853926
1789 2 0.0586639 0.493403 0.112108
1791 4 0.0491101 0.487682 0.134495
1466 4 0.0456817 0.502631 0.147837
1790 4 0.0682177 0.499124 0.0897211
626 4 0.172382 0.445136 0.129197
625 2 0.195321 0.44373 0.139045
627 4 0.218261 0.442323 0.148893
1438 2 0.243364 0.49454 0.0938103
1439 4 0.24665 0.492977 0.118548
638 4 0.232115 0.456118 0.156575
637 2 0.24269 0.476521 0.146724
639 4 0.253266 0.496925 0.136873
301 2 0.334688 0.424939 0.162051
494 4 0.419634 0.449433 0.0965807
493 2 0.421652 0.432562 0.114924
450 4 0.11695 0.0701615 0.185925
690 4 0.163783 0.0241809 0.227169
674 4 0.154113 0.0140805 0.242419
688 2 0.176176 0.00297358 0.222496
691 2 0.238506 0.0418666 0.203462
692 4 0.229748 0.0302282 0.223785
653 4 0.248163 0.0701095 0.172419
693 4 0.247265 0.053505 0.183139
1661 4 0.299524 0.00811785 0.149523
1700 4 0.321629 0.0631066 0.222714
1699 2 0.298014 0.0578541 0.229035
1701 4 0.2744 0.0526016 0.235356
21 1 0.354032 0.0659434 0.229636
25 3 0.353446 0.0553928 0.209462
759 4 0.368139 0.0614792 0.195829
23 3 0.332672 0.0670024 0.23864
757 2 0.369632 0.079565 0.178628
22 3 0.367571 0.0541121 0.243983
1760 4 0.476667 0.010562 0.165821
513 4 0.0332866 0.151094 0.200661
511 2 0.00958935 0.156397 0.194703
448 2 0.128068 0.091927 0.180651
236 4 0.139973 0.127423 0.190192
235 2 0.14516 0.151727 0.187433
237 4 0.150347 0.17603 0.184674
546 4 0.198816 0.120602 0.249438
581 4 0.290831 0.101221 0.179344
28 3 0.259665 0.105775 0.220246
30 3 0.286037 0.092166 0.197073
26 1 0.280846 0.109109 0.211379
29 3 0.281649 0.12943 0.200206
27 3 0.296131 0.109464 0.228566
24 3 0.362642 0.0873441 0.227131
312 4 0.409178 0.126256 0.187093
310 2 0.424771 0.145153 0.192088
311 4 0.440363 0.16405 0.197083
577 2 0.0680318 0.160666 0.206549
578 4 0.0443019 0.161488 0.214384
531 4 0.992544 0.186716 0.247433
579 4 0.0917618 0.159843 0.198714
283 2 0.269758 0.247061 0.19686
285 4 0.264026 0.231366 0.178259
522 4 0.487917 0.209 0.24798
703 2 0.0158003 0.32066 0.214081
704 4 0.0186127 0.306041 0.193992
443 4 0.0913488 0.276345 0.238311
396 4 0.0803232 0.273992 0.222319
394 2 0.0939973 0.271363 0.201552
395 4 0.107671 0.268734 0.180784
363 4 0.124009 0.263103 0.170435
361 2 0.14774 0.264127 0.178243
537 4 0.16878 0.338382 0.171954
362 4 0.171471 0.265152 0.186052
372 4 0.175301 0.259629 0.204317
370 2 0.185942 0.252937 0.225931
371 4 0.196582 0.246246 0.247546
284 4 0.275489 0.262756 0.215461
343 2 0.293216 0.318766 0.232481
345 4 0.293701 0.327636 0.209109
623 4 0.436472 0.253526 0.169013
527 4 0.4407 0.250619 0.189465
526 2 0.453833 0.270383 0.197344
528 4 0.466966 0.290148 0.205224
705 4 0.0129879 0.335279 0.234169
300 4 0.133724 0.380604 0.174977
298 2 0.135653 0.393562 0.196274
299 4 0.137582 0.406519 0.217571
597 4 0.429731 0.352091 0.164701
13 3 0.422987 0.372421 0.167314
643 2 0.447562 0.373697 0.201292
644 4 0.453545 0.380273 0.224661
645 4 0.441579 0.367122 0.177922
447 4 0.455961 0.395561 0.237615
263 4 0.0289501 0.446006 0.216452
262 2 0.0448197 0.440887 0.19782
264 4 0.0606893 0.435768 0.179189
417 4 0.159759 0.467711 0.189576
1430 4 0.163539 0.487384 0.193717
290 4 0.207201 0.430101 0.217727
416 4 0.200129 0.447037 0.210636
415 2 0.179944 0.457374 0.200106
289 2 0.21577 0.441248 0.238403
766 2 0.222035 0.499745 0.209573
768 4 0.2042 0.491232 0.194256
767 4 0.239871 0.508258 0.224891
303 4 0.343492 0.444725 0.174548
659 4 0.326491 0.448813 0.184745
660 4 0.337266 0.480012 0.222311
658 2 0.331878 0.464413 0.203528
713 4 0.377884 0.466652 0.23804
712 2 0.402646 0.463193 0.238326
231 4 0.338641 0.499164 0.224839
445 2 0.445865 0.418414 0.236619
446 4 0.435769 0.441267 0.235623
714 4 0.427407 0.459733 0.238613
232 2 0.0348732 0.0387642 0.306137
234 4 0.0199687 0.0588395 0.306277
317 4 0.0301025 0.0732973 0.299932
233 4 0.0497777 0.018689 0.305997
673 2 0.147736 0.0267162 0.263031
675 4 0.141358 0.0393519 0.283642
1406 4 0.224571 0.00914835 0.332361
723 4 0.240966 0.071177 0.259557
1518 4 0.37415 0.00623781 0.301983
697 2 0.379127 0.0358998 0.284856
699 4 0.381471 0.0242399 0.30685
698 4 0.376783 0.0475597 0.262862
333 4 0.384253 0.0663723 0.252174
331 2 0.402957 0.0792724 0.262611
744 4 0.474586 0.988676 0.27839
743 4 0.470248 0.0384942 0.278207
742 2 0.472417 0.013585 0.278299
351 4 0.479378 0.0567284 0.275898
349 2 0.460425 0.0729692 0.274415
316 2 0.0465682 0.0918884 0.297028
318 4 0.063034 0.110479 0.294124
399 4 0.132148 0.148367 0.324653
393 4 0.140221 0.165803 0.316705
545 4 0.194599 0.162914 0.275756
722 4 0.216509 0.113142 0.247661
721 2 0.228738 0.0921596 0.253609
544 2 0.196707 0.141758 0.262597
599 4 0.229296 0.14434 0.308533
404 4 0.246455 0.150701 0.300642
598 2 0.208832 0.135 0.319449
600 4 0.188367 0.125661 0.330364
332 4 0.421661 0.0921725 0.273048
350 4 0.441472 0.0892099 0.272931
762 4 0.421323 0.106471 0.307317
760 2 0.432699 0.124435 0.294163
761 4 0.444076 0.142399 0.281008
257 4 0.465975 0.0906787 0.333991
529 2 0.0138494 0.196177 0.256475
530 4 0.0351545 0.205639 0.265516
391 2 0.159251 0.167524 0.300579
275 4 0.159345 0.203146 0.34638
392 4 0.178281 0.169244 0.284452
403 2 0.246418 0.174442 0.292798
401 4 0.23199 0.21173 0.282992
400 2 0.216961 0.231109 0.287864
402 4 0.201932 0.250489 0.292735
405 4 0.246381 0.198184 0.284954
765 4 0.378557 0.18063 0.273671
763 2 0.403199 0.184865 0.273609
521 4 0.442298 0.201289 0.266958
520 2 0.465108 0.205145 0.257469
764 4 0.427842 0.1891 0.273547
2769 4 0.490799 0.173825 0.310473
442 2 0.0719504 0.285726 0.250995
444 4 0.0525519 0.295107 0.263678
390 4 0.0942731 0.277154 0.332204
344 4 0.292731 0.309896 0.255853
309 4 0.309962 0.309608 0.268427
307 2 0.308294 0.326917 0.286393
615 4 0.413103 0.317079 0.302872
541 2 0.449416 0.3009 0.299173
542 4 0.474412 0.301304 0.299624
543 4 0.42442 0.300497 0.298721
748 2 0.0768797 0.374075 0.260042
749 4 0.0561311 0.36582 0.27129
365 4 0.018293 0.386345 0.308749
364 2 0.0379534 0.373461 0.300226
366 4 0.0576138 0.360577 0.291702
549 4 0.013868 0.40237 0.324462
750 4 0.0976283 0.38233 0.248793
734 4 0.11242 0.371349 0.242505
733 2 0.130212 0.361968 0.257358
735 4 0.148004 0.352586 0.272211
678 4 0.160522 0.352677 0.331811
676 2 0.158832 0.346505 0.30764
601 2 0.116199 0.391837 0.324682
603 4 0.119293 0.367122 0.322499
677 4 0.157142 0.340333 0.283469
497 4 0.324175 0.346383 0.321522
308 4 0.306626 0.344225 0.30436
729 4 0.323173 0.35469 0.30218
727 2 0.319653 0.378574 0.308685
728 4 0.316132 0.402459 0.315189
434 4 0.330615 0.417149 0.325858
614 4 0.403204 0.36293 0.320206
613 2 0.408153 0.340004 0.311539
602 4 0.113105 0.416552 0.326865
777 4 0.110691 0.427981 0.310934
1757 4 0.102882 0.46824 0.268684
1756 2 0.094065 0.491529 0.270936
776 4 0.119762 0.466595 0.280481
775 2 0.115227 0.447288 0.295707
291 4 0.224339 0.452395 0.25908
1545 4 0.203387 0.481326 0.315446
414 4 0.204153 0.453427 0.262686
413 4 0.203824 0.48899 0.297842
412 2 0.203988 0.471209 0.280264
1543 2 0.186626 0.494404 0.328608
1435 2 0.246522 0.466295 0.313258
1436 4 0.223263 0.475339 0.311712
438 4 0.327529 0.482414 0.282598
437 4 0.286903 0.460919 0.302301
436 2 0.307216 0.471666 0.292449
1437 4 0.269782 0.457251 0.314803
5 3 0.291545 0.454933 0.323993
2 3 0.310819 0.423099 0.321156
433 2 0.353138 0.422107 0.316198
435 4 0.375661 0.427066 0.306539
2862 4 0.504522 0.439765 0.295282
120 3 0.496529 0.434571 0.313051
2861 4 0.477385 0.463331 0.260512
2860 2 0.490954 0.451548 0.277897
2584 2 0.00461798 0.0723274 0.404835
428 4 0.0828391 0.0457628 0.367226
427 2 0.0756761 0.0234554 0.375958
606 4 0.129228 0.0370748 0.387881
731 4 0.100799 0.0538161 0.372953
730 2 0.116241 0.0732405 0.369885
604 2 0.147815 0.025943 0.375399
605 4 0.166402 0.0148113 0.362917
682 2 0.219774 0.0508952 0.392445
684 4 0.222101 0.0337052 0.374438
683 4 0.217448 0.0680852 0.410453
249 4 0.312629 0.0745782 0.328807
247 2 0.321616 0.0836511 0.350303
439 2 0.263517 0.00841459 0.41272
425 4 0.394851 0.0461861 0.380825
1749 4 0.479152 0.00135238 0.332676
424 2 0.417424 0.0535185 0.372958
480 4 0.493013 0.0155338 0.338807
256 2 0.462404 0.0741906 0.352445
426 4 0.439997 0.0608509 0.365092
258 4 0.458833 0.0577025 0.3709
2878 2 0.49511 0.0577474 0.408115
397 2 0.133671 0.130532 0.34211
732 4 0.131683 0.0926648 0.366817
398 4 0.135194 0.112696 0.359567
686 4 0.17633 0.14747 0.392424
685 2 0.183785 0.136952 0.371001
687 4 0.191241 0.126434 0.349577
248 4 0.330603 0.092724 0.371799
321 4 0.278038 0.115177 0.377639
319 2 0.269448 0.112286 0.400942
633 4 0.337437 0.111283 0.374523
632 4 0.383393 0.126027 0.361433
631 2 0.360415 0.118655 0.367978
420 4 0.413157 0.170342 0.380677
2654 4 0.0122089 0.247529 0.369168
2653 2 0.992127 0.238776 0.357115
274 2 0.145625 0.224021 0.347469
276 4 0.131905 0.244896 0.348557
474 4 0.176611 0.209126 0.339378
472 2 0.201184 0.207394 0.34366
473 4 0.225758 0.205661 0.347942
708 4 0.236084 0.199052 0.364921
706 2 0.252424 0.190143 0.381619
707 4 0.268763 0.181234 0.398318
419 4 0.394113 0.21047 0.357705
716 4 0.394119 0.230354 0.356227
715 2 0.369854 0.234357 0.360738
717 4 0.345588 0.238361 0.365248
453 4 0.490795 0.163155 0.409295
418 2 0.403635 0.190406 0.369191
269 4 0.460315 0.257792 0.376159
516 4 0.437416 0.182416 0.424341
617 4 0.060288 0.262443 0.383912
347 4 0.0150433 0.291382 0.410416
618 4 0.0146999 0.274613 0.400475
616 2 0.0374939 0.268528 0.392194
388 2 0.115532 0.270324 0.343454
389 4 0.136791 0.263494 0.354705
374 4 0.234262 0.321493 0.352362
510 4 0.245035 0.306666 0.362334
508 2 0.266358 0.293782 0.360213
509 4 0.287682 0.280899 0.358091
488 4 0.312326 0.271763 0.398421
498 4 0.322542 0.320047 0.364001
487 2 0.293089 0.262297 0.411287
376 2 0.334915 0.280677 0.359908
378 4 0.330607 0.304412 0.353328
377 4 0.339223 0.256943 0.366488
268 2 0.485113 0.25908 0.379087
548 4 0.0375789 0.414989 0.366643
547 2 0.0257235 0.408679 0.345552
502 2 0.215228 0.401171 0.386015
504 4 0.208731 0.38184 0.371548
373 2 0.226324 0.342817 0.362728
375 4 0.218387 0.364141 0.373094
496 2 0.323358 0.333215 0.342762
3 3 0.28598 0.427375 0.349038
561 4 0.47354 0.418712 0.405015
407 4 0.0467679 0.428851 0.379565
406 2 0.0557867 0.441415 0.399212
710 4 0.158248 0.431091 0.423844
503 4 0.221724 0.420502 0.400481
636 4 0.208772 0.435003 0.408402
1 1 0.301618 0.438266 0.335801
668 4 0.33149 0.446812 0.364959
4 3 0.318493 0.447056 0.349082
667 2 0.341351 0.431655 0.382228
669 4 0.351213 0.416498 0.399496
336 4 0.359069 0.42238 0.418049
594 4 0.444761 0.495837 0.391155
753 4 0.495527 0.432537 0.348221
119 3 0.512369 0.424341 0.34564
752 4 0.47704 0.4352 0.394609
593 4 0.452417 0.469899 0.349091
751 2 0.486284 0.433868 0.371415
592 2 0.448589 0.482868 0.370123
718 2 0.0552706 0.0382705 0.491656
2586 4 0.0186561 0.073563 0.425489
719 4 0.0727955 0.0361235 0.473951
368 4 0.10433 0.053568 0.428553
367 2 0.101554 0.0375831 0.447578
369 4 0.0987777 0.0215982 0.466603
2430 4 0.209248 0.0349035 0.454301
2428 2 0.234022 0.032994 0.451511
340 2 0.210582 0.0754824 0.493119
2429 4 0.258796 0.0310845 0.448721
1182 4 0.240192 0.065326 0.4936
441 4 0.267173 0.0250953 0.430984
1180 2 0.262647 0.055727 0.498969
432 4 0.317592 0.0892277 0.47668
2880 4 0.478994 0.0719663 0.420893
642 4 0.469255 0.0743771 0.438833
937 2 0.137239 0.162061 0.488
342 4 0.196648 0.0952982 0.486926
467 4 0.327237 0.128818 0.426667
726 4 0.311867 0.0847811 0.457359
724 2 0.289273 0.0915291 0.449043
725 4 0.266679 0.0982772 0.440727
320 4 0.260858 0.109395 0.424245
430 2 0.328089 0.0907944 0.499319
466 2 0.339276 0.117905 0.445671
468 4 0.351315 0.106993 0.464675
515 4 0.487115 0.176879 0.424098
641 4 0.466072 0.111517 0.472167
640 2 0.467663 0.0929472 0.4555
3158 4 0.473046 0.124765 0.485957
3157 2 0.474956 0.149009 0.480144
469 2 0.0419709 0.220115 0.460289
470 4 0.0186079 0.212826 0.46541
471 4 0.0653338 0.227404 0.455169
261 4 0.13505 0.205219 0.474924
260 4 0.0918491 0.219505 0.454179
259 2 0.113449 0.212362 0.464551
938 4 0.133989 0.185875 0.48111
411 4 0.241599 0.201875 0.448772
409 2 0.253306 0.185679 0.4638
650 4 0.230836 0.218983 0.447174
651 4 0.258931 0.244242 0.414412
410 4 0.265012 0.169484 0.478828
649 2 0.244884 0.231613 0.430793
576 4 0.410613 0.189449 0.477495
585 4 0.403702 0.249119 0.42597
574 2 0.414893 0.182778 0.453781
514 2 0.462265 0.179648 0.424219
575 4 0.419174 0.176107 0.430067
3159 4 0.476867 0.173252 0.47433
2814 4 0.0204437 0.319154 0.460795
348 4 0.0333248 0.321693 0.445739
346 2 0.0241841 0.306537 0.428077
695 4 0.115379 0.302603 0.460268
694 2 0.122317 0.289855 0.480629
696 4 0.129255 0.277108 0.500989
489 4 0.273853 0.252831 0.424153
267 4 0.347004 0.286441 0.424556
265 2 0.366347 0.270754 0.426777
266 4 0.38569 0.255067 0.428998
583 2 0.424576 0.247638 0.439653
2457 4 0.471479 0.306785 0.469957
2455 2 0.4596 0.286072 0.462539
2456 4 0.447722 0.265358 0.455121
584 4 0.445451 0.246157 0.453337
2813 4 0.0203046 0.365289 0.480088
2812 2 0.0203742 0.342222 0.470441
709 2 0.161683 0.40638 0.425502
326 4 0.0917253 0.392131 0.42403
10 3 0.158368 0.346457 0.470168
7 3 0.131171 0.370548 0.461632
327 4 0.112749 0.377958 0.467133
325 2 0.102237 0.385045 0.445582
6 1 0.153784 0.368189 0.465131
9 3 0.16012 0.381904 0.482742
8 3 0.16505 0.374385 0.445816
711 4 0.165117 0.381669 0.427159
804 4 0.292721 0.381615 0.501813
334 2 0.3669 0.398653 0.418982
335 4 0.374731 0.374925 0.419914
238 2 0.374194 0.361651 0.461547
240 4 0.374629 0.374458 0.440077
239 4 0.37376 0.348844 0.483017
2712 4 0.488697 0.413864 0.460086
2506 2 0.508988 0.35943 0.452316
2508 4 0.495531 0.380501 0.452618
559 2 0.478063 0.408186 0.427239
560 4 0.482585 0.397661 0.449464
408 4 0.0648055 0.45398 0.418858
680 4 0.0225321 0.462835 0.466216
679 2 0.0153324 0.480304 0.449841
1381 2 0.00698293 0.446493 0.500724
1383 4 0.00893935 0.46168 0.480959
681 4 0.00813271 0.497773 0.433465
382 2 0.123712 0.427189 0.501544
570 4 0.140916 0.440645 0.426571
568 2 0.13832 0.450131 0.449559
569 4 0.135725 0.459618 0.472547
384 4 0.133249 0.445647 0.487633
774 4 0.208414 0.476116 0.462967
772 2 0.203357 0.459312 0.480778
634 2 0.21183 0.451441 0.426993
635 4 0.214887 0.467878 0.445585
1401 4 0.347212 0.478996 0.486737
586 2 0.387966 0.500959 0.425107
1400 4 0.372146 0.470715 0.444188
1399 2 0.359679 0.474855 0.465462
588 4 0.373019 0.480957 0.426404
1126 2 0.0217465 0.0591965 0.533033
1127 4 0.0437492 0.051957 0.523618
720 4 0.0377458 0.0404174 0.50936
1059 4 0.112942 0.0762603 0.562
951 4 0.208804 0.0624133 0.584291
1031 4 0.213514 0.0479773 0.571736
1030 2 0.237308 0.048464 0.564069
949 2 0.186017 0.0625616 0.574001
341 4 0.224516 0.0556667 0.499312
961 2 0.29346 0.013545 0.529783
963 4 0.295779 0.030034 0.511131
1032 4 0.261102 0.0489507 0.556402
2195 4 0.285704 0.0136678 0.558957
1181 4 0.285102 0.0461279 0.504337
841 2 0.371545 0.0669352 0.533206
843 4 0.353742 0.0788896 0.520348
842 4 0.389347 0.0549808 0.546064
1217 4 0.406748 0.0651852 0.544185
4466 4 0.467972 0.0182439 0.557872
1062 4 0.478811 0.00735418 0.571443
1218 4 0.450244 0.0662666 0.519535
1216 2 0.428496 0.0657259 0.53186
4465 2 0.448539 0.0277916 0.570377
1033 2 0.0721472 0.160132 0.505466
1035 4 0.063222 0.138224 0.513564
939 4 0.140489 0.138246 0.494891
1151 4 0.143776 0.125432 0.510668
1155 4 0.123996 0.0861313 0.57619
1150 2 0.164406 0.111971 0.506382
1152 4 0.185037 0.0985101 0.502096
857 4 0.28884 0.151627 0.547892
899 4 0.307776 0.159291 0.54661
431 4 0.338587 0.0923611 0.521958
1199 4 0.0151434 0.172142 0.577984
1034 4 0.0810723 0.18204 0.497368
877 2 0.0805485 0.234626 0.574241
858 4 0.249843 0.180087 0.560928
898 2 0.330604 0.166896 0.55341
856 2 0.269342 0.165857 0.55441
798 4 0.268614 0.245135 0.568552
796 2 0.265036 0.220396 0.567948
797 4 0.261458 0.195657 0.567344
900 4 0.353431 0.174502 0.56021
871 2 0.347135 0.219174 0.561051
872 4 0.350235 0.194471 0.56336
904 2 0.48189 0.245316 0.578721
878 4 0.0795867 0.249832 0.554416
1258 2 0.166548 0.268425 0.522203
1260 4 0.143288 0.272566 0.514017
1259 4 0.189808 0.264283 0.530389
812 4 0.307927 0.284751 0.532751
811 2 0.316923 0.267018 0.54791
873 4 0.344036 0.243877 0.558742
813 4 0.325918 0.249285 0.563069
953 4 0.461145 0.272022 0.598385
1137 4 0.13807 0.369244 0.561717
383 4 0.114175 0.408731 0.515455
897 4 0.152835 0.356728 0.565767
1135 2 0.12313 0.370114 0.581747
895 2 0.177512 0.352742 0.566361
1189 2 0.227476 0.349237 0.533157
896 4 0.202189 0.348757 0.566956
1191 4 0.207396 0.353896 0.547309
1190 4 0.247555 0.344579 0.519005
803 4 0.257179 0.358981 0.528742
1173 4 0.252237 0.398258 0.581835
802 2 0.27495 0.370298 0.515277
928 2 0.374309 0.378497 0.551702
929 4 0.35776 0.389646 0.536635
1206 4 0.398724 0.352715 0.578664
930 4 0.390857 0.367347 0.566769
1204 2 0.410409 0.331444 0.584678
925 2 0.475238 0.399638 0.530392
926 4 0.476417 0.42459 0.529312
927 4 0.474059 0.374685 0.531472
538 2 0.0517384 0.473305 0.521718
540 4 0.0424075 0.450775 0.52724
539 4 0.0610693 0.495836 0.516196
936 4 0.00602393 0.458375 0.569921
1382 4 0.0050265 0.431305 0.52049
1160 4 0.196648 0.435743 0.572427
773 4 0.1983 0.442507 0.498588
1171 2 0.265323 0.416094 0.570181
1172 4 0.27841 0.43393 0.558528
882 4 0.281788 0.445379 0.541773
880 2 0.286267 0.4652 0.527203
881 4 0.290747 0.48502 0.512634
1454 4 0.29958 0.501203 0.503986
1001 4 0.476858 0.417878 0.560631
1000 2 0.467607 0.438602 0.571126
663 4 0.489012 0.437194 0.539781
661 2 0.5024 0.451726 0.524459
1002 4 0.458357 0.459325 0.581621
1185 4 0.0262863 0.0370912 0.658241
945 4 0.0433672 0.0273031 0.659594
1183 2 0.00686558 0.0502491 0.649587
943 2 0.0624364 0.0433989 0.658022
944 4 0.0815057 0.0594946 0.65645
1058 4 0.0961538 0.0413737 0.593651
1057 2 0.104548 0.058817 0.577826
825 4 0.100167 0.0206111 0.595891
823 2 0.112757 0.00199802 0.606855
950 4 0.163229 0.0627099 0.563711
2194 2 0.285035 0.0241789 0.581634
2196 4 0.284365 0.03469 0.604311
1004 4 0.332429 0.0442195 0.632149
1003 2 0.343725 0.056682 0.65065
4467 4 0.429106 0.0373393 0.582882
2283 4 0.42395 0.0508983 0.596589
2282 4 0.436852 0.0511577 0.644903
2281 2 0.430401 0.051028 0.620746
43 3 0.45135 0.0388887 0.647066
45 3 0.488948 0.0381681 0.645186
810 4 0.504408 0.0463223 0.634499
41 1 0.471099 0.0458494 0.657063
44 3 0.47169 0.06902 0.658147
1081 2 0.0394642 0.162268 0.603172
1083 4 0.0217228 0.147276 0.612426
1153 2 0.142832 0.101075 0.583052
1154 4 0.161667 0.116018 0.589914
1221 4 0.169166 0.10504 0.604403
1219 2 0.184298 0.112056 0.62303
1220 4 0.19943 0.119073 0.641657
1212 4 0.217781 0.129679 0.643995
1210 2 0.2427 0.128207 0.64542
1283 4 0.187146 0.113072 0.656713
1211 4 0.26762 0.126735 0.646845
1026 4 0.440346 0.170177 0.664738
1082 4 0.0572057 0.177261 0.593917
879 4 0.0815102 0.219421 0.594067
1209 4 0.0617904 0.243585 0.655253
1272 4 0.0959436 0.2058 0.598669
1270 2 0.109221 0.202803 0.619643
1271 4 0.122499 0.199806 0.640617
909 4 0.14283 0.205267 0.640213
907 2 0.161715 0.221232 0.643906
908 4 0.1806 0.237198 0.647599
947 4 0.196831 0.234445 0.636663
946 2 0.202819 0.239248 0.612867
948 4 0.208807 0.244051 0.589071
1142 4 0.347234 0.19254 0.666942
1141 2 0.367803 0.192721 0.652728
1143 4 0.388373 0.192902 0.638514
1025 4 0.399033 0.176405 0.637258
1024 2 0.419689 0.173291 0.650998
1243 2 0.0368408 0.302877 0.660238
1244 4 0.0583598 0.305513 0.647782
1238 4 0.255379 0.302701 0.590071
791 4 0.246873 0.261028 0.639636
1237 2 0.256414 0.327643 0.588654
792 4 0.263328 0.290203 0.602504
790 2 0.255101 0.275616 0.62107
905 4 0.478441 0.266946 0.590781
952 2 0.45094 0.2948 0.596901
954 4 0.440735 0.317578 0.595417
3121 2 0.49246 0.258717 0.65704
3123 4 0.495132 0.2794 0.643246
1205 4 0.422094 0.310172 0.590692
983 4 0.0155442 0.374125 0.654752
1039 2 0.0549023 0.389239 0.643538
1041 4 0.0337948 0.376393 0.647363
1040 4 0.0760099 0.402085 0.639713
1136 4 0.10819 0.370984 0.601778
993 4 0.0905882 0.416042 0.636057
1239 4 0.257449 0.352585 0.587238
991 2 0.112472 0.427972 0.634064
992 4 0.134355 0.439902 0.632071
2172 4 0.123843 0.47089 0.656473
2170 2 0.114677 0.493835 0.65264
1159 2 0.194005 0.45873 0.581903
2243 4 0.187247 0.500006 0.598936
1161 4 0.191361 0.481716 0.59138
891 4 0.318016 0.472348 0.597366
1952 4 0.322086 0.491961 0.594748
890 4 0.308115 0.423712 0.603469
889 2 0.313066 0.44803 0.600417
1910 4 0.465234 0.479135 0.584399
1909 2 0.445068 0.492032 0.591621
2319 4 0.0244469 0.0297233 0.69581
1075 2 0.0403104 0.0406188 0.730284
1076 4 0.0227438 0.0317709 0.714847
1005 4 0.35502 0.0691446 0.66915
1163 4 0.484755 0.0445578 0.690723
42 3 0.472005 0.0373794 0.678431
1282 2 0.19561 0.112871 0.68024
1284 4 0.204074 0.112669 0.703766
1227 4 0.212624 0.131115 0.706992
1225 2 0.218749 0.143361 0.727913
888 4 0.276837 0.128182 0.664452
886 2 0.292004 0.134609 0.683262
887 4 0.307172 0.141035 0.702073
830 4 0.31387 0.137138 0.720125
829 2 0.333218 0.151233 0.727348
1146 4 0.476845 0.13594 0.729436
1144 2 0.474873 0.152786 0.711065
3270 4 0.469815 0.142939 0.746296
1105 2 0.0576482 0.197835 0.73561
1107 4 0.0421747 0.20126 0.71627
851 4 0.0256632 0.195422 0.707521
850 2 0.0104799 0.215254 0.706374
1106 4 0.0731217 0.194411 0.75495
1178 4 0.996975 0.242641 0.686593
852 4 0.995297 0.235087 0.705227
822 4 0.148607 0.232489 0.702616
1278 4 0.155978 0.214766 0.707127
1276 2 0.158067 0.199103 0.726505
916 2 0.28488 0.241408 0.740588
918 4 0.302526 0.227348 0.751364
831 4 0.352565 0.165328 0.734571
1192 2 0.38463 0.222758 0.718411
1194 4 0.4065 0.210675 0.719348
1262 4 0.418682 0.209894 0.703303
1193 4 0.36276 0.23484 0.717473
1261 2 0.438179 0.194345 0.701495
1263 4 0.457676 0.178796 0.699687
1145 4 0.472901 0.169633 0.692694
3122 4 0.489788 0.238035 0.670835
1245 4 0.0153217 0.300241 0.672695
1207 2 0.0606653 0.249555 0.679507
1179 4 0.000575172 0.288362 0.666659
1208 4 0.0595403 0.255526 0.703761
1177 2 0.998775 0.265502 0.676626
820 2 0.136919 0.249453 0.716787
821 4 0.125231 0.266416 0.730957
1064 4 0.207933 0.279715 0.71635
1063 2 0.210665 0.263944 0.69714
1065 4 0.213397 0.248173 0.677931
917 4 0.267235 0.255469 0.729813
1097 4 0.26187 0.265231 0.746406
1096 2 0.256383 0.289605 0.74739
807 4 0.427376 0.322135 0.715402
806 4 0.421746 0.274372 0.729101
805 2 0.424561 0.298253 0.722252
894 4 0.0818333 0.379813 0.701665
892 2 0.0773908 0.403346 0.694477
941 4 0.153976 0.421588 0.697232
940 2 0.139283 0.423858 0.717334
1067 4 0.171559 0.415173 0.705332
1066 2 0.193739 0.403855 0.703071
1068 4 0.21592 0.392537 0.70081
1028 4 0.225542 0.403918 0.687511
1027 2 0.248016 0.414746 0.685813
1140 4 0.306018 0.396255 0.733677
1138 2 0.293655 0.409386 0.71636
1018 2 0.410123 0.347759 0.742245
1230 4 0.364095 0.405709 0.758346
1020 4 0.428154 0.333759 0.732044
3330 4 0.472506 0.419736 0.687329
1280 4 0.0409179 0.427798 0.742108
2020 2 0.0784406 0.497711 0.727136
1281 4 0.0582369 0.465658 0.714407
1279 2 0.0495774 0.446728 0.728258
2021 4 0.0647144 0.484187 0.743069
893 4 0.0729484 0.426879 0.68729
942 4 0.124589 0.426129 0.737437
1175 4 0.22085 0.511198 0.692532
1029 4 0.270489 0.425574 0.684116
1139 4 0.281291 0.422517 0.699042
1989 4 0.318355 0.444079 0.740362
1229 4 0.337516 0.442653 0.737624
1228 2 0.350806 0.424181 0.747985
3328 2 0.46393 0.419904 0.710815
3329 4 0.455354 0.420071 0.734301
1077 4 0.057877 0.0494668 0.745722
1203 4 0.0678976 0.0472718 0.76304
1201 2 0.091939 0.0423652 0.767848
1202 4 0.11598 0.0374587 0.772656
2049 4 0.113613 0.0177308 0.780036
1148 4 0.201517 0.0273913 0.756282
1147 2 0.210806 0.03664 0.777574
1149 4 0.220095 0.0458887 0.798866
1256 4 0.320648 0.0710098 0.766721
1049 4 0.258556 0.0318374 0.834504
1048 2 0.279612 0.0184876 0.8326
1255 2 0.299341 0.0584749 0.770475
1257 4 0.278035 0.04594 0.774229
1050 4 0.300668 0.00513783 0.830696
1112 4 0.419745 0.0133379 0.807919
846 4 0.466437 0.0417518 0.78724
1113 4 0.448343 0.0420557 0.778625
1111 2 0.434044 0.0276968 0.793272
844 2 0.489776 0.0506719 0.78628
864 4 0.0363732 0.091314 0.816254
911 4 0.0377257 0.0953599 0.835823
862 2 0.0240746 0.104677 0.799068
832 2 0.0353537 0.152692 0.768561
863 4 0.011776 0.11804 0.781883
833 4 0.0229605 0.131232 0.77189
33 3 0.0642479 0.168859 0.786965