ITEM: TIMESTEP
2060000
ITEM: NUMBER OF ATOMS
4590
ITEM: BOX BOUNDS pp pp pp
-9.9985700000000008e+00 9.9985700000000008e+00
-9.9985700000000008e+00 9.9985700000000008e+00
-9.9985700000000008e+00 9.9985700000000008e+00
ITEM: ATOMS id type xs ys zs
1668 4 0.0624766 0.0458143 0.0534711
1666 2 0.0539445 0.0276613 0.0683993
3290 4 0.0845791 0.025103 0.0122505
1667 4 0.0454124 0.00950831 0.0833275
464 4 0.0819448 0.0428268 0.00463922
463 2 0.077405 0.0672791 0.00205972
566 4 0.182665 0.0320312 0.0256821
565 2 0.183469 0.0517731 0.041005
567 4 0.184272 0.071515 0.0563279
492 4 0.27074 0.0136053 0.0629494
1475 4 0.260223 0.0155993 0.0787307
490 2 0.274223 0.0270809 0.0421778
491 4 0.277706 0.0405564 0.0214063
986 4 0.292176 0.0313268 0.009877
985 2 0.310668 0.0187967 0.998642
2143 2 0.371053 0.00457113 0.995792
745 2 0.466555 0.0428547 0.0451446
747 4 0.484351 0.0465848 0.0623077
2722 2 0.497731 0.07068 0.0833187
746 4 0.44876 0.0391246 0.0279815
700 2 0.0604399 0.131182 0.00606116
702 4 0.061309 0.155445 0.0120389
465 4 0.0728653 0.0917314 0.99948
358 2 0.229059 0.167517 0.0230454
359 4 0.245378 0.153404 0.0356831
665 4 0.363927 0.169283 0.0131445
555 4 0.0506391 0.169291 0.0211209
553 2 0.0412962 0.188439 0.00803546
836 4 0.055712 0.239094 0.999433
554 4 0.0319533 0.207588 0.99495
422 4 0.10595 0.180373 0.0413875
421 2 0.109652 0.184297 0.0169727
360 4 0.21274 0.181629 0.0104078
737 4 0.210684 0.226479 0.0623012
736 2 0.219368 0.203436 0.066638
738 4 0.228052 0.180394 0.0709748
506 4 0.211509 0.239646 0.0468965
354 4 0.232141 0.185335 0.0908099
664 2 0.351454 0.188867 0.00386845
1069 2 0.381314 0.236148 0.000517117
254 4 0.388535 0.25469 0.0812035
1070 4 0.397311 0.217453 0.00496691
2807 4 0.00467125 0.283054 0.0213704
294 4 0.146167 0.335721 0.055374
456 4 0.130778 0.337751 0.044133
292 2 0.162593 0.317201 0.0518583
507 4 0.193024 0.285945 0.0508149
293 4 0.17902 0.298681 0.0483426
505 2 0.202267 0.262796 0.0488557
481 2 0.300164 0.281663 0.0124946
482 4 0.303221 0.302615 0.0257928
1071 4 0.365317 0.254842 0.996067
573 4 0.359775 0.273157 0.00115713
571 2 0.355314 0.288096 0.0207047
572 4 0.350854 0.303035 0.0402522
741 4 0.35079 0.291389 0.0899599
323 4 0.447857 0.241215 0.0720985
324 4 0.468692 0.284033 0.0568266
322 2 0.458274 0.262624 0.0644626
1047 4 0.497786 0.333606 0.0350545
315 4 0.0538359 0.395459 0.0647225
454 2 0.115497 0.357304 0.0471902
455 4 0.100216 0.376857 0.0502474
608 4 0.238696 0.379961 0.0651241
607 2 0.235425 0.356311 0.0725494
252 4 0.256074 0.388172 0.0594751
250 2 0.276374 0.39396 0.0460753
251 4 0.296675 0.399748 0.0326754
226 2 0.411064 0.383555 0.0216263
228 4 0.394096 0.392851 0.0374635
670 2 0.408375 0.358757 0.0750742
227 4 0.428033 0.374259 0.0057891
671 4 0.41496 0.34899 0.0530189
281 4 0.433855 0.3425 0.0525622
280 2 0.458688 0.341209 0.0499513
282 4 0.483521 0.339918 0.0473405
104 3 0.492233 0.34671 0.0639641
1045 2 0.497766 0.342605 0.0117264
313 2 0.0385163 0.41485 0.0685305
552 4 0.0167494 0.447962 0.0574095
314 4 0.0231966 0.43424 0.0723384
550 2 0.000868148 0.455727 0.0397269
244 2 0.236901 0.473254 0.00853291
243 4 0.223778 0.490349 0.0672098
245 4 0.236534 0.448321 0.00668864
1440 4 0.241925 0.486455 0.0715562
272 4 0.249919 0.503774 0.0763829
524 4 0.305487 0.417077 0.0274031
523 2 0.32665 0.420425 0.0402906
246 4 0.237268 0.498187 0.0103772
37 3 0.343906 0.478775 0.00400834
525 4 0.347813 0.423772 0.0531781
16 1 0.0536725 0.00163338 0.121664
1422 4 0.0193729 0.0125711 0.148915
2480 4 0.0214163 0.0274033 0.132933
18 3 0.0719139 0.0158391 0.1197
19 3 0.038854 0.00990959 0.137485
17 3 0.0429557 0.000440142 0.101344
2479 2 0.0118372 0.0443103 0.117199
2481 4 0.0022582 0.0612173 0.101464
652 2 0.231896 0.0521429 0.138061
654 4 0.241598 0.045159 0.1161
1474 2 0.270338 0.0226445 0.100485
1476 4 0.280452 0.0296896 0.122239
296 4 0.39922 0.0480036 0.0936961
297 4 0.367649 0.0100423 0.0857645
295 2 0.383435 0.029023 0.0897303
485 4 0.360455 0.99932 0.100618
557 4 0.393489 0.0673037 0.0950355
1760 4 0.492165 0.0115132 0.159779
2723 4 0.492754 0.0873836 0.101246
235 2 0.140635 0.159084 0.156473
236 4 0.153734 0.1469 0.173941
556 2 0.400464 0.091314 0.0952597
558 4 0.407438 0.115324 0.095484
771 4 0.422772 0.121369 0.106715
769 2 0.440902 0.126071 0.123279
770 4 0.459032 0.130773 0.139843
338 4 0.0371419 0.23781 0.127109
237 4 0.127535 0.171269 0.139006
476 4 0.183815 0.17531 0.13901
477 4 0.224115 0.20491 0.138279
475 2 0.203965 0.19011 0.138644
352 2 0.251071 0.182516 0.106901
353 4 0.27 0.179698 0.122992
461 4 0.281563 0.19719 0.123667
460 2 0.304691 0.194994 0.114422
462 4 0.327818 0.192799 0.105177
279 4 0.259539 0.243984 0.153626
630 4 0.386304 0.239083 0.0939892
628 2 0.400687 0.235909 0.114194
624 4 0.42919 0.23776 0.148483
629 4 0.415071 0.232735 0.134398
622 2 0.441844 0.250515 0.165871
337 2 0.047463 0.258721 0.13613
339 4 0.0577842 0.279632 0.145151
395 4 0.0668232 0.286545 0.161681
612 4 0.243588 0.333857 0.0965522
610 2 0.245617 0.309416 0.10142
611 4 0.247646 0.284975 0.106288
755 4 0.286009 0.259309 0.107001
278 4 0.26257 0.272715 0.112809
277 2 0.261054 0.258349 0.133217
754 2 0.310369 0.263882 0.103703
756 4 0.334729 0.268454 0.100406
740 4 0.327329 0.331814 0.10774
255 4 0.342654 0.27447 0.0832907
739 2 0.339059 0.311602 0.09885
253 2 0.365594 0.26458 0.0822471
596 4 0.357506 0.320749 0.161743
527 4 0.464315 0.277843 0.173674
619 2 0.0697369 0.387194 0.105944
621 4 0.0581966 0.390522 0.0840145
647 4 0.0854326 0.378486 0.147437
620 4 0.0812772 0.383866 0.127874
537 4 0.100698 0.385633 0.123736
535 2 0.123914 0.376526 0.121931
536 4 0.14713 0.367419 0.120126
609 4 0.232154 0.33266 0.0799747
386 4 0.325045 0.346737 0.0951431
385 2 0.329857 0.369882 0.103287
387 4 0.334669 0.393027 0.111431
302 4 0.339862 0.404084 0.129678
12 3 0.390254 0.379953 0.10897
11 1 0.37847 0.390877 0.125431
15 3 0.356678 0.392731 0.119083
672 4 0.401791 0.368524 0.0971294
14 3 0.387648 0.411968 0.128487
13 3 0.379974 0.378657 0.145099
597 4 0.375161 0.367462 0.164385
301 2 0.340769 0.419679 0.149201
645 4 0.372074 0.390156 0.163434
595 2 0.366333 0.344105 0.163064
626 4 0.173903 0.438985 0.141492
1438 2 0.23581 0.472359 0.0912812
625 2 0.196456 0.442757 0.131376
1439 4 0.229694 0.458263 0.111006
638 4 0.237545 0.451771 0.156607
637 2 0.240587 0.476307 0.160336
627 4 0.219008 0.446528 0.121259
639 4 0.24363 0.500844 0.164064
495 4 0.403358 0.420749 0.11906
1559 4 0.33259 0.497066 0.10501
493 2 0.408198 0.438606 0.102241
494 4 0.413039 0.456463 0.0854231
1583 4 0.493883 0.463869 0.116603
1582 2 0.478637 0.482563 0.110025
1420 2 0.0148147 0.00552767 0.172469
450 4 0.136435 0.0842074 0.166393
689 4 0.201314 0.995609 0.19588
690 4 0.17676 0.0167763 0.233956
688 2 0.189037 0.00619271 0.214918
653 4 0.222195 0.0591268 0.160022
693 4 0.236623 0.0610772 0.174743
691 2 0.253526 0.0537573 0.19165
692 4 0.27043 0.0464374 0.208558
1699 2 0.304619 0.0618413 0.223104
1701 4 0.282862 0.0496051 0.224546
1700 4 0.326376 0.0740775 0.221662
21 1 0.36467 0.0745865 0.224504
25 3 0.368822 0.0746433 0.202112
23 3 0.343105 0.0821215 0.228576
22 3 0.366687 0.0531232 0.232529
698 4 0.374629 0.0587108 0.250969
333 4 0.38724 0.0753627 0.248421
511 2 0.0100946 0.128633 0.215941
578 4 0.0376075 0.150337 0.226752
513 4 0.0319088 0.130686 0.227987
318 4 0.049718 0.0887898 0.235985
449 4 0.155321 0.12835 0.180376
448 2 0.145878 0.106279 0.173385
28 3 0.23254 0.146165 0.188322
27 3 0.226162 0.13119 0.2222
26 1 0.24223 0.134948 0.206174
580 2 0.287575 0.112317 0.174323
581 4 0.265462 0.113201 0.185959
30 3 0.250644 0.114981 0.19916
582 4 0.309689 0.111434 0.162686
29 3 0.259152 0.147867 0.215403
758 4 0.326521 0.108317 0.171788
24 3 0.379997 0.0881528 0.235433
759 4 0.363563 0.0763902 0.18224
757 2 0.345042 0.0923538 0.177014
312 4 0.419052 0.142563 0.216474
311 4 0.466324 0.158841 0.215427
310 2 0.442688 0.150702 0.215951
521 4 0.475446 0.156427 0.233767
577 2 0.0443906 0.173702 0.220982
529 2 0.0168004 0.219887 0.22731
530 4 0.0404623 0.212394 0.224285
579 4 0.0511737 0.197066 0.215213
372 4 0.149344 0.242687 0.200155
362 4 0.13118 0.247282 0.195297
370 2 0.169215 0.227533 0.199307
371 4 0.189085 0.212379 0.198459
284 4 0.277622 0.243204 0.220875
283 2 0.273593 0.24342 0.196199
285 4 0.269564 0.243636 0.171523
764 4 0.465395 0.161723 0.250538
396 4 0.0597836 0.310886 0.204793
443 4 0.0650022 0.316564 0.223493
394 2 0.0633034 0.298716 0.183237
442 2 0.0530392 0.30496 0.242132
704 4 0.0239694 0.316072 0.172065
703 2 0.0132309 0.333267 0.1867
363 4 0.0900505 0.26749 0.175279
361 2 0.110615 0.257386 0.185288
623 4 0.454498 0.26327 0.18326
526 2 0.47271 0.300984 0.178054
528 4 0.481105 0.324125 0.182435
264 4 0.00842799 0.421841 0.194134
705 4 0.00249243 0.350463 0.201335
646 2 0.097274 0.373211 0.168818
648 4 0.109115 0.367936 0.190199
300 4 0.0949001 0.353861 0.198189
298 2 0.0993634 0.349801 0.222454
299 4 0.103827 0.345742 0.246719
345 4 0.258859 0.364684 0.245191
343 2 0.277659 0.349792 0.252261
643 2 0.388745 0.401846 0.177947
644 4 0.405415 0.413536 0.192459
447 4 0.405158 0.399045 0.205184
445 2 0.415052 0.408539 0.226092
2861 4 0.482672 0.409855 0.226337
262 2 0.0294978 0.427123 0.206518
263 4 0.0505676 0.432405 0.218901
1430 4 0.166182 0.501479 0.182111
289 2 0.237739 0.442849 0.230483
417 4 0.18074 0.489672 0.189768
290 4 0.219772 0.450488 0.214863
416 4 0.206063 0.447811 0.200119
415 2 0.193401 0.468741 0.194944
768 4 0.180581 0.45739 0.243092
659 4 0.327603 0.448595 0.173596
303 4 0.341676 0.435274 0.168724
658 2 0.341037 0.463336 0.188675
660 4 0.354472 0.478077 0.203755
231 4 0.362317 0.48719 0.22003
446 4 0.424946 0.418034 0.246999
2860 2 0.48547 0.423406 0.247163
232 2 0.0323076 0.0348551 0.291104
234 4 0.0334019 0.0597378 0.288906
317 4 0.0505081 0.063644 0.279203
233 4 0.0312133 0.00997242 0.293302
316 2 0.0501131 0.0762169 0.257594
674 4 0.166082 0.0269358 0.247707
673 2 0.145243 0.039847 0.252629
675 4 0.124405 0.0527583 0.257552
722 4 0.192082 0.0910272 0.267798
1518 4 0.366588 0.0112459 0.302465
697 2 0.371668 0.0410025 0.268371
699 4 0.368708 0.0232942 0.285773
331 2 0.41207 0.0775854 0.250345
743 4 0.489963 0.0304461 0.251515
742 2 0.489803 0.00861283 0.2637
351 4 0.495339 0.0479097 0.259025
349 2 0.472957 0.0589981 0.260152
350 4 0.450575 0.0700865 0.26128
332 4 0.4369 0.0798082 0.25227
391 2 0.139356 0.147431 0.312785
392 4 0.155026 0.151619 0.293756
546 4 0.172618 0.129849 0.245847
545 4 0.173701 0.156587 0.288092
544 2 0.17316 0.143218 0.266969
723 4 0.238895 0.0920344 0.250242
721 2 0.215489 0.0915308 0.25902
599 4 0.215041 0.130131 0.30556
404 4 0.228162 0.143704 0.300047
598 2 0.196677 0.129919 0.322527
403 2 0.231266 0.15201 0.276668
405 4 0.23437 0.160316 0.25329
762 4 0.425798 0.128131 0.294885
761 4 0.472628 0.11243 0.30271
760 2 0.449213 0.12028 0.298798
401 4 0.231555 0.180077 0.259977
402 4 0.234259 0.229995 0.258729
400 2 0.232907 0.205036 0.259353
765 4 0.447418 0.205987 0.26531
763 2 0.456407 0.183855 0.257924
444 4 0.0410761 0.293355 0.260771
309 4 0.292073 0.32696 0.276448
307 2 0.304254 0.333984 0.297123
498 4 0.324936 0.283727 0.327875
496 2 0.34337 0.284752 0.311013
497 4 0.361804 0.285778 0.294151
613 2 0.415761 0.325885 0.317284
541 2 0.453708 0.292161 0.296477
542 4 0.477795 0.292381 0.289771
615 4 0.43497 0.311105 0.311143
543 4 0.429622 0.291942 0.303183
749 4 0.0494133 0.348874 0.287471
365 4 0.00693299 0.330398 0.32038
364 2 0.018759 0.339328 0.300241
366 4 0.0305849 0.348259 0.280102
748 2 0.0708966 0.347984 0.27471
735 4 0.152056 0.34504 0.296593
734 4 0.122667 0.345968 0.256144
750 4 0.0923799 0.347095 0.261948
733 2 0.137361 0.345504 0.276369
602 4 0.117725 0.397705 0.317118
777 4 0.13516 0.403059 0.30763
676 2 0.164581 0.373787 0.315147
677 4 0.166714 0.349568 0.309311
413 4 0.242377 0.41673 0.307448
412 2 0.243267 0.42102 0.282831
344 4 0.296459 0.334901 0.259331
727 2 0.31805 0.383774 0.316811
728 4 0.320152 0.408244 0.312123
308 4 0.316435 0.341008 0.317799
729 4 0.315949 0.359304 0.321499
3 3 0.274641 0.4212 0.327071
2924 4 0.482839 0.37798 0.310029
118 3 0.495381 0.399229 0.307565
2537 4 0.492091 0.385347 0.290557
1757 4 0.116412 0.464095 0.29318
776 4 0.115223 0.444958 0.288983
775 2 0.125192 0.424008 0.298306
1756 2 0.13006 0.482539 0.283243
766 2 0.183155 0.477702 0.257444
414 4 0.244157 0.42531 0.258214
291 4 0.255706 0.435211 0.246104
1436 4 0.243506 0.487505 0.33871
2 3 0.312009 0.42416 0.324317
1435 2 0.251615 0.474592 0.318894
438 4 0.299222 0.459312 0.254863
437 4 0.279966 0.459824 0.301011
436 2 0.289594 0.459568 0.277937
1437 4 0.259724 0.461679 0.299078
5 3 0.290624 0.454164 0.318376
1 1 0.292831 0.435142 0.330701
434 4 0.326835 0.430391 0.306517
433 2 0.345411 0.446645 0.302529
435 4 0.363987 0.4629 0.298542
119 3 0.479759 0.430632 0.322201
2862 4 0.488267 0.436957 0.267989
120 3 0.484728 0.427438 0.285016
714 4 0.415782 0.431424 0.259545
713 4 0.434355 0.437036 0.305634
712 2 0.425068 0.43423 0.282589
116 1 0.493415 0.42225 0.305419
429 4 0.0729537 0.993016 0.363235
428 4 0.034807 0.025231 0.366012
427 2 0.0538803 0.0091233 0.364623
606 4 0.139653 0.00149791 0.380996
730 2 0.104259 0.0753113 0.415644
604 2 0.150746 0.0238242 0.379085
605 4 0.16184 0.0461505 0.377174
683 4 0.228559 0.0490966 0.388958
682 2 0.242498 0.0474572 0.368266
684 4 0.256438 0.0458177 0.347573
249 4 0.337075 0.0566909 0.37493
247 2 0.346829 0.0766141 0.363392
424 2 0.439242 0.0384887 0.357791
426 4 0.439442 0.0622755 0.365493
425 4 0.439041 0.0147018 0.350089
393 4 0.123687 0.143242 0.331814
399 4 0.123777 0.137644 0.350763
732 4 0.111472 0.0898829 0.396649
398 4 0.124536 0.102165 0.385996
397 2 0.124156 0.119904 0.36838
321 4 0.230345 0.0681917 0.392604
686 4 0.207563 0.13882 0.394794
600 4 0.178313 0.129706 0.339495
685 2 0.189852 0.134866 0.377594
687 4 0.172141 0.130913 0.360393
319 2 0.235158 0.0832338 0.411988
410 4 0.220433 0.127751 0.406478
409 2 0.236086 0.14703 0.409389
707 4 0.279319 0.163213 0.361515
248 4 0.356583 0.0965373 0.351855
633 4 0.373646 0.107446 0.349775
632 4 0.393827 0.139639 0.382287
631 2 0.383736 0.123543 0.366031
420 4 0.380742 0.152335 0.373212
468 4 0.368116 0.105058 0.399792
257 4 0.483373 0.100022 0.329298
258 4 0.448793 0.0757762 0.356077
256 2 0.466083 0.0878988 0.342688
2654 4 0.00923957 0.250157 0.37858
390 4 0.0837745 0.244838 0.379981
274 2 0.16534 0.227397 0.366828
388 2 0.106318 0.237604 0.37194
389 4 0.128861 0.230369 0.3639
276 4 0.143103 0.216049 0.368207
473 4 0.231934 0.197906 0.337863
275 4 0.187577 0.238746 0.365449
474 4 0.195919 0.230823 0.348822
472 2 0.213927 0.214364 0.343342
708 4 0.235052 0.184233 0.351548
489 4 0.222422 0.242695 0.392743
651 4 0.237741 0.233444 0.401398
706 2 0.257186 0.173723 0.356531
411 4 0.251738 0.16631 0.4123
649 2 0.242554 0.209241 0.405424
418 2 0.367197 0.172429 0.379372
419 4 0.353652 0.192522 0.385533
716 4 0.351356 0.204466 0.369683
715 2 0.343789 0.22672 0.378206
515 4 0.462705 0.178484 0.379264
514 2 0.44974 0.164534 0.395466
270 4 0.488587 0.24644 0.392586
617 4 0.0480378 0.277091 0.428353
618 4 0.0155963 0.263488 0.392811
616 2 0.031817 0.27029 0.410582
487 2 0.237819 0.25733 0.379555
377 4 0.319118 0.260669 0.386548
488 4 0.253216 0.271965 0.366367
508 2 0.261705 0.312369 0.352895
509 4 0.261697 0.287381 0.353786
376 2 0.314759 0.27128 0.364331
378 4 0.3104 0.281892 0.342115
614 4 0.396551 0.340666 0.323424
717 4 0.336222 0.248975 0.386729
267 4 0.352931 0.330473 0.347191
265 2 0.357543 0.314509 0.365875
266 4 0.362154 0.298545 0.384558
585 4 0.364951 0.280881 0.394133
583 2 0.38686 0.272326 0.402617
2456 4 0.422209 0.277444 0.416331
269 4 0.467853 0.269515 0.353364
268 2 0.47822 0.257978 0.372975
547 2 0.0759357 0.403597 0.38171
548 4 0.0596753 0.421519 0.388001
549 4 0.0921962 0.385675 0.375419
601 2 0.109017 0.387415 0.338176
603 4 0.100309 0.377126 0.359235
709 2 0.150084 0.394499 0.420607
678 4 0.162448 0.398006 0.320984
502 2 0.193418 0.399026 0.364397
504 4 0.199964 0.38641 0.343826
373 2 0.229045 0.359474 0.335375
375 4 0.209297 0.37426 0.331303
374 4 0.248792 0.344688 0.339447
503 4 0.186871 0.411642 0.384967
510 4 0.261713 0.337357 0.352004
336 4 0.342738 0.414071 0.408439
679 2 0.997783 0.490543 0.407056
407 4 0.0624379 0.440189 0.384613
406 2 0.0456967 0.457076 0.392342
408 4 0.0289555 0.473963 0.400072
710 4 0.145791 0.416789 0.410124
570 4 0.134418 0.432155 0.405374
568 2 0.116968 0.444449 0.418393
1543 2 0.216955 0.494875 0.36352
1545 4 0.236761 0.481362 0.356428
636 4 0.186891 0.418307 0.403934
634 2 0.179091 0.441363 0.409659
668 4 0.313287 0.444873 0.357242
4 3 0.294373 0.440444 0.353238
667 2 0.323794 0.4378 0.378801
669 4 0.3343 0.430726 0.400359
561 4 0.487078 0.428846 0.393491
753 4 0.47238 0.432893 0.340936
751 2 0.486017 0.436734 0.361538
718 2 0.0313947 0.0338731 0.492499
719 4 0.0533665 0.034764 0.480599
369 4 0.0547457 0.0377129 0.461059
367 2 0.076541 0.0394888 0.448935
731 4 0.0970463 0.0607397 0.434639
368 4 0.0983363 0.0412648 0.436811
439 2 0.215469 0.995464 0.444926
2430 4 0.197796 0.0710533 0.459745
2428 2 0.200096 0.0488184 0.448543
2429 4 0.202396 0.0265836 0.43734
441 4 0.208094 0.0176199 0.453866
950 4 0.232769 0.0514108 0.509731
430 2 0.316785 0.0781601 0.497421
432 4 0.294076 0.087494 0.492692
725 4 0.243508 0.0854427 0.446191
843 4 0.348484 0.053986 0.49119
841 2 0.373191 0.0520805 0.494522
2879 4 0.432511 0.0425333 0.425371
2878 2 0.451928 0.0508945 0.438722
2880 4 0.471345 0.0592556 0.452073
642 4 0.466033 0.0734532 0.464579
2584 2 0.0034714 0.0792118 0.445661
2586 4 0.0144633 0.100398 0.45311
341 4 0.210188 0.0859156 0.453637
340 2 0.201911 0.109471 0.452283
1152 4 0.177329 0.13849 0.463605
342 4 0.193635 0.133026 0.450929
1150 2 0.169316 0.136649 0.487218
320 4 0.23997 0.098276 0.431373
726 4 0.278899 0.0829159 0.48143
724 2 0.261203 0.0841793 0.463811
466 2 0.362787 0.0984245 0.423303
467 4 0.357458 0.0917914 0.446814
516 4 0.436775 0.150585 0.411668
576 4 0.449018 0.121841 0.463694
640 2 0.48482 0.0899517 0.464398
574 2 0.441414 0.138847 0.447017
469 2 0.0688401 0.216187 0.452521
470 4 0.0546812 0.236303 0.448046
471 4 0.0829989 0.19607 0.456997
260 4 0.0981824 0.184813 0.45104
259 2 0.106827 0.176301 0.472903
261 4 0.115471 0.167789 0.494766
650 4 0.247368 0.185037 0.409449
575 4 0.43381 0.155854 0.430339
2812 2 0.00644574 0.336458 0.49635
695 4 0.11595 0.276553 0.437293
694 2 0.135115 0.291012 0.430306
696 4 0.15428 0.305471 0.423319
1260 4 0.167943 0.318819 0.429021
1258 2 0.18556 0.321348 0.446583
1259 4 0.203177 0.323878 0.464144
584 4 0.40877 0.263771 0.4111
2455 2 0.44454 0.268146 0.42266
2457 4 0.466871 0.258847 0.428988
326 4 0.0638048 0.387721 0.452189
10 3 0.142103 0.326996 0.463249
325 2 0.0824711 0.371594 0.456273
7 3 0.119206 0.35586 0.469205
327 4 0.101137 0.355467 0.460357
6 1 0.141045 0.349629 0.465546
8 3 0.148637 0.359915 0.446183
9 3 0.1539 0.356358 0.483654
711 4 0.154377 0.372209 0.43109
334 2 0.351627 0.398812 0.42614
335 4 0.360515 0.383553 0.443841
238 2 0.347928 0.384988 0.479692
240 4 0.360409 0.395242 0.460607
239 4 0.335446 0.374733 0.498777
560 4 0.494792 0.396664 0.430982
2712 4 0.500311 0.388477 0.505513
1383 4 0.0128845 0.475243 0.436382
540 4 0.0424806 0.439669 0.482186
1381 2 0.0188056 0.459405 0.454802
1382 4 0.0247266 0.443567 0.473222
680 4 0.00573346 0.493892 0.430524
384 4 0.144298 0.48957 0.47759
772 2 0.158913 0.487221 0.43563
569 4 0.0995172 0.456743 0.431413
773 4 0.150016 0.490904 0.458705
382 2 0.140276 0.467182 0.48797
774 4 0.167811 0.483538 0.412556
635 4 0.171291 0.464419 0.415383
1400 4 0.327178 0.496311 0.441846
1399 2 0.321808 0.471955 0.443612
1401 4 0.316438 0.447599 0.445379
559 2 0.490935 0.412755 0.412237
720 4 0.00942286 0.0329823 0.5044
1059 4 0.0762025 0.0769483 0.56863
1057 2 0.0690044 0.0573995 0.582458
1032 4 0.156427 0.0273036 0.561786
951 4 0.183259 0.0468365 0.504389
1031 4 0.18186 0.0484666 0.524289
1030 2 0.169143 0.0378851 0.543037
949 2 0.208014 0.0491236 0.50706
1182 4 0.236699 0.0454285 0.527976
961 2 0.310623 0.0269492 0.553019
1180 2 0.26128 0.0460616 0.532507
963 4 0.301586 0.0361809 0.531611
1181 4 0.285862 0.0466946 0.537037
962 4 0.319659 0.0177175 0.574427
2195 4 0.30947 0.00221282 0.58187
842 4 0.397898 0.050175 0.497853
1217 4 0.413783 0.0603861 0.506997
1216 2 0.417112 0.0725716 0.528575
431 4 0.339494 0.0688262 0.502149
1218 4 0.420442 0.084757 0.550153
1155 4 0.075336 0.0983313 0.568225
939 4 0.149308 0.138162 0.528701
937 2 0.132675 0.155474 0.521716
1151 4 0.161303 0.134808 0.510831
938 4 0.116041 0.172786 0.51473
856 2 0.291169 0.157635 0.584087
899 4 0.327034 0.149781 0.582657
898 2 0.345415 0.164053 0.573513
1033 2 0.0790781 0.195059 0.520222
1035 4 0.0669628 0.192738 0.541971
1082 4 0.0603674 0.205121 0.556356
1081 2 0.0487809 0.193151 0.575002
1034 4 0.0911934 0.197379 0.498473
877 2 0.0939855 0.245576 0.568236
797 4 0.257006 0.179693 0.567154
811 2 0.30513 0.233619 0.534225
812 4 0.282233 0.234166 0.544257
796 2 0.262044 0.200411 0.554094
798 4 0.267081 0.22113 0.541035
858 4 0.272491 0.173386 0.578774
900 4 0.363796 0.178325 0.564369
813 4 0.328026 0.233073 0.524194
872 4 0.370857 0.185944 0.548178
873 4 0.340008 0.2162 0.523005
871 2 0.355433 0.201072 0.535591
904 2 0.456045 0.243762 0.567406
906 4 0.472179 0.231013 0.58163
2813 4 0.0268651 0.331975 0.510066
878 4 0.0985106 0.254211 0.545212
1189 2 0.252904 0.336718 0.519414
1190 4 0.276885 0.342199 0.514932
954 4 0.408298 0.297977 0.577304
905 4 0.439912 0.256512 0.553182
952 2 0.420765 0.284951 0.559981
953 4 0.433232 0.271925 0.542658
1135 2 0.163622 0.401976 0.567993
1136 4 0.140843 0.411172 0.572651
1137 4 0.186402 0.392779 0.563336
896 4 0.218448 0.348342 0.529109
1191 4 0.228924 0.331238 0.523896
897 4 0.188986 0.374312 0.560065
895 2 0.203717 0.361327 0.544587
803 4 0.296069 0.337462 0.517731
802 2 0.308525 0.35442 0.531239
804 4 0.32098 0.371377 0.544748
929 4 0.328231 0.36517 0.562758
928 2 0.341107 0.35644 0.582333
925 2 0.481229 0.391977 0.534372
927 4 0.481783 0.393279 0.509409
1001 4 0.468631 0.394604 0.57611
926 4 0.480674 0.390675 0.559336
539 4 0.0442304 0.460737 0.527504
936 4 0.0255175 0.46713 0.528627
1938 4 0.0533112 0.47716 0.521075
538 2 0.0433555 0.450203 0.504845
934 2 0.0027964 0.467778 0.539044
383 4 0.136253 0.444793 0.49835
2244 4 0.180035 0.453776 0.543092
2242 2 0.170161 0.460676 0.565003
1171 2 0.245278 0.438408 0.58397
1172 4 0.259487 0.443261 0.563977
882 4 0.26648 0.462199 0.564407
880 2 0.270938 0.485939 0.557949
1185 4 0.0170119 0.0560883 0.660164
945 4 0.035076 0.0649103 0.654156
825 4 0.0802913 0.0332039 0.5996
1058 4 0.0618063 0.0378507 0.596286
823 2 0.0859668 0.0147264 0.61546
1004 4 0.322355 0.0666097 0.689394
2283 4 0.44573 0.0129395 0.592885
2282 4 0.454606 0.0412241 0.633158
2281 2 0.450168 0.0270818 0.613022
43 3 0.465952 0.0358992 0.650836
41 1 0.478417 0.0539684 0.658354
44 3 0.464981 0.0728353 0.659735
45 3 0.495817 0.0578408 0.644179
1198 2 0.0122616 0.158329 0.599003
1153 2 0.0938654 0.106035 0.583141
1154 4 0.112395 0.113739 0.598057
1221 4 0.124009 0.116974 0.613538
1219 2 0.137137 0.125119 0.633198
1220 4 0.150264 0.133263 0.652858
1283 4 0.144016 0.124942 0.669724
1212 4 0.235049 0.124747 0.628048
1210 2 0.251331 0.122746 0.646917
857 4 0.309847 0.141885 0.589399
1083 4 0.0371945 0.181182 0.593648
1199 4 0.0220411 0.179963 0.606846
879 4 0.0894604 0.23694 0.591261
1272 4 0.0969692 0.221353 0.599327
1270 2 0.108694 0.211255 0.618967
1271 4 0.120419 0.201157 0.638608
909 4 0.13981 0.202197 0.634462
907 2 0.160489 0.214984 0.640296
908 4 0.181169 0.227771 0.64613
947 4 0.195936 0.24034 0.640192
1025 4 0.381149 0.202271 0.639732
1024 2 0.399957 0.208229 0.624372
1143 4 0.387278 0.197825 0.657071
1026 4 0.418765 0.214188 0.609011
946 2 0.187361 0.260411 0.652391
792 4 0.266656 0.301236 0.595569
791 4 0.29243 0.291989 0.637413
790 2 0.279543 0.296612 0.616491
1238 4 0.255859 0.316931 0.588905
1206 4 0.366216 0.337162 0.592109
1205 4 0.401437 0.301889 0.596116
1204 2 0.383827 0.319526 0.594113
983 4 0.022164 0.389931 0.633448
1041 4 0.0259435 0.405849 0.622407
1039 2 0.050051 0.411966 0.624972
1040 4 0.0741585 0.418084 0.627538
992 4 0.1324 0.409025 0.656666
991 2 0.112874 0.411529 0.641251
993 4 0.093348 0.414034 0.625836
1237 2 0.232253 0.321432 0.595808
1239 4 0.208647 0.325934 0.602712
930 4 0.353983 0.34771 0.601908
3330 4 0.480882 0.411384 0.658244
2243 4 0.160287 0.467576 0.586913
2171 4 0.1483 0.500531 0.650583
1173 4 0.23107 0.433555 0.603964
1161 4 0.168079 0.464738 0.604455
1160 4 0.202474 0.46377 0.640742
1159 2 0.185276 0.464254 0.622599
1175 4 0.215111 0.478471 0.643326
1174 2 0.234825 0.493138 0.647953
889 2 0.331838 0.456321 0.635255
891 4 0.334389 0.471337 0.615426
890 4 0.329286 0.441305 0.655084
1952 4 0.333595 0.491001 0.624294
1911 4 0.424526 0.482908 0.584474
1000 2 0.465332 0.412844 0.592891
1910 4 0.446658 0.444143 0.607017
1002 4 0.462034 0.431084 0.609672
1909 2 0.435592 0.463526 0.595746
3328 2 0.482149 0.430873 0.642632
3329 4 0.483415 0.450363 0.62702
1268 4 0.44479 0.469541 0.686046
943 2 0.0448629 0.0657483 0.677149
944 4 0.0546498 0.0665863 0.700143
1075 2 0.05903 0.049476 0.730571
1076 4 0.0475184 0.0511481 0.708438
1148 4 0.190133 0.0709779 0.748523
1005 4 0.300483 0.0258012 0.670499
1003 2 0.311419 0.0462054 0.679947
42 3 0.486631 0.04914 0.679291
1163 4 0.487747 0.0490889 0.698466
1105 2 0.0337435 0.167014 0.73995
1106 4 0.0529691 0.162602 0.755315
1282 2 0.163834 0.124868 0.684968
32 3 0.096171 0.141805 0.743203
1284 4 0.183653 0.124794 0.700213
1227 4 0.19908 0.115655 0.708913
1225 2 0.209807 0.135303 0.720053
1226 4 0.220533 0.15495 0.731192
1211 4 0.267614 0.120745 0.665786
888 4 0.28716 0.123316 0.664051
886 2 0.286244 0.121768 0.68899
887 4 0.285327 0.120221 0.713928
830 4 0.300423 0.104749 0.718313
829 2 0.323627 0.104075 0.727602
977 4 0.274024 0.176916 0.738289
831 4 0.346831 0.103402 0.736891
1144 2 0.479388 0.156112 0.757637
1209 4 0.0486833 0.238309 0.675144
1107 4 0.014518 0.171426 0.724584
851 4 0.996945 0.179588 0.726435
1207 2 0.0665238 0.252827 0.684948
35 3 0.0680867 0.166335 0.741641
822 4 0.142455 0.238139 0.685565
1278 4 0.155941 0.225981 0.692662
820 2 0.120495 0.246904 0.693697
1276 2 0.166382 0.217901 0.713896
1130 4 0.223766 0.17369 0.7377
1277 4 0.176823 0.20982 0.735129
1129 2 0.204219 0.187643 0.744657
916 2 0.286237 0.214077 0.727143
918 4 0.286115 0.189074 0.727264
917 4 0.286358 0.23908 0.727022
1141 2 0.366441 0.19564 0.670717
1142 4 0.345603 0.193454 0.684362
3123 4 0.449968 0.209914 0.676421
1194 4 0.419564 0.232557 0.735226
3121 2 0.474692 0.212783 0.674039
1262 4 0.426871 0.218598 0.747352
1145 4 0.457126 0.157365 0.746322
1261 2 0.436524 0.195782 0.743971
1263 4 0.446177 0.172966 0.740591
3122 4 0.499416 0.215651 0.671657
3357 4 0.506895 0.206136 0.687448
1208 4 0.0843643 0.267345 0.694753
1243 2 0.0124017 0.315268 0.714144
1245 4 0.989255 0.307342 0.708989
821 4 0.0985347 0.255668 0.701828
948 4 0.178785 0.280481 0.66459
1065 4 0.187876 0.296104 0.673354
1064 4 0.196129 0.289492 0.722231
1063 2 0.192002 0.292798 0.697793
1097 4 0.281476 0.25726 0.718966
1008 4 0.344008 0.262902 0.73122
806 4 0.42022 0.305633 0.743246
1244 4 0.0355486 0.323195 0.719299
893 4 0.0698564 0.359189 0.680183
894 4 0.0888467 0.398764 0.70414
892 2 0.0793515 0.378977 0.692161
941 4 0.151136 0.396307 0.706529
940 2 0.152558 0.407784 0.728698
1066 2 0.187968 0.410469 0.686497
1067 4 0.166909 0.407793 0.699708
1029 4 0.276011 0.42994 0.681192
1230 4 0.381405 0.39603 0.735531
1983 4 0.0352332 0.472635 0.757539
2021 4 0.0405346 0.470679 0.73825
2020 2 0.0574006 0.475393 0.720404
1281 4 0.0891477 0.417187 0.696183
1279 2 0.0885386 0.425808 0.719645
2022 4 0.0742667 0.480107 0.702557
1068 4 0.209027 0.413145 0.673285
1028 4 0.227788 0.420392 0.672026
2016 4 0.169577 0.496491 0.754631
1027 2 0.2519 0.425166 0.676609
1139 4 0.295362 0.433311 0.683936
1138 2 0.309496 0.431318 0.704464
1140 4 0.323631 0.429325 0.724993
1989 4 0.32335 0.439849 0.742312
1229 4 0.359708 0.427697 0.703482
1228 2 0.370556 0.411863 0.719507
1100 4 0.49754 0.481097 0.741873
1269 4 0.478354 0.496295 0.660386
1267 2 0.461572 0.482918 0.673216
1250 4 0.479856 0.47333 0.747622
1077 4 0.0705416 0.0478039 0.752704
1203 4 0.0732076 0.0306816 0.765103
1201 2 0.0893551 0.014605 0.775397
2049 4 0.124516 0.99656 0.791112
1202 4 0.105503 0.998528 0.785692
1147 2 0.210575 0.0582845 0.755318
1149 4 0.231018 0.0455911 0.762113
1049 4 0.239032 0.0467001 0.780763
1970 4 0.210579 0.00451126 0.812233
1048 2 0.263921 0.0446259 0.779562
1050 4 0.288809 0.0425517 0.77836
817 2 0.376119 0.0700836 0.822132
846 4 0.471064 0.0392212 0.804199
1113 4 0.463557 0.0268841 0.789281
844 2 0.495233 0.0453587 0.802366
1111 2 0.463611 0.002181 0.785416
832 2 0.0445093 0.13376 0.786789
863 4 0.0229947 0.106879 0.814678
833 4 0.0331298 0.11598 0.800189
33 3 0.0762423 0.149252 0.774188
834 4 0.0558889 0.15154 0.773389
862 2 0.0332451 0.094991 0.83414
31 1 0.0849445 0.158288 0.754668
840 4 0.204092 0.0974119 0.776297
838 2 0.225682 0.106537 0.785002
839 4 0.247273 0.115662 0.793706
978 4 0.304082 0.15654 0.77267
959 4 0.261493 0.127644 0.800651
958 2 0.267127 0.114846 0.821379
976 2 0.289053 0.166728 0.755479
819 4 0.391346 0.0827968 0.80691
1084 2 0.377436 0.120066 0.793927
1085 4 0.392526 0.102132 0.802635
1086 4 0.362345 0.137999 0.785218
1299 4 0.366027 0.157621 0.790832
1146 4 0.50165 0.154859 0.768951
3270 4 0.496035 0.148152 0.786597
3268 2 0.493628 0.15011 0.811407
1214 4 0.0209705 0.24807 0.806295
778 2 0.0627674 0.237634 0.813465
779 4 0.0387127 0.238984 0.806777
1073 4 0.0981012 0.174601 0.780475
1072 2 0.113348 0.175536 0.80027
1074 4 0.128595 0.176471 0.820065
34 3 0.099829 0.175338 0.75978
780 4 0.0868221 0.236285 0.820153
869 4 0.0942525 0.239051 0.837778
1131 4 0.184672 0.201596 0.751615
1297 2 0.381152 0.175238 0.800108
1298 4 0.396277 0.192855 0.809384
47 3 0.392584 0.20813 0.822074
1043 4 0.389906 0.242922 0.821823
1042 2 0.37951 0.245912 0.79928
1007 4 0.34923 0.243852 0.777161
1213 2 0.997945 0.256146 0.811751
1240 2 0.224762 0.273289 0.771816