ITEM: TIMESTEP
2470000
ITEM: NUMBER OF ATOMS
4590
ITEM: BOX BOUNDS pp pp pp
-9.9985700000000008e+00 9.9985700000000008e+00
-9.9985700000000008e+00 9.9985700000000008e+00
-9.9985700000000008e+00 9.9985700000000008e+00
ITEM: ATOMS id type xs ys zs
463 2 0.0552495 0.0625852 0.0230889
3290 4 0.0863969 0.0294181 0.034006
464 4 0.068514 0.0439414 0.0331708
465 4 0.0419851 0.0812289 0.013007
1667 4 0.0460814 0.0210832 0.0844725
1668 4 0.0718034 0.0157364 0.0419226
1666 2 0.0589424 0.0184098 0.0631976
3289 2 0.0991922 0.0287223 0.0125357
565 2 0.147618 0.0390305 0.0602934
567 4 0.130481 0.054882 0.0692502
566 4 0.164755 0.023179 0.0513367
986 4 0.289426 0.0323274 0.00714518
492 4 0.304745 0.00385423 0.0616397
295 2 0.381292 0.0313745 0.082797
297 4 0.36249 0.0150904 0.0802484
2144 4 0.35882 0.0319143 0.0017397
2143 2 0.365505 0.00782111 0.00184148
745 2 0.475556 0.0564544 0.0560343
747 4 0.499849 0.0545457 0.0504318
746 4 0.451263 0.058363 0.0616367
701 4 0.0570832 0.0812786 0.9992
555 4 0.0432613 0.138308 0.995568
836 4 0.0322431 0.227589 0.990027
422 4 0.0735359 0.210482 0.0450405
421 2 0.0850071 0.192578 0.0318859
423 4 0.0964784 0.174675 0.0187314
505 2 0.151111 0.247035 0.072107
3234 4 0.115716 0.177353 0.0112911
359 4 0.239159 0.170485 0.0326196
358 2 0.223361 0.168952 0.0132999
737 4 0.176778 0.230057 0.0723917
506 4 0.160379 0.226055 0.0820616
736 2 0.200071 0.22098 0.0728639
738 4 0.223364 0.211903 0.073336
360 4 0.207563 0.167419 0.99398
461 4 0.280484 0.179661 0.0752785
353 4 0.263171 0.169569 0.0791783
460 2 0.301879 0.167027 0.078075
665 4 0.347158 0.171264 0.041313
664 2 0.338287 0.170906 0.0179386
1071 4 0.396088 0.234188 0.0198079
573 4 0.379551 0.239274 0.00830901
828 4 0.48285 0.22881 0.0235081
826 2 0.468616 0.213775 0.00948987
322 2 0.47003 0.239683 0.0620822
324 4 0.450222 0.238633 0.0468596
827 4 0.454381 0.19874 0.995472
2808 4 0.00850008 0.28242 0.0518431
294 4 0.119348 0.312349 0.0471747
292 2 0.136674 0.294385 0.0486904
456 4 0.106083 0.314699 0.0630629
293 4 0.154 0.276421 0.0502061
507 4 0.141843 0.268016 0.0621525
356 4 0.283981 0.252683 0.98737
739 2 0.318764 0.339615 0.0495742
741 4 0.318154 0.338994 0.0245858
612 4 0.255427 0.305692 0.100759
254 4 0.390402 0.265229 0.085727
323 4 0.489837 0.240733 0.0773048
2841 4 0.506276 0.263316 0.0589878
454 2 0.106931 0.33957 0.0654841
455 4 0.107778 0.364442 0.0679052
1223 4 0.128725 0.414714 1.62549e-05
608 4 0.258714 0.370728 0.080048
252 4 0.276895 0.379781 0.0815865
250 2 0.296311 0.390171 0.0697425
251 4 0.315726 0.40056 0.0578985
524 4 0.31117 0.41099 0.0400265
740 4 0.319375 0.340236 0.0745626
523 2 0.336161 0.410414 0.0394613
226 2 0.387602 0.382227 0.0283491
228 4 0.369009 0.39092 0.0426288
227 4 0.406195 0.373534 0.0140694
1305 4 0.411242 0.362699 0.998375
525 4 0.361151 0.409839 0.0388961
671 4 0.445135 0.36266 0.0871996
281 4 0.441291 0.349549 0.072525
280 2 0.465664 0.346219 0.0680471
282 4 0.490037 0.342889 0.0635691
104 3 0.496883 0.338064 0.0811006
313 2 0.0572329 0.436471 0.0883146
552 4 0.0429892 0.462015 0.0538964
314 4 0.0504146 0.450669 0.068895
550 2 0.022788 0.470632 0.0419454
551 4 0.00258679 0.47925 0.0299943
243 4 0.219635 0.46901 0.0604783
1440 4 0.212206 0.462527 0.0778843
1290 4 0.203669 0.444334 0.00708378
241 2 0.206807 0.487131 0.0489783
245 4 0.213049 0.462314 0.00411338
1583 4 0.46263 0.471744 0.0746397
16 1 0.0337017 0.0232336 0.119893
1422 4 0.993821 0.0304544 0.13723
2480 4 0.00298498 0.0513504 0.131603
18 3 0.0488853 0.040759 0.120742
19 3 0.012578 0.0307576 0.125858
2479 2 0.00518801 0.0711701 0.146686
17 3 0.0329062 0.0151203 0.0983824
20 3 0.0402734 0.00657014 0.133956
652 2 0.241258 0.0454489 0.147629
654 4 0.250757 0.0485126 0.124704
653 4 0.23176 0.0423852 0.170555
1476 4 0.263107 0.0472528 0.107923
1474 2 0.270405 0.0265124 0.0960177
1475 4 0.277704 0.005772 0.0841122
296 4 0.400094 0.0476586 0.0853455
485 4 0.359143 0.00162265 0.0950627
557 4 0.414046 0.054097 0.0981816
556 2 0.425943 0.0654808 0.116998
2481 4 0.00739104 0.0909899 0.16177
236 4 0.15678 0.141604 0.107475
449 4 0.14946 0.122366 0.108157
450 4 0.14792 0.0949412 0.149944
448 2 0.14869 0.108654 0.129051
235 2 0.16353 0.15947 0.123612
558 4 0.437839 0.0768647 0.135814
771 4 0.42906 0.0949303 0.134733
769 2 0.433743 0.107845 0.155625
237 4 0.17028 0.177337 0.139749
354 4 0.222429 0.197475 0.08706
352 2 0.2428 0.183522 0.0831191
371 4 0.18976 0.201075 0.166896
370 2 0.165528 0.207058 0.165424
279 4 0.251775 0.225539 0.156548
277 2 0.256572 0.233412 0.133307
278 4 0.26137 0.241285 0.110065
462 4 0.323274 0.154393 0.0808714
624 4 0.455275 0.251089 0.132819
629 4 0.44428 0.253656 0.11617
338 4 0.0322391 0.270166 0.125867
337 2 0.05005 0.28272 0.138129
339 4 0.0678609 0.295273 0.150391
611 4 0.271594 0.258616 0.105574
609 4 0.258324 0.326029 0.102467
610 2 0.263511 0.282154 0.103166
754 2 0.325109 0.260687 0.131583
756 4 0.32377 0.266025 0.107193
253 2 0.36705 0.266883 0.094511
630 4 0.405282 0.251197 0.084964
755 4 0.326447 0.255349 0.155974
255 4 0.343699 0.268538 0.103295
628 2 0.424781 0.252426 0.100567
622 2 0.446043 0.26459 0.151731
704 4 0.0185484 0.343449 0.145179
621 4 0.0531794 0.412492 0.120989
619 2 0.0673425 0.397789 0.135425
620 4 0.0815055 0.383085 0.14986
647 4 0.100625 0.379194 0.144771
537 4 0.131896 0.374274 0.14001
535 2 0.136288 0.39188 0.122808
536 4 0.140681 0.409487 0.105606
607 2 0.258519 0.348378 0.0912576
386 4 0.324083 0.357064 0.0840596
385 2 0.333621 0.367011 0.104922
387 4 0.343159 0.376959 0.125785
12 3 0.399252 0.388327 0.127719
11 1 0.381383 0.39653 0.139658
15 3 0.362141 0.387425 0.131567
672 4 0.414949 0.377735 0.124109
13 3 0.384047 0.390851 0.161998
302 4 0.3409 0.399832 0.128932
14 3 0.380793 0.419613 0.137369
670 2 0.430042 0.370197 0.105654
315 4 0.0640511 0.422274 0.107734
1467 4 0.0381495 0.503705 0.125165
1438 2 0.217988 0.46554 0.102023
625 2 0.217686 0.444751 0.153873
1439 4 0.22377 0.468554 0.126161
638 4 0.254202 0.461184 0.141419
627 4 0.234079 0.458455 0.140886
1431 4 0.163256 0.510786 0.16175
637 2 0.257242 0.485038 0.13457
303 4 0.317123 0.435956 0.154041
301 2 0.329011 0.417894 0.141487
494 4 0.362648 0.469202 0.106679
495 4 0.380751 0.424245 0.119001
493 2 0.371699 0.446723 0.11284
1584 4 0.442976 0.499699 0.11115
1582 2 0.452803 0.485721 0.0928946
1674 4 0.426396 0.49318 0.121165
674 4 0.151959 0.0474591 0.227091
690 4 0.160222 0.0442086 0.210144
689 4 0.191049 0.00696409 0.197367
688 2 0.175635 0.0255864 0.203755
693 4 0.236669 0.0565476 0.184173
1505 4 0.205764 0.0102386 0.184643
691 2 0.253828 0.0698447 0.196581
692 4 0.270986 0.0831417 0.208989
1699 2 0.312521 0.0745266 0.217088
1701 4 0.287548 0.0747785 0.218289
1700 4 0.337495 0.0742748 0.215886
25 3 0.372522 0.0868954 0.203634
22 3 0.37254 0.0606188 0.230138
698 4 0.389296 0.0629288 0.244058
511 2 0.00719978 0.140003 0.210611
578 4 0.042094 0.155393 0.234816
513 4 0.0245133 0.146992 0.227242
28 3 0.234928 0.110101 0.180752
26 1 0.245709 0.129854 0.186407
29 3 0.232224 0.148007 0.181208
546 4 0.193438 0.154452 0.258054
580 2 0.304391 0.138218 0.174368
581 4 0.281716 0.137532 0.163852
27 3 0.249805 0.129874 0.209042
582 4 0.327065 0.138904 0.184884
30 3 0.265478 0.131399 0.175205
21 1 0.367702 0.0826193 0.225477
23 3 0.345154 0.0863529 0.229487
758 4 0.346813 0.139721 0.184736
759 4 0.368094 0.0944817 0.185863
24 3 0.380547 0.0961993 0.239225
757 2 0.357454 0.117101 0.185299
770 4 0.438426 0.12076 0.176516
312 4 0.455935 0.114372 0.182268
311 4 0.485954 0.134962 0.216556
310 2 0.470945 0.124667 0.199412
521 4 0.490022 0.143333 0.234211
350 4 0.458152 0.0968363 0.265959
577 2 0.0399482 0.180202 0.232559
529 2 0.00292255 0.219137 0.239237
530 4 0.0265446 0.2136 0.24528
579 4 0.0378023 0.205011 0.230303
372 4 0.141295 0.213041 0.163951
362 4 0.139021 0.23114 0.171525
476 4 0.208052 0.20712 0.172862
477 4 0.238577 0.168307 0.180768
475 2 0.223314 0.187714 0.176815
283 2 0.266301 0.261105 0.179049
285 4 0.256439 0.2414 0.167232
395 4 0.0779051 0.291145 0.167222
396 4 0.0759565 0.305956 0.214946
443 4 0.0631604 0.300299 0.230093
394 2 0.0769308 0.298551 0.191084
705 4 0.986006 0.31608 0.171496
703 2 0.00227714 0.329765 0.158337
361 2 0.121016 0.248081 0.175263
363 4 0.10301 0.265022 0.179
299 4 0.0870396 0.331259 0.244929
284 4 0.276163 0.280809 0.190867
345 4 0.292715 0.318193 0.234536
528 4 0.411872 0.304613 0.225202
623 4 0.436811 0.278092 0.170642
527 4 0.432222 0.275363 0.190117
526 2 0.422047 0.289988 0.207659
542 4 0.420837 0.314211 0.240365
646 2 0.0985522 0.364886 0.165171
648 4 0.0964798 0.350578 0.185571
300 4 0.106081 0.350282 0.202783
298 2 0.0965604 0.34077 0.223856
290 4 0.201468 0.408018 0.232429
416 4 0.198565 0.426422 0.225784
597 4 0.379112 0.380997 0.180218
596 4 0.356597 0.347779 0.210057
595 2 0.367854 0.364388 0.195137
645 4 0.401508 0.383574 0.171958
643 2 0.411927 0.400753 0.186841
447 4 0.418323 0.42594 0.219564
1429 2 0.16587 0.492422 0.178516
626 4 0.201293 0.431048 0.16686
1430 4 0.168484 0.474057 0.195282
417 4 0.186614 0.464079 0.195128
415 2 0.192589 0.445251 0.210456
659 4 0.333312 0.442715 0.163829
658 2 0.344898 0.462606 0.17359
660 4 0.356484 0.482497 0.18335
231 4 0.345928 0.490532 0.199312
644 4 0.422347 0.417932 0.201723
445 2 0.427306 0.429703 0.242593
1403 4 0.0228437 0.994147 0.26904
233 4 0.0160411 0.0127801 0.264078
232 2 0.0143701 0.033845 0.277444
234 4 0.012699 0.0549098 0.29081
317 4 0.0316715 0.0620953 0.288714
316 2 0.0498565 0.0790819 0.286277
428 4 0.0350507 0.000976199 0.317626
673 2 0.164436 0.0589584 0.245455
675 4 0.176913 0.0704576 0.26382
1405 2 0.211228 0.00105723 0.312682
1406 4 0.198782 0.0187944 0.300206
249 4 0.322557 0.0785265 0.354434
333 4 0.395014 0.0822977 0.239427
1518 4 0.393247 0.0202537 0.296054
697 2 0.388455 0.0450487 0.261516
699 4 0.387614 0.0271686 0.278974
742 2 0.495871 0.0171961 0.246025
425 4 0.438066 0.0323127 0.290318
351 4 0.485302 0.0571887 0.252116
349 2 0.471727 0.0770125 0.259038
424 2 0.456998 0.0446004 0.301078
258 4 0.477874 0.074294 0.32211
426 4 0.475929 0.0568882 0.311838
743 4 0.48663 0.0398843 0.241023
318 4 0.0680415 0.0960685 0.283839
391 2 0.117098 0.144989 0.304341
392 4 0.132135 0.151054 0.285307
393 4 0.102062 0.138925 0.323376
544 2 0.169498 0.155277 0.265222
723 4 0.232985 0.0876388 0.260194
722 4 0.183779 0.0883569 0.269081
721 2 0.208382 0.0879979 0.264638
599 4 0.23168 0.122865 0.319238
404 4 0.220202 0.139088 0.312553
403 2 0.217233 0.163326 0.307181
331 2 0.416975 0.0898695 0.248676
256 2 0.478869 0.0980828 0.314476
332 4 0.438936 0.0974414 0.257926
761 4 0.478766 0.140598 0.315215
760 2 0.464915 0.149819 0.333878
257 4 0.479865 0.121872 0.306842
545 4 0.145558 0.156102 0.27239
405 4 0.214264 0.187565 0.301809
401 4 0.224497 0.191982 0.284826
400 2 0.23222 0.204026 0.26432
402 4 0.239942 0.216069 0.243814
765 4 0.430364 0.213705 0.303788
763 2 0.44965 0.207874 0.318594
442 2 0.0553521 0.293309 0.252794
444 4 0.0475438 0.28632 0.275495
366 4 0.055763 0.339503 0.300846
734 4 0.162799 0.326543 0.278068
750 4 0.0943409 0.324614 0.2628
343 2 0.31101 0.327134 0.249045
496 2 0.354206 0.28796 0.326578
497 4 0.372284 0.302137 0.31671
541 2 0.429349 0.314921 0.263865
543 4 0.437861 0.315631 0.287364
615 4 0.425602 0.319923 0.303422
262 2 0.0400926 0.418226 0.253427
263 4 0.0220214 0.401022 0.255044
365 4 0.0101203 0.358527 0.308298
749 4 0.0750859 0.337834 0.307017
364 2 0.0329416 0.349015 0.304572
748 2 0.0847134 0.331224 0.284908
602 4 0.110281 0.386562 0.304841
777 4 0.105994 0.401172 0.292866
735 4 0.162978 0.371983 0.298947
601 2 0.105783 0.38492 0.329382
677 4 0.157029 0.39176 0.296799
733 2 0.162888 0.349263 0.288507
289 2 0.218005 0.400331 0.249534
676 2 0.178132 0.404861 0.299668
291 4 0.234542 0.392645 0.26664
414 4 0.233416 0.399029 0.284944
412 2 0.252414 0.410709 0.29625
344 4 0.329306 0.336075 0.263553
2 3 0.322038 0.425025 0.337217
1 1 0.300753 0.416582 0.335021
3 3 0.302138 0.394073 0.329557
309 4 0.344849 0.332131 0.27557
613 2 0.404344 0.332109 0.3084
614 4 0.383086 0.344294 0.313377
307 2 0.349719 0.349285 0.293098
727 2 0.354999 0.403763 0.327871
729 4 0.364795 0.382846 0.318294
308 4 0.354588 0.366438 0.310626
2924 4 0.493117 0.383758 0.319282
2537 4 0.497313 0.377392 0.297491
2923 2 0.471774 0.37614 0.329846
264 4 0.0581637 0.435431 0.25181
1757 4 0.11911 0.465112 0.291419
776 4 0.122829 0.447276 0.283293
775 2 0.114412 0.424224 0.28808
1756 2 0.113556 0.489355 0.288844
678 4 0.199234 0.417961 0.302537
768 4 0.188434 0.462171 0.2782
766 2 0.191665 0.486737 0.274846
413 4 0.271413 0.422389 0.307555
438 4 0.293233 0.464297 0.256397
437 4 0.277011 0.43542 0.293863
436 2 0.285122 0.449858 0.27513
1437 4 0.274879 0.443737 0.316553
5 3 0.289848 0.427919 0.318552
434 4 0.33415 0.443186 0.33141
433 2 0.332834 0.453201 0.308538
435 4 0.331518 0.463217 0.285665
728 4 0.345202 0.424679 0.337447
446 4 0.436288 0.433466 0.265622
714 4 0.437723 0.446296 0.282747
2862 4 0.504567 0.423735 0.279797
713 4 0.486831 0.437088 0.280664
712 2 0.462277 0.441692 0.281706
119 3 0.495718 0.422603 0.333219
2757 4 0.00351058 0.0685895 0.406189
427 2 0.0467664 0.00401806 0.339504
429 4 0.0584821 0.00705993 0.361383
1782 4 0.0750589 0.996051 0.356808
605 4 0.147691 0.07704 0.363759
730 2 0.116333 0.0790926 0.383807
604 2 0.152615 0.0570549 0.349564
731 4 0.101483 0.0699334 0.401717
606 4 0.15754 0.0370697 0.335368
732 4 0.131182 0.0882517 0.365896
684 4 0.27623 0.04191 0.343039
683 4 0.276482 0.0761516 0.379483
682 2 0.276356 0.0590308 0.361261
321 4 0.277464 0.0639386 0.395363
247 2 0.346705 0.0727765 0.351433
248 4 0.370852 0.0670265 0.348433
633 4 0.378498 0.0773025 0.364155
1747 2 0.467424 0.00412299 0.345075
1749 4 0.491565 0.00634505 0.338954
2585 4 0.00718289 0.0852813 0.416265
399 4 0.0994681 0.147156 0.341942
398 4 0.110101 0.160337 0.388994
397 2 0.104785 0.153746 0.365468
598 2 0.228801 0.112305 0.341718
600 4 0.225922 0.101744 0.364198
685 2 0.218607 0.117432 0.396847
687 4 0.211174 0.110801 0.373914
631 2 0.389278 0.0858474 0.385034
632 4 0.400059 0.0943924 0.405913
420 4 0.360992 0.127297 0.418798
418 2 0.361004 0.143674 0.399904
419 4 0.361015 0.160052 0.381011
470 4 0.0660291 0.20479 0.409933
617 4 0.0593722 0.258709 0.412304
616 2 0.0363374 0.249112 0.410728
390 4 0.072406 0.21171 0.392163
388 2 0.0883764 0.230108 0.386539
389 4 0.104347 0.248507 0.380916
275 4 0.163093 0.246433 0.34536
473 4 0.206588 0.196438 0.341606
474 4 0.177753 0.235702 0.352902
472 2 0.192171 0.21607 0.347254
708 4 0.226255 0.189894 0.343919
706 2 0.248733 0.181217 0.3506
651 4 0.232424 0.238874 0.404054
649 2 0.227031 0.216706 0.414283
489 4 0.252995 0.243322 0.398889
707 4 0.27121 0.17254 0.357281
377 4 0.3391 0.235259 0.382607
717 4 0.346265 0.21658 0.379557
716 4 0.373074 0.17454 0.383381
715 2 0.35967 0.19556 0.381469
2456 4 0.394126 0.250991 0.40583
762 4 0.451064 0.15904 0.352541
764 4 0.468936 0.202042 0.3334
515 4 0.447924 0.193708 0.408289
268 2 0.503228 0.231531 0.36166
618 4 0.0133026 0.239516 0.409153
276 4 0.117261 0.24902 0.365196
274 2 0.140177 0.247726 0.355278
696 4 0.143656 0.314821 0.429334
510 4 0.221451 0.33374 0.365053
487 2 0.251897 0.267433 0.392361
488 4 0.250799 0.291545 0.385833
508 2 0.227352 0.314791 0.380261
509 4 0.233254 0.295841 0.395468
378 4 0.325782 0.273594 0.353387
376 2 0.332441 0.254426 0.367997
265 2 0.330845 0.32298 0.367265
498 4 0.336128 0.273783 0.336446
266 4 0.35443 0.317211 0.373236
585 4 0.357327 0.30255 0.385901
583 2 0.36918 0.284708 0.398799
584 4 0.381033 0.266867 0.411697
270 4 0.47956 0.238249 0.36612
304 2 0.480666 0.269868 0.398297
306 4 0.476303 0.252867 0.380489
547 2 0.0952249 0.39868 0.382827
549 4 0.101091 0.376624 0.372614
603 4 0.101285 0.383279 0.353923
375 4 0.202193 0.392802 0.350534
374 4 0.206354 0.343258 0.355893
373 2 0.204274 0.36803 0.353214
504 4 0.205668 0.411795 0.34529
267 4 0.30726 0.328749 0.361295
2925 4 0.450431 0.368521 0.340411
679 2 0.0280502 0.49709 0.399199
680 4 0.0486232 0.483446 0.403172
548 4 0.0893584 0.420736 0.393039
407 4 0.0812129 0.432065 0.378401
406 2 0.0646933 0.448415 0.387617
408 4 0.0481737 0.464766 0.396833
569 4 0.0959446 0.434457 0.406229
568 2 0.120131 0.438143 0.411389
635 4 0.158376 0.455605 0.41901
1544 4 0.202674 0.507116 0.347593
502 2 0.208116 0.431346 0.360682
503 4 0.210564 0.450898 0.376075
1543 2 0.227358 0.505447 0.343975
636 4 0.190289 0.454036 0.380541
634 2 0.174332 0.45482 0.399776
1545 4 0.252042 0.503779 0.340357
1435 2 0.269072 0.465922 0.326517
1436 4 0.263265 0.488107 0.336481
1401 4 0.314404 0.466854 0.402892
668 4 0.284829 0.429445 0.371477
4 3 0.289542 0.419166 0.355171
667 2 0.296326 0.450701 0.377895
669 4 0.307823 0.471957 0.384313
336 4 0.314634 0.449727 0.414736
592 2 0.473381 0.500269 0.358684
593 4 0.483852 0.477931 0.362751
752 4 0.461768 0.418709 0.3902
753 4 0.482124 0.428485 0.345583
751 2 0.471946 0.423597 0.367891
1127 4 0.989215 0.0675293 0.490452
718 2 0.0302522 0.056617 0.474789
719 4 0.0507233 0.0505255 0.461789
369 4 0.0597944 0.0588694 0.445792
367 2 0.080911 0.0593023 0.43241
720 4 0.00978116 0.0627086 0.48779
368 4 0.102028 0.0597351 0.419028
441 4 0.205582 0.0119246 0.456231
2430 4 0.197575 0.0716119 0.431977
2428 2 0.195827 0.0475821 0.438662
2429 4 0.194079 0.0235523 0.445347
320 4 0.242804 0.0657649 0.431365
319 2 0.260134 0.0648518 0.413364
431 4 0.328073 0.0766814 0.50381
841 2 0.363154 0.0637491 0.504982
843 4 0.338608 0.0590998 0.503969
467 4 0.380336 0.0677418 0.464272
842 4 0.387701 0.0683984 0.505995
2879 4 0.438108 0.0212329 0.420378
2878 2 0.449856 0.0280234 0.44138
2880 4 0.461603 0.0348138 0.462381
642 4 0.479614 0.0432558 0.46316
640 2 0.493134 0.0622477 0.45412
686 4 0.226041 0.124063 0.419781
725 4 0.241328 0.0791923 0.445672
341 4 0.189957 0.0907939 0.429327
410 4 0.236023 0.138968 0.429378
409 2 0.237372 0.163322 0.423877
340 2 0.194794 0.10738 0.447401
1152 4 0.209888 0.122231 0.483267
342 4 0.199632 0.123965 0.465476
430 2 0.309438 0.0854963 0.489661
432 4 0.290802 0.0943111 0.475511
724 2 0.256303 0.089061 0.463095
726 4 0.271278 0.0989298 0.480517
468 4 0.401895 0.0921835 0.426344
466 2 0.391116 0.0799627 0.445308
576 4 0.3971 0.132293 0.481053
641 4 0.506653 0.0812395 0.44508
574 2 0.417909 0.143568 0.472989
575 4 0.438718 0.154843 0.464924
469 2 0.0630285 0.190412 0.430168
260 4 0.0689809 0.183148 0.468059
471 4 0.0600279 0.176034 0.450403
259 2 0.0750294 0.187655 0.491898
650 4 0.221637 0.194537 0.424512
411 4 0.23872 0.187675 0.418375
2455 2 0.414309 0.249047 0.42046
514 2 0.443175 0.177939 0.427103
516 4 0.438427 0.16217 0.445917
695 4 0.10077 0.339747 0.435674
694 2 0.122213 0.327284 0.432504
1260 4 0.156129 0.331542 0.432488
1258 2 0.177042 0.318378 0.428676
1259 4 0.197955 0.305215 0.424864
2457 4 0.434492 0.247104 0.435091
326 4 0.0659023 0.388565 0.446319
325 2 0.0872511 0.377781 0.453607
10 3 0.15116 0.344878 0.461644
7 3 0.12426 0.368304 0.472622
327 4 0.1086 0.366998 0.460896
6 1 0.145666 0.360982 0.476782
8 3 0.160239 0.378938 0.474881
711 4 0.153438 0.397705 0.469463
238 2 0.351088 0.39343 0.479092
240 4 0.337596 0.407907 0.463809
239 4 0.36458 0.378953 0.494374
560 4 0.491837 0.383545 0.428742
2508 4 0.495592 0.372841 0.444934
559 2 0.47532 0.399838 0.41942
1382 4 0.0269208 0.465735 0.457399
1381 2 0.00801685 0.462872 0.441286
540 4 0.0372112 0.461159 0.473903
538 2 0.0404915 0.466036 0.498206
772 2 0.151018 0.48801 0.442888
384 4 0.164353 0.507356 0.479782
773 4 0.152252 0.502057 0.463535
710 4 0.144193 0.432659 0.434915
709 2 0.148816 0.415182 0.452189
570 4 0.144317 0.441828 0.416549
774 4 0.149783 0.473962 0.422241
1399 2 0.319609 0.489041 0.413179
587 4 0.341845 0.506116 0.486277
334 2 0.326237 0.434546 0.430863
586 2 0.340963 0.509836 0.461567
335 4 0.33784 0.419364 0.44699
561 4 0.458803 0.416131 0.410097
1030 2 0.170644 0.0834955 0.588236
951 4 0.210577 0.0832482 0.564582
1031 4 0.193388 0.0829404 0.577864
949 2 0.226815 0.0733867 0.548326
950 4 0.243053 0.0635252 0.53207
1182 4 0.246423 0.0453259 0.525104
961 2 0.316989 0.017796 0.548283
1180 2 0.271138 0.04264 0.527783
963 4 0.307211 0.0407268 0.546344
1181 4 0.295852 0.0399542 0.530462
962 4 0.326767 0.994865 0.550221
1217 4 0.405161 0.078248 0.50124
937 2 0.154313 0.171528 0.512629
939 4 0.178873 0.174087 0.508698
1151 4 0.185913 0.155581 0.511793
1150 2 0.1979 0.138906 0.49753
858 4 0.29513 0.151374 0.589482
898 2 0.368328 0.152601 0.576946
1216 2 0.41115 0.0864391 0.524093
1218 4 0.417138 0.0946302 0.546945
1082 4 0.0774886 0.171351 0.585719
938 4 0.129753 0.168969 0.51656
1035 4 0.082132 0.169209 0.565873
1033 2 0.0974089 0.169516 0.546082
1034 4 0.112686 0.169822 0.52629
1272 4 0.119542 0.233021 0.561308
879 4 0.106769 0.247139 0.563937
261 4 0.0810778 0.192161 0.515737
877 2 0.0924856 0.252179 0.544044
811 2 0.317954 0.232518 0.559341
812 4 0.294644 0.224467 0.563464
796 2 0.291249 0.186858 0.578216
798 4 0.299992 0.210191 0.576143
813 4 0.341264 0.240568 0.555217
900 4 0.382603 0.168488 0.563945
872 4 0.382645 0.187555 0.569387
873 4 0.355914 0.229448 0.563808
871 2 0.369279 0.208501 0.566597
878 4 0.078202 0.25722 0.52415
1191 4 0.204557 0.33166 0.509492
1239 4 0.252423 0.283735 0.593862
1205 4 0.380203 0.287899 0.576684
1204 2 0.374119 0.311601 0.581821
954 4 0.397517 0.277125 0.577466
952 2 0.422467 0.278135 0.578752
1137 4 0.154627 0.375069 0.557282
9 3 0.146575 0.352284 0.498275
1135 2 0.159891 0.392534 0.574383
897 4 0.164538 0.375226 0.54114
1189 2 0.227821 0.336049 0.517536
896 4 0.193358 0.337491 0.525449
895 2 0.178948 0.356358 0.533294
1190 4 0.251084 0.340438 0.52558
803 4 0.259813 0.33152 0.541774
802 2 0.28172 0.343312 0.544265
804 4 0.303627 0.355104 0.546756
929 4 0.32125 0.349314 0.541866
928 2 0.339558 0.349578 0.558894
930 4 0.357866 0.349841 0.575921
1001 4 0.459788 0.389246 0.550582
926 4 0.471569 0.378566 0.538388
925 2 0.490315 0.381621 0.522126
1000 2 0.450057 0.40064 0.570598
539 4 0.0437718 0.470914 0.522509
936 4 0.0124298 0.511654 0.54841
1938 4 0.0317114 0.508973 0.54687
934 2 0.999773 0.493625 0.560239
383 4 0.145934 0.502468 0.526015
2242 2 0.163594 0.502549 0.562893
2244 4 0.155938 0.511884 0.540997
382 2 0.155143 0.504912 0.502898
2243 4 0.17125 0.493214 0.584788
1161 4 0.190101 0.493642 0.577368
1172 4 0.27453 0.462077 0.555307
882 4 0.285862 0.463739 0.539825
880 2 0.286027 0.483641 0.524691
1171 2 0.256773 0.461238 0.57289
1185 4 0.0151466 0.0715649 0.667282
945 4 0.0328052 0.0794827 0.674458
825 4 0.0681708 0.0056955 0.647314
1058 4 0.0643773 0.0187153 0.632533
1057 2 0.0724034 0.0315225 0.612614
1032 4 0.1479 0.0840507 0.598608
1059 4 0.0804294 0.0443296 0.592696
1155 4 0.0804049 0.0644729 0.593369
1153 2 0.0975283 0.0811487 0.600709
1003 2 0.302131 0.0793427 0.637508
1004 4 0.326634 0.0834353 0.634672
2282 4 0.455855 0.0379895 0.627602
2281 2 0.443202 0.0298926 0.607614
43 3 0.462803 0.0480444 0.644422
41 1 0.476787 0.0629831 0.655363
2283 4 0.43055 0.0217956 0.587626
1199 4 0.014523 0.142584 0.598392
1083 4 0.0325349 0.15347 0.598373
1154 4 0.114652 0.0978246 0.60805
1221 4 0.119214 0.100827 0.628234
1219 2 0.139928 0.105993 0.64125
1220 4 0.160642 0.111158 0.654267
1212 4 0.23882 0.139953 0.632346
1005 4 0.277629 0.0752502 0.640345
1210 2 0.259757 0.14593 0.644639
856 2 0.317497 0.142024 0.595604
857 4 0.339863 0.132673 0.601726
1211 4 0.280693 0.151906 0.656933
899 4 0.354053 0.136714 0.589946
44 3 0.466852 0.0839336 0.656254
1081 2 0.0550117 0.16241 0.592046
1270 2 0.138401 0.229893 0.577425
1271 4 0.157259 0.226765 0.593541
909 4 0.158781 0.208266 0.600692
907 2 0.16083 0.209997 0.625551
908 4 0.162878 0.211729 0.650411
947 4 0.177484 0.216208 0.663422
946 2 0.181266 0.240764 0.666232
797 4 0.282506 0.163525 0.580289
1025 4 0.367233 0.186343 0.63531
1024 2 0.372674 0.21044 0.631451
1026 4 0.378116 0.234538 0.627592
906 4 0.466944 0.22531 0.619298
3357 4 0.487307 0.202022 0.675924
904 2 0.461428 0.245088 0.605029
948 4 0.185047 0.26532 0.669043
1237 2 0.274418 0.295033 0.597568
792 4 0.290409 0.317113 0.618301
790 2 0.308685 0.317884 0.635347
1238 4 0.296414 0.30633 0.601274
791 4 0.326961 0.318655 0.652393
1206 4 0.368035 0.335302 0.586959
953 4 0.447417 0.279145 0.580037
905 4 0.455912 0.264866 0.590761
983 4 0.0363089 0.381053 0.637441
1041 4 0.0461714 0.398121 0.639746
1039 2 0.0665645 0.410361 0.632034
982 2 0.0146506 0.392065 0.63154
893 4 0.0851369 0.343152 0.636911
992 4 0.147941 0.411431 0.60378
892 2 0.0865229 0.355145 0.658807
1136 4 0.165156 0.409999 0.591484
1028 4 0.21968 0.386531 0.67371
1027 2 0.244089 0.390723 0.677146
1002 4 0.440326 0.412035 0.590614
3183 4 0.492104 0.412981 0.664452
1040 4 0.0869576 0.422602 0.624322
993 4 0.101291 0.427478 0.611965
991 2 0.124616 0.419454 0.607873
1160 4 0.226582 0.469793 0.601884
1159 2 0.208342 0.481718 0.589626
1175 4 0.240486 0.476371 0.615087
1173 4 0.239016 0.460399 0.590473
2172 4 0.199888 0.480117 0.659927
2170 2 0.182811 0.498251 0.657757
1174 2 0.262018 0.487682 0.620885
890 4 0.336782 0.491544 0.658895
1176 4 0.28355 0.498992 0.626683
889 2 0.351258 0.504427 0.643095
891 4 0.365735 0.517309 0.627294
1911 4 0.416521 0.445196 0.642316
1910 4 0.425003 0.41971 0.600135
1909 2 0.420762 0.432453 0.621226
1268 4 0.429828 0.459908 0.638934
1267 2 0.422582 0.483722 0.641294
3330 4 0.486404 0.425112 0.649168
3328 2 0.498824 0.434326 0.629521
943 2 0.0423324 0.08179 0.69746
944 4 0.0518597 0.0840973 0.720462
1075 2 0.0551606 0.0568192 0.752047
1076 4 0.0540987 0.0780121 0.738822
42 3 0.480316 0.055508 0.67683
1163 4 0.493648 0.0535525 0.691246
35 3 0.0677599 0.152304 0.75733
1283 4 0.160863 0.100151 0.671295
1282 2 0.170827 0.113539 0.689914
1284 4 0.180792 0.126926 0.708533
1227 4 0.188855 0.131561 0.726038
1225 2 0.193618 0.122254 0.748751
888 4 0.281158 0.157811 0.677189
886 2 0.295835 0.140017 0.68684
887 4 0.310512 0.122224 0.696492
829 2 0.317944 0.0979536 0.71223
830 4 0.328432 0.112263 0.694612
978 4 0.312478 0.117219 0.742913
976 2 0.304978 0.141066 0.742389
831 4 0.307455 0.0836444 0.729849
1142 4 0.349846 0.152797 0.686889
1107 4 0.0245989 0.189059 0.740843
851 4 0.014374 0.18324 0.724615
1208 4 0.0831199 0.22969 0.680887
1105 2 0.0369161 0.170852 0.752759
822 4 0.132714 0.213419 0.700326
1278 4 0.134671 0.217375 0.720383
820 2 0.115283 0.221399 0.684274
821 4 0.0978526 0.229379 0.668222
1276 2 0.149499 0.227607 0.737721
1277 4 0.164327 0.237839 0.755059
916 2 0.308345 0.19215 0.717653
918 4 0.307636 0.168128 0.724554
917 4 0.309054 0.216172 0.710752
1008 4 0.329495 0.245334 0.736117
1097 4 0.301053 0.227109 0.726679
1143 4 0.351403 0.182032 0.646347
1141 2 0.350624 0.167414 0.666618
1006 2 0.347025 0.244054 0.7539
1262 4 0.426384 0.240497 0.736783
3122 4 0.48885 0.221342 0.67892
3123 4 0.441969 0.238744 0.679174
3121 2 0.46541 0.230043 0.679047
1261 2 0.433026 0.217723 0.744683
1263 4 0.439668 0.194949 0.752583
1145 4 0.444116 0.177771 0.743226
1244 4 0.0068851 0.338123 0.726285
1209 4 0.0494885 0.264343 0.667895
1207 2 0.0663042 0.247016 0.674391
1065 4 0.197512 0.281158 0.669497
1064 4 0.214636 0.327244 0.678635
1063 2 0.206074 0.304201 0.674066
1240 2 0.239194 0.297966 0.732818
1242 4 0.220332 0.31438 0.732815
1241 4 0.258055 0.281552 0.732822
1096 2 0.285226 0.246029 0.730768
1098 4 0.269399 0.264949 0.734856
1192 2 0.422661 0.284343 0.742408
1194 4 0.42339 0.260788 0.734053
1281 4 0.0714001 0.366567 0.691229
1279 2 0.0637623 0.386193 0.704707
3275 4 0.0401972 0.40031 0.730141
894 4 0.087909 0.367138 0.680703
940 2 0.153786 0.405752 0.728237
941 4 0.164841 0.403068 0.705972
1068 4 0.213075 0.402424 0.681963
1067 4 0.17064 0.385009 0.70188
1066 2 0.191857 0.393716 0.691922
1029 4 0.268498 0.394916 0.680582
1139 4 0.266446 0.411328 0.690998
1230 4 0.351029 0.400789 0.724457
1228 2 0.356111 0.392694 0.701353
1229 4 0.361193 0.384599 0.678248
1983 4 0.0415209 0.490096 0.728811
1981 2 0.0210735 0.49973 0.739501
1280 4 0.0561245 0.40582 0.718184
2014 2 0.165975 0.50223 0.739957
1138 2 0.284395 0.420901 0.705537
1140 4 0.302343 0.430474 0.720077
1989 4 0.315409 0.445687 0.715068
1987 2 0.311677 0.459258 0.735734
1100 4 0.451289 0.477797 0.737507
1099 2 0.456617 0.494837 0.720002
1077 4 0.0562226 0.0356264 0.765273
1203 4 0.0702436 0.0326414 0.778618
1201 2 0.0942993 0.0264411 0.775778
2049 4 0.129464 0.0197931 0.754071
1202 4 0.118355 0.0202408 0.772939
2047 2 0.13889 0.996715 0.756003
1148 4 0.17398 0.0744351 0.77406
1147 2 0.195451 0.0616256 0.774365
1149 4 0.216922 0.0488162 0.774671
1049 4 0.231468 0.0342173 0.776163
1048 2 0.25208 0.0436723 0.786694
1050 4 0.272693 0.0531273 0.797225
1257 4 0.290944 0.996977 0.760323
818 4 0.374368 0.0750705 0.821339
846 4 0.487375 0.0175865 0.766906
1113 4 0.468627 0.0105555 0.770518
844 2 0.499149 0.0396054 0.7656
3387 4 0.00624064 0.141398 0.759128
832 2 0.0311099 0.127684 0.791425
863 4 0.0179308 0.0961087 0.810314
833 4 0.0130609 0.114236 0.802313
33 3 0.0647969 0.130259 0.787709
834 4 0.0491589 0.141133 0.780537
862 2 0.0355759 0.0838313 0.823085
1106 4 0.0492334 0.152646 0.764675
31 1 0.0788047 0.13755 0.770708
32 3 0.0853633 0.119406 0.758182
34 3 0.0976483 0.147632 0.779746
1073 4 0.112125 0.161761 0.781993
1226 4 0.198382 0.112947 0.771464
840 4 0.209823 0.116629 0.788136
838 2 0.223424 0.131584 0.802852
839 4 0.237024 0.14654 0.817567
959 4 0.248295 0.149832 0.834584
958 2 0.271533 0.143556 0.841351
817 2 0.366788 0.094267 0.807225
819 4 0.359208 0.113464 0.79311
1084 2 0.366778 0.143278 0.779021
1085 4 0.353026 0.122579 0.776255
3268 2 0.487652 0.156298 0.811681
3270 4 0.474292 0.150102 0.791475
1146 4 0.467062 0.144763 0.772969
778 2 0.0586156 0.224959 0.826798
779 4 0.0363451 0.235698 0.823072
780 4 0.0808861 0.21422 0.830524
1214 4 0.0370319 0.239563 0.803562
1213 2 0.0148393 0.250946 0.805327
1072 2 0.128113 0.174072 0.767228
1074 4 0.144101 0.186383 0.752463
1131 4 0.177236 0.230246 0.768494
1130 4 0.216186 0.199294 0.773553
1129 2 0.196711 0.21477 0.771023
977 4 0.297479 0.164913 0.741864
1086 4 0.380529 0.163976 0.781788
1299 4 0.376303 0.183741 0.780519
1297 2 0.387811 0.19695 0.798359
1298 4 0.399318 0.210159 0.816199
47 3 0.403703 0.200972 0.833255