ITEM: TIMESTEP
2110000
ITEM: NUMBER OF ATOMS
4590
ITEM: BOX BOUNDS pp pp pp
-9.9985700000000008e+00 9.9985700000000008e+00
-9.9985700000000008e+00 9.9985700000000008e+00
-9.9985700000000008e+00 9.9985700000000008e+00
ITEM: ATOMS id type xs ys zs
1668 4 0.0537374 0.0530109 0.0540252
1666 2 0.054593 0.0372711 0.0734341
463 2 0.0763889 0.0681996 0.019905
3290 4 0.0816408 0.0259866 0.0155976
464 4 0.0860365 0.0451354 0.0202854
566 4 0.176684 0.0470201 0.0362547
565 2 0.188551 0.060282 0.0538182
567 4 0.200418 0.073544 0.0713817
492 4 0.272435 0.997727 0.0623957
1475 4 0.277772 0.0104306 0.0775653
490 2 0.279002 0.0135806 0.0442102
491 4 0.285568 0.0294345 0.0260247
986 4 0.30136 0.0313737 0.0144621
2264 4 0.300799 0.0642896 0.996096
2145 4 0.385564 0.98517 0.000748732
745 2 0.470649 0.0435175 0.0410586
747 4 0.489405 0.052323 0.0550538
746 4 0.451894 0.0347119 0.0270634
700 2 0.0481192 0.11697 0.997539
702 4 0.0381752 0.139549 0.993477
465 4 0.0667413 0.0912638 0.0195246
555 4 0.0539817 0.149117 0.984817
701 4 0.0580631 0.0943915 0.00160115
359 4 0.253974 0.163417 0.0312273
836 4 0.0534815 0.245224 0.020991
422 4 0.092096 0.199657 0.0378993
421 2 0.0974539 0.190121 0.0154152
358 2 0.233085 0.164779 0.0175542
360 4 0.212195 0.166142 0.00388102
737 4 0.209785 0.225718 0.0641566
736 2 0.208995 0.202394 0.073131
738 4 0.208205 0.179069 0.0821054
506 4 0.200449 0.232757 0.0467189
354 4 0.225016 0.172723 0.0912513
1133 4 0.19641 0.178929 0.00272988
665 4 0.361454 0.182634 0.0333842
664 2 0.352582 0.188404 0.0107305
323 4 0.472674 0.228424 0.0619921
828 4 0.477352 0.167518 0.995496
2807 4 0.00418902 0.276198 0.00806192
294 4 0.140389 0.319587 0.0449456
292 2 0.161678 0.306627 0.0469446
507 4 0.197569 0.281829 0.0559008
293 4 0.182966 0.293666 0.0489435
505 2 0.199009 0.257293 0.0513099
481 2 0.289744 0.292128 0.009608
482 4 0.295658 0.316002 0.014108
483 4 0.28383 0.268255 0.00510804
573 4 0.372767 0.265486 0.00801307
571 2 0.359446 0.280199 0.0232199
572 4 0.346124 0.294911 0.0384268
324 4 0.460087 0.275394 0.0736551
322 2 0.46638 0.251909 0.0678236
315 4 0.0688981 0.410366 0.0718719
313 2 0.0466682 0.419845 0.0654572
621 4 0.0720406 0.390487 0.0720752
456 4 0.132757 0.333485 0.0349887
454 2 0.115042 0.350013 0.0411672
455 4 0.0973275 0.366542 0.0473458
608 4 0.245391 0.369715 0.0552207
607 2 0.247903 0.357299 0.0767778
252 4 0.251241 0.376023 0.0377583
250 2 0.269955 0.392379 0.040485
251 4 0.28867 0.408734 0.0432117
523 2 0.323892 0.415831 0.0482426
226 2 0.399639 0.388622 0.0182847
228 4 0.391371 0.406657 0.0335021
670 2 0.405689 0.365022 0.0800095
671 4 0.422173 0.3568 0.0631013
525 4 0.347348 0.411475 0.0407576
1305 4 0.412547 0.351447 0.00765856
1047 4 0.498028 0.355145 0.0351956
227 4 0.407907 0.370587 0.00306732
281 4 0.430659 0.348846 0.0471177
280 2 0.455588 0.350784 0.0470173
282 4 0.480516 0.352723 0.046917
104 3 0.4865 0.348334 0.0655141
1045 2 0.502397 0.357104 0.0106547
552 4 0.0290782 0.44834 0.0522553
314 4 0.0244384 0.429325 0.0590424
550 2 0.00906306 0.454742 0.0387057
244 2 0.243584 0.466818 0.00975533
243 4 0.223416 0.494164 0.0618063
245 4 0.226532 0.450323 0.0018626
1440 4 0.232374 0.483777 0.0764371
246 4 0.260637 0.483313 0.0176481
524 4 0.300436 0.420187 0.0557276
37 3 0.353459 0.476612 0.00347638
1667 4 0.0554485 0.0215313 0.092843
16 1 0.0470614 0.00256286 0.11833
1422 4 0.0271054 0.0173549 0.150387
2480 4 0.017466 0.0318681 0.138625
18 3 0.0671957 0.0115968 0.1255
19 3 0.0293475 0.0143091 0.127639
17 3 0.0458882 0.00425978 0.0954195
2479 2 0.0149553 0.0521527 0.124223
2481 4 0.0124446 0.0724374 0.109822
652 2 0.24127 0.0543582 0.146503
654 4 0.249923 0.0516734 0.123199
653 4 0.232617 0.0570431 0.169808
1474 2 0.267988 0.0219107 0.0975064
1476 4 0.258203 0.0333908 0.117447
296 4 0.405882 0.0466941 0.0784514
297 4 0.363958 0.0210064 0.0875758
295 2 0.38492 0.0338503 0.0830136
557 4 0.401665 0.0633651 0.0890893
235 2 0.132353 0.166171 0.154111
236 4 0.150721 0.152367 0.163974
582 4 0.310536 0.108486 0.154002
556 2 0.401458 0.0868527 0.0976606
558 4 0.40125 0.11034 0.106232
2723 4 0.489572 0.0782912 0.115818
771 4 0.419957 0.10663 0.111742
769 2 0.438012 0.119593 0.123194
770 4 0.456066 0.132557 0.134647
338 4 0.0438804 0.233988 0.121313
237 4 0.113986 0.179974 0.144247
476 4 0.182122 0.180966 0.156513
477 4 0.225278 0.180263 0.131259
475 2 0.2037 0.180615 0.143886
352 2 0.246611 0.178321 0.102542
353 4 0.268206 0.18392 0.113834
461 4 0.284164 0.182587 0.123837
460 2 0.303606 0.195792 0.115303
462 4 0.323048 0.208997 0.106769
254 4 0.3919 0.256225 0.0871802
630 4 0.39609 0.235316 0.0890333
628 2 0.404405 0.235894 0.112607
624 4 0.432229 0.233551 0.130883
629 4 0.412719 0.236473 0.136181
337 2 0.0470152 0.251355 0.139026
339 4 0.0501499 0.268723 0.156738
395 4 0.060442 0.284258 0.163529
704 4 0.0288561 0.337118 0.165941
612 4 0.244074 0.330957 0.111425
610 2 0.246065 0.306539 0.106429
611 4 0.248057 0.282121 0.101432
279 4 0.270033 0.254624 0.152755
755 4 0.299603 0.249338 0.116301
278 4 0.255629 0.261964 0.105433
277 2 0.262831 0.258294 0.129094
754 2 0.319632 0.258331 0.104337
740 4 0.319235 0.334193 0.0984948
741 4 0.357628 0.30626 0.0827954
756 4 0.339661 0.267324 0.0923726
255 4 0.348241 0.279116 0.0787789
739 2 0.338431 0.320226 0.0906451
253 2 0.37007 0.26767 0.0829796
596 4 0.358646 0.329699 0.162205
622 2 0.442784 0.250702 0.145703
619 2 0.0808455 0.383981 0.0945548
620 4 0.0896505 0.377476 0.117034
647 4 0.0936452 0.36456 0.132698
537 4 0.107406 0.382195 0.109797
535 2 0.132361 0.383466 0.11069
536 4 0.157317 0.384737 0.111583
646 2 0.0981996 0.360803 0.156994
609 4 0.250415 0.344883 0.0983348
386 4 0.325542 0.34728 0.111091
385 2 0.333733 0.370615 0.114775
387 4 0.341924 0.39395 0.118458
302 4 0.342225 0.414935 0.128224
12 3 0.386555 0.379724 0.116431
11 1 0.382076 0.396471 0.131551
15 3 0.360027 0.402026 0.130278
672 4 0.389206 0.373243 0.0969176
14 3 0.395195 0.414911 0.126426
13 3 0.387103 0.388856 0.152886
597 4 0.388082 0.37008 0.164096
645 4 0.378643 0.389014 0.172896
595 2 0.373364 0.34989 0.16315
626 4 0.171723 0.422354 0.140266
1438 2 0.234805 0.463738 0.0911915
625 2 0.191016 0.438104 0.138043
1439 4 0.237237 0.443699 0.105946
638 4 0.216694 0.470853 0.145109
637 2 0.232347 0.490317 0.146253
627 4 0.210308 0.453853 0.135821
1559 4 0.316012 0.481847 0.112719
301 2 0.336879 0.434906 0.142288
495 4 0.392857 0.435638 0.126953
493 2 0.399854 0.445223 0.104945
494 4 0.406851 0.454807 0.0829364
303 4 0.331532 0.454876 0.156351
1584 4 0.466805 0.498562 0.105046
1582 2 0.475855 0.475345 0.102989
1420 2 0.017562 0.00168997 0.167378
450 4 0.128452 0.0954463 0.165717
1505 4 0.215329 0.00868857 0.202203
689 4 0.196177 0.00919403 0.198919
690 4 0.174993 0.0223134 0.242276
688 2 0.185585 0.0157537 0.220597
693 4 0.246751 0.0559896 0.184286
691 2 0.262771 0.0545737 0.203431
692 4 0.278791 0.0531577 0.222576
1699 2 0.312419 0.0619613 0.229287
1701 4 0.288936 0.0623151 0.237867
1700 4 0.335902 0.0616075 0.220708
21 1 0.367206 0.0700726 0.222094
25 3 0.368222 0.0673497 0.199506
22 3 0.370287 0.0497027 0.232327
333 4 0.388882 0.0734346 0.245749
759 4 0.355822 0.0795693 0.189513
1761 4 0.446794 0.00318128 0.176673
511 2 0.00863169 0.133901 0.209669
578 4 0.0492895 0.149998 0.221724
513 4 0.0301963 0.145679 0.214298
318 4 0.0577754 0.0877478 0.233301
449 4 0.156915 0.135805 0.173576
448 2 0.142684 0.115626 0.169646
28 3 0.228291 0.133182 0.174283
27 3 0.236334 0.146877 0.208348
26 1 0.245382 0.137602 0.189341
546 4 0.178271 0.134515 0.240377
580 2 0.291518 0.114749 0.168978
581 4 0.272501 0.121012 0.183954
30 3 0.256115 0.118273 0.194805
29 3 0.260411 0.152655 0.180071
758 4 0.331258 0.11046 0.158803
23 3 0.34642 0.0784327 0.228133
24 3 0.383913 0.0845803 0.229079
757 2 0.34354 0.0950144 0.174158
520 2 0.497639 0.158677 0.228491
312 4 0.421961 0.140357 0.201043
311 4 0.467417 0.143698 0.221618
310 2 0.444689 0.142028 0.211331
521 4 0.47309 0.159711 0.23312
764 4 0.474807 0.157201 0.267419
577 2 0.0468215 0.173846 0.228819
529 2 0.00505891 0.210027 0.23973
530 4 0.0298818 0.211023 0.2369
579 4 0.0443534 0.197694 0.235915
372 4 0.148788 0.233675 0.188846
362 4 0.134358 0.246315 0.192348
370 2 0.167631 0.21787 0.184339
371 4 0.186474 0.202065 0.179832
284 4 0.268817 0.254726 0.223453
283 2 0.271925 0.256399 0.1987
285 4 0.275033 0.258072 0.173947
396 4 0.0668147 0.306704 0.207759
443 4 0.0534348 0.311471 0.22132
394 2 0.0636283 0.295481 0.185644
442 2 0.0487462 0.301875 0.243928
363 4 0.0931515 0.267048 0.173038
361 2 0.113755 0.256682 0.182693
527 4 0.465663 0.263418 0.175022
623 4 0.453339 0.267852 0.160523
526 2 0.465199 0.283779 0.189526
528 4 0.464734 0.304141 0.20403
703 2 0.0146902 0.347284 0.183862
705 4 0.000524378 0.357449 0.201783
648 4 0.102754 0.357046 0.181291
300 4 0.0941146 0.346164 0.196314
298 2 0.092726 0.351924 0.220605
299 4 0.0913374 0.357684 0.244896
345 4 0.247871 0.346983 0.245708
343 2 0.271868 0.340649 0.248747
643 2 0.398589 0.393172 0.18739
644 4 0.418535 0.39733 0.201883
447 4 0.411582 0.414052 0.210436
108 3 0.498633 0.400767 0.216201
445 2 0.422907 0.415141 0.232701
2861 4 0.484853 0.40989 0.230083
264 4 0.0231279 0.421726 0.198916
262 2 0.035706 0.422152 0.220521
263 4 0.0482841 0.422578 0.242127
768 4 0.195153 0.459021 0.260994
289 2 0.243358 0.439285 0.23218
417 4 0.183243 0.480209 0.196962
290 4 0.238474 0.444047 0.208125
416 4 0.218599 0.447354 0.210044
415 2 0.200921 0.463782 0.203503
659 4 0.324521 0.444105 0.172097
291 4 0.248242 0.434522 0.256235
658 2 0.333695 0.450245 0.194532
660 4 0.342868 0.456385 0.216967
231 4 0.357298 0.464457 0.230046
2860 2 0.487878 0.424621 0.250059
1403 4 0.0299696 0.996587 0.281545
232 2 0.0267697 0.0399726 0.286626
234 4 0.0288666 0.064888 0.286554
317 4 0.0453821 0.0648969 0.276021
233 4 0.0246728 0.0150572 0.286697
316 2 0.0515787 0.0763223 0.254661
674 4 0.156392 0.0228253 0.249298
673 2 0.141826 0.0417653 0.24193
675 4 0.12726 0.0607053 0.234562
1406 4 0.20224 0.00576889 0.266169
698 4 0.380803 0.0562076 0.250815
1518 4 0.36059 0.00791335 0.282378
697 2 0.374276 0.0410266 0.269579
699 4 0.367749 0.0258457 0.288344
331 2 0.411463 0.0815822 0.25274
743 4 0.494689 0.0267035 0.264661
742 2 0.502602 0.00360214 0.270037
351 4 0.482782 0.0407879 0.256251
349 2 0.467725 0.0607457 0.255869
350 4 0.452668 0.0807035 0.255487
391 2 0.13633 0.149654 0.318085
392 4 0.148248 0.157977 0.297742
393 4 0.124411 0.14133 0.338428
722 4 0.195235 0.0863718 0.262821
545 4 0.152843 0.155899 0.277752
544 2 0.165557 0.145207 0.259065
723 4 0.24374 0.0973044 0.257489
721 2 0.219488 0.0918381 0.260155
599 4 0.214606 0.118493 0.302302
404 4 0.229165 0.128601 0.295396
598 2 0.2014 0.120806 0.323408
403 2 0.224747 0.146527 0.278535
405 4 0.22033 0.164453 0.261673
332 4 0.434045 0.0897298 0.259732
762 4 0.429445 0.116854 0.275852
761 4 0.467641 0.118805 0.308069
760 2 0.448543 0.11783 0.291961
257 4 0.468207 0.103022 0.321326
401 4 0.219819 0.17835 0.247038
402 4 0.229976 0.226405 0.256437
400 2 0.224898 0.202377 0.251738
765 4 0.440966 0.19352 0.261384
763 2 0.457887 0.17536 0.264401
444 4 0.0440576 0.292278 0.266535
309 4 0.307048 0.327202 0.267589
498 4 0.329875 0.293969 0.332804
344 4 0.295864 0.334315 0.251786
496 2 0.343343 0.292016 0.311829
497 4 0.356812 0.290063 0.290854
613 2 0.397807 0.316791 0.312643
541 2 0.446838 0.292497 0.30036
542 4 0.471586 0.294196 0.29723
615 4 0.413996 0.299153 0.319856
543 4 0.422089 0.290798 0.30349
749 4 0.0550891 0.347322 0.301722
365 4 0.00827059 0.346412 0.332523
364 2 0.0246056 0.339998 0.314713
366 4 0.0409407 0.333584 0.296902
748 2 0.0648987 0.351008 0.279021
735 4 0.149567 0.352418 0.306495
734 4 0.130154 0.327086 0.267996
750 4 0.0747083 0.354694 0.256319
733 2 0.139861 0.339752 0.287246
602 4 0.114181 0.391321 0.317463
777 4 0.115423 0.402557 0.300922
676 2 0.175529 0.385358 0.305869
677 4 0.166701 0.362352 0.310106
678 4 0.184357 0.408364 0.301632
374 4 0.246416 0.33692 0.328636
307 2 0.307049 0.334677 0.291449
727 2 0.321645 0.382348 0.319029
728 4 0.331836 0.40487 0.315281
308 4 0.307049 0.342153 0.315309
729 4 0.311454 0.359825 0.322777
614 4 0.381619 0.334428 0.30543
2924 4 0.483721 0.387492 0.320102
2537 4 0.493044 0.382703 0.299734
1757 4 0.119938 0.462374 0.266604
776 4 0.122547 0.442752 0.272038
775 2 0.118985 0.422655 0.28648
1756 2 0.126961 0.481489 0.281111
413 4 0.231 0.425968 0.308933
412 2 0.240119 0.421063 0.286174
766 2 0.198202 0.482979 0.254521
414 4 0.249237 0.416159 0.263415
3 3 0.279393 0.426422 0.324816
2 3 0.315766 0.418906 0.319053
1435 2 0.257306 0.479915 0.315667
438 4 0.308111 0.467883 0.247041
437 4 0.287771 0.458779 0.291808
436 2 0.297941 0.463331 0.269425
1437 4 0.275998 0.472487 0.300814
5 3 0.300757 0.4498 0.304451
1 1 0.300489 0.435776 0.322393
434 4 0.337741 0.426243 0.321886
433 2 0.353869 0.445278 0.320226
435 4 0.369996 0.464313 0.318566
714 4 0.42001 0.429009 0.262211
446 4 0.434232 0.416229 0.254966
119 3 0.481275 0.433902 0.326376
2862 4 0.490903 0.439353 0.270034
120 3 0.487402 0.436709 0.289333
713 4 0.446017 0.460565 0.290996
712 2 0.433014 0.444787 0.276604
116 1 0.494101 0.426455 0.308532
428 4 0.0472187 0.040332 0.359362
427 2 0.0558964 0.0169459 0.357639
606 4 0.148285 0.00280352 0.381402
730 2 0.107673 0.0761344 0.422065
604 2 0.163565 0.0225941 0.381222
605 4 0.178845 0.0423848 0.381042
683 4 0.227157 0.0502121 0.383944
682 2 0.24496 0.0450277 0.367171
321 4 0.227058 0.0699846 0.382402
684 4 0.262764 0.0398432 0.350398
249 4 0.31823 0.0645347 0.348959
247 2 0.340627 0.0746615 0.353545
424 2 0.436868 0.0374948 0.346578
426 4 0.436579 0.05544 0.363987
425 4 0.437158 0.0195497 0.329169
258 4 0.445347 0.069387 0.350427
399 4 0.114217 0.129485 0.350228
732 4 0.117322 0.0853958 0.400939
398 4 0.122843 0.102105 0.391175
397 2 0.11853 0.115795 0.370702
686 4 0.201715 0.123934 0.401392
600 4 0.188194 0.12312 0.344513
685 2 0.189442 0.119003 0.380173
687 4 0.177169 0.114073 0.358954
319 2 0.230286 0.0797324 0.4052
410 4 0.212653 0.134852 0.414619
409 2 0.230803 0.152024 0.41556
248 4 0.363023 0.0847882 0.358131
633 4 0.376124 0.0981562 0.346983
632 4 0.382201 0.12658 0.387675
631 2 0.379162 0.112368 0.367329
420 4 0.38886 0.145032 0.387507
468 4 0.373223 0.116458 0.40335
256 2 0.456777 0.0862043 0.335877
514 2 0.455425 0.156602 0.399537
516 4 0.442452 0.159813 0.420669
390 4 0.0753818 0.246942 0.384185
274 2 0.153081 0.229905 0.371391
388 2 0.0956033 0.23587 0.374507
389 4 0.115825 0.224797 0.364829
276 4 0.128924 0.231434 0.377661
473 4 0.225752 0.207142 0.331079
275 4 0.177237 0.228377 0.365122
474 4 0.182008 0.22687 0.345152
472 2 0.20388 0.217006 0.338116
708 4 0.240725 0.1946 0.337292
489 4 0.232991 0.250324 0.405266
651 4 0.230721 0.230801 0.402895
411 4 0.248953 0.169196 0.416501
649 2 0.240031 0.209497 0.412095
707 4 0.255502 0.157865 0.367835
706 2 0.248113 0.176233 0.352563
717 4 0.321501 0.235837 0.384181
650 4 0.249341 0.188194 0.421295
418 2 0.374384 0.164598 0.381779
419 4 0.359907 0.184163 0.37605
716 4 0.35908 0.202844 0.384395
715 2 0.340291 0.21934 0.384288
515 4 0.468399 0.153391 0.378405
270 4 0.489533 0.246216 0.388675
2654 4 0.00474327 0.271388 0.370681
618 4 0.0206935 0.263692 0.381761
616 2 0.0231382 0.275952 0.403415
487 2 0.228863 0.262969 0.384094
488 4 0.224736 0.275614 0.362922
377 4 0.328918 0.243975 0.367167
508 2 0.251093 0.30344 0.347225
509 4 0.242759 0.284582 0.361371
376 2 0.322193 0.262727 0.352057
378 4 0.315467 0.281479 0.336947
510 4 0.259427 0.322298 0.333079
265 2 0.359045 0.319418 0.37831
266 4 0.365735 0.297209 0.387649
585 4 0.36661 0.277534 0.387222
583 2 0.386267 0.277725 0.402673
584 4 0.405924 0.277917 0.418124
306 4 0.501194 0.250419 0.404034
2456 4 0.420183 0.287473 0.406337
269 4 0.456527 0.248177 0.35116
268 2 0.47303 0.247197 0.369918
547 2 0.082357 0.412941 0.384974
549 4 0.0977007 0.393677 0.380654
601 2 0.109713 0.387495 0.341765
603 4 0.105246 0.38367 0.366067
502 2 0.200755 0.392848 0.374231
504 4 0.211969 0.377684 0.357815
373 2 0.230682 0.355661 0.333772
375 4 0.214948 0.374403 0.338907
503 4 0.189541 0.408012 0.390647
267 4 0.352356 0.341626 0.368972
336 4 0.347623 0.427193 0.405831
559 2 0.487146 0.412188 0.424087
548 4 0.0670133 0.432205 0.389293
407 4 0.0682508 0.443314 0.406187
406 2 0.0481551 0.455001 0.396979
408 4 0.0280593 0.466687 0.387772
710 4 0.148039 0.421578 0.414178
570 4 0.136954 0.438882 0.416475
774 4 0.160399 0.478755 0.416052
1436 4 0.238614 0.487344 0.330519
1543 2 0.217366 0.49344 0.355326
1545 4 0.227954 0.475274 0.341795
636 4 0.186789 0.427136 0.397732
634 2 0.181257 0.447416 0.411271
635 4 0.175725 0.467696 0.42481
668 4 0.308404 0.444065 0.361688
4 3 0.30625 0.447413 0.341624
667 2 0.317952 0.437195 0.383752
669 4 0.327501 0.430325 0.405815
752 4 0.484357 0.436997 0.388597
561 4 0.489697 0.430365 0.407108
753 4 0.469885 0.444174 0.34127
751 2 0.477121 0.440585 0.364933
718 2 0.034444 0.0357428 0.495068
719 4 0.0587202 0.0342244 0.489276
369 4 0.056893 0.0340607 0.470068
367 2 0.0788144 0.0423205 0.461327
731 4 0.0980245 0.0668731 0.443191
368 4 0.100736 0.0505803 0.452586
2430 4 0.196826 0.0748561 0.447506
2428 2 0.192192 0.0503403 0.445868
2429 4 0.187559 0.0258245 0.44423
441 4 0.203274 0.0196339 0.453559
430 2 0.310563 0.0708539 0.491546
432 4 0.286658 0.0779766 0.489811
726 4 0.281874 0.078032 0.470242
724 2 0.259961 0.0798786 0.458342
843 4 0.343505 0.058971 0.510622
841 2 0.367433 0.0517336 0.511141
431 4 0.334468 0.0637312 0.49328
2879 4 0.433046 0.0262335 0.434905
2878 2 0.44922 0.040507 0.447548
2880 4 0.465393 0.0547805 0.460192
642 4 0.482666 0.0634532 0.465941
2586 4 0.990086 0.105722 0.449354
261 4 0.105253 0.151096 0.491092
725 4 0.238048 0.0817252 0.446442
341 4 0.192831 0.0900759 0.434724
340 2 0.197851 0.10939 0.449789
1152 4 0.187672 0.138999 0.472688
342 4 0.202871 0.128703 0.464854
1150 2 0.173152 0.137171 0.492961
320 4 0.233513 0.0894803 0.427998
466 2 0.358916 0.0991796 0.414393
467 4 0.34461 0.0819012 0.425437
576 4 0.443421 0.121959 0.462249
640 2 0.493219 0.0856715 0.47043
574 2 0.439045 0.143818 0.450927
575 4 0.434669 0.165678 0.439604
469 2 0.073235 0.20495 0.443799
470 4 0.0559505 0.217599 0.430899
471 4 0.0905196 0.1923 0.4567
260 4 0.0864936 0.173289 0.450395
259 2 0.0958731 0.162192 0.470744
617 4 0.025583 0.288211 0.425069
695 4 0.116162 0.266864 0.432768
694 2 0.137827 0.27889 0.429423
696 4 0.159492 0.290916 0.426077
10 3 0.138727 0.324927 0.458972
1260 4 0.178953 0.295301 0.430585
1258 2 0.191991 0.310038 0.446013
1259 4 0.205028 0.324775 0.461441
2455 2 0.438571 0.272591 0.414433
2457 4 0.45696 0.257709 0.42253
2812 2 0.992493 0.322268 0.49353
326 4 0.0649231 0.39446 0.44346
325 2 0.0853586 0.380694 0.44771
709 2 0.147053 0.399894 0.426588
7 3 0.111652 0.347486 0.446685
327 4 0.105794 0.366927 0.45196
6 1 0.131362 0.346472 0.458503
8 3 0.147072 0.359984 0.448063
9 3 0.127545 0.354005 0.480115
711 4 0.146067 0.37821 0.438999
239 4 0.321193 0.399907 0.495846
334 2 0.35472 0.414092 0.425911
335 4 0.361817 0.400992 0.44599
238 2 0.33406 0.394648 0.475062
240 4 0.346927 0.38939 0.454278
560 4 0.484594 0.394011 0.441065
2712 4 0.492003 0.392518 0.49464
1383 4 0.0106138 0.472986 0.434296
540 4 0.0443209 0.443417 0.479714
1381 2 0.01902 0.462836 0.455545
1382 4 0.0274263 0.452687 0.476793
680 4 0.000397569 0.47597 0.418482
569 4 0.0967213 0.464909 0.430781
382 2 0.148789 0.470886 0.485842
568 2 0.116838 0.451895 0.423628
773 4 0.143568 0.504777 0.455299
772 2 0.151983 0.491766 0.435675
384 4 0.143647 0.485985 0.466587
383 4 0.153932 0.455787 0.505097
1401 4 0.336601 0.454475 0.430801
1399 2 0.331586 0.47775 0.438434
1400 4 0.326571 0.501026 0.446068
720 4 0.0101678 0.0372612 0.500859
1059 4 0.0829704 0.0755232 0.576024
1057 2 0.0725569 0.0557402 0.587221
1032 4 0.135646 0.0388395 0.559659
1030 2 0.152656 0.0411437 0.541478
951 4 0.186771 0.05243 0.523454
1031 4 0.169666 0.0434479 0.523297
949 2 0.210541 0.0558206 0.516479
1182 4 0.245725 0.0416332 0.516448
950 4 0.234312 0.0592112 0.509505
961 2 0.309574 0.0258493 0.556183
1180 2 0.268637 0.0479541 0.524211
963 4 0.306161 0.04474 0.540162
1181 4 0.291549 0.054275 0.531974
962 4 0.312987 0.00695867 0.572204
842 4 0.391361 0.0444962 0.51166
1217 4 0.410841 0.0540503 0.515249
1216 2 0.417355 0.0723338 0.531012
1155 4 0.0975528 0.0873048 0.579028
939 4 0.149356 0.146153 0.527094
937 2 0.12771 0.153808 0.517194
1151 4 0.158632 0.135343 0.513234
938 4 0.106063 0.161463 0.507295
1218 4 0.423868 0.0906173 0.546775
1033 2 0.0800384 0.190208 0.525339
1035 4 0.0679229 0.204139 0.542201
1082 4 0.0609914 0.206269 0.560856
1081 2 0.0509785 0.196702 0.581674
1034 4 0.0921538 0.176277 0.508477
877 2 0.0907106 0.23938 0.577335
797 4 0.257589 0.184063 0.575688
811 2 0.305347 0.226756 0.528769
812 4 0.280547 0.226622 0.525594
796 2 0.263966 0.200355 0.557825
798 4 0.270343 0.216647 0.539962
858 4 0.268812 0.167877 0.577096
813 4 0.330148 0.226889 0.531945
900 4 0.364219 0.1635 0.563926
872 4 0.364379 0.179819 0.551923
873 4 0.33573 0.209949 0.524136
871 2 0.350054 0.194884 0.538029
904 2 0.44917 0.246615 0.5823
2813 4 0.994505 0.318935 0.518229
878 4 0.0851012 0.260881 0.565871
954 4 0.411509 0.304686 0.561719
905 4 0.437882 0.252516 0.560784
952 2 0.421957 0.283885 0.55259
953 4 0.432405 0.263084 0.543462
1136 4 0.155131 0.411638 0.581059
1135 2 0.164052 0.389565 0.573419
1137 4 0.172972 0.367491 0.56578
896 4 0.21116 0.343147 0.520981
1191 4 0.229601 0.335633 0.524524
897 4 0.181279 0.371814 0.549017
895 2 0.19622 0.35748 0.534999
1189 2 0.2532 0.336717 0.516333
1190 4 0.276799 0.337801 0.508142
803 4 0.282325 0.354983 0.517459
802 2 0.304911 0.356391 0.528092
804 4 0.327496 0.3578 0.538726
929 4 0.329056 0.346221 0.555849
928 2 0.348422 0.347609 0.571604
925 2 0.48184 0.397723 0.538101
927 4 0.489088 0.394225 0.514428
1001 4 0.464335 0.388578 0.574182
926 4 0.474592 0.40122 0.561775
539 4 0.0457101 0.458849 0.527261
936 4 0.0271873 0.451359 0.536705
1938 4 0.0568303 0.473887 0.530532
538 2 0.0450155 0.451133 0.503488
1936 2 0.0522799 0.498463 0.531256
2244 4 0.167213 0.457392 0.537067
2242 2 0.166721 0.466557 0.560325
1172 4 0.235334 0.454685 0.561954
882 4 0.251609 0.459083 0.551377
880 2 0.261177 0.482178 0.550876
1185 4 0.0206125 0.0676528 0.649307
945 4 0.039598 0.063281 0.649901
825 4 0.0711041 0.0364088 0.615648
1058 4 0.0621434 0.0359572 0.598418
823 2 0.0770647 0.0146183 0.626363
2195 4 0.2936 0.00550914 0.579096
1004 4 0.320574 0.0731647 0.678739
2283 4 0.464911 0.0217885 0.585961
2282 4 0.451191 0.0361702 0.631848
2281 2 0.458051 0.0289793 0.608905
43 3 0.456165 0.0354145 0.651411
41 1 0.469528 0.051667 0.661194
44 3 0.457328 0.0711662 0.664251
45 3 0.48763 0.0558129 0.648011
810 4 0.493567 0.0676901 0.632278
1198 2 0.0163181 0.162625 0.607702
1200 4 0.00100257 0.147924 0.594492
1153 2 0.10541 0.10902 0.588615
1154 4 0.113268 0.130734 0.598202
1221 4 0.115642 0.129906 0.617742
1219 2 0.134377 0.121366 0.631927
1220 4 0.153113 0.112826 0.646113
1283 4 0.148841 0.125304 0.661612
1212 4 0.236312 0.130624 0.628886
1210 2 0.256408 0.125775 0.642951
856 2 0.288216 0.15343 0.583419
899 4 0.32493 0.149078 0.591297
857 4 0.307619 0.138983 0.589741
1211 4 0.276504 0.120926 0.657016
898 2 0.344575 0.156289 0.577612
1083 4 0.0409657 0.187135 0.602492
1199 4 0.0316337 0.177326 0.620911
879 4 0.0963199 0.217879 0.588799
1272 4 0.0976466 0.201905 0.601244
1270 2 0.114393 0.196429 0.618985
1271 4 0.13114 0.190953 0.636726
909 4 0.14081 0.207986 0.632614
907 2 0.163024 0.219341 0.634284
908 4 0.185237 0.230696 0.635954
947 4 0.195942 0.245539 0.629853
1025 4 0.369127 0.194836 0.63707
1024 2 0.391315 0.203245 0.629188
1143 4 0.368534 0.199174 0.656713
906 4 0.460457 0.240714 0.603816
1026 4 0.413504 0.211654 0.621306
946 2 0.197128 0.263344 0.647368
1237 2 0.237404 0.317251 0.587614
1239 4 0.216567 0.325285 0.576369
948 4 0.198314 0.281148 0.664882
792 4 0.278158 0.304027 0.599065
791 4 0.303417 0.301143 0.642128
790 2 0.290788 0.302585 0.620597
1238 4 0.258242 0.309218 0.598858
1205 4 0.403436 0.296853 0.579417
1204 2 0.392631 0.317647 0.588135
983 4 0.0139596 0.392691 0.634982
1041 4 0.0257545 0.408692 0.641042
1039 2 0.0490522 0.410042 0.632066
1040 4 0.0723499 0.411392 0.62309
992 4 0.136977 0.399193 0.640399
991 2 0.114443 0.405086 0.631306
993 4 0.09191 0.41098 0.622212
1206 4 0.381827 0.338442 0.596854
930 4 0.367788 0.348998 0.587358
1000 2 0.454868 0.406694 0.588581
1171 2 0.238316 0.445612 0.585062
2243 4 0.166229 0.475722 0.583583
1173 4 0.241297 0.436538 0.608169
1161 4 0.17674 0.461491 0.592816
1160 4 0.209013 0.476558 0.627919
1159 2 0.192877 0.469025 0.610368
1175 4 0.225864 0.468137 0.631493
1174 2 0.23614 0.489171 0.640278
889 2 0.319472 0.473287 0.637017
891 4 0.330702 0.481149 0.616106
890 4 0.308242 0.465426 0.657927
1952 4 0.341717 0.49742 0.615089
3330 4 0.484313 0.420214 0.657151
1911 4 0.413006 0.474868 0.599155
1910 4 0.445858 0.440756 0.615212
1002 4 0.445401 0.424811 0.60298
1909 2 0.429432 0.457812 0.607184
3328 2 0.48807 0.436026 0.63815
3329 4 0.491828 0.451838 0.619149
1269 4 0.467645 0.498568 0.656847
943 2 0.0397175 0.0576073 0.674252
944 4 0.0398371 0.0519335 0.698603
1075 2 0.0583702 0.0439018 0.735217
1076 4 0.0529888 0.0428172 0.710823
2318 4 0.990426 0.00823548 0.697126
2317 2 0.00823588 0.995688 0.709396
1148 4 0.183882 0.0438917 0.751298
1005 4 0.283574 0.0395415 0.679864
1003 2 0.302074 0.0563531 0.679301
42 3 0.476668 0.0440702 0.681699
1163 4 0.491344 0.0439701 0.696093
1282 2 0.16547 0.124408 0.680263
32 3 0.0960965 0.151641 0.749041
1284 4 0.182099 0.123512 0.698914
1227 4 0.194294 0.112406 0.710119
1225 2 0.209401 0.130072 0.719332
1226 4 0.224509 0.147737 0.728545
888 4 0.294662 0.123805 0.664792
886 2 0.296373 0.12365 0.689737
887 4 0.298084 0.123495 0.714681
830 4 0.317753 0.119624 0.717332
829 2 0.334087 0.110382 0.733853
831 4 0.350421 0.10114 0.750375
1145 4 0.452261 0.16629 0.748421
1105 2 0.0319408 0.177578 0.74288
1209 4 0.0344475 0.238046 0.661645
1107 4 0.0164622 0.189603 0.727357
1207 2 0.055827 0.247324 0.670702
35 3 0.0639867 0.170624 0.747815
822 4 0.134046 0.230976 0.69559
1278 4 0.150708 0.220534 0.701841
820 2 0.114074 0.245691 0.692472
1276 2 0.164053 0.211737 0.721068
1130 4 0.210282 0.157879 0.738795
1277 4 0.177399 0.20294 0.740296
1129 2 0.202881 0.181479 0.742462
1131 4 0.195481 0.205079 0.746129
977 4 0.300273 0.181944 0.7433
916 2 0.295162 0.218176 0.725775
918 4 0.306777 0.201049 0.739808
917 4 0.283546 0.235303 0.711742
1141 2 0.358072 0.193231 0.678631
1142 4 0.34761 0.187287 0.700549
3123 4 0.450817 0.206688 0.684559
1194 4 0.422989 0.246159 0.733216
3121 2 0.472064 0.216465 0.675721
1262 4 0.430891 0.227435 0.734986
1261 2 0.434133 0.203262 0.740494
3122 4 0.493312 0.226243 0.666883
1208 4 0.0772065 0.256602 0.679758
1243 2 0.0066412 0.31157 0.708945
1244 4 0.0158158 0.327412 0.725975
821 4 0.0941012 0.260407 0.689354
1065 4 0.195308 0.294347 0.678286
1064 4 0.196473 0.289424 0.728036
1063 2 0.195891 0.291886 0.703161
1097 4 0.280895 0.253901 0.718131
1096 2 0.268734 0.271073 0.731636
1008 4 0.328684 0.255665 0.721847
1192 2 0.405265 0.25869 0.745626
806 4 0.415497 0.330672 0.738863
893 4 0.0630436 0.348398 0.681363
892 2 0.0780973 0.366807 0.689088
894 4 0.0931509 0.385216 0.696814
941 4 0.15588 0.399074 0.705873
940 2 0.148777 0.413475 0.725039
1281 4 0.0932359 0.403939 0.701732
1066 2 0.19559 0.399671 0.694944
1067 4 0.172373 0.391046 0.698373
1068 4 0.218807 0.408296 0.691516
1028 4 0.231712 0.410197 0.676395
1230 4 0.377239 0.40664 0.718278
1228 2 0.358786 0.416294 0.70444
3183 4 0.486638 0.424414 0.677696
2021 4 0.0424201 0.464663 0.736132
2020 2 0.0571522 0.476454 0.719727
2022 4 0.0718843 0.488245 0.703323
1280 4 0.0808202 0.44709 0.723744
1279 2 0.087028 0.425515 0.712738
2016 4 0.176894 0.490463 0.745839
1029 4 0.275046 0.434666 0.681309
1027 2 0.253379 0.422432 0.678852
1139 4 0.288775 0.421274 0.683684
1138 2 0.305555 0.4263 0.701526
1140 4 0.322334 0.431326 0.719369
1989 4 0.316515 0.440606 0.735818
1229 4 0.340334 0.425948 0.690603
1268 4 0.445368 0.471715 0.692671
1100 4 0.506323 0.481095 0.744694
1267 2 0.456506 0.485141 0.674759
1250 4 0.486735 0.473413 0.745502
1077 4 0.0637515 0.0449864 0.75961
1203 4 0.0605664 0.0303639 0.77467
1201 2 0.0805699 0.0167981 0.781074
1147 2 0.205602 0.042885 0.763644
1149 4 0.227322 0.0418783 0.775989
1049 4 0.23667 0.0586046 0.769135
1970 4 0.213901 0.00351533 0.8072
1048 2 0.258512 0.0506034 0.778305
1050 4 0.280354 0.0426022 0.787474
817 2 0.366033 0.0712509 0.815806
819 4 0.364711 0.0848199 0.794846
846 4 0.479965 0.0323824 0.794941
1113 4 0.471142 0.016916 0.784441
844 2 0.492542 0.0539918 0.794771
1106 4 0.0474193 0.165553 0.758404
832 2 0.0444417 0.136038 0.789672
863 4 0.020148 0.117285 0.817467
833 4 0.0364532 0.11995 0.807066
33 3 0.0737354 0.152324 0.779243
834 4 0.0524301 0.152126 0.772279
31 1 0.0814518 0.164616 0.761138
840 4 0.190848 0.099117 0.786665
838 2 0.213139 0.10505 0.796313
839 4 0.23543 0.110984 0.805961
978 4 0.276553 0.147741 0.771017
959 4 0.252751 0.118966 0.810041
958 2 0.268948 0.113671 0.828338
976 2 0.288413 0.164843 0.757158
1084 2 0.374392 0.122405 0.79365
1085 4 0.372235 0.100162 0.804864
1086 4 0.376549 0.144649 0.782436
1299 4 0.381077 0.163671 0.78791
1144 2 0.472659 0.157509 0.75991
1146 4 0.493057 0.148727 0.771398
3270 4 0.496697 0.136147 0.785984
3268 2 0.501607 0.129787 0.809661
1214 4 0.0129311 0.23612 0.801063
778 2 0.0557891 0.239234 0.811951
779 4 0.031751 0.234288 0.807168
1073 4 0.108959 0.19152 0.776372
1072 2 0.116059 0.183137 0.798833
1074 4 0.123158 0.174753 0.821294
34 3 0.0926022 0.18355 0.768593
780 4 0.0798273 0.24418 0.816735
869 4 0.0922187 0.23449 0.830398
1297 2 0.390224 0.183884 0.79944
1298 4 0.399371 0.204097 0.810971
47 3 0.385946 0.209037 0.824704
1043 4 0.393413 0.250299 0.822865
1042 2 0.378854 0.249954 0.80254
1007 4 0.352524 0.251055 0.765563
1044 4 0.364295 0.249609 0.782215
1263 4 0.437376 0.179089 0.746003
1240 2 0.221989 0.27096 0.762048
1242 4 0.199049 0.268428 0.771667
1241 4 0.244929 0.273493 0.752429