ITEM: TIMESTEP
3040000
ITEM: NUMBER OF ATOMS
4590
ITEM: BOX BOUNDS pp pp pp
-9.9985700000000008e+00 9.9985700000000008e+00
-9.9985700000000008e+00 9.9985700000000008e+00
-9.9985700000000008e+00 9.9985700000000008e+00
ITEM: ATOMS id type xs ys zs
463 2 0.0156697 0.0474134 0.0205991
464 4 0.0304034 0.0278157 0.0255011
1668 4 0.0660505 0.0646835 0.0666654
1666 2 0.0457884 0.0576923 0.0795396
3290 4 0.064306 0.0539174 0.0499254
465 4 0.000936105 0.0670111 0.0156972
3289 2 0.0805137 0.0400538 0.0368759
3291 4 0.0967213 0.0261901 0.0238264
2183 4 0.0947312 0.0255512 0.00427727
566 4 0.143389 0.0526017 0.0251779
565 2 0.164395 0.0418566 0.0334532
567 4 0.1854 0.0311115 0.0417286
490 2 0.308991 0.0118445 0.0627096
491 4 0.311623 0.0338473 0.0511282
985 2 0.298546 0.0381971 0.00887637
987 4 0.304777 0.0325984 0.0324351
2143 2 0.350812 0.00326957 0.00533675
745 2 0.485982 0.0352745 0.0704089
746 4 0.471522 0.0507356 0.0571022
421 2 0.0699862 0.170264 0.00487947
460 2 0.288115 0.158455 0.0512646
462 4 0.304814 0.143364 0.0621537
422 4 0.0527784 0.187284 0.0111565
506 4 0.16162 0.232864 0.0794541
737 4 0.174533 0.231481 0.0632895
736 2 0.189061 0.214399 0.0522321
738 4 0.20359 0.197316 0.0411747
354 4 0.219886 0.207633 0.0460388
352 2 0.242202 0.19935 0.0383848
461 4 0.271416 0.173547 0.0403756
353 4 0.264517 0.191066 0.0307307
1069 2 0.385156 0.242274 0.00574902
1070 4 0.391914 0.219252 0.998714
665 4 0.371731 0.189934 0.00473286
323 4 0.48786 0.259544 0.998093
828 4 0.498284 0.244186 0.00466665
836 4 0.0594904 0.24549 0.0116832
3339 4 0.00949006 0.283472 0.00186814
505 2 0.143092 0.249529 0.0774155
293 4 0.105883 0.269886 0.0693847
507 4 0.124564 0.266195 0.075377
287 4 0.145326 0.279709 0.0109354
286 2 0.143087 0.304612 0.0107979
612 4 0.267185 0.298644 0.0436325
610 2 0.272534 0.285101 0.0639583
609 4 0.266436 0.317847 0.0476372
572 4 0.313633 0.277743 0.998756
1071 4 0.378397 0.265296 0.0127838
573 4 0.360443 0.27351 0.0158354
571 2 0.337038 0.275627 0.00729582
324 4 0.44409 0.266182 0.0213475
322 2 0.465975 0.262863 0.00972014
1046 4 0.489649 0.335773 0.000784407
519 4 0.519324 0.26392 0.052151
990 4 0.151742 0.338258 0.0242361
455 4 0.118672 0.363545 0.0858195
1289 4 0.182871 0.40029 0.0274194
988 2 0.163114 0.36047 0.0226605
989 4 0.174486 0.382682 0.021085
1288 2 0.193054 0.409729 0.00662531
607 2 0.272305 0.34122 0.04097
739 2 0.329449 0.347339 0.0460179
250 2 0.290043 0.398994 0.048596
252 4 0.273679 0.380355 0.0454314
608 4 0.278175 0.364592 0.0343029
741 4 0.318776 0.343649 0.0237098
386 4 0.328289 0.36353 0.0791201
740 4 0.340122 0.351028 0.068326
226 2 0.380793 0.382641 0.0244925
228 4 0.360854 0.397709 0.0237131
227 4 0.400731 0.367573 0.0252719
1305 4 0.393924 0.351139 0.0149642
1303 2 0.404219 0.328994 0.00959764
1045 2 0.492058 0.343983 0.0242787
281 4 0.436888 0.361889 0.0802639
280 2 0.459654 0.355181 0.0723977
282 4 0.482421 0.348474 0.0645316
1047 4 0.494467 0.352192 0.047773
104 3 0.492629 0.348571 0.0829425
552 4 0.00775594 0.449726 0.0689244
550 2 0.00690644 0.468497 0.052429
551 4 0.00605695 0.487268 0.0359335
1956 4 0.00859917 0.502995 0.0240428
1788 4 0.152032 0.507178 0.0752373
1786 2 0.173346 0.498776 0.0652245
243 4 0.238252 0.457586 0.0661183
1440 4 0.23382 0.440098 0.0757827
241 2 0.221129 0.470145 0.0529178
242 4 0.204006 0.482704 0.0397173
1787 4 0.194661 0.490373 0.0552117
251 4 0.306406 0.417633 0.0517606
524 4 0.321917 0.430476 0.0546502
271 2 0.288635 0.476282 0.0681346
272 4 0.292201 0.451953 0.0726691
525 4 0.362931 0.416319 0.0297868
523 2 0.342424 0.423398 0.0422185
1583 4 0.461627 0.452539 0.0369779
1582 2 0.458055 0.471616 0.0527421
1584 4 0.454483 0.490692 0.0685063
1674 4 0.455944 0.506674 0.0793222
1667 4 0.0255262 0.0507011 0.0924139
16 1 0.0368713 0.0442197 0.135265
19 3 0.0195161 0.0534647 0.147583
17 3 0.0312394 0.0446934 0.112967
20 3 0.0403144 0.0226396 0.141675
1422 4 0.00827019 0.0423109 0.163439
2480 4 0.00638618 0.0648167 0.163687
18 3 0.0562553 0.0565898 0.13837
652 2 0.251542 0.0469182 0.158806
654 4 0.249735 0.0405179 0.134703
1476 4 0.268958 0.0373779 0.130071
1475 4 0.307824 0.0565214 0.105098
1474 2 0.288391 0.0469496 0.117585
297 4 0.373387 0.043165 0.134591
295 2 0.394918 0.0543518 0.128553
484 2 0.350147 0.0194548 0.120882
485 4 0.361827 0.0414651 0.118807
296 4 0.416448 0.0655386 0.122516
486 4 0.338467 0.997445 0.122957
557 4 0.437128 0.068378 0.121236
556 2 0.460458 0.0772543 0.122694
450 4 0.0891235 0.104554 0.095937
236 4 0.135781 0.128671 0.119606
449 4 0.132472 0.129131 0.100134
448 2 0.110798 0.116842 0.0980356
235 2 0.158517 0.125485 0.12951
237 4 0.181253 0.122299 0.139415
580 2 0.313618 0.123966 0.144765
581 4 0.299444 0.143852 0.150133
30 3 0.282322 0.131221 0.153968
582 4 0.327792 0.10408 0.139396
26 1 0.266039 0.145078 0.16181
758 4 0.347311 0.100943 0.141287
757 2 0.354823 0.0913054 0.163102
558 4 0.483787 0.0861307 0.124151
771 4 0.477093 0.095863 0.139424
769 2 0.48014 0.115973 0.153966
477 4 0.234876 0.156231 0.145078
371 4 0.202558 0.208407 0.138575
476 4 0.19945 0.189989 0.134782
475 2 0.217163 0.17311 0.13993
29 3 0.254055 0.154042 0.144078
756 4 0.366633 0.241858 0.117456
754 2 0.356139 0.246211 0.13973
755 4 0.345645 0.250563 0.162003
624 4 0.470051 0.253915 0.13691
629 4 0.467887 0.253033 0.117417
628 2 0.445787 0.251873 0.10578
339 4 0.0509875 0.302919 0.164246
294 4 0.106282 0.309977 0.0992729
292 2 0.106083 0.289932 0.0843288
456 4 0.0905123 0.32424 0.0985808
611 4 0.277884 0.271557 0.0842841
279 4 0.278551 0.254821 0.146938
277 2 0.284244 0.261906 0.123645
278 4 0.289937 0.26899 0.100352
285 4 0.270082 0.251201 0.164784
255 4 0.362466 0.254804 0.103215
254 4 0.409537 0.265132 0.0898598
253 2 0.386002 0.259968 0.0965372
630 4 0.423687 0.250713 0.0941425
622 2 0.463027 0.261629 0.159633
619 2 0.0412179 0.378936 0.1369
620 4 0.0512077 0.391647 0.117827
621 4 0.0312281 0.366224 0.155974
2694 4 0.994212 0.412408 0.128043
315 4 0.00931495 0.421148 0.118146
454 2 0.104592 0.343892 0.0922001
537 4 0.115407 0.395013 0.139309
535 2 0.138616 0.386384 0.135836
536 4 0.161825 0.377754 0.132363
647 4 0.107333 0.390935 0.157582
625 2 0.218898 0.386012 0.135036
627 4 0.222872 0.405427 0.11979
626 4 0.214925 0.366597 0.150283
1439 4 0.242111 0.407877 0.113116
670 2 0.410316 0.353893 0.0970565
385 2 0.336241 0.375736 0.0994415
387 4 0.344193 0.387942 0.119763
12 3 0.397266 0.379339 0.121639
11 1 0.385731 0.398324 0.127612
15 3 0.364527 0.397116 0.119392
672 4 0.391546 0.363281 0.110648
302 4 0.346671 0.410525 0.12295
13 3 0.385176 0.399792 0.150762
671 4 0.429086 0.344505 0.083465
314 4 0.997438 0.456179 0.0844933
313 2 0.00337648 0.438664 0.10132
1465 2 0.0129267 0.502416 0.124317
1620 4 0.150138 0.479337 0.142739
1618 2 0.144532 0.491386 0.12156
1438 2 0.237965 0.423988 0.0944495
639 4 0.2735 0.486939 0.135778
638 4 0.304976 0.448821 0.143329
637 2 0.289238 0.46788 0.139553
303 4 0.303138 0.428721 0.139517
659 4 0.315915 0.458445 0.156329
301 2 0.324905 0.419623 0.131233
1559 4 0.363838 0.49562 0.130259
14 3 0.396612 0.416808 0.11876
495 4 0.397497 0.436223 0.113489
493 2 0.405882 0.459558 0.116701
494 4 0.414267 0.482894 0.119914
674 4 0.145082 0.0761849 0.208745
688 2 0.159468 0.0418838 0.196872
689 4 0.159101 0.0171744 0.193065
690 4 0.159834 0.0665932 0.200678
1505 4 0.177728 0.0129846 0.193078
693 4 0.25251 0.0719934 0.189328
653 4 0.253349 0.0533184 0.182909
1699 2 0.3291 0.0926973 0.212978
1701 4 0.3074 0.096104 0.224924
1700 4 0.350799 0.0892905 0.201032
22 3 0.389148 0.0652679 0.219455
698 4 0.40545 0.0696499 0.229719
697 2 0.411084 0.0501274 0.24429
25 3 0.383135 0.0809933 0.186146
349 2 0.484979 0.0639719 0.215204
742 2 0.489503 0.00671656 0.243927
513 4 0.0221548 0.137474 0.229369
578 4 0.032662 0.145984 0.243913
511 2 0.00557455 0.131363 0.211679
673 2 0.147762 0.0856676 0.231725
675 4 0.150442 0.0951502 0.254705
691 2 0.271609 0.0828753 0.201243
692 4 0.290709 0.0937571 0.213158
28 3 0.251786 0.133373 0.175891
27 3 0.275751 0.162241 0.173653
21 1 0.384082 0.0848867 0.208565
333 4 0.412821 0.0874305 0.223546
759 4 0.362336 0.0816674 0.184916
23 3 0.363544 0.092582 0.216139
24 3 0.400595 0.100516 0.213196
770 4 0.483186 0.136083 0.168509
331 2 0.436724 0.0946712 0.22238
312 4 0.480232 0.13128 0.187956
310 2 0.486568 0.138258 0.211115
350 4 0.475625 0.0862715 0.221561
332 4 0.460628 0.101912 0.221215
311 4 0.492904 0.145235 0.234274
577 2 0.030988 0.170784 0.241204
529 2 0.0234851 0.221615 0.202747
530 4 0.028941 0.203876 0.219502
579 4 0.029314 0.195584 0.238495
531 4 0.0180293 0.239354 0.185991
2483 4 0.00635038 0.248365 0.173902
372 4 0.163112 0.221511 0.166379
362 4 0.157177 0.229995 0.182617
370 2 0.182835 0.214959 0.152477
704 4 0.0359363 0.314189 0.170397
337 2 0.0699218 0.290494 0.174843
703 2 0.0313967 0.325853 0.192042
705 4 0.0268571 0.337517 0.213687
361 2 0.139384 0.247238 0.185967
363 4 0.12159 0.264482 0.189316
338 4 0.088856 0.278069 0.18544
395 4 0.10327 0.269809 0.199119
396 4 0.101693 0.277525 0.248502
394 2 0.102482 0.273667 0.223811
283 2 0.278011 0.257171 0.187733
284 4 0.285939 0.263141 0.210683
528 4 0.434269 0.301537 0.228003
623 4 0.456003 0.269344 0.182356
527 4 0.439214 0.265692 0.193486
526 2 0.436742 0.283614 0.210744
542 4 0.439603 0.292435 0.245702
2615 4 0.0163522 0.341668 0.229768
300 4 0.107937 0.381364 0.215066
646 2 0.105817 0.394958 0.182213
648 4 0.104301 0.398981 0.206845
298 2 0.111436 0.366297 0.23471
289 2 0.223495 0.404219 0.253638
416 4 0.207949 0.404036 0.211724
290 4 0.216888 0.404629 0.229527
415 2 0.187615 0.41633 0.203943
597 4 0.394323 0.3892 0.16818
345 4 0.360538 0.36743 0.21406
596 4 0.359967 0.363145 0.193509
645 4 0.395647 0.411084 0.169688
595 2 0.377145 0.376172 0.180844
343 2 0.35962 0.367176 0.239045
263 4 0.0410066 0.40626 0.244919
1431 4 0.140824 0.479008 0.160365
1429 2 0.152818 0.45948 0.170364
1430 4 0.164812 0.439953 0.180363
417 4 0.16728 0.428625 0.196163
438 4 0.271449 0.462236 0.216605
436 2 0.277452 0.462729 0.240873
658 2 0.336726 0.457545 0.17016
643 2 0.39298 0.42589 0.189659
644 4 0.390314 0.440696 0.209631
660 4 0.357536 0.456646 0.183992
231 4 0.367746 0.470772 0.193511
447 4 0.400483 0.457519 0.215487
445 2 0.41138 0.450679 0.236926
1403 4 0.0319825 0.0218906 0.270065
233 4 0.0228431 0.0320222 0.285188
232 2 0.0386378 0.0510732 0.281615
234 4 0.0544325 0.0701242 0.278042
317 4 0.0571892 0.0838194 0.293129
722 4 0.194151 0.0656008 0.257807
1407 4 0.243046 0.998503 0.292512
1405 2 0.231961 0.0166752 0.279395
1406 4 0.220875 0.0348472 0.266277
721 2 0.192975 0.0750521 0.280926
723 4 0.191799 0.0845034 0.304044
599 4 0.183421 0.0792659 0.32244
699 4 0.416718 0.0306049 0.258861
1518 4 0.408349 0.0125381 0.256796
743 4 0.481019 0.0207267 0.26282
425 4 0.492057 0.0226364 0.279777
424 2 0.47887 0.0395157 0.292676
258 4 0.448054 0.0619409 0.313506
426 4 0.465683 0.0563949 0.305575
316 2 0.0748101 0.101507 0.294485
318 4 0.0924311 0.119194 0.295841
393 4 0.0918463 0.159981 0.320352
391 2 0.0907807 0.158968 0.295392
392 4 0.0897151 0.157954 0.270432
544 2 0.117711 0.123784 0.263648
545 4 0.10245 0.142734 0.269408
546 4 0.132973 0.104834 0.257889
399 4 0.10705 0.165188 0.333877
404 4 0.242123 0.0924741 0.299481
403 2 0.241169 0.116136 0.291456
405 4 0.240215 0.139798 0.283432
401 4 0.249207 0.155352 0.29383
400 2 0.237718 0.177536 0.292805
256 2 0.455714 0.0788489 0.330257
402 4 0.226229 0.19972 0.291781
707 4 0.284735 0.202029 0.335128
377 4 0.388028 0.207566 0.349097
763 2 0.450544 0.196952 0.307443
764 4 0.457431 0.187432 0.285373
442 2 0.0806544 0.282557 0.275353
444 4 0.0799724 0.286377 0.300054
443 4 0.0813364 0.278738 0.250652
497 4 0.312709 0.27325 0.328322
541 2 0.430329 0.312955 0.256569
543 4 0.421056 0.333476 0.267436
749 4 0.0625711 0.336209 0.287974
366 4 0.0569789 0.354594 0.291243
365 4 0.00783201 0.359991 0.298738
364 2 0.0324054 0.357293 0.29499
602 4 0.067471 0.39805 0.315327
2493 4 0.995419 0.371231 0.309172
748 2 0.0857739 0.342378 0.280992
299 4 0.114935 0.35123 0.254355
750 4 0.108977 0.348548 0.27401
777 4 0.0846057 0.407743 0.31221
735 4 0.151227 0.396263 0.287515
733 2 0.145441 0.371954 0.288407
734 4 0.139654 0.347646 0.289298
677 4 0.161487 0.410394 0.27711
291 4 0.230102 0.403808 0.27775
414 4 0.229718 0.421117 0.288501
412 2 0.250191 0.415456 0.301692
413 4 0.270663 0.409795 0.314883
727 2 0.327246 0.392456 0.325958
344 4 0.358702 0.366922 0.264031
308 4 0.36397 0.37315 0.320435
729 4 0.345744 0.375644 0.325353
615 4 0.407655 0.346317 0.275848
309 4 0.369586 0.354563 0.274352
307 2 0.366778 0.363857 0.297394
614 4 0.438338 0.352423 0.31486
613 2 0.422996 0.34937 0.295354
2924 4 0.496012 0.35538 0.325288
2923 2 0.472121 0.348554 0.32808
2862 4 0.483176 0.403112 0.278861
2860 2 0.494801 0.393106 0.259114
120 3 0.491388 0.407889 0.299856
713 4 0.471574 0.417375 0.2912
2925 4 0.44823 0.341727 0.330872
116 1 0.503416 0.395705 0.314874
262 2 0.0415546 0.430731 0.250025
264 4 0.0421026 0.455202 0.25513
1758 4 0.0916798 0.502624 0.295281
775 2 0.0937736 0.427439 0.299833
1757 4 0.117811 0.460574 0.288235
776 4 0.102941 0.447135 0.287456
1756 2 0.104745 0.481599 0.291758
676 2 0.180349 0.426643 0.279424
678 4 0.199211 0.442892 0.281739
768 4 0.187046 0.457372 0.273221
766 2 0.191282 0.481978 0.274554
1545 4 0.240994 0.498915 0.318507
767 4 0.195519 0.506584 0.275887
5 3 0.267291 0.41978 0.331793
1436 4 0.252876 0.50714 0.305602
437 4 0.283455 0.463222 0.26514
1437 4 0.282098 0.475499 0.280193
1435 2 0.267487 0.491319 0.292898
433 2 0.304617 0.452587 0.310208
435 4 0.307425 0.473749 0.297189
728 4 0.308748 0.409268 0.326563
434 4 0.30181 0.431426 0.323227
446 4 0.422278 0.443838 0.258365
712 2 0.456344 0.431318 0.2771
714 4 0.441115 0.445261 0.263
368 4 0.0661881 0.0515844 0.414461
731 4 0.0743203 0.069745 0.408718
730 2 0.0929577 0.0723454 0.392254
604 2 0.138873 0.066792 0.35308
606 4 0.147321 0.0619466 0.330051
605 4 0.130425 0.0716374 0.376109
249 4 0.298649 0.027131 0.346781
684 4 0.280139 0.0334053 0.349526
682 2 0.264608 0.0523439 0.354556
683 4 0.249077 0.0712825 0.359586
247 2 0.318305 0.040885 0.353828
248 4 0.33796 0.054639 0.360875
633 4 0.331177 0.0560307 0.380198
631 2 0.339132 0.066204 0.401609
1747 2 0.475152 0.00192901 0.353186
1749 4 0.486705 0.0221396 0.344062
641 4 0.48937 0.0807416 0.416561
480 4 0.494506 0.0401137 0.351456
2586 4 0.999444 0.145415 0.391228
732 4 0.111595 0.0749458 0.37579
397 2 0.105043 0.146351 0.350197
398 4 0.103036 0.127515 0.366516
598 2 0.198791 0.0939794 0.335572
600 4 0.214161 0.108693 0.348704
685 2 0.20464 0.133189 0.372601
687 4 0.202755 0.124974 0.349061
686 4 0.206525 0.141405 0.396141
410 4 0.222484 0.138207 0.40682
321 4 0.25386 0.089174 0.368845
319 2 0.263144 0.097359 0.39057
419 4 0.374067 0.162701 0.390062
418 2 0.354896 0.149519 0.39922
420 4 0.335724 0.136337 0.408378
716 4 0.376475 0.15682 0.371114
257 4 0.463375 0.0957569 0.347009
760 2 0.481187 0.126497 0.347309
761 4 0.461454 0.114001 0.338384
390 4 0.0775031 0.220235 0.416681
388 2 0.0915343 0.228704 0.397798
274 2 0.147057 0.233062 0.37293
276 4 0.124157 0.243102 0.372997
473 4 0.227458 0.200637 0.343661
474 4 0.188075 0.222718 0.365158
472 2 0.207766 0.211677 0.354409
708 4 0.238514 0.216513 0.34756
275 4 0.169956 0.223021 0.372863
650 4 0.247577 0.199221 0.414505
651 4 0.254327 0.234672 0.379887
649 2 0.250952 0.216946 0.397196
706 2 0.261624 0.209271 0.341344
489 4 0.25992 0.249542 0.366115
717 4 0.387567 0.191594 0.336931
715 2 0.382021 0.174207 0.354022
376 2 0.374648 0.227516 0.342157
584 4 0.397496 0.244117 0.405163
765 4 0.443656 0.206473 0.329513
269 4 0.5049 0.262936 0.339589
2654 4 0.997456 0.253417 0.408697
389 4 0.105565 0.237172 0.378914
1258 2 0.134422 0.309855 0.396584
1259 4 0.141878 0.327816 0.380869
1260 4 0.126966 0.291893 0.412299
509 4 0.237655 0.30132 0.361505
487 2 0.250962 0.271908 0.3728
488 4 0.242004 0.294274 0.379485
508 2 0.231709 0.325073 0.366565
496 2 0.335711 0.268987 0.337148
267 4 0.345202 0.325634 0.347239
498 4 0.358714 0.264723 0.345973
378 4 0.361269 0.247466 0.335216
266 4 0.369793 0.302425 0.384081
585 4 0.383155 0.289631 0.390212
583 2 0.390325 0.266874 0.397687
265 2 0.357498 0.314029 0.36566
268 2 0.48782 0.264002 0.357818
270 4 0.47074 0.265068 0.376047
306 4 0.482161 0.266576 0.394552
304 2 0.480475 0.267558 0.419479
601 2 0.077422 0.389302 0.336532
407 4 0.0247346 0.413449 0.398723
603 4 0.0873731 0.380553 0.357736
547 2 0.0987699 0.419551 0.375542
549 4 0.0879446 0.399874 0.364551
504 4 0.196076 0.406012 0.330866
510 4 0.225764 0.348827 0.371624
374 4 0.223909 0.367434 0.375066
373 2 0.240753 0.382121 0.363851
375 4 0.257596 0.396808 0.352636
3 3 0.277575 0.396789 0.359781
751 2 0.488892 0.402943 0.373325
119 3 0.499168 0.403249 0.336402
753 4 0.484154 0.396663 0.349591
679 2 0.0400113 0.485329 0.369135
680 4 0.048515 0.470467 0.387356
406 2 0.039623 0.432415 0.392106
408 4 0.0545113 0.451381 0.385488
681 4 0.0315076 0.500191 0.350914
569 4 0.116849 0.440811 0.403866
548 4 0.109595 0.439229 0.386532
502 2 0.20402 0.429316 0.335223
635 4 0.172583 0.495124 0.364957
634 2 0.187751 0.475633 0.361057
636 4 0.202918 0.456141 0.357157
503 4 0.211964 0.452621 0.33958
669 4 0.288652 0.491261 0.401169
2 3 0.302502 0.420182 0.344159
1 1 0.280457 0.417754 0.350264
668 4 0.274876 0.452882 0.372221
4 3 0.275079 0.434253 0.365668
667 2 0.281764 0.472072 0.386695
1586 4 0.299596 0.50754 0.399863
752 4 0.49363 0.409222 0.397058
718 2 0.040707 0.0653943 0.495248
719 4 0.0319365 0.0700943 0.47231
369 4 0.0461587 0.0640977 0.45854
367 2 0.0561734 0.057841 0.4365
341 4 0.168601 0.0700155 0.451917
441 4 0.207066 0.999747 0.449918
2430 4 0.178826 0.0587063 0.440796
2428 2 0.185033 0.0353247 0.447117
2429 4 0.19124 0.011943 0.453437
632 4 0.347087 0.0763773 0.423019
2878 2 0.470625 0.00734051 0.459686
2880 4 0.469348 0.0321023 0.456461
642 4 0.479254 0.0373173 0.439204
640 2 0.484312 0.0590295 0.427883
259 2 0.0760464 0.171892 0.500617
409 2 0.233826 0.159417 0.413652
340 2 0.176081 0.0922954 0.460451
1152 4 0.186144 0.133359 0.478373
342 4 0.18356 0.114575 0.468986
320 4 0.272428 0.105544 0.412295
725 4 0.270652 0.101024 0.432325
724 2 0.279677 0.103056 0.455554
432 4 0.282076 0.0960301 0.494869
726 4 0.288702 0.105088 0.478784
468 4 0.339897 0.089577 0.436426
467 4 0.365155 0.13064 0.449716
466 2 0.352526 0.110108 0.443071
574 2 0.402556 0.131515 0.437559
576 4 0.378301 0.126741 0.43381
3158 4 0.493288 0.0987012 0.425312
575 4 0.426812 0.136289 0.441309
516 4 0.445127 0.144515 0.438522
514 2 0.469471 0.140437 0.434534
515 4 0.493815 0.136358 0.430546
260 4 0.0742902 0.16963 0.475778
469 2 0.0759069 0.204291 0.452772
471 4 0.0680354 0.18835 0.470353
470 4 0.0837784 0.220232 0.435191
411 4 0.245169 0.180627 0.420484
2455 2 0.401074 0.218285 0.439248
2457 4 0.410537 0.208809 0.460363
2456 4 0.39161 0.227761 0.418134
616 2 0.0165767 0.275465 0.433985
617 4 0.0369217 0.285554 0.444449
695 4 0.0950667 0.261044 0.445669
694 2 0.104411 0.28125 0.434285
696 4 0.113755 0.301456 0.422901
878 4 0.109986 0.278623 0.491805
1010 4 0.44725 0.320214 0.463958
1009 2 0.45539 0.29686 0.460278
1011 4 0.46353 0.273507 0.456597
305 4 0.478789 0.26854 0.444406
2507 4 0.456844 0.333979 0.475407
326 4 0.106319 0.373542 0.441358
325 2 0.128392 0.368657 0.45204
7 3 0.170323 0.364127 0.467296
327 4 0.150465 0.363771 0.462722
8 3 0.162267 0.390314 0.493026
6 1 0.170416 0.368827 0.489814
334 2 0.340067 0.41297 0.440917
335 4 0.356131 0.396588 0.450854
238 2 0.345767 0.389688 0.494198
240 4 0.350064 0.395238 0.4702
561 4 0.490478 0.413431 0.415437
559 2 0.495674 0.394844 0.431334
2506 2 0.473464 0.35133 0.468486
2508 4 0.490083 0.368682 0.461564
1381 2 0.0050595 0.448233 0.476668
1382 4 0.0259731 0.461886 0.475488
538 2 0.0458796 0.484634 0.498068
540 4 0.0444065 0.470764 0.477316
384 4 0.135738 0.511309 0.495996
568 2 0.116931 0.440656 0.428869
570 4 0.117013 0.440502 0.453872
709 2 0.133534 0.414865 0.482594
774 4 0.116814 0.490907 0.433175
773 4 0.124959 0.503239 0.480948
772 2 0.120887 0.497073 0.457062
710 4 0.117812 0.424997 0.466
1393 2 0.228277 0.500655 0.471311
1394 4 0.240715 0.494025 0.491962
1401 4 0.326001 0.44364 0.416533
1399 2 0.326352 0.468219 0.421108
1400 4 0.326704 0.492798 0.425684
336 4 0.324003 0.429352 0.430979
1127 4 0.0339795 0.0494405 0.522965
720 4 0.0494774 0.0606943 0.518186
1126 2 0.0147399 0.0452389 0.538371
1031 4 0.166032 0.0873476 0.541627
949 2 0.200496 0.0752931 0.560135
950 4 0.221646 0.0772817 0.573322
1182 4 0.240367 0.0693234 0.572752
951 4 0.179346 0.0733044 0.546948
1180 2 0.250024 0.0485598 0.562712
963 4 0.274716 0.0189253 0.542148
1181 4 0.259681 0.0277963 0.552672
961 2 0.286864 0.00228716 0.556318
1216 2 0.37394 0.0560133 0.514537
1217 4 0.35451 0.0667016 0.526088
842 4 0.355636 0.0628722 0.546487
1218 4 0.393369 0.0453249 0.502986
1035 4 0.0659836 0.142397 0.571432
261 4 0.0778026 0.174153 0.525456
1033 2 0.0781491 0.157781 0.555923
1030 2 0.14413 0.0975318 0.548089
1032 4 0.122228 0.107716 0.554551
938 4 0.166135 0.177715 0.582597
1154 4 0.122234 0.0995856 0.572788
1150 2 0.188459 0.144118 0.500825
1151 4 0.190774 0.154877 0.523276
843 4 0.320969 0.0987495 0.549915
431 4 0.311378 0.107257 0.533806
430 2 0.296727 0.101644 0.514337
857 4 0.34356 0.135627 0.572568
899 4 0.359426 0.132408 0.560791
841 2 0.338303 0.0808109 0.548201
898 2 0.375033 0.151917 0.559781
808 2 0.499615 0.0890955 0.561479
1034 4 0.0903146 0.173165 0.540415
1272 4 0.108862 0.237768 0.544295
1270 2 0.121655 0.228594 0.56372
1271 4 0.134449 0.219419 0.583145
937 2 0.173042 0.171593 0.559359
939 4 0.179948 0.165471 0.536121
900 4 0.39064 0.171425 0.558771
872 4 0.375095 0.181105 0.551347
873 4 0.372419 0.230587 0.558067
871 2 0.373757 0.205846 0.554707
813 4 0.362165 0.232908 0.575502
953 4 0.440619 0.251278 0.587213
879 4 0.100063 0.24559 0.528014
877 2 0.105025 0.262107 0.50991
1239 4 0.26405 0.263862 0.566309
1205 4 0.394858 0.295741 0.562256
1204 2 0.369945 0.297171 0.563831
1206 4 0.345033 0.2986 0.565406
930 4 0.340001 0.318608 0.56352
954 4 0.411314 0.283758 0.562985
952 2 0.425966 0.267518 0.575099
984 4 0.00832543 0.408391 0.585481
9 3 0.156847 0.353495 0.500733
711 4 0.149255 0.404733 0.499188
896 4 0.185613 0.3512 0.519772
1137 4 0.17967 0.354611 0.587961
897 4 0.189421 0.354833 0.569502
895 2 0.187517 0.353016 0.544637
10 3 0.191729 0.36734 0.497699
1191 4 0.202606 0.359996 0.512782
1189 2 0.227132 0.364052 0.510101
928 2 0.327973 0.340518 0.562853
802 2 0.285111 0.363014 0.532145
804 4 0.30482 0.369371 0.546157
929 4 0.315946 0.362428 0.562186
803 4 0.265402 0.356656 0.518134
1190 4 0.251658 0.368108 0.50742
239 4 0.341469 0.384138 0.518196
1001 4 0.470808 0.387699 0.549517
926 4 0.480083 0.39488 0.533179
925 2 0.491373 0.373495 0.526823
1000 2 0.471708 0.399589 0.571494
927 4 0.502663 0.35211 0.520466
934 2 0.00361765 0.476691 0.583992
936 4 0.0284461 0.476434 0.581048
1938 4 0.0473988 0.483469 0.577493
1936 2 0.0549959 0.489277 0.55439
382 2 0.134069 0.499296 0.517861
383 4 0.1324 0.487283 0.539726
2244 4 0.133262 0.490706 0.559274
1446 4 0.247634 0.473938 0.490339
882 4 0.292151 0.465244 0.580076
880 2 0.294263 0.467918 0.555306
881 4 0.296374 0.470592 0.530535
1445 4 0.27847 0.477527 0.529543
1444 2 0.263052 0.475732 0.509941
1183 2 0.997302 0.0358644 0.6496
1185 4 0.0195213 0.031242 0.660094
1058 4 0.0808121 0.0158106 0.641745
1057 2 0.0868255 0.0359333 0.628176
945 4 0.0265468 0.0490929 0.666242
1155 4 0.104011 0.0709485 0.609511
1059 4 0.0928388 0.0560561 0.614608
1153 2 0.113123 0.0852671 0.591149
825 4 0.0957978 0.00377471 0.642804
1005 4 0.305716 0.0674875 0.614696
2282 4 0.473547 0.0214278 0.610714
2281 2 0.457495 0.00993967 0.595367
43 3 0.479942 0.0396978 0.605737
41 1 0.479236 0.0619145 0.612395
44 3 0.457357 0.0681072 0.617016
45 3 0.487779 0.0752146 0.596
42 3 0.491846 0.0643637 0.631477
1163 4 0.501595 0.0608302 0.649552
810 4 0.48651 0.0725984 0.574944
1082 4 0.0540076 0.135343 0.586315
1081 2 0.0352806 0.140006 0.602212
1083 4 0.0165535 0.144668 0.61811
1199 4 0.996883 0.147998 0.61575
1221 4 0.140485 0.0935266 0.636346
1219 2 0.160932 0.106075 0.6293
1220 4 0.181379 0.118624 0.622255
1212 4 0.199012 0.125748 0.630018
1210 2 0.223275 0.131235 0.632543
1211 4 0.247538 0.136723 0.635067
856 2 0.328185 0.143399 0.590689
1003 2 0.30473 0.0815724 0.635331
1004 4 0.303744 0.0956573 0.655966
858 4 0.312809 0.151171 0.60881
888 4 0.264167 0.13746 0.647052
886 2 0.279314 0.124887 0.662468
887 4 0.294461 0.112313 0.677884
1143 4 0.373341 0.149962 0.655545
1025 4 0.391496 0.156152 0.652876
1141 2 0.354555 0.136271 0.664756
909 4 0.143625 0.205011 0.593571
907 2 0.150064 0.217864 0.614028
908 4 0.156503 0.230718 0.634485
947 4 0.15753 0.225575 0.654297
946 2 0.178082 0.239702 0.656097
812 4 0.3223 0.233917 0.605676
798 4 0.311379 0.217801 0.605398
796 2 0.30858 0.193105 0.60812
797 4 0.305781 0.168408 0.610841
811 2 0.342233 0.233412 0.590589
1024 2 0.383997 0.174331 0.637433
1026 4 0.376498 0.19251 0.621991
905 4 0.460268 0.247492 0.586522
904 2 0.480502 0.260969 0.580681
3122 4 0.473825 0.232637 0.659746
948 4 0.198633 0.253828 0.657897
1237 2 0.280017 0.275929 0.581296
792 4 0.314332 0.292306 0.591525
790 2 0.324107 0.307938 0.608415
1238 4 0.295984 0.287997 0.596283
791 4 0.333882 0.32357 0.625304
983 4 0.0566038 0.395523 0.587565
982 2 0.0324646 0.401957 0.586523
1041 4 0.0683614 0.410668 0.582067
3263 4 0.998986 0.396397 0.600162
893 4 0.11676 0.336686 0.655068
1135 2 0.180734 0.378701 0.594571
1136 4 0.181797 0.402791 0.601182
1910 4 0.453459 0.407092 0.594742
1039 2 0.0883385 0.424974 0.586697
992 4 0.168931 0.417452 0.593644
991 2 0.144818 0.421638 0.588525
993 4 0.120705 0.425824 0.583405
1040 4 0.108316 0.43928 0.591326
1171 2 0.247661 0.455719 0.58122
1160 4 0.216919 0.475394 0.586159
1159 2 0.199502 0.491763 0.593497
1173 4 0.222679 0.456688 0.580813
1172 4 0.272642 0.45475 0.581628
1267 2 0.415714 0.455643 0.651878
1269 4 0.408351 0.474964 0.665937
1002 4 0.472608 0.411478 0.593471
1911 4 0.441678 0.435805 0.633952
1909 2 0.447568 0.421449 0.614347
1268 4 0.423078 0.436321 0.63782
943 2 0.0442609 0.0380048 0.679969
1076 4 0.0546671 0.0312983 0.712977
944 4 0.061975 0.0269167 0.693697
1075 2 0.0685318 0.032256 0.733763
32 3 0.110998 0.126253 0.748359
1283 4 0.149419 0.0734666 0.71052
1284 4 0.173137 0.106502 0.739621
1282 2 0.161278 0.0899845 0.72507
1227 4 0.194169 0.11089 0.737076
830 4 0.311182 0.103791 0.673034
829 2 0.324391 0.0958239 0.692712
831 4 0.3376 0.087857 0.71239
1142 4 0.33577 0.12258 0.673967
851 4 0.0158882 0.181406 0.733523
1107 4 0.0349414 0.1819 0.737982
1105 2 0.0525227 0.167097 0.747829
3188 4 0.0178023 0.268648 0.740016
822 4 0.134231 0.201864 0.707442
1278 4 0.152663 0.202509 0.710271
820 2 0.115004 0.217733 0.70936
821 4 0.0957777 0.233602 0.711279
1276 2 0.16059 0.195683 0.732981
1277 4 0.168518 0.188856 0.755691
976 2 0.286062 0.205243 0.736382
977 4 0.291684 0.218624 0.716022
916 2 0.311977 0.245558 0.70788
918 4 0.307827 0.22682 0.723907
1008 4 0.345483 0.244476 0.713019
3121 2 0.458921 0.235953 0.679546
3123 4 0.444016 0.239269 0.699346
1263 4 0.460793 0.215529 0.75013
1145 4 0.4579 0.197871 0.74004
1207 2 0.0677132 0.265391 0.704134
1209 4 0.0563448 0.28636 0.696636
1244 4 0.041485 0.279711 0.707509
1243 2 0.0165805 0.281925 0.707707
1208 4 0.0790815 0.244421 0.711632
1064 4 0.253854 0.2922 0.672251
1063 2 0.234632 0.276559 0.668927
1065 4 0.21541 0.260918 0.665604
1240 2 0.22998 0.294062 0.730917
1242 4 0.229323 0.291903 0.755819
1241 4 0.230638 0.29622 0.706016
917 4 0.316126 0.264296 0.691854
1097 4 0.299913 0.272587 0.699334
1096 2 0.284025 0.288426 0.688293
1098 4 0.268138 0.304265 0.677252
1006 2 0.362199 0.254619 0.728604
894 4 0.0818357 0.350882 0.687924
1279 2 0.0516189 0.360388 0.703215
3275 4 0.0294256 0.39068 0.723457
1280 4 0.0416988 0.375523 0.720469
1281 4 0.061539 0.345253 0.685961
3274 2 0.0414773 0.403824 0.740984
892 2 0.0992978 0.343784 0.671496
940 2 0.160243 0.389891 0.750101
941 4 0.180996 0.376591 0.745908
1028 4 0.238056 0.371718 0.701466
1068 4 0.218821 0.371446 0.698598
1067 4 0.184435 0.362944 0.733898
1066 2 0.201628 0.367195 0.716248
1029 4 0.275459 0.378907 0.669061
1139 4 0.291836 0.389864 0.675365
1027 2 0.256758 0.375313 0.685263
1138 2 0.298195 0.413358 0.681092
1229 4 0.360795 0.390072 0.699044
1228 2 0.367678 0.413821 0.702759
1983 4 0.0388603 0.511914 0.724631
2022 4 0.0235709 0.485728 0.675876
2172 4 0.190731 0.485409 0.665114
1140 4 0.304553 0.436852 0.686818
1989 4 0.299749 0.445264 0.704893
1987 2 0.298298 0.454656 0.72802
890 4 0.393959 0.478487 0.653222
1230 4 0.374561 0.437569 0.706475
1100 4 0.446883 0.490995 0.737129
1250 4 0.46057 0.497189 0.751327
862 2 0.0462013 0.0805628 0.821591
864 4 0.0638103 0.0678402 0.83397
1077 4 0.0823964 0.0332137 0.754548
1202 4 0.128201 0.00547267 0.780817
1203 4 0.0977102 0.0415616 0.764428
1201 2 0.112956 0.0235172 0.772622
2049 4 0.146584 0.0088713 0.776929
1147 2 0.215202 0.0577239 0.803885
1149 4 0.234356 0.0419307 0.80686
1049 4 0.247488 0.0383084 0.794163
1148 4 0.196047 0.0735172 0.800909
1048 2 0.267528 0.0331737 0.808207
1050 4 0.287567 0.0280391 0.822251
818 4 0.365853 0.0635143 0.806089
965 4 0.375806 0.0572855 0.822503
846 4 0.488876 0.0162738 0.747002
35 3 0.0889269 0.156251 0.750782
3387 4 0.998464 0.112903 0.75362
1106 4 0.070104 0.152295 0.757676
832 2 0.0509053 0.118948 0.781012
863 4 0.0285922 0.0932854 0.809212
833 4 0.0375442 0.103376 0.795302
33 3 0.0807868 0.125353 0.7707
834 4 0.0642664 0.134519 0.766723
31 1 0.0977905 0.138792 0.762412
34 3 0.110843 0.146725 0.779878
1073 4 0.128465 0.156882 0.783977
1225 2 0.193941 0.12196 0.759495
1226 4 0.193713 0.133029 0.781914
840 4 0.209288 0.123561 0.792337
838 2 0.231465 0.132294 0.799893
839 4 0.253642 0.141026 0.80745
959 4 0.25607 0.153292 0.822276
819 4 0.332274 0.0992775 0.796387
817 2 0.349064 0.0813959 0.801238
1084 2 0.344024 0.134967 0.814592
1085 4 0.330641 0.114847 0.808167
1086 4 0.357406 0.155087 0.821016
1146 4 0.478074 0.157713 0.761971
153 3 0.0025337 0.237842 0.815017
779 4 0.0556683 0.208047 0.82706