ITEM: TIMESTEP
2340000
ITEM: NUMBER OF ATOMS
4590
ITEM: BOX BOUNDS pp pp pp
-9.9985700000000008e+00 9.9985700000000008e+00
-9.9985700000000008e+00 9.9985700000000008e+00
-9.9985700000000008e+00 9.9985700000000008e+00
ITEM: ATOMS id type xs ys zs
463 2 0.0533295 0.0517989 0.0189348
3290 4 0.0799574 0.0218784 0.0255993
464 4 0.0608655 0.0281492 0.0219479
465 4 0.0457935 0.0754486 0.0159216
3289 2 0.0968 0.018017 0.00752735
565 2 0.15799 0.06151 0.0518356
566 4 0.166699 0.0431835 0.0372247
490 2 0.30001 0.0149111 0.0515054
491 4 0.301644 0.00572349 0.0283085
986 4 0.311417 0.0376163 0.0138118
2264 4 0.291569 0.0428859 0.0124914
492 4 0.298376 0.0240987 0.0747024
985 2 0.326285 0.0251783 0.998018
2263 2 0.272115 0.0560866 0.00398002
557 4 0.407639 0.0626119 0.0863562
2145 4 0.398934 0.997103 0.00537765
745 2 0.455039 0.0538273 0.0571241
747 4 0.475005 0.0447214 0.0691076
746 4 0.435072 0.0629333 0.0451406
2724 4 0.49462 0.0490664 0.0718497
701 4 0.0390459 0.0931201 0.010232
700 2 0.0375386 0.117498 0.00488357
567 4 0.149282 0.0798365 0.0664465
359 4 0.235287 0.146866 0.0217885
358 2 0.216757 0.156055 0.00773851
422 4 0.0977382 0.217729 0.0511477
421 2 0.102077 0.200962 0.0331134
423 4 0.106415 0.184195 0.0150791
737 4 0.175932 0.209636 0.0819382
506 4 0.187162 0.224867 0.072045
505 2 0.170006 0.243057 0.0720904
736 2 0.193911 0.192674 0.0781696
738 4 0.211891 0.175712 0.074401
354 4 0.229962 0.184003 0.0744188
461 4 0.292124 0.183971 0.0763914
665 4 0.3542 0.177042 0.0325041
664 2 0.336802 0.185457 0.0166399
1071 4 0.38886 0.245008 0.00108998
828 4 0.481408 0.1918 0.0158667
323 4 0.490985 0.252499 0.053812
826 2 0.461936 0.198962 0.00191248
836 4 0.0388681 0.246505 0.00861671
2807 4 0.00898532 0.27085 0.0372433
294 4 0.12497 0.312303 0.0568066
292 2 0.132324 0.291735 0.0689749
456 4 0.115587 0.328476 0.0510167
293 4 0.139678 0.271167 0.0811431
507 4 0.152851 0.261247 0.0721358
483 4 0.291629 0.271732 0.00238199
481 2 0.281204 0.294099 0.998356
739 2 0.338958 0.334872 0.0700125
254 4 0.383785 0.267463 0.0665868
573 4 0.381597 0.258352 0.01365
741 4 0.349386 0.331903 0.047482
630 4 0.399784 0.258445 0.0750067
253 2 0.36236 0.269727 0.0792762
322 2 0.46678 0.253955 0.0599106
324 4 0.442575 0.255411 0.0660093
315 4 0.0622463 0.407754 0.0759757
454 2 0.098786 0.346983 0.0516372
455 4 0.0819845 0.36549 0.0522576
608 4 0.255251 0.367784 0.0721913
252 4 0.27391 0.3704 0.0674786
250 2 0.292104 0.377447 0.0518419
251 4 0.310297 0.384494 0.0362052
524 4 0.320444 0.401577 0.0416365
523 2 0.339389 0.415647 0.0333725
226 2 0.389667 0.401125 0.0149718
228 4 0.373267 0.419999 0.0147797
525 4 0.358334 0.429717 0.0251086
670 2 0.405616 0.36847 0.0785637
227 4 0.406066 0.382252 0.0151639
671 4 0.41946 0.377086 0.0596089
281 4 0.437856 0.368265 0.0606086
280 2 0.462003 0.362625 0.0573991
282 4 0.48615 0.356985 0.0541895
104 3 0.493231 0.356046 0.0732225
1305 4 0.413872 0.362937 0.0182483
313 2 0.059874 0.431141 0.0674551
552 4 0.0392116 0.461333 0.0654519
314 4 0.0575017 0.454528 0.0589345
550 2 0.0244258 0.470643 0.0475668
551 4 0.00963998 0.479954 0.0296816
243 4 0.21979 0.475829 0.0601087
1440 4 0.215389 0.464071 0.0739315
1290 4 0.22334 0.439498 0.00379245
241 2 0.211703 0.497663 0.0509946
244 2 0.244293 0.464776 0.00854617
246 4 0.268228 0.470049 0.0134961
1583 4 0.47347 0.466265 0.073142
16 1 0.0404169 0.00790434 0.122465
1422 4 0.0104524 0.0245148 0.138468
2480 4 0.0169626 0.0428442 0.126131
18 3 0.0633596 0.00740648 0.125899
19 3 0.0313683 0.0269462 0.132157
2479 2 0.00708555 0.0657402 0.124288
1420 2 0.00125149 0.0151776 0.15976
652 2 0.231357 0.0389305 0.147922
654 4 0.23734 0.0295511 0.12553
1476 4 0.2492 0.0156246 0.117134
1474 2 0.269911 0.0087037 0.104953
1475 4 0.290621 0.00178283 0.0927727
296 4 0.388695 0.0591819 0.0872034
485 4 0.352322 0.999488 0.0915665
297 4 0.362539 0.0167221 0.0835008
295 2 0.375617 0.037952 0.0853521
556 2 0.42097 0.0779169 0.100958
484 2 0.350444 0.998355 0.116474
2481 4 0.997209 0.0886362 0.122446
236 4 0.145025 0.14954 0.129607
449 4 0.140995 0.129599 0.133697
450 4 0.139688 0.0796522 0.131613
448 2 0.140342 0.104625 0.132655
558 4 0.434301 0.093222 0.11556
771 4 0.435332 0.105704 0.131707
769 2 0.432254 0.106283 0.156513
338 4 0.0454843 0.248643 0.126541
235 2 0.14865 0.171348 0.141289
237 4 0.152275 0.193155 0.152971
476 4 0.207671 0.2099 0.162491
352 2 0.253483 0.185214 0.0828122
371 4 0.190865 0.212608 0.154189
279 4 0.245594 0.22571 0.15219
277 2 0.247834 0.239681 0.131575
278 4 0.250074 0.253651 0.11096
353 4 0.277005 0.186426 0.0912056
460 2 0.312576 0.184773 0.0907527
462 4 0.333028 0.185575 0.105114
624 4 0.431602 0.250489 0.133891
629 4 0.430488 0.257118 0.114456
337 2 0.0530222 0.267483 0.141149
395 4 0.073839 0.30033 0.161767
339 4 0.06056 0.286324 0.155757
609 4 0.250453 0.325701 0.0987755
612 4 0.25951 0.309628 0.10819
610 2 0.259399 0.285511 0.101592
611 4 0.259288 0.261394 0.094993
755 4 0.353115 0.259691 0.158365
754 2 0.346114 0.265739 0.135135
756 4 0.339113 0.271787 0.111906
628 2 0.415136 0.257781 0.0947313
255 4 0.340935 0.271991 0.0919656
622 2 0.434692 0.260125 0.156755
704 4 0.0234119 0.351174 0.156885
621 4 0.0614006 0.396001 0.0933982
619 2 0.0677461 0.389363 0.116655
620 4 0.0740916 0.382726 0.139911
647 4 0.110246 0.382025 0.143798
537 4 0.127437 0.393759 0.14275
535 2 0.13505 0.384807 0.12068
536 4 0.142662 0.375855 0.0986095
607 2 0.252852 0.346743 0.0854834
386 4 0.320236 0.342938 0.109514
385 2 0.328614 0.36541 0.116582
740 4 0.328531 0.337841 0.0925431
387 4 0.336993 0.387883 0.123651
12 3 0.392799 0.371423 0.113169
11 1 0.382195 0.388032 0.125037
15 3 0.359794 0.383938 0.12529
672 4 0.391772 0.359854 0.0975185
13 3 0.390458 0.388202 0.146719
302 4 0.34841 0.404139 0.128187
14 3 0.386402 0.408424 0.114797
1438 2 0.225737 0.452882 0.0937532
625 2 0.215919 0.446566 0.146527
1439 4 0.236086 0.441693 0.113575
638 4 0.233962 0.472523 0.135297
637 2 0.248617 0.492688 0.133355
627 4 0.227795 0.455017 0.126211
1429 2 0.189874 0.498724 0.166815
303 4 0.326439 0.434031 0.16172
659 4 0.328201 0.453795 0.168846
1559 4 0.353877 0.497408 0.111576
301 2 0.337425 0.419085 0.144954
494 4 0.367179 0.471142 0.114137
495 4 0.385969 0.42614 0.125203
493 2 0.376574 0.448641 0.11967
1584 4 0.44958 0.478802 0.115247
1582 2 0.461525 0.472534 0.0941945
1674 4 0.450268 0.497733 0.122073
674 4 0.15566 0.0481589 0.234596
690 4 0.160989 0.0284933 0.233863
653 4 0.225374 0.0483099 0.170315
689 4 0.194642 0.0180193 0.198387
688 2 0.177816 0.0232563 0.216125
693 4 0.237101 0.0410182 0.186299
1505 4 0.211722 0.00870329 0.195255
691 2 0.252197 0.05636 0.199024
692 4 0.267293 0.0717018 0.211749
1699 2 0.311472 0.078208 0.217249
1701 4 0.287932 0.0720087 0.211536
1700 4 0.335012 0.0844072 0.222961
21 1 0.367797 0.0772385 0.228759
25 3 0.366458 0.0798662 0.206177
22 3 0.373048 0.0553594 0.233542
23 3 0.347396 0.0823694 0.23855
333 4 0.398879 0.0779231 0.242186
698 4 0.391505 0.0598259 0.241627
1760 4 0.498839 0.989836 0.190853
511 2 0.00766055 0.145063 0.212651
578 4 0.0394967 0.156595 0.240417
513 4 0.0236682 0.154057 0.229622
28 3 0.221959 0.138331 0.181961
27 3 0.245457 0.136746 0.211253
26 1 0.243841 0.141784 0.188866
29 3 0.249722 0.16401 0.185736
582 4 0.325907 0.126647 0.182785
580 2 0.301275 0.1304 0.180706
581 4 0.276642 0.134153 0.178627
30 3 0.257921 0.128289 0.177105
758 4 0.340466 0.120817 0.168051
759 4 0.371956 0.0974249 0.199066
24 3 0.384392 0.0909881 0.237359
757 2 0.356211 0.109121 0.183558
770 4 0.429176 0.106862 0.18132
312 4 0.442832 0.120577 0.183213
311 4 0.473044 0.136601 0.219699
310 2 0.457938 0.128589 0.201456
521 4 0.489922 0.144756 0.228804
331 2 0.419913 0.0911893 0.244785
350 4 0.459608 0.0954345 0.24698
577 2 0.0406294 0.180486 0.247703
529 2 0.00737555 0.223997 0.238051
372 4 0.14824 0.216819 0.179998
362 4 0.134719 0.230188 0.174232
477 4 0.243535 0.183129 0.184803
475 2 0.225603 0.196515 0.173647
370 2 0.169552 0.214714 0.167093
285 4 0.255043 0.221393 0.168641
283 2 0.266073 0.237102 0.184665
396 4 0.0487095 0.319655 0.200442
443 4 0.0583434 0.311346 0.216956
394 2 0.0612742 0.309993 0.181105
442 2 0.0450407 0.297818 0.233242
361 2 0.12809 0.253731 0.169037
363 4 0.121461 0.277273 0.163843
284 4 0.277102 0.25281 0.200689
345 4 0.276165 0.317387 0.250766
623 4 0.437782 0.26976 0.17962
527 4 0.420931 0.279034 0.18418
526 2 0.428602 0.296236 0.200624
528 4 0.436273 0.313438 0.217068
542 4 0.442551 0.31636 0.236637
703 2 0.0137684 0.341745 0.177939
262 2 0.031428 0.405587 0.236391
2615 4 0.00969593 0.338786 0.216902
646 2 0.105089 0.371826 0.166036
299 4 0.104498 0.336459 0.244712
648 4 0.0999313 0.361627 0.188275
300 4 0.105499 0.343541 0.195219
298 2 0.104998 0.34 0.219966
289 2 0.211573 0.397658 0.24423
290 4 0.200935 0.410957 0.225923
597 4 0.38509 0.381175 0.167791
596 4 0.358248 0.342112 0.183738
595 2 0.371669 0.361643 0.175764
645 4 0.397908 0.400007 0.16559
643 2 0.412293 0.404018 0.185644
644 4 0.426678 0.408028 0.205698
264 4 0.0498931 0.421424 0.230612
626 4 0.204042 0.438116 0.166842
1430 4 0.190239 0.479774 0.183123
417 4 0.195005 0.45985 0.183124
416 4 0.203534 0.430748 0.222887
415 2 0.199269 0.445299 0.203006
447 4 0.41866 0.413485 0.223019
658 2 0.338984 0.465999 0.187819
660 4 0.349767 0.478203 0.206791
231 4 0.361973 0.492041 0.21549
445 2 0.426294 0.427026 0.242603
233 4 0.0422978 0.00197591 0.294931
232 2 0.0391986 0.0267813 0.294413
234 4 0.0360995 0.0515866 0.293895
317 4 0.020049 0.0632073 0.286816
316 2 0.0365952 0.0777053 0.274933
673 2 0.14572 0.0551331 0.256453
675 4 0.13578 0.0621074 0.27831
1406 4 0.196304 0.00813958 0.292273
684 4 0.258038 0.047004 0.329951
1518 4 0.392201 0.00403472 0.279911
697 2 0.395427 0.0400716 0.256444
699 4 0.399349 0.0203172 0.271262
425 4 0.421312 0.0268121 0.314251
351 4 0.494398 0.0605439 0.255525
349 2 0.477003 0.0779892 0.251252
424 2 0.442761 0.0360834 0.323148
258 4 0.468236 0.0649321 0.330808
318 4 0.0531414 0.0922032 0.263049
391 2 0.129189 0.144921 0.316422
392 4 0.13403 0.133634 0.294642
545 4 0.136285 0.150677 0.283478
544 2 0.155138 0.15288 0.267203
546 4 0.173992 0.155083 0.250929
723 4 0.230969 0.105053 0.269427
722 4 0.184681 0.0861305 0.269767
721 2 0.207825 0.0955917 0.269597
599 4 0.230721 0.121174 0.30821
404 4 0.216754 0.134807 0.310258
598 2 0.220452 0.108752 0.327326
403 2 0.212543 0.151482 0.292109
405 4 0.208332 0.168157 0.27396
256 2 0.470983 0.0869359 0.319256
332 4 0.440947 0.104456 0.247384
762 4 0.440858 0.164627 0.33076
761 4 0.470588 0.127376 0.31562
760 2 0.455723 0.146001 0.32319
257 4 0.473731 0.10894 0.307703
530 4 0.0265769 0.217274 0.252587
579 4 0.0417622 0.204378 0.25499
401 4 0.220472 0.184253 0.267691
400 2 0.229944 0.207335 0.269326
402 4 0.239415 0.230418 0.270962
473 4 0.199797 0.194477 0.336844
765 4 0.4347 0.218596 0.317889
764 4 0.475075 0.194907 0.33548
763 2 0.454887 0.206752 0.326684
444 4 0.031738 0.284291 0.249528
366 4 0.0495827 0.33263 0.312174
734 4 0.164324 0.328466 0.311442
343 2 0.29909 0.31546 0.26056
309 4 0.336001 0.322977 0.282288
344 4 0.322014 0.313534 0.270354
496 2 0.347198 0.276992 0.323139
497 4 0.356136 0.291982 0.305234
613 2 0.41008 0.325952 0.312144
614 4 0.388141 0.318881 0.321831
541 2 0.440976 0.320547 0.261237
543 4 0.439401 0.324734 0.285837
263 4 0.012963 0.389749 0.242169
365 4 0.00822672 0.360744 0.312258
749 4 0.0620258 0.341499 0.29811
364 2 0.0289047 0.346687 0.312216
748 2 0.0776659 0.341705 0.278603
750 4 0.0933059 0.341911 0.259096
602 4 0.0953695 0.396196 0.301319
777 4 0.11517 0.403136 0.302168
735 4 0.158092 0.372218 0.288041
601 2 0.0947511 0.385169 0.323751
677 4 0.162074 0.386405 0.300581
733 2 0.161208 0.350342 0.299742
676 2 0.178867 0.404925 0.301039
291 4 0.222211 0.38436 0.262538
412 2 0.245909 0.404575 0.293158
414 4 0.237623 0.389314 0.275168
728 4 0.329456 0.412045 0.329973
413 4 0.254195 0.419835 0.311148
307 2 0.342835 0.343621 0.294628
727 2 0.346302 0.396119 0.320605
729 4 0.363148 0.380194 0.311237
308 4 0.349669 0.364266 0.306969
615 4 0.432019 0.333024 0.302456
2924 4 0.478133 0.391537 0.311561
2537 4 0.496355 0.384941 0.301524
2923 2 0.475086 0.376684 0.331443
1757 4 0.125891 0.467505 0.290303
776 4 0.127494 0.448573 0.285308
775 2 0.121332 0.425855 0.293738
1756 2 0.115743 0.49031 0.28885
678 4 0.195659 0.423445 0.301497
768 4 0.208966 0.460384 0.271196
766 2 0.200759 0.482851 0.263913
1436 4 0.25537 0.495463 0.330461
2 3 0.309709 0.420697 0.326162
438 4 0.289646 0.456526 0.254579
1435 2 0.262787 0.472977 0.322428
437 4 0.286967 0.446274 0.30345
436 2 0.288306 0.4514 0.279014
1437 4 0.270205 0.450491 0.314396
5 3 0.275251 0.427437 0.313508
1 1 0.287517 0.422308 0.331998
434 4 0.327093 0.434043 0.325064
433 2 0.338654 0.456027 0.322193
435 4 0.350215 0.478011 0.319322
446 4 0.433928 0.440567 0.262187
714 4 0.430663 0.44305 0.282268
2862 4 0.487914 0.445256 0.26499
120 3 0.498092 0.43811 0.291467
713 4 0.480609 0.44227 0.284601
712 2 0.455636 0.44266 0.283435
119 3 0.485991 0.438166 0.327121
428 4 0.0431674 0.019025 0.333808
427 2 0.0556445 0.00155596 0.346627
605 4 0.13367 0.0645487 0.366744
730 2 0.114491 0.0822916 0.396623
604 2 0.156652 0.0621422 0.357193
732 4 0.130011 0.0814149 0.377039
606 4 0.179634 0.0597357 0.347642
683 4 0.240597 0.0454689 0.376793
682 2 0.249318 0.0462365 0.353372
321 4 0.246707 0.0390833 0.394773
319 2 0.240863 0.0520333 0.415348
249 4 0.311636 0.0582795 0.345813
247 2 0.336459 0.0611765 0.346597
248 4 0.361282 0.0640734 0.347381
633 4 0.377829 0.0737523 0.354015
426 4 0.46421 0.0453548 0.332045
393 4 0.124348 0.156207 0.338201
399 4 0.109915 0.148894 0.349481
398 4 0.101115 0.11286 0.38302
397 2 0.105515 0.130877 0.36625
686 4 0.211282 0.118591 0.41152
600 4 0.210184 0.0963296 0.346442
685 2 0.214159 0.108443 0.38885
687 4 0.217037 0.098296 0.36618
631 2 0.385265 0.0936303 0.367234
632 4 0.392701 0.113508 0.380453
420 4 0.379979 0.124589 0.391916
418 2 0.375451 0.14882 0.387726
2654 4 0.00258889 0.246627 0.409809
390 4 0.0813048 0.213176 0.386888
470 4 0.074276 0.213633 0.406006
617 4 0.068636 0.233658 0.40545
616 2 0.0446472 0.240493 0.403722
388 2 0.0991326 0.227616 0.376947
389 4 0.11696 0.242057 0.367006
474 4 0.171093 0.234624 0.344906
472 2 0.185445 0.21455 0.340875
708 4 0.212816 0.195922 0.350818
706 2 0.230972 0.184515 0.36368
651 4 0.218651 0.235609 0.405129
649 2 0.227986 0.214413 0.41455
707 4 0.249127 0.173108 0.376541
489 4 0.234205 0.243814 0.412505
419 4 0.370923 0.173051 0.383536
377 4 0.345154 0.243516 0.391872
717 4 0.351948 0.235234 0.409307
716 4 0.363705 0.189859 0.391882
715 2 0.357827 0.212546 0.400594
515 4 0.447463 0.168842 0.392514
268 2 0.490916 0.235817 0.360152
270 4 0.473372 0.246454 0.374444
618 4 0.0206583 0.247329 0.401994
276 4 0.125773 0.259983 0.372137
274 2 0.149166 0.253051 0.366668
275 4 0.172559 0.246119 0.361199
510 4 0.242849 0.329857 0.360007
487 2 0.231416 0.268661 0.412573
488 4 0.228628 0.293509 0.412641
508 2 0.243 0.313228 0.378678
509 4 0.243152 0.296599 0.39735
378 4 0.322857 0.267148 0.353858
267 4 0.314987 0.320477 0.367456
376 2 0.334005 0.255332 0.372865
498 4 0.33826 0.262002 0.341045
265 2 0.337228 0.313663 0.376629
266 4 0.359468 0.30685 0.385801
585 4 0.376515 0.29613 0.390639
583 2 0.384099 0.275946 0.403297
2456 4 0.41045 0.252397 0.416257
304 2 0.485731 0.268311 0.405116
306 4 0.483121 0.262291 0.380988
547 2 0.0881706 0.402228 0.377223
549 4 0.094455 0.380422 0.366728
603 4 0.0941327 0.374142 0.346183
374 4 0.234104 0.340651 0.34525
373 2 0.228591 0.364693 0.341159
504 4 0.211512 0.403256 0.340519
375 4 0.223078 0.388736 0.337068
3 3 0.280559 0.401963 0.340721
2925 4 0.472038 0.361832 0.351325
561 4 0.486431 0.409704 0.398224
680 4 0.00726588 0.461277 0.404685
548 4 0.0818861 0.424035 0.387718
407 4 0.0747229 0.44228 0.396223
406 2 0.0507345 0.44854 0.399471
408 4 0.0267462 0.4548 0.402719
569 4 0.0836568 0.457692 0.407138
568 2 0.104925 0.444825 0.409836
1544 4 0.195202 0.490909 0.35275
502 2 0.207018 0.416955 0.360948
503 4 0.202524 0.430654 0.381377
1543 2 0.219105 0.497195 0.34897
636 4 0.191649 0.44093 0.394195
634 2 0.182204 0.45492 0.41264
1545 4 0.243009 0.503481 0.34519
1399 2 0.329399 0.479449 0.419256
1401 4 0.324047 0.458179 0.407252
668 4 0.299683 0.444405 0.361293
4 3 0.285147 0.438992 0.347949
667 2 0.320279 0.441567 0.375184
669 4 0.340875 0.43873 0.389074
336 4 0.337167 0.444034 0.408511
593 4 0.471984 0.491036 0.374621
752 4 0.501518 0.419645 0.388364
753 4 0.49909 0.439911 0.342712
751 2 0.500304 0.429778 0.365538
718 2 0.0337869 0.0467378 0.485362
719 4 0.0557029 0.0529882 0.475076
369 4 0.0744762 0.0604892 0.476641
367 2 0.0813553 0.0716657 0.455359
720 4 0.0118708 0.0404875 0.495648
731 4 0.0989708 0.0831683 0.416207
368 4 0.0882344 0.0828421 0.434076
441 4 0.19426 0.00814868 0.443367
2430 4 0.176309 0.0719901 0.427669
2428 2 0.180592 0.0479678 0.433124
2429 4 0.184875 0.0239454 0.438579
341 4 0.193461 0.0853721 0.430112
320 4 0.235018 0.0649832 0.435922
725 4 0.238109 0.0828301 0.443321
724 2 0.257542 0.0877589 0.458261
430 2 0.306125 0.0757091 0.496147
432 4 0.282618 0.0809981 0.489466
841 2 0.360821 0.0736016 0.499322
843 4 0.339386 0.073409 0.486449
2879 4 0.440944 0.0100963 0.427719
2878 2 0.447974 0.0221651 0.448458
2880 4 0.455004 0.0342338 0.469197
642 4 0.47311 0.0402807 0.468427
640 2 0.480214 0.064145 0.466144
2586 4 0.997616 0.118068 0.449141
410 4 0.222518 0.13174 0.41915
409 2 0.23411 0.153701 0.42207
340 2 0.196463 0.0958167 0.45263
1152 4 0.203729 0.121281 0.489096
342 4 0.199466 0.106261 0.475148
726 4 0.276976 0.0926878 0.473202
468 4 0.400088 0.0953172 0.417998
467 4 0.359388 0.094177 0.447031
466 2 0.379738 0.0947471 0.432515
576 4 0.402075 0.138551 0.473012
3158 4 0.498482 0.101524 0.454801
641 4 0.487318 0.0880093 0.463862
574 2 0.422551 0.148005 0.462218
575 4 0.443027 0.157459 0.451424
469 2 0.0750376 0.197613 0.425188
260 4 0.0726948 0.175852 0.462747
471 4 0.0757992 0.181593 0.44437
261 4 0.104083 0.173698 0.501616
259 2 0.0883891 0.174775 0.482181
650 4 0.237321 0.193216 0.423971
411 4 0.245701 0.175662 0.424991
514 2 0.454173 0.164317 0.416171
516 4 0.460882 0.159793 0.439829
695 4 0.125295 0.28692 0.453392
694 2 0.135776 0.301239 0.435777
696 4 0.146257 0.315557 0.418161
1260 4 0.166841 0.31966 0.416826
1258 2 0.187681 0.322052 0.430434
1259 4 0.208521 0.324444 0.444041
584 4 0.391684 0.255761 0.415955
305 4 0.48834 0.27433 0.429243
2455 2 0.433574 0.257408 0.42434
2457 4 0.456699 0.26242 0.432422
326 4 0.0723225 0.397974 0.453205
325 2 0.088918 0.379506 0.456153
10 3 0.161705 0.357494 0.464433
7 3 0.12466 0.361942 0.465334
327 4 0.105513 0.361038 0.459101
6 1 0.144296 0.365397 0.476808
8 3 0.146909 0.388151 0.480524
9 3 0.143227 0.354134 0.497067
711 4 0.145512 0.403123 0.468108
335 4 0.354291 0.411499 0.442407
238 2 0.34568 0.414641 0.482402
240 4 0.34511 0.421444 0.458348
560 4 0.486285 0.379614 0.438166
2508 4 0.492155 0.369553 0.454153
559 2 0.486358 0.394659 0.418195
1382 4 0.0289091 0.450976 0.466415
1381 2 0.0182497 0.459851 0.445611
540 4 0.0405872 0.442768 0.48219
1383 4 0.00759026 0.468725 0.424808
773 4 0.130637 0.497936 0.457563
384 4 0.137356 0.49843 0.476764
772 2 0.149107 0.492727 0.441535
570 4 0.126194 0.431958 0.412534
774 4 0.167576 0.487517 0.425506
709 2 0.135768 0.41805 0.450574
710 4 0.126024 0.432976 0.43304
635 4 0.172758 0.46891 0.431085
1400 4 0.334752 0.500719 0.431261
334 2 0.345729 0.427766 0.425459
1030 2 0.158516 0.0729549 0.567495
951 4 0.188402 0.0566599 0.54051
1031 4 0.174777 0.0586062 0.55505
949 2 0.211332 0.0661824 0.543461
1182 4 0.246745 0.0644955 0.535457
950 4 0.234263 0.0757049 0.546412
961 2 0.308995 0.0279316 0.555955
1180 2 0.263124 0.0460824 0.531233
963 4 0.287957 0.0360139 0.545126
1181 4 0.279504 0.0276693 0.527009
431 4 0.329632 0.0704201 0.502828
962 4 0.330033 0.0198494 0.566783
842 4 0.382255 0.0737943 0.512195
1217 4 0.402959 0.0722695 0.514508
1032 4 0.142256 0.0873037 0.579941
939 4 0.16952 0.161186 0.510389
937 2 0.144547 0.161914 0.509391
1151 4 0.181137 0.150455 0.522848
1150 2 0.192433 0.135868 0.505972
898 2 0.341001 0.163654 0.574752
1216 2 0.418166 0.0899619 0.523502
1218 4 0.433373 0.107654 0.532496
1035 4 0.0751245 0.182598 0.561171
1082 4 0.0714832 0.182949 0.581699
1033 2 0.081849 0.179797 0.537252
1034 4 0.0885734 0.176996 0.513333
877 2 0.0924436 0.24388 0.569155
1272 4 0.12169 0.221812 0.583602
879 4 0.102628 0.223134 0.578696
938 4 0.119574 0.162643 0.508393
811 2 0.307839 0.225282 0.539621
812 4 0.285757 0.222982 0.551122
796 2 0.276463 0.195809 0.575317
798 4 0.270036 0.211768 0.557173
813 4 0.329921 0.227581 0.52812
900 4 0.356076 0.177858 0.560746
872 4 0.370939 0.192386 0.558209
873 4 0.349672 0.226336 0.528278
871 2 0.360305 0.209361 0.543244
878 4 0.0822592 0.264627 0.559613
1189 2 0.240415 0.330033 0.528672
1190 4 0.263152 0.331883 0.518436
803 4 0.27932 0.327687 0.508483
1205 4 0.395337 0.297442 0.561894
1204 2 0.375722 0.312114 0.566909
954 4 0.413055 0.295327 0.562459
1206 4 0.356107 0.326786 0.571924
952 2 0.434603 0.288328 0.573034
953 4 0.456152 0.281328 0.58361
1135 2 0.162782 0.392532 0.573187
896 4 0.204811 0.339239 0.528879
1191 4 0.217678 0.328183 0.538908
1137 4 0.164526 0.374001 0.556492
897 4 0.169808 0.37411 0.536593
895 2 0.187309 0.356675 0.532736
802 2 0.29963 0.341465 0.513261
804 4 0.31994 0.355243 0.518039
929 4 0.318818 0.35728 0.538172
239 4 0.346251 0.407839 0.506456
928 2 0.337988 0.352152 0.553384
930 4 0.357157 0.347023 0.568596
1000 2 0.459433 0.414976 0.565679
1001 4 0.473557 0.408385 0.546127
926 4 0.491202 0.400847 0.545666
539 4 0.0406675 0.475687 0.519834
936 4 0.0199582 0.486779 0.535696
1938 4 0.0407139 0.489631 0.533895
934 2 0.999234 0.480467 0.548181
538 2 0.0406273 0.459228 0.501012
383 4 0.15632 0.487485 0.521723
2244 4 0.144603 0.492115 0.536343
2242 2 0.153535 0.490637 0.55965
382 2 0.146838 0.492957 0.499244
2243 4 0.162467 0.489159 0.582956
1172 4 0.249082 0.453333 0.559576
882 4 0.25915 0.460204 0.543549
880 2 0.268384 0.47934 0.530369
1171 2 0.250794 0.462637 0.582721
881 4 0.277618 0.498476 0.517188
1951 2 0.34341 0.498677 0.584089
1185 4 0.0235827 0.0703165 0.663016
945 4 0.042425 0.0753858 0.660394
825 4 0.0612573 0.0301219 0.64328
1058 4 0.0708478 0.0199621 0.628359
823 2 0.0645189 0.0126943 0.66091
1183 2 0.99891 0.0714397 0.659121
1057 2 0.0845475 0.034065 0.612912
1059 4 0.0982472 0.048168 0.597465
1155 4 0.0988091 0.0677407 0.606398
1003 2 0.304928 0.0701434 0.637065
1004 4 0.318208 0.0586187 0.619289
1005 4 0.291647 0.0816681 0.654841
2282 4 0.45198 0.0316623 0.63822
2281 2 0.449754 0.0155676 0.619215
43 3 0.455831 0.0418879 0.656534
41 1 0.474669 0.0552022 0.654031
44 3 0.468443 0.0774854 0.652271
45 3 0.486242 0.0488782 0.635464
4467 4 0.428842 0.00347234 0.590601
2283 4 0.447528 0.999473 0.60021
1199 4 0.0239579 0.150993 0.579825
1083 4 0.023824 0.168757 0.586984
1153 2 0.109315 0.0888029 0.614834
1154 4 0.119822 0.109865 0.623271
1221 4 0.138478 0.114656 0.617043
1219 2 0.154076 0.112604 0.636477
1220 4 0.169673 0.110551 0.655911
1212 4 0.242377 0.143482 0.634804
1210 2 0.261916 0.149771 0.649081
856 2 0.297316 0.153076 0.604902
857 4 0.315917 0.136908 0.600686
1211 4 0.281456 0.15606 0.663358
899 4 0.325926 0.149451 0.588759
1081 2 0.0476536 0.175853 0.584341
1270 2 0.141153 0.207456 0.589947
1271 4 0.160617 0.1931 0.596292
909 4 0.171837 0.19129 0.61284
907 2 0.175716 0.206462 0.632333
908 4 0.179595 0.221634 0.651825
947 4 0.167265 0.234783 0.66216
858 4 0.278714 0.169243 0.609119
797 4 0.282891 0.179851 0.593461
1025 4 0.378437 0.193271 0.65585
1024 2 0.370025 0.211749 0.641256
1143 4 0.362524 0.184741 0.661614
1026 4 0.361614 0.230228 0.626662
906 4 0.451204 0.227527 0.62267
893 4 0.081967 0.337369 0.649775
946 2 0.183272 0.252735 0.668993
1239 4 0.258584 0.293307 0.586049
1237 2 0.278505 0.30077 0.599187
792 4 0.314402 0.303928 0.62499
790 2 0.313381 0.321367 0.642879
1238 4 0.298427 0.308233 0.612325
904 2 0.448456 0.248384 0.609158
905 4 0.445707 0.269242 0.595645
983 4 0.0365117 0.396108 0.627315
1041 4 0.0518168 0.408234 0.631815
1039 2 0.0763246 0.413187 0.631918
982 2 0.0120848 0.401395 0.628054
1040 4 0.100832 0.418141 0.632021
1136 4 0.161037 0.411063 0.589882
992 4 0.150743 0.420523 0.603223
1028 4 0.219866 0.39926 0.668545
791 4 0.31236 0.338806 0.660769
1002 4 0.445309 0.421567 0.58523
3330 4 0.488303 0.407007 0.653202
993 4 0.118954 0.417997 0.641743
991 2 0.134849 0.41926 0.622483
1161 4 0.178309 0.498626 0.59395
1160 4 0.220662 0.474872 0.605894
1159 2 0.199485 0.486749 0.599922
1175 4 0.236883 0.478617 0.61661
2172 4 0.214623 0.498631 0.664634
1174 2 0.254369 0.490499 0.62996
1173 4 0.252507 0.471941 0.605865
889 2 0.342008 0.47382 0.640956
891 4 0.344804 0.473352 0.616114
1952 4 0.351221 0.481116 0.600081
890 4 0.339212 0.474288 0.665798
1911 4 0.442717 0.46055 0.636612
1910 4 0.433366 0.42902 0.598941
1909 2 0.438041 0.444785 0.617776
3328 2 0.493976 0.424303 0.636061
1268 4 0.436101 0.478844 0.637445
1267 2 0.434839 0.494926 0.656549
3329 4 0.49965 0.441599 0.618919
943 2 0.0470525 0.0731941 0.684867
944 4 0.0516799 0.0710024 0.709341
1075 2 0.0492509 0.0589292 0.736832
1076 4 0.0437109 0.080382 0.725244
1077 4 0.0547909 0.0374763 0.748419
1203 4 0.0740194 0.0394486 0.749409
831 4 0.324497 0.0767554 0.737789
42 3 0.48808 0.0526683 0.672547
1163 4 0.490832 0.0566768 0.693147
3387 4 0.00127699 0.159983 0.737879
1283 4 0.168288 0.118808 0.674311
1282 2 0.165039 0.113293 0.698482
1284 4 0.161789 0.107778 0.722652
1227 4 0.171215 0.121408 0.732994
1225 2 0.193103 0.12567 0.744304
888 4 0.293771 0.14107 0.66355
886 2 0.308237 0.132987 0.682275
887 4 0.322702 0.124905 0.700999
829 2 0.327941 0.0920205 0.718288
830 4 0.331386 0.107286 0.698787
1107 4 0.0237742 0.195413 0.746519
851 4 0.0143628 0.19549 0.72834
850 2 0.996201 0.210571 0.7201
1208 4 0.0808661 0.23616 0.683751
822 4 0.139985 0.224431 0.680921
1278 4 0.145656 0.223783 0.700313
820 2 0.115355 0.222081 0.684525
821 4 0.090724 0.219731 0.688128
1276 2 0.156546 0.21988 0.722479
1277 4 0.167437 0.215977 0.744645
1131 4 0.181544 0.20344 0.739566
916 2 0.305983 0.212583 0.726098
918 4 0.305458 0.191271 0.739164
917 4 0.306508 0.233894 0.713033
1142 4 0.333059 0.177169 0.701302
1008 4 0.324167 0.245731 0.743344
1097 4 0.292056 0.247698 0.718944
977 4 0.303994 0.170297 0.742587
1141 2 0.347792 0.180955 0.681458
1194 4 0.397631 0.245767 0.74402
1262 4 0.417031 0.241475 0.740887
3122 4 0.486194 0.235348 0.675371
3123 4 0.440248 0.215732 0.673159
3121 2 0.463221 0.22554 0.674265
1261 2 0.4263 0.218321 0.742664
1263 4 0.435569 0.195167 0.744441
1145 4 0.451231 0.184666 0.752062
1209 4 0.0444852 0.269242 0.692848
1207 2 0.0626757 0.252701 0.688299
948 4 0.199278 0.270687 0.675827
1065 4 0.215789 0.281003 0.669781
1064 4 0.232101 0.321446 0.694255
1063 2 0.223945 0.301225 0.682018
1242 4 0.207488 0.300605 0.742937
1096 2 0.278602 0.260489 0.735694
1192 2 0.401627 0.269501 0.737244
1193 4 0.405624 0.293235 0.730468
1281 4 0.0877551 0.388853 0.681657
1279 2 0.0932442 0.405009 0.699934
892 2 0.0891968 0.353854 0.667129
894 4 0.0964266 0.370339 0.684483
940 2 0.157024 0.400193 0.731971
942 4 0.151523 0.413441 0.752451
941 4 0.162524 0.386944 0.711492
1067 4 0.168371 0.403825 0.701525
1027 2 0.244167 0.402711 0.673312
1066 2 0.187608 0.408385 0.686217
1029 4 0.268468 0.406161 0.67808
1139 4 0.266561 0.413659 0.696471
1230 4 0.369577 0.399441 0.711308
1228 2 0.357665 0.4133 0.694243
1981 2 0.0163212 0.492814 0.73164
1280 4 0.0987333 0.421165 0.71821
814 2 0.113843 0.428254 0.746188
816 4 0.0937878 0.434957 0.732845
1068 4 0.206844 0.412945 0.670909
1138 2 0.286937 0.425966 0.704125
1140 4 0.307312 0.438272 0.711778
1989 4 0.299826 0.454211 0.721149
1987 2 0.31322 0.468488 0.736704
1229 4 0.345753 0.427159 0.677178
1100 4 0.448476 0.482687 0.729469
1099 2 0.461331 0.501474 0.719125
1201 2 0.0955374 0.0313024 0.759196
2049 4 0.134362 0.0140965 0.768364
1202 4 0.117055 0.0231562 0.768984
1148 4 0.177143 0.0751793 0.787884
1147 2 0.197093 0.0622668 0.78011
1149 4 0.217043 0.0493544 0.772335
1049 4 0.236273 0.0487537 0.774132
1048 2 0.250828 0.0447318 0.79406
1050 4 0.265383 0.04071 0.813989
817 2 0.36591 0.0797168 0.802069
818 4 0.370262 0.0666026 0.822908
846 4 0.483223 0.025303 0.775198
1113 4 0.47673 0.00886527 0.767028
832 2 0.0350225 0.134185 0.792959
863 4 0.0167081 0.0990931 0.802919
833 4 0.0193688 0.119072 0.805278
33 3 0.0685149 0.148621 0.78917
834 4 0.0506762 0.149297 0.78064
862 2 0.0239219 0.0908587 0.825399
1106 4 0.0533358 0.15855 0.762889
35 3 0.0703 0.154947 0.752096
32 3 0.0906132 0.127551 0.767252
31 1 0.0822445 0.148736 0.770465
34 3 0.0999463 0.16338 0.773721
1226 4 0.214992 0.129931 0.755614
840 4 0.213087 0.131756 0.776423
838 2 0.224296 0.130563 0.798742
839 4 0.235505 0.129371 0.82106
959 4 0.249904 0.139992 0.828844
978 4 0.315059 0.129043 0.768594
976 2 0.309527 0.14967 0.755591
819 4 0.361558 0.092831 0.781231
1084 2 0.369968 0.136807 0.775691
1085 4 0.36249 0.113007 0.777375
1086 4 0.377447 0.160606 0.774007
3268 2 0.484146 0.147515 0.820376
3270 4 0.480555 0.142579 0.796129
1146 4 0.469093 0.14824 0.7813
1105 2 0.038555 0.176982 0.754704
778 2 0.0548378 0.218898 0.807679
779 4 0.0325974 0.223283 0.797128
780 4 0.0770781 0.214514 0.81823
1214 4 0.0313324 0.242498 0.792844
1073 4 0.110733 0.180964 0.772307
1072 2 0.13466 0.183588 0.779073
1074 4 0.158587 0.186212 0.785839
869 4 0.0929379 0.203524 0.821188
1130 4 0.207019 0.187133 0.779389
1129 2 0.194282 0.195286 0.759478
1299 4 0.389113 0.176599 0.776531
1297 2 0.381493 0.191237 0.795315
1298 4 0.373874 0.205875 0.814099
47 3 0.390654 0.206568 0.824085
49 3 0.401025 0.242385 0.819366
1144 2 0.460162 0.166453 0.766681
1167 4 0.463358 0.245508 0.800054
1165 2 0.440624 0.250845 0.80899
1213 2 0.00776959 0.250525 0.795198
1241 4 0.245304 0.269226 0.752212
1240 2 0.226396 0.284915 0.747574
1098 4 0.265148 0.273281 0.752444
1006 2 0.341258 0.255238 0.758922
1043 4 0.395382 0.2624 0.815047
1042 2 0.372914 0.261591 0.804105
1007 4 0.35835 0.264744 0.774501
1044 4 0.350446 0.260781 0.793163