ITEM: TIMESTEP
2990000
ITEM: NUMBER OF ATOMS
4590
ITEM: BOX BOUNDS pp pp pp
-9.9985700000000008e+00 9.9985700000000008e+00
-9.9985700000000008e+00 9.9985700000000008e+00
-9.9985700000000008e+00 9.9985700000000008e+00
ITEM: ATOMS id type xs ys zs
463 2 0.0210714 0.0465408 0.0194342
464 4 0.0169398 0.0225606 0.0251839
1668 4 0.0518629 0.0610556 0.0508464
1666 2 0.0407385 0.0583759 0.073078
3290 4 0.0644717 0.046206 0.0578851
465 4 0.025203 0.0705209 0.0136845
701 4 0.0158901 0.0675421 0.996029
3289 2 0.0796154 0.0361587 0.0407125
3291 4 0.0947591 0.0261114 0.0235399
2183 4 0.0864204 0.0305079 0.00622036
566 4 0.162377 0.055624 0.0146968
565 2 0.172346 0.0434866 0.0341515
567 4 0.182315 0.0313492 0.0536062
490 2 0.307507 0.00458749 0.0538133
491 4 0.310551 0.0186644 0.0333742
985 2 0.300462 0.0404727 0.0141116
987 4 0.308522 0.0377123 0.037619
745 2 0.485461 0.0283634 0.0624239
746 4 0.463328 0.0357351 0.0534255
747 4 0.507594 0.0209918 0.0714223
450 4 0.0787176 0.109424 0.0813061
460 2 0.291784 0.153591 0.0390288
462 4 0.310678 0.140286 0.0294801
461 4 0.272891 0.166897 0.0485774
422 4 0.0653599 0.189965 0.013705
421 2 0.0800845 0.173359 0.00218921
506 4 0.167362 0.248646 0.0814166
737 4 0.176564 0.241144 0.0643336
736 2 0.187648 0.220863 0.0547932
738 4 0.198733 0.200583 0.0452527
354 4 0.218376 0.206846 0.040435
352 2 0.237417 0.19064 0.0405124
353 4 0.256458 0.174435 0.0405899
1069 2 0.386123 0.237368 0.999846
323 4 0.490394 0.247512 0.0245143
828 4 0.491201 0.241288 0.00552455
836 4 0.0420069 0.262889 0.00842004
3339 4 0.00645533 0.287541 0.00455532
2807 4 0.988533 0.277936 0.00503317
294 4 0.0974373 0.314163 0.083468
505 2 0.144418 0.251475 0.0718908
292 2 0.110106 0.293393 0.0776976
293 4 0.122775 0.272623 0.0719272
507 4 0.121474 0.254303 0.062365
287 4 0.133335 0.293595 0.0186232
286 2 0.146037 0.314285 0.0126429
612 4 0.257558 0.292764 0.0487268
610 2 0.266415 0.280528 0.068652
609 4 0.262349 0.31388 0.0458949
611 4 0.275272 0.268292 0.0885772
1071 4 0.372583 0.253743 0.0130254
573 4 0.355461 0.264226 0.0142487
571 2 0.336085 0.279628 0.0107101
324 4 0.458097 0.283654 0.0122143
322 2 0.474245 0.265583 0.0183643
1046 4 0.496298 0.330982 0.00431255
519 4 0.502882 0.25918 0.0508213
1045 2 0.494239 0.336036 0.0287134
2841 4 0.512527 0.275671 0.0585138
2787 4 0.991851 0.352938 0.0769398
990 4 0.149498 0.350704 0.015943
1289 4 0.187214 0.391909 0.0234105
988 2 0.169841 0.362402 0.0245755
989 4 0.190184 0.374099 0.0332079
1288 2 0.197784 0.405412 0.00521367
607 2 0.267133 0.33647 0.0363044
739 2 0.33086 0.350337 0.042741
250 2 0.292592 0.398871 0.0335461
252 4 0.279094 0.378778 0.0272834
608 4 0.271918 0.35906 0.0267138
740 4 0.34085 0.355846 0.0649904
251 4 0.30609 0.418965 0.0398088
741 4 0.32087 0.344829 0.0204916
386 4 0.327965 0.366697 0.075909
226 2 0.380523 0.380251 0.0263774
228 4 0.369538 0.402014 0.0208193
227 4 0.391508 0.358488 0.0319355
1305 4 0.387023 0.352518 0.0121612
281 4 0.431235 0.355035 0.0717263
280 2 0.456098 0.352951 0.0700842
282 4 0.48096 0.350867 0.0684421
1047 4 0.49218 0.34109 0.0531142
552 4 0.00499337 0.467998 0.0784436
314 4 0.999104 0.453671 0.0906364
550 2 0.0103661 0.474457 0.0548938
551 4 0.0157388 0.480916 0.0313439
1788 4 0.155113 0.49 0.0825819
1786 2 0.169888 0.492781 0.0626036
243 4 0.233511 0.451866 0.0547557
1440 4 0.23367 0.443074 0.0731897
241 2 0.214412 0.465917 0.0468205
242 4 0.195313 0.479968 0.0388853
1787 4 0.184664 0.495562 0.0426254
524 4 0.318341 0.434167 0.0446864
271 2 0.28824 0.47858 0.0713253
525 4 0.363188 0.414708 0.0341593
523 2 0.340765 0.424437 0.0394228
1583 4 0.457948 0.440507 0.0571761
1582 2 0.457735 0.464959 0.0623971
1584 4 0.457522 0.48941 0.0676181
1667 4 0.0296141 0.0556961 0.0953096
16 1 0.0393896 0.0603231 0.134482
19 3 0.0190803 0.0647004 0.144815
17 3 0.0371624 0.0639397 0.111874
20 3 0.0454143 0.0386531 0.138054
1422 4 0.010474 0.0461697 0.154166
2480 4 0.00111492 0.0673249 0.158537
652 2 0.242682 0.050572 0.160874
654 4 0.24739 0.0388897 0.139275
1476 4 0.266789 0.038623 0.138898
1475 4 0.304073 0.0419831 0.105743
1474 2 0.285431 0.040303 0.12232
297 4 0.379166 0.040585 0.123651
295 2 0.399451 0.0551792 0.122819
484 2 0.356186 0.019452 0.122204
485 4 0.365233 0.0387343 0.109107
296 4 0.419736 0.0697734 0.121987
557 4 0.437102 0.0601386 0.118497
556 2 0.455821 0.0758119 0.123893
18 3 0.0557297 0.0745543 0.142781
236 4 0.13583 0.112842 0.110879
449 4 0.120829 0.122333 0.104985
448 2 0.0997732 0.115879 0.0931457
235 2 0.156159 0.125783 0.117544
237 4 0.176488 0.138724 0.12421
477 4 0.239724 0.162729 0.152037
580 2 0.31856 0.127888 0.144893
581 4 0.300212 0.143322 0.151988
30 3 0.283115 0.150704 0.145494
582 4 0.336907 0.112454 0.137798
758 4 0.349809 0.0974126 0.142511
757 2 0.355833 0.089667 0.165509
558 4 0.47454 0.0914852 0.129289
771 4 0.470288 0.105716 0.143915
769 2 0.485103 0.115988 0.16124
372 4 0.165348 0.236727 0.180562
371 4 0.188747 0.196717 0.16179
476 4 0.192356 0.178558 0.154571
475 2 0.21604 0.170643 0.153304
370 2 0.177048 0.216722 0.171176
29 3 0.25528 0.170636 0.161165
756 4 0.356183 0.247916 0.126619
754 2 0.34911 0.245824 0.15051
624 4 0.465572 0.239148 0.13815
629 4 0.454715 0.242524 0.12017
628 2 0.434454 0.246217 0.105991
622 2 0.465823 0.25233 0.159395
339 4 0.0391119 0.297248 0.166267
456 4 0.092246 0.328348 0.0955379
279 4 0.276189 0.270337 0.147565
277 2 0.281165 0.263799 0.12395
278 4 0.286141 0.25726 0.100335
285 4 0.26232 0.269774 0.162447
255 4 0.361354 0.264105 0.11649
254 4 0.402673 0.2649 0.0883331
253 2 0.382013 0.264503 0.102411
630 4 0.414194 0.24991 0.0918117
619 2 0.0427156 0.380428 0.125218
620 4 0.0654357 0.376868 0.115404
621 4 0.0199955 0.383988 0.135031
2694 4 0.00398449 0.397422 0.131092
454 2 0.102551 0.350197 0.0890899
455 4 0.112855 0.372047 0.0826419
537 4 0.121364 0.390894 0.145536
535 2 0.133134 0.375387 0.129846
536 4 0.144904 0.35988 0.114156
647 4 0.119548 0.409624 0.153322
625 2 0.229199 0.387634 0.142308
627 4 0.228157 0.407914 0.12772
626 4 0.230242 0.367353 0.156895
670 2 0.410317 0.355742 0.101251
385 2 0.339335 0.374071 0.0969213
387 4 0.350705 0.381446 0.117934
12 3 0.402878 0.389152 0.115792
11 1 0.387946 0.402895 0.126623
15 3 0.366763 0.395472 0.122768
672 4 0.3988 0.369808 0.118416
302 4 0.346009 0.40437 0.117787
13 3 0.392476 0.402443 0.149375
671 4 0.421834 0.341675 0.0840851
104 3 0.488337 0.356443 0.086794
313 2 0.00148837 0.436435 0.108592
1466 4 0.99673 0.486389 0.109782
1620 4 0.163668 0.498019 0.14314
1431 4 0.165649 0.493688 0.163451
1619 4 0.145146 0.500344 0.0967481
1618 2 0.154407 0.499181 0.119944
1438 2 0.233011 0.425231 0.0906925
1439 4 0.232353 0.407387 0.108195
272 4 0.302345 0.458987 0.0778344
639 4 0.26741 0.486947 0.134865
638 4 0.30343 0.45275 0.140675
637 2 0.28542 0.469848 0.13777
303 4 0.32152 0.443858 0.13627
659 4 0.333782 0.455576 0.148331
301 2 0.333764 0.424114 0.127028
1559 4 0.364145 0.504844 0.154748
14 3 0.390369 0.424492 0.118491
495 4 0.390554 0.441076 0.130308
493 2 0.401533 0.461653 0.121296
494 4 0.412512 0.482231 0.112284
1420 2 0.995945 0.0303843 0.167007
674 4 0.152271 0.0852938 0.200831
690 4 0.159734 0.0709153 0.188246
688 2 0.160663 0.0460722 0.185575
689 4 0.161593 0.0212291 0.182904
1505 4 0.178873 0.0119466 0.181027
653 4 0.237974 0.0622543 0.182474
693 4 0.25368 0.0740997 0.182624
691 2 0.269515 0.0778015 0.201617
1699 2 0.32858 0.0792386 0.211349
1701 4 0.30387 0.0775604 0.214779
1700 4 0.35329 0.0809169 0.207919
22 3 0.389986 0.0631444 0.223626
698 4 0.409394 0.0630796 0.226881
21 1 0.385211 0.0822609 0.211755
333 4 0.41615 0.0816552 0.2195
759 4 0.361857 0.0819214 0.188507
697 2 0.415406 0.0416758 0.238323
349 2 0.489147 0.0663775 0.223337
699 4 0.421419 0.0202721 0.249764
742 2 0.486458 0.00580948 0.244711
2479 2 0.993591 0.0884861 0.169527
513 4 0.0206464 0.143416 0.230366
578 4 0.034666 0.156603 0.23706
511 2 0.00703318 0.131004 0.21346
673 2 0.150742 0.0898622 0.225366
692 4 0.28535 0.0815033 0.22061
28 3 0.260619 0.134267 0.17082
26 1 0.271096 0.154 0.164555
23 3 0.365828 0.0917432 0.220287
25 3 0.382244 0.0769225 0.189816
24 3 0.402922 0.097087 0.21397
770 4 0.499919 0.126261 0.178565
331 2 0.439771 0.0891323 0.222859
312 4 0.484058 0.133607 0.187046
310 2 0.491257 0.134118 0.210985
350 4 0.482501 0.0903996 0.221349
332 4 0.463393 0.0966094 0.226218
311 4 0.498456 0.13463 0.234925
577 2 0.0382257 0.18113 0.233753
529 2 0.0164497 0.230085 0.211179
530 4 0.0239277 0.212882 0.227712
579 4 0.0417854 0.205657 0.230447
531 4 0.00897163 0.247287 0.194646
362 4 0.147769 0.236054 0.172813
361 2 0.129639 0.251873 0.179614
27 3 0.285292 0.160562 0.181424
704 4 0.0317131 0.310958 0.179792
337 2 0.0631188 0.291749 0.17058
703 2 0.0235175 0.315159 0.203038
705 4 0.0153219 0.319361 0.226283
2483 4 0.00821171 0.250252 0.174138
363 4 0.111509 0.267692 0.186416
338 4 0.0871257 0.286249 0.174894
395 4 0.0985001 0.281517 0.191672
396 4 0.0931117 0.293822 0.239842
394 2 0.0958059 0.287669 0.215757
283 2 0.277874 0.268574 0.181987
284 4 0.293428 0.267375 0.201527
755 4 0.342038 0.243732 0.174401
528 4 0.442878 0.300613 0.224634
623 4 0.466073 0.265511 0.180641
527 4 0.446673 0.266374 0.188384
526 2 0.444775 0.283494 0.206509
542 4 0.44595 0.295384 0.244785
2615 4 0.00749169 0.337551 0.223887
300 4 0.10903 0.395647 0.220972
646 2 0.114829 0.405472 0.177523
648 4 0.11011 0.401319 0.201723
298 2 0.11215 0.378734 0.239122
289 2 0.224969 0.406197 0.248668
416 4 0.197356 0.403672 0.223009
597 4 0.393023 0.387227 0.164911
345 4 0.356404 0.366596 0.207987
596 4 0.353407 0.366575 0.187377
645 4 0.399125 0.40826 0.169356
595 2 0.373215 0.376901 0.176144
343 2 0.361462 0.36835 0.232411
344 4 0.36652 0.370104 0.256835
263 4 0.0548676 0.416956 0.249348
290 4 0.213284 0.414211 0.228067
417 4 0.176975 0.431994 0.187187
1429 2 0.166502 0.469616 0.170158
1430 4 0.167355 0.445544 0.176865
415 2 0.187166 0.417833 0.205098
438 4 0.258535 0.479517 0.227267
436 2 0.272729 0.471429 0.246196
658 2 0.340886 0.457584 0.17222
643 2 0.396063 0.428853 0.183203
229 2 0.365698 0.501917 0.200563
644 4 0.393 0.449446 0.197049
660 4 0.34799 0.459593 0.196108
231 4 0.35665 0.47897 0.196466
447 4 0.398091 0.460378 0.213579
445 2 0.414977 0.452078 0.230045
1403 4 0.0246873 0.0168392 0.259789
233 4 0.0231791 0.0365755 0.262592
232 2 0.0283585 0.0594289 0.271314
234 4 0.033538 0.0822824 0.280036
317 4 0.0518096 0.079949 0.288733
722 4 0.17669 0.0857808 0.256821
1407 4 0.240978 0.00852819 0.273298
1405 2 0.227623 0.0296566 0.272669
1406 4 0.214267 0.050785 0.272039
721 2 0.183426 0.087404 0.280846
723 4 0.190163 0.0890272 0.30487
599 4 0.194946 0.0817623 0.322258
1518 4 0.417148 0.00123948 0.246324
743 4 0.486195 0.0185265 0.266237
425 4 0.48321 0.0134729 0.286534
424 2 0.474001 0.0360525 0.292061
258 4 0.446864 0.0673123 0.299396
426 4 0.464792 0.058632 0.297587
256 2 0.459495 0.0828146 0.314407
316 2 0.067367 0.0953856 0.300768
318 4 0.0829244 0.110822 0.312804
393 4 0.087756 0.150781 0.318194
675 4 0.149212 0.0944307 0.249901
391 2 0.0863922 0.150001 0.29324
392 4 0.0850285 0.14922 0.268286
544 2 0.121966 0.127706 0.258375
545 4 0.105564 0.144165 0.267609
546 4 0.138368 0.111247 0.24914
399 4 0.103054 0.139605 0.3246
404 4 0.237058 0.0849673 0.289459
403 2 0.235033 0.10986 0.290656
405 4 0.233007 0.134753 0.291852
401 4 0.237871 0.146712 0.277244
400 2 0.237257 0.16968 0.287106
402 4 0.236643 0.192649 0.296967
707 4 0.274224 0.184992 0.329595
765 4 0.439923 0.203385 0.334571
763 2 0.448769 0.199791 0.311462
764 4 0.457615 0.196198 0.288353
442 2 0.0751722 0.278708 0.272021
444 4 0.0716837 0.260695 0.289007
443 4 0.0786607 0.296722 0.255034
497 4 0.312657 0.269146 0.317723
496 2 0.330981 0.265412 0.33432
541 2 0.432622 0.310927 0.259136
543 4 0.419295 0.326471 0.273487
614 4 0.422766 0.343238 0.326365
749 4 0.0651267 0.331212 0.281789
366 4 0.0483515 0.338773 0.2858
365 4 0.013673 0.371277 0.301343
364 2 0.0310122 0.355025 0.293572
602 4 0.0759298 0.391549 0.310115
601 2 0.0792044 0.387683 0.334599
748 2 0.0878407 0.340836 0.27771
299 4 0.115271 0.361821 0.257271
750 4 0.110555 0.350459 0.273632
777 4 0.0881772 0.397286 0.296728
735 4 0.145629 0.396333 0.284703
733 2 0.148084 0.37177 0.288676
734 4 0.15054 0.347207 0.29265
677 4 0.165882 0.400034 0.283696
291 4 0.236654 0.398183 0.26927
414 4 0.231619 0.411692 0.282901
504 4 0.199628 0.39592 0.33415
412 2 0.252996 0.415838 0.29519
308 4 0.348474 0.363667 0.32286
729 4 0.334845 0.373131 0.331694
413 4 0.274373 0.419984 0.307478
615 4 0.406871 0.341313 0.278991
309 4 0.36622 0.363325 0.276109
307 2 0.357347 0.363496 0.299484
613 2 0.414819 0.342275 0.302678
2924 4 0.492106 0.355 0.320971
2923 2 0.46782 0.349114 0.321812
2862 4 0.484373 0.392705 0.28031
2860 2 0.496598 0.389621 0.258718
120 3 0.482221 0.40608 0.297266
119 3 0.487255 0.399658 0.334023
713 4 0.475527 0.413898 0.278537
2925 4 0.443533 0.343229 0.322652
262 2 0.0444736 0.435935 0.261875
264 4 0.0340797 0.454914 0.274402
1758 4 0.106646 0.501523 0.279896
775 2 0.0986239 0.418587 0.288834
1757 4 0.122579 0.454177 0.282169
776 4 0.109071 0.439888 0.28094
1756 2 0.114612 0.47785 0.281033
676 2 0.174855 0.423294 0.285609
678 4 0.183828 0.446553 0.287522
768 4 0.176261 0.463408 0.277279
766 2 0.190961 0.481842 0.285603
502 2 0.204453 0.420287 0.331294
1545 4 0.236052 0.496223 0.327812
5 3 0.268842 0.416222 0.326736
1436 4 0.253569 0.498009 0.316703
437 4 0.286922 0.463342 0.265125
1437 4 0.280064 0.472905 0.28252
1435 2 0.266816 0.485457 0.299611
433 2 0.315945 0.452631 0.314402
435 4 0.31403 0.469204 0.295778
446 4 0.431864 0.443777 0.246511
712 2 0.457179 0.429372 0.271528
714 4 0.438832 0.444845 0.26452
368 4 0.0625408 0.0539013 0.406887
731 4 0.0805619 0.0602268 0.399956
730 2 0.0992626 0.0678967 0.385237
604 2 0.139221 0.068664 0.347029
606 4 0.161854 0.0586012 0.343611
249 4 0.303283 0.0262007 0.347981
684 4 0.286843 0.034752 0.355768
682 2 0.270087 0.0501679 0.366102
683 4 0.253332 0.0655837 0.376435
247 2 0.323888 0.0381848 0.35553
248 4 0.344493 0.0501688 0.363079
633 4 0.350108 0.0595961 0.379801
631 2 0.347046 0.0719535 0.401321
1747 2 0.468364 0.0106193 0.349812
1749 4 0.492037 0.0186034 0.348801
2586 4 0.00222893 0.138154 0.400532
732 4 0.117963 0.0755666 0.370518
397 2 0.104955 0.142007 0.349415
605 4 0.116588 0.0787268 0.350447
598 2 0.201604 0.101783 0.335674
600 4 0.208262 0.121804 0.34909
685 2 0.197655 0.144333 0.375222
687 4 0.191193 0.129807 0.355924
686 4 0.204117 0.158859 0.39452
410 4 0.221183 0.149026 0.401117
321 4 0.249323 0.0857195 0.379278
319 2 0.261213 0.0933948 0.399891
419 4 0.373868 0.159016 0.387987
418 2 0.359405 0.141767 0.398872
420 4 0.344943 0.124518 0.409757
716 4 0.368704 0.158921 0.368374
257 4 0.472126 0.0983169 0.329417
760 2 0.478617 0.127608 0.355336
761 4 0.465508 0.108743 0.345466
762 4 0.491727 0.146474 0.365206
390 4 0.081562 0.230778 0.413485
398 4 0.106857 0.144409 0.37423
388 2 0.0945692 0.237707 0.393287
274 2 0.149784 0.230585 0.371253
389 4 0.107576 0.244636 0.373088
473 4 0.230886 0.225176 0.357556
474 4 0.187098 0.22459 0.3817
472 2 0.208992 0.224883 0.369628
708 4 0.233808 0.209086 0.346531
275 4 0.172679 0.220826 0.368856
409 2 0.237586 0.165948 0.409471
650 4 0.253601 0.194816 0.402798
651 4 0.255565 0.244734 0.400536
649 2 0.254583 0.219775 0.401667
706 2 0.254016 0.197039 0.338063
489 4 0.247135 0.242979 0.383297
377 4 0.39222 0.210026 0.337456
717 4 0.394533 0.189833 0.338743
715 2 0.381619 0.174377 0.353559
376 2 0.378203 0.229903 0.343254
584 4 0.398595 0.243005 0.405991
618 4 0.992615 0.27669 0.422546
276 4 0.126889 0.240345 0.373651
1258 2 0.148377 0.312426 0.392553
1259 4 0.166609 0.318042 0.37639
1260 4 0.130145 0.30681 0.408716
509 4 0.221087 0.294234 0.364028
487 2 0.243527 0.267328 0.378907
488 4 0.23992 0.291678 0.374517
508 2 0.223377 0.318388 0.357986
267 4 0.334854 0.325067 0.357209
498 4 0.349305 0.261678 0.350917
378 4 0.364186 0.249779 0.349052
266 4 0.365002 0.288695 0.37361
585 4 0.377997 0.284753 0.38773
583 2 0.388296 0.263879 0.39686
265 2 0.349928 0.306881 0.36541
268 2 0.487342 0.263261 0.35485
270 4 0.481259 0.274058 0.376566
306 4 0.489873 0.264087 0.393011
304 2 0.478122 0.266994 0.414889
603 4 0.0824789 0.383816 0.359084
547 2 0.106804 0.411312 0.376531
549 4 0.0983618 0.394934 0.359629
510 4 0.225666 0.342543 0.351945
374 4 0.223118 0.364265 0.354887
373 2 0.241469 0.379378 0.362634
375 4 0.25982 0.394492 0.37038
727 2 0.322918 0.394766 0.327838
3 3 0.273977 0.410148 0.363538
753 4 0.492977 0.398052 0.353437
679 2 0.0432176 0.483972 0.376424
407 4 0.0286923 0.408764 0.393125
680 4 0.0495088 0.467841 0.394463
406 2 0.0418441 0.429288 0.398692
408 4 0.0549959 0.449811 0.40426
2463 4 0.0202546 0.511475 0.338337
569 4 0.117861 0.443721 0.404335
548 4 0.115246 0.42769 0.393433
635 4 0.166621 0.475484 0.370117
634 2 0.185921 0.466748 0.356837
636 4 0.20522 0.458011 0.343556
503 4 0.209278 0.444654 0.328437
669 4 0.291107 0.484481 0.398965
728 4 0.310991 0.4164 0.323982
434 4 0.31786 0.436057 0.333026
2 3 0.301982 0.423464 0.3423
1 1 0.27921 0.42382 0.345535
668 4 0.269345 0.450525 0.3694
4 3 0.272602 0.445618 0.34996
667 2 0.280226 0.467503 0.384183
336 4 0.324872 0.430116 0.418073
718 2 0.0402528 0.0555523 0.492025
719 4 0.0388997 0.0601129 0.467478
369 4 0.041003 0.0682051 0.449692
367 2 0.0517719 0.0610532 0.42829
441 4 0.218022 0.00861198 0.44617
341 4 0.161874 0.0729067 0.459886
2430 4 0.177683 0.0598508 0.463149
2428 2 0.189756 0.0386274 0.457765
2429 4 0.201829 0.017404 0.452382
1218 4 0.399505 0.0378461 0.499242
2878 2 0.465114 0.00421056 0.449717
2880 4 0.477028 0.0260311 0.447053
642 4 0.48044 0.0459174 0.444197
640 2 0.48728 0.0637536 0.428064
641 4 0.49412 0.0815898 0.411932
340 2 0.172656 0.0914194 0.472777
1152 4 0.191132 0.127657 0.487609
342 4 0.183439 0.109932 0.485669
320 4 0.273104 0.10107 0.420504
725 4 0.266205 0.087795 0.433664
724 2 0.281844 0.0887491 0.453149
432 4 0.287778 0.0999706 0.485785
726 4 0.297484 0.0897033 0.472634
468 4 0.332501 0.0902648 0.437765
632 4 0.343984 0.084311 0.422841
467 4 0.366678 0.122983 0.453956
466 2 0.349589 0.106624 0.44586
574 2 0.404638 0.134267 0.432553
576 4 0.386828 0.1273 0.44866
575 4 0.422448 0.141235 0.416446
516 4 0.440476 0.132762 0.42033
514 2 0.459261 0.142967 0.433295
515 4 0.478047 0.153173 0.446261
260 4 0.0636982 0.176696 0.477895
259 2 0.0707974 0.162328 0.497087
469 2 0.0731982 0.201808 0.445183
471 4 0.0668378 0.181574 0.458422
470 4 0.0795585 0.222043 0.431943
411 4 0.253988 0.182871 0.417824
2455 2 0.390954 0.216795 0.437217
2457 4 0.391984 0.195707 0.450611
2456 4 0.389925 0.237883 0.423822
616 2 0.00841152 0.280151 0.441616
617 4 0.024208 0.283613 0.460686
695 4 0.100049 0.26596 0.441282
694 2 0.11535 0.284575 0.434608
696 4 0.130651 0.30319 0.427933
878 4 0.102427 0.277983 0.497622
1010 4 0.46775 0.317036 0.47118
1009 2 0.459128 0.296509 0.459801
1011 4 0.450507 0.275981 0.448422
305 4 0.466371 0.2699 0.436767
2507 4 0.470791 0.33774 0.471886
326 4 0.0977253 0.347974 0.449826
325 2 0.119074 0.359197 0.456417
7 3 0.157429 0.366822 0.473413
327 4 0.140423 0.37042 0.463008
8 3 0.162483 0.393368 0.499536
6 1 0.162865 0.37053 0.495455
711 4 0.145262 0.402177 0.502145
1189 2 0.229674 0.359351 0.507601
1190 4 0.254627 0.360508 0.506494
335 4 0.354185 0.40148 0.446734
238 2 0.351429 0.393154 0.485457
240 4 0.36281 0.393082 0.463194
239 4 0.340049 0.393226 0.507721
559 2 0.498483 0.403052 0.428191
560 4 0.508917 0.390273 0.446979
2506 2 0.483764 0.356896 0.462402
2508 4 0.496738 0.376051 0.452918
1381 2 0.00649928 0.451036 0.471271
1382 4 0.0252497 0.466716 0.476539
538 2 0.039708 0.49873 0.486627
540 4 0.026162 0.485855 0.470016
774 4 0.111174 0.488594 0.430723
773 4 0.126409 0.493772 0.478071
772 2 0.118792 0.491183 0.454397
710 4 0.119425 0.430215 0.469786
709 2 0.132343 0.416196 0.485965
570 4 0.128743 0.438578 0.452872
568 2 0.123302 0.44115 0.428603
1394 4 0.233092 0.479574 0.484903
1446 4 0.242886 0.488621 0.500438
1400 4 0.331329 0.497447 0.433242
1399 2 0.326786 0.473919 0.426106
1401 4 0.322243 0.45039 0.418969
587 4 0.344427 0.527382 0.480912
334 2 0.339529 0.415798 0.432404
1127 4 0.0327453 0.0432798 0.532168
720 4 0.041606 0.0509916 0.516572
1126 2 0.0116602 0.0377826 0.544431
1031 4 0.161408 0.0738656 0.540487
949 2 0.191539 0.0652335 0.553468
950 4 0.216225 0.0684434 0.551129
1182 4 0.224589 0.0571593 0.563517
951 4 0.166853 0.0620235 0.555807
1180 2 0.245874 0.0449569 0.558697
963 4 0.281327 0.0242296 0.543689
1181 4 0.267159 0.0327544 0.553877
961 2 0.295102 0.00451074 0.550514
1216 2 0.381814 0.049638 0.5124
1217 4 0.364123 0.06143 0.525559
842 4 0.36102 0.0759909 0.538898
2283 4 0.44629 0.994025 0.577175
1035 4 0.0747143 0.148612 0.574046
261 4 0.0778967 0.147959 0.516279
1033 2 0.0803201 0.155291 0.550612
1034 4 0.085926 0.161971 0.527178
1030 2 0.140633 0.085849 0.547556
1032 4 0.119857 0.0978325 0.554625
938 4 0.16037 0.156845 0.574015
1150 2 0.191902 0.146507 0.504019
843 4 0.311841 0.0832997 0.533539
431 4 0.294769 0.0942956 0.534975
857 4 0.34603 0.128225 0.57834
430 2 0.291274 0.0971331 0.51038
856 2 0.329095 0.140596 0.591953
899 4 0.35043 0.132228 0.558667
841 2 0.33643 0.0796453 0.536219
898 2 0.363194 0.15139 0.548916
900 4 0.375957 0.170553 0.539165
937 2 0.171001 0.166922 0.553752
1272 4 0.104013 0.247946 0.553737
1270 2 0.115394 0.232078 0.569354
1151 4 0.192671 0.165357 0.520428
939 4 0.181633 0.177 0.533489
872 4 0.382322 0.185441 0.550567
873 4 0.36795 0.225757 0.576429
871 2 0.375136 0.205599 0.563498
813 4 0.362509 0.24517 0.582401
879 4 0.117265 0.256408 0.540226
877 2 0.109846 0.267196 0.518924
1239 4 0.263926 0.278208 0.572015
928 2 0.324661 0.332314 0.561961
1205 4 0.399849 0.287838 0.560527
1204 2 0.376141 0.294173 0.565318
1206 4 0.352432 0.300508 0.570109
930 4 0.342503 0.314995 0.559331
954 4 0.418787 0.284051 0.565801
983 4 0.0574369 0.398489 0.586994
9 3 0.147303 0.359814 0.508923
896 4 0.189347 0.357306 0.521806
1137 4 0.178659 0.36436 0.581276
897 4 0.174354 0.349802 0.568919
895 2 0.181851 0.353554 0.545363
10 3 0.183685 0.362253 0.49954
1191 4 0.204722 0.358194 0.508708
802 2 0.287336 0.353867 0.525384
804 4 0.299744 0.346549 0.545821
929 4 0.306819 0.349632 0.56459
803 4 0.274927 0.361185 0.504948
1001 4 0.468224 0.396535 0.547197
926 4 0.484401 0.3992 0.535511
925 2 0.487097 0.375394 0.528356
1000 2 0.469654 0.408419 0.569149
927 4 0.489793 0.351588 0.521201
934 2 0.00806276 0.476493 0.581192
936 4 0.03294 0.478899 0.581909
1938 4 0.0418729 0.481205 0.564494
1936 2 0.0474578 0.493838 0.543651
382 2 0.130514 0.494442 0.516637
383 4 0.128697 0.485151 0.539778
2244 4 0.134272 0.491143 0.557261
2242 2 0.148182 0.494172 0.577816
882 4 0.28249 0.465772 0.583677
880 2 0.289657 0.47783 0.562979
881 4 0.296824 0.489887 0.542281
1445 4 0.277609 0.484925 0.536234
1172 4 0.265866 0.45522 0.58282
1444 2 0.260247 0.486773 0.518336
1183 2 0.997234 0.0426843 0.650788
1185 4 0.01742 0.0368141 0.664324
1155 4 0.0907948 0.0636591 0.603893
1059 4 0.0975491 0.0518945 0.619556
1058 4 0.0804025 0.0056156 0.627616
1057 2 0.0889758 0.028755 0.623586
2282 4 0.467879 0.0146606 0.617285
2281 2 0.457085 0.00434288 0.59723
43 3 0.470544 0.0332926 0.609435
41 1 0.473576 0.0556736 0.614755
44 3 0.453806 0.0646078 0.622986
45 3 0.480224 0.0672193 0.596285
42 3 0.489804 0.0573296 0.630974
1163 4 0.498676 0.0544621 0.649111
1082 4 0.0644122 0.137945 0.58871
1081 2 0.0396863 0.139893 0.591874
1083 4 0.0149604 0.141842 0.595039
1199 4 0.00387442 0.157833 0.597923
1154 4 0.11355 0.0961778 0.573471
1221 4 0.149823 0.101975 0.613685
1153 2 0.102172 0.0799185 0.588682
1219 2 0.169278 0.104785 0.629138
1220 4 0.188733 0.107595 0.644591
1212 4 0.206994 0.115468 0.648603
1210 2 0.225599 0.132157 0.647873
1211 4 0.244203 0.148845 0.647143
1005 4 0.294645 0.0757509 0.607754
1003 2 0.295233 0.0885762 0.629209
1004 4 0.295822 0.101402 0.650665
858 4 0.312159 0.152968 0.605566
888 4 0.262547 0.147683 0.658602
886 2 0.279433 0.129755 0.662918
1143 4 0.372993 0.141962 0.6444
1025 4 0.385929 0.159205 0.640642
1141 2 0.356193 0.135912 0.661902
810 4 0.477136 0.0865796 0.591926
808 2 0.490552 0.0966303 0.573374
1271 4 0.126776 0.216211 0.58497
909 4 0.142221 0.203876 0.593184
907 2 0.146905 0.207141 0.617527
908 4 0.151589 0.210405 0.64187
947 4 0.158757 0.217552 0.659115
946 2 0.173753 0.237043 0.663631
812 4 0.316582 0.229901 0.594985
798 4 0.315991 0.211686 0.602697
796 2 0.307492 0.188837 0.608256
797 4 0.298993 0.165989 0.613814
811 2 0.339545 0.237536 0.588693
1024 2 0.381041 0.183461 0.637044
1026 4 0.376154 0.207716 0.633445
905 4 0.457608 0.239491 0.59358
904 2 0.478852 0.24126 0.580513
3122 4 0.490664 0.231619 0.666329
1237 2 0.282386 0.283145 0.588141
792 4 0.307153 0.292904 0.624411
790 2 0.325433 0.307143 0.615015
1238 4 0.300846 0.288082 0.604267
791 4 0.343712 0.321382 0.605619
952 2 0.429584 0.263548 0.575193
953 4 0.440381 0.243045 0.584585
982 2 0.0325222 0.397706 0.58504
984 4 0.00760739 0.396924 0.583085
1041 4 0.064866 0.416544 0.58266
3263 4 0.997436 0.400081 0.600016
1135 2 0.178258 0.388242 0.588669
1136 4 0.177857 0.412124 0.596061
1002 4 0.471084 0.420304 0.591101
1910 4 0.465391 0.412672 0.609094
1039 2 0.0835525 0.432716 0.586461
992 4 0.168941 0.430221 0.595007
991 2 0.145041 0.436364 0.590977
993 4 0.121141 0.442507 0.586947
1040 4 0.102239 0.448889 0.590262
2243 4 0.162093 0.497201 0.598371
1171 2 0.241182 0.459099 0.581902
1160 4 0.221294 0.481843 0.584347
1159 2 0.201104 0.49456 0.59182
1173 4 0.216498 0.462977 0.580985
890 4 0.394239 0.498984 0.668337
1952 4 0.363647 0.511238 0.616455
889 2 0.37645 0.503901 0.651468
1951 2 0.348644 0.511291 0.596453
1267 2 0.415989 0.464015 0.654368
1911 4 0.44671 0.443631 0.643638
1909 2 0.456051 0.428152 0.626366
1268 4 0.426473 0.441944 0.649064
945 4 0.0356011 0.0444736 0.659894
943 2 0.040577 0.0415505 0.684222
1076 4 0.0517599 0.0307059 0.727025
944 4 0.0455529 0.0386275 0.708551
1075 2 0.0712 0.0355039 0.742
831 4 0.342167 0.0813067 0.70035
32 3 0.0955106 0.132652 0.731775
1283 4 0.142959 0.089528 0.695597
35 3 0.0829167 0.159901 0.753951
1227 4 0.186781 0.103575 0.737308
1284 4 0.171646 0.0906416 0.736543
1282 2 0.157302 0.0900848 0.71607
887 4 0.296319 0.111827 0.667234
830 4 0.313002 0.117526 0.681956
829 2 0.327584 0.0994164 0.691153
1142 4 0.339392 0.129861 0.679403
851 4 0.00660393 0.185883 0.738874
850 2 0.991495 0.205171 0.733888
1208 4 0.0948938 0.259139 0.705087
822 4 0.13432 0.205764 0.707256
1278 4 0.15375 0.198503 0.706703
820 2 0.116253 0.222702 0.703815
821 4 0.098186 0.239641 0.700373
1276 2 0.158405 0.187916 0.728871
976 2 0.288063 0.206588 0.739417
977 4 0.311038 0.212489 0.73151
916 2 0.306927 0.249353 0.710681
918 4 0.313461 0.231047 0.726409
978 4 0.265089 0.200686 0.747324
3121 2 0.471889 0.234457 0.682595
3123 4 0.453113 0.237295 0.698862
1261 2 0.455359 0.230066 0.749983
1263 4 0.459739 0.205449 0.750062
1207 2 0.0750925 0.273076 0.698853
1209 4 0.0552913 0.287013 0.69262
1244 4 0.0360055 0.292495 0.696409
1243 2 0.0151122 0.279218 0.699929
894 4 0.0669695 0.336156 0.675602
893 4 0.112597 0.340289 0.655558
892 2 0.0897833 0.338223 0.66558
1064 4 0.237917 0.298524 0.68174
1063 2 0.220536 0.280626 0.680094
1065 4 0.203154 0.262727 0.678449
948 4 0.188748 0.256535 0.668146
1240 2 0.229329 0.311603 0.727663
1242 4 0.219359 0.306299 0.749971
1241 4 0.2393 0.316907 0.705355
917 4 0.300392 0.26766 0.694954
1097 4 0.298428 0.288608 0.691321
1096 2 0.274627 0.295537 0.694591
1098 4 0.250827 0.302467 0.69786
1008 4 0.354545 0.248709 0.724964
1006 2 0.364507 0.263337 0.742626
1262 4 0.450978 0.254682 0.749904
1194 4 0.436157 0.26837 0.753106
1279 2 0.0492469 0.362616 0.700694
3275 4 0.0427852 0.389132 0.728684
1280 4 0.0395656 0.369487 0.722699
1281 4 0.0589283 0.355746 0.678688
3274 2 0.054549 0.401949 0.746642
940 2 0.151567 0.395778 0.752251
941 4 0.160355 0.381456 0.733735
1028 4 0.233013 0.35828 0.700004
1068 4 0.214338 0.359055 0.7057
1067 4 0.176101 0.387296 0.721225
1066 2 0.19522 0.373176 0.713462
1029 4 0.272812 0.378144 0.677152
1139 4 0.284079 0.394932 0.673839
1027 2 0.252913 0.368212 0.688578
1229 4 0.36738 0.392225 0.696905
1228 2 0.365239 0.416638 0.701868
1080 4 0.191273 0.4266 0.767253
2172 4 0.210687 0.491746 0.668287
1175 4 0.262224 0.509684 0.681973
1138 2 0.286661 0.417036 0.685237
1140 4 0.289243 0.43914 0.696635
1989 4 0.293498 0.454333 0.708562
1987 2 0.304716 0.45345 0.73089
2214 4 0.260602 0.496011 0.752199
1269 4 0.405506 0.486086 0.659673
1230 4 0.363099 0.44105 0.706832
1100 4 0.449597 0.486255 0.721147
1250 4 0.463348 0.478682 0.734673
911 4 0.0710266 0.0675696 0.833854
1077 4 0.0906401 0.0403019 0.756974
1202 4 0.142949 0.0107488 0.781806
1203 4 0.0974461 0.0251287 0.766859
1201 2 0.120198 0.0179388 0.774332
2049 4 0.156317 0.000371537 0.791652
1147 2 0.205434 0.0530489 0.801112
1149 4 0.217319 0.0316328 0.80614
1049 4 0.233168 0.0370099 0.79578
1048 2 0.256808 0.0319117 0.80213
1050 4 0.280448 0.0268135 0.80848
818 4 0.364311 0.0665218 0.807515
817 2 0.349036 0.0854061 0.801578
965 4 0.381702 0.0628407 0.816046
3387 4 0.000825478 0.100327 0.756509
1106 4 0.0635632 0.15073 0.751396
832 2 0.0446594 0.116672 0.769226
863 4 0.0361888 0.0947822 0.797785
833 4 0.0275447 0.102796 0.781046
33 3 0.0797352 0.123977 0.764768
834 4 0.0617742 0.130548 0.757405
862 2 0.0434567 0.0802732 0.816807
31 1 0.0929336 0.139452 0.753599
34 3 0.113841 0.140704 0.763584
1073 4 0.128369 0.152011 0.771435
1225 2 0.191677 0.108444 0.76134
1148 4 0.19355 0.074465 0.796083
1226 4 0.196573 0.113313 0.785371
840 4 0.201941 0.128723 0.797935
838 2 0.225757 0.134668 0.802695
839 4 0.249572 0.140613 0.807455
959 4 0.263439 0.153476 0.803735
819 4 0.333762 0.10429 0.795642
1084 2 0.344734 0.144092 0.803554
1085 4 0.338495 0.122866 0.791904
1086 4 0.350973 0.165318 0.815204
1299 4 0.370654 0.163695 0.818337
3270 4 0.49424 0.155287 0.775763
1146 4 0.48454 0.149222 0.759528
153 3 0.00727678 0.236181 0.820916
1107 4 0.0270945 0.183894 0.742975
1105 2 0.0453288 0.167312 0.747185
779 4 0.0637336 0.203606 0.832971