ITEM: TIMESTEP
810000
ITEM: NUMBER OF ATOMS
4590
ITEM: BOX BOUNDS pp pp pp
-9.9985700000000008e+00 9.9985700000000008e+00
-9.9985700000000008e+00 9.9985700000000008e+00
-9.9985700000000008e+00 9.9985700000000008e+00
ITEM: ATOMS id type xs ys zs
463 2 0.0317777 0.0563113 0.0520008
465 4 0.0271379 0.0686807 0.0732293
464 4 0.0364175 0.0439418 0.0307723
3290 4 0.0382671 0.0329006 0.0132989
1666 2 0.0834615 0.0430555 0.0802058
1667 4 0.0703006 0.0624729 0.0715496
3289 2 0.0583777 0.0207786 0.00470844
3291 4 0.0784884 0.00865665 0.996118
1668 4 0.0966225 0.023638 0.0888621
1476 4 0.197559 0.0147066 0.0480015
1474 2 0.221986 0.0162433 0.0428865
1475 4 0.246412 0.0177799 0.0377715
490 2 0.279478 0.0318527 0.0205682
491 4 0.294151 0.0374246 0.00110447
492 4 0.264805 0.0262808 0.0400319
557 4 0.380666 0.0775712 0.0769602
745 2 0.45935 0.0541704 0.0233253
1826 4 0.448015 0.0037176 0.0434399
746 4 0.440944 0.0536112 0.0402385
747 4 0.477757 0.0547297 0.00641215
591 4 0.0257883 0.0891533 0.0750702
701 4 0.0638347 0.130209 0.0155886
700 2 0.0755972 0.116832 0.0331348
589 2 0.0445398 0.102923 0.0842333
423 4 0.0707521 0.149832 0.00638807
2760 4 0.00127233 0.122592 0.0537618
3234 4 0.0471809 0.141762 0.00270278
702 4 0.0873598 0.103454 0.050681
567 4 0.162096 0.111442 0.0672072
565 2 0.181254 0.111826 0.0832695
358 2 0.271876 0.144539 0.010611
359 4 0.289613 0.151809 0.026665
556 2 0.372558 0.0985947 0.0661228
558 4 0.36445 0.119618 0.0552854
421 2 0.058547 0.169444 0.0159577
553 2 0.0197112 0.214647 0.0512969
554 4 0.00582326 0.228602 0.0667104
422 4 0.046342 0.189057 0.0255273
555 4 0.0335991 0.200693 0.0358834
506 4 0.193144 0.223969 0.0729114
1133 4 0.210339 0.194896 0.0111466
505 2 0.181606 0.243721 0.0628162
354 4 0.235093 0.197684 0.082509
353 4 0.28039 0.211122 0.0661279
352 2 0.257742 0.204403 0.0743185
461 4 0.297598 0.213497 0.0760847
665 4 0.406874 0.185832 0.0181158
1069 2 0.39592 0.242168 0.0285482
1071 4 0.374365 0.241309 0.0411905
664 2 0.385142 0.181502 0.00653399
1070 4 0.417475 0.243027 0.0159058
324 4 0.44214 0.224437 0.0805815
771 4 0.492907 0.164572 0.0429756
769 2 0.49518 0.168119 0.0676218
292 2 0.164057 0.290467 0.0388085
294 4 0.143541 0.303901 0.03393
456 4 0.139116 0.319253 0.0474666
293 4 0.184573 0.277033 0.043687
507 4 0.170067 0.263473 0.052721
481 2 0.220909 0.285889 0.0458632
482 4 0.228591 0.298428 0.0660851
483 4 0.213227 0.273349 0.0256413
573 4 0.365937 0.259796 0.0456413
572 4 0.361406 0.296645 0.0791434
571 2 0.363672 0.278221 0.0623923
281 4 0.445199 0.322977 0.089693
322 2 0.435014 0.248144 0.0840973
323 4 0.427887 0.271851 0.0876131
280 2 0.459561 0.328786 0.0700671
1168 2 0.0338309 0.33363 0.00318624
1169 4 0.0339821 0.357666 0.0100742
328 2 0.0169078 0.39057 0.000761314
329 4 0.0322318 0.371228 0.996733
454 2 0.145675 0.338681 0.0617739
455 4 0.152234 0.358109 0.0760811
287 4 0.147693 0.409991 0.00765433
252 4 0.265806 0.384472 0.0680471
250 2 0.273544 0.395918 0.0472078
608 4 0.281867 0.380009 0.0807778
282 4 0.473922 0.334596 0.0504411
227 4 0.453254 0.413175 0.0213476
551 4 0.0778549 0.452977 0.0608149
314 4 0.0240689 0.449515 0.0672204
550 2 0.0630685 0.472614 0.0562388
552 4 0.0482821 0.49225 0.0516626
244 2 0.214643 0.461194 0.0215381
246 4 0.236507 0.469687 0.0302003
245 4 0.192779 0.452702 0.012876
242 4 0.17532 0.514409 0.0684975
251 4 0.281282 0.407365 0.0263686
272 4 0.246285 0.473365 0.0477527
271 2 0.257681 0.495215 0.0435219
226 2 0.464187 0.433537 0.0118077
19 3 0.0419171 0.0359052 0.142173
20 3 0.0669436 0.0267796 0.115564
1422 4 0.0348874 0.016727 0.149028
16 1 0.0630741 0.0401065 0.133621
17 3 0.064239 0.0621519 0.127157
18 3 0.0791233 0.0362111 0.14992
2480 4 0.019951 0.0329934 0.14446
693 4 0.25142 0.0713344 0.156989
652 2 0.279859 0.0539546 0.127305
654 4 0.296657 0.0402709 0.114824
653 4 0.263062 0.0676383 0.139786
296 4 0.367651 0.0684687 0.0888983
295 2 0.354334 0.0506723 0.100349
297 4 0.341017 0.032876 0.111801
485 4 0.354128 0.0208276 0.120573
758 4 0.381598 0.0490871 0.158123
484 2 0.340046 0.00371111 0.132144
1759 2 0.466202 0.0129385 0.155083
1760 4 0.480583 0.0330408 0.151304
2723 4 0.486589 0.045218 0.0873843
1784 4 0.436451 0.998785 0.169719
590 4 0.0632913 0.116692 0.0933964
566 4 0.200412 0.11221 0.0993318
582 4 0.257585 0.0906807 0.15527
339 4 0.0756334 0.236236 0.106328
337 2 0.0797213 0.249035 0.127414
477 4 0.138023 0.175214 0.131563
475 2 0.143626 0.183707 0.154402
737 4 0.185647 0.210554 0.0863699
738 4 0.231992 0.200137 0.102001
736 2 0.208819 0.205346 0.0941855
460 2 0.306799 0.213374 0.0993336
462 4 0.315999 0.213251 0.122583
277 2 0.25952 0.253704 0.151422
755 4 0.281535 0.249276 0.119305
255 4 0.329313 0.206342 0.136141
254 4 0.375742 0.187768 0.136468
630 4 0.386617 0.194045 0.121785
253 2 0.352527 0.197055 0.136304
628 2 0.404098 0.211921 0.121571
770 4 0.497453 0.171666 0.0922679
629 4 0.421579 0.229797 0.121358
2590 2 0.495064 0.21352 0.153503
2591 4 0.476273 0.19812 0.159412
338 4 0.0838091 0.261834 0.148501
362 4 0.140342 0.278249 0.171495
611 4 0.226008 0.314471 0.137592
756 4 0.300409 0.290075 0.0973976
754 2 0.290972 0.269675 0.108351
278 4 0.271913 0.260572 0.130821
610 2 0.245001 0.330642 0.135867
741 4 0.367852 0.303721 0.0979935
622 2 0.408435 0.267614 0.136272
623 4 0.393914 0.286781 0.143123
739 2 0.352762 0.319046 0.110745
624 4 0.422956 0.248446 0.129421
671 4 0.425479 0.319273 0.0947692
527 4 0.474641 0.248363 0.147112
526 2 0.459729 0.259554 0.163772
621 4 0.0354358 0.400442 0.104692
619 2 0.0491982 0.384316 0.117947
620 4 0.0629606 0.368189 0.131203
647 4 0.0678798 0.377259 0.14776
315 4 0.018705 0.410009 0.0974066
646 2 0.0830216 0.375247 0.167556
537 4 0.162611 0.386155 0.1515
535 2 0.186527 0.379201 0.149301
626 4 0.209014 0.401125 0.124905
536 4 0.210444 0.372247 0.147102
609 4 0.273066 0.345435 0.115818
607 2 0.277467 0.362722 0.0982981
612 4 0.263993 0.346813 0.134141
386 4 0.328651 0.343153 0.138306
385 2 0.330652 0.366352 0.147416
387 4 0.332653 0.38955 0.156527
740 4 0.337671 0.334371 0.123496
495 4 0.395485 0.402182 0.14985
672 4 0.403072 0.348382 0.1287
12 3 0.410517 0.346994 0.147544
302 4 0.344519 0.399518 0.169563
14 3 0.402562 0.383717 0.14842
11 1 0.415079 0.366834 0.158253
670 2 0.414276 0.333828 0.111735
13 3 0.437712 0.371482 0.156113
595 2 0.478993 0.352616 0.152162
596 4 0.499432 0.342512 0.141898
597 4 0.458554 0.362719 0.162425
313 2 0.021387 0.429762 0.0823135
625 2 0.211518 0.425932 0.123025
627 4 0.214022 0.450739 0.121145
639 4 0.249661 0.481844 0.145202
1439 4 0.237043 0.492088 0.132108
637 2 0.238386 0.489645 0.166112
1438 2 0.238395 0.496256 0.107492
493 2 0.402298 0.420271 0.13399
524 4 0.354053 0.490727 0.102642
523 2 0.357726 0.472264 0.119099
525 4 0.361398 0.453802 0.135555
303 4 0.363553 0.442388 0.152228
494 4 0.409112 0.438361 0.118131
301 2 0.354036 0.420953 0.160895
690 4 0.133937 0.0241742 0.240171
688 2 0.155554 0.0160534 0.230582
674 4 0.141834 0.0406208 0.247908
1504 2 0.202578 0.992829 0.194467
450 4 0.186328 0.0707884 0.191095
1505 4 0.193638 0.0101437 0.210134
689 4 0.177171 0.00793265 0.220994
691 2 0.238732 0.0591322 0.174746
692 4 0.226044 0.0469301 0.192503
723 4 0.203389 0.0774338 0.248784
1700 4 0.308331 0.013998 0.256702
21 1 0.36016 0.0715681 0.234799
23 3 0.353957 0.0500065 0.240716
24 3 0.341566 0.0854486 0.234821
25 3 0.369779 0.0714974 0.214156
759 4 0.383081 0.0581824 0.207274
757 2 0.38234 0.0536347 0.182699
381 4 0.00194215 0.156561 0.193069
513 4 0.0490415 0.153886 0.227781
511 2 0.0338425 0.160864 0.209194
577 2 0.0830612 0.162448 0.233877
449 4 0.153611 0.108577 0.18957
235 2 0.148061 0.145165 0.210001
237 4 0.139236 0.166643 0.219274
236 4 0.156886 0.123688 0.200727
448 2 0.16997 0.0896827 0.190333
721 2 0.197744 0.101725 0.250584
580 2 0.278713 0.0960826 0.167502
581 4 0.29984 0.101484 0.179735
30 3 0.300063 0.102701 0.199232
26 1 0.293288 0.109464 0.219896
29 3 0.27617 0.125003 0.217923
28 3 0.28602 0.0911943 0.232217
27 3 0.310991 0.119252 0.230847
311 4 0.47274 0.12543 0.17905
312 4 0.43766 0.0966616 0.200085
310 2 0.4552 0.111046 0.189568
578 4 0.0619657 0.167475 0.221432
512 4 0.0186434 0.167842 0.190607
476 4 0.149228 0.1922 0.177242
279 4 0.247128 0.246835 0.172023
285 4 0.291265 0.234518 0.238863
284 4 0.251692 0.207338 0.224864
283 2 0.271479 0.220928 0.231863
764 4 0.445629 0.218525 0.243038
763 2 0.427669 0.229711 0.229715
521 4 0.457289 0.205918 0.254605
394 2 0.0761853 0.274003 0.207312
396 4 0.0619514 0.289378 0.220957
443 4 0.0479257 0.288817 0.235666
749 4 0.0847255 0.324857 0.223122
363 4 0.0946727 0.258941 0.164993
361 2 0.117507 0.268595 0.168244
395 4 0.0904192 0.258629 0.193666
372 4 0.157882 0.274458 0.179061
370 2 0.160614 0.268972 0.203302
371 4 0.163347 0.263486 0.227542
345 4 0.241657 0.27731 0.2009
343 2 0.257401 0.292494 0.213015
344 4 0.273144 0.307678 0.225129
309 4 0.290464 0.316371 0.230969
765 4 0.409709 0.240897 0.216393
528 4 0.444817 0.270744 0.180433
748 2 0.0888653 0.348306 0.215494
750 4 0.0930052 0.371756 0.207867
300 4 0.10769 0.383252 0.215806
648 4 0.0981634 0.373234 0.187351
298 2 0.123945 0.393156 0.23202
289 2 0.206708 0.407541 0.218363
290 4 0.231312 0.403947 0.215734
15 3 0.40959 0.364909 0.180271
643 2 0.443693 0.374644 0.202159
644 4 0.439288 0.377929 0.226551
645 4 0.448099 0.371359 0.177767
447 4 0.443722 0.398893 0.226818
263 4 0.0434992 0.491975 0.207098
262 2 0.0446074 0.472258 0.222434
264 4 0.0457156 0.45254 0.237769
417 4 0.147397 0.457993 0.189116
415 2 0.160676 0.438336 0.197019
1430 4 0.162014 0.469506 0.18332
291 4 0.182104 0.411136 0.220992
416 4 0.173954 0.418678 0.204922
766 2 0.214615 0.483268 0.223934
768 4 0.201125 0.478599 0.244462
767 4 0.228105 0.487937 0.203406
1429 2 0.178497 0.487717 0.178649
638 4 0.227111 0.497446 0.187021
414 4 0.184806 0.469273 0.250273
659 4 0.376343 0.450904 0.166919
660 4 0.366436 0.492281 0.193197
658 2 0.37139 0.471593 0.180058
231 4 0.359875 0.489642 0.210926
234 4 0.010989 0.0272282 0.324195
232 2 0.0317997 0.0215936 0.311532
233 4 0.0526105 0.015959 0.298869
1403 4 0.06424 0.00966903 0.313853
731 4 0.0955223 0.0565275 0.331426
673 2 0.138433 0.0603573 0.262877
730 2 0.101342 0.0801272 0.325564
428 4 0.107336 0.0525463 0.346883
605 4 0.167819 0.0352347 0.310386
1701 4 0.313092 0.0621118 0.269473
1699 2 0.310712 0.0380549 0.263087
1407 4 0.278378 0.0109468 0.324456
22 3 0.37533 0.0794329 0.250199
1518 4 0.340018 0.0158755 0.307046
697 2 0.378733 0.0353039 0.299765
699 4 0.358475 0.0242055 0.309337
698 4 0.398991 0.0464023 0.290193
1747 2 0.457983 0.00334295 0.310997
742 2 0.463227 0.0188437 0.258148
1749 4 0.482368 0.00875429 0.312125
743 4 0.473619 0.0407511 0.264252
257 4 0.423489 0.0838249 0.317537
351 4 0.479215 0.0590943 0.270935
349 2 0.459498 0.0693618 0.282381
480 4 0.482568 0.028507 0.316746
478 2 0.494906 0.0497752 0.321288
350 4 0.439781 0.0796293 0.293827
256 2 0.434858 0.0712966 0.335948
579 4 0.104157 0.15742 0.246322
675 4 0.135031 0.0800939 0.277847
399 4 0.11905 0.155373 0.315582
397 2 0.118944 0.132335 0.325301
398 4 0.118837 0.109298 0.33502
732 4 0.107161 0.103727 0.319702
544 2 0.163491 0.156555 0.262841
545 4 0.14378 0.16978 0.270699
546 4 0.183202 0.14333 0.254983
722 4 0.192099 0.126017 0.252384
403 2 0.232876 0.168599 0.290321
599 4 0.222769 0.134411 0.309751
404 4 0.235887 0.145806 0.300149
598 2 0.203006 0.124996 0.321833
600 4 0.183243 0.115582 0.333915
249 4 0.268242 0.117276 0.318545
248 4 0.316316 0.117634 0.304783
247 2 0.292279 0.117455 0.311664
632 4 0.375728 0.0842659 0.32451
333 4 0.393067 0.086851 0.256924
331 2 0.408272 0.0895188 0.276594
332 4 0.423477 0.0921866 0.296263
762 4 0.432138 0.110268 0.299592
760 2 0.449793 0.127098 0.294098
761 4 0.467449 0.143929 0.288603
530 4 0.0093891 0.190281 0.279694
393 4 0.107264 0.170185 0.313273
390 4 0.0887585 0.235808 0.298619
392 4 0.126779 0.17874 0.268032
391 2 0.117021 0.174463 0.290652
388 2 0.109812 0.248068 0.304242
405 4 0.229864 0.191392 0.280492
401 4 0.217105 0.206744 0.283702
400 2 0.205639 0.218122 0.302788
402 4 0.194173 0.2295 0.321873
707 4 0.298768 0.187635 0.321856
418 2 0.396884 0.231325 0.319379
419 4 0.416791 0.243243 0.310059
420 4 0.376978 0.219407 0.328699
520 2 0.481079 0.213319 0.252494
444 4 0.0431572 0.313737 0.278759
442 2 0.0455414 0.301277 0.257213
389 4 0.130866 0.260328 0.309864
307 2 0.304381 0.324089 0.250254
308 4 0.318298 0.331807 0.269539
497 4 0.327506 0.324672 0.284519
496 2 0.330706 0.316229 0.307835
498 4 0.333906 0.307786 0.331152
615 4 0.415428 0.339281 0.331646
543 4 0.423326 0.323673 0.322251
541 2 0.441473 0.309687 0.312237
542 4 0.459619 0.295702 0.302222
365 4 0.0151834 0.389422 0.29934
2491 2 0.0121199 0.387348 0.336294
2493 4 0.026362 0.385527 0.315823
364 2 0.0142786 0.373821 0.279822
366 4 0.0133737 0.358219 0.260304
299 4 0.140199 0.403061 0.248233
603 4 0.0973825 0.358576 0.330522
601 2 0.102281 0.383008 0.328458
734 4 0.138864 0.386926 0.260723
733 2 0.142776 0.378816 0.284049
602 4 0.107179 0.40744 0.326394
735 4 0.146689 0.370706 0.307375
777 4 0.111405 0.409993 0.306922
677 4 0.162412 0.358662 0.310001
676 2 0.185145 0.348259 0.309617
678 4 0.207878 0.337855 0.309234
729 4 0.306448 0.342402 0.301657
727 2 0.305662 0.36598 0.309944
434 4 0.318566 0.397376 0.329066
728 4 0.304876 0.389557 0.31823
613 2 0.393637 0.342533 0.319823
614 4 0.371846 0.345785 0.308001
433 2 0.341683 0.406903 0.329004
435 4 0.3648 0.41643 0.328942
445 2 0.45055 0.400689 0.250804
446 4 0.457379 0.402486 0.27479
1756 2 0.0788087 0.478952 0.270666
549 4 0.0496202 0.450286 0.29977
1757 4 0.0763076 0.455381 0.278625
547 2 0.0593499 0.447786 0.322667
776 4 0.0955499 0.44915 0.280163
501 4 0.145697 0.488264 0.334974
775 2 0.103477 0.429571 0.293543
413 4 0.177853 0.470382 0.299782
412 2 0.18133 0.469827 0.275027
438 4 0.300733 0.49216 0.31234
437 4 0.260275 0.498089 0.283552
436 2 0.280504 0.495125 0.297946
3 3 0.291381 0.441535 0.321502
5 3 0.264749 0.450936 0.346402
713 4 0.403204 0.449171 0.310353
712 2 0.419333 0.454009 0.291869
714 4 0.435461 0.458847 0.273386
119 3 0.490338 0.420666 0.33275
2757 4 0.989745 0.0571858 0.371141
317 4 0.0480995 0.0654548 0.334272
429 4 0.0957433 0.00390139 0.346918
427 2 0.10154 0.0282238 0.346901
606 4 0.157891 0.0260741 0.358534
604 2 0.162855 0.0306544 0.33446
683 4 0.247253 0.0397068 0.396439
682 2 0.263017 0.0565245 0.406124
725 4 0.295572 0.0697342 0.404174
684 4 0.278782 0.0733422 0.41581
2879 4 0.482322 0.0389761 0.414239
424 2 0.450822 0.0486454 0.387952
426 4 0.46281 0.054503 0.366806
258 4 0.446228 0.0587683 0.354359
425 4 0.438835 0.0427878 0.409098
316 2 0.042983 0.0844533 0.349701
318 4 0.0378665 0.103452 0.36513
686 4 0.172436 0.157373 0.381637
685 2 0.170776 0.140206 0.363534
687 4 0.169116 0.123039 0.34543
631 2 0.359898 0.0960058 0.339898
633 4 0.344069 0.107746 0.355286
514 2 0.471141 0.16138 0.407517
453 4 0.478554 0.14794 0.374986
451 2 0.491294 0.15506 0.354684
2654 4 0.993866 0.252946 0.337972
275 4 0.174905 0.216898 0.355726
474 4 0.19062 0.209683 0.367426
472 2 0.214662 0.207662 0.360862
473 4 0.238704 0.205642 0.354297
274 2 0.162025 0.237903 0.359981
708 4 0.258454 0.202702 0.347322
706 2 0.278611 0.195168 0.334589
716 4 0.362364 0.228049 0.379063
715 2 0.348287 0.242039 0.394272
515 4 0.478008 0.167005 0.384142
618 4 0.0536119 0.29381 0.397917
616 2 0.0577275 0.289071 0.373714
617 4 0.0618432 0.284331 0.349511
347 4 0.0444537 0.283367 0.414461
276 4 0.149146 0.258907 0.364235
510 4 0.245285 0.331134 0.38592
508 2 0.243001 0.310058 0.372663
509 4 0.240716 0.288982 0.359405
488 4 0.315388 0.286703 0.408155
376 2 0.332246 0.287373 0.365211
377 4 0.321124 0.281782 0.386895
487 2 0.296222 0.270666 0.408964
374 4 0.256468 0.327551 0.402007
378 4 0.343369 0.292965 0.343526
717 4 0.33421 0.256028 0.409481
267 4 0.342605 0.273536 0.406759
269 4 0.47178 0.273876 0.361663
268 2 0.466735 0.26314 0.383674
270 4 0.46169 0.252405 0.405684
406 2 0.0744351 0.421577 0.3821
408 4 0.0806119 0.411186 0.403987
710 4 0.149282 0.395073 0.407368
502 2 0.236669 0.402862 0.412597
504 4 0.257927 0.391418 0.419102
373 2 0.260027 0.352164 0.404596
335 4 0.372878 0.401692 0.420462
561 4 0.463847 0.394303 0.397934
752 4 0.459368 0.404688 0.381843
559 2 0.444234 0.403167 0.41066
751 2 0.469367 0.41781 0.363054
407 4 0.0682583 0.431968 0.360213
548 4 0.0690796 0.445286 0.345564
499 2 0.120928 0.490865 0.332753
500 4 0.0961598 0.493467 0.330532
1435 2 0.241123 0.484565 0.343664
503 4 0.215411 0.414305 0.406092
1437 4 0.254521 0.466286 0.354226
668 4 0.293557 0.447041 0.377167
1 1 0.287002 0.452085 0.341699
2 3 0.293272 0.474158 0.340071
4 3 0.299214 0.442052 0.358687
667 2 0.315551 0.44937 0.38883
334 2 0.364383 0.423266 0.411105
669 4 0.337545 0.451699 0.400493
593 4 0.406677 0.474642 0.360658
336 4 0.355889 0.444841 0.401748
592 2 0.428621 0.485156 0.354904
594 4 0.450564 0.49567 0.349149
753 4 0.479366 0.430931 0.344265
718 2 0.0609445 0.0491726 0.48906
719 4 0.0797537 0.0391867 0.475958
368 4 0.125986 0.0416953 0.42547
367 2 0.13053 0.0645659 0.434496
2429 4 0.243771 0.00969711 0.455175
2428 2 0.222074 0.0184391 0.464007
341 4 0.193495 0.0424004 0.484019
340 2 0.18623 0.0661823 0.48663
2430 4 0.200377 0.0271811 0.472839
1182 4 0.227906 0.0669592 0.491374
1180 2 0.249341 0.0548917 0.495856
439 2 0.274316 0.00491616 0.446715
441 4 0.260815 0.0167606 0.464111
724 2 0.314942 0.0766344 0.4184
430 2 0.328323 0.0610531 0.478999
432 4 0.32174 0.039134 0.468929
431 4 0.334906 0.0829721 0.489069
2878 2 0.492206 0.0580468 0.427037
1033 2 0.0935294 0.155703 0.48742
369 4 0.135074 0.0874365 0.443522
1034 4 0.0841776 0.134582 0.477846
342 4 0.178965 0.0899642 0.489241
1152 4 0.177313 0.109436 0.491358
320 4 0.278457 0.0929048 0.415546
321 4 0.244133 0.12927 0.415177
319 2 0.261295 0.111088 0.415362
726 4 0.334313 0.0835345 0.432625
410 4 0.2958 0.167161 0.489282
468 4 0.362386 0.157063 0.456226
576 4 0.408598 0.136234 0.457163
843 4 0.349961 0.0965527 0.490344
2880 4 0.502091 0.0771175 0.439834
574 2 0.432553 0.140487 0.451396
642 4 0.489088 0.0914319 0.444116
516 4 0.464275 0.155756 0.430892
641 4 0.458667 0.11247 0.477771
640 2 0.473878 0.101951 0.460944
575 4 0.456508 0.14474 0.445628
3158 4 0.446128 0.122835 0.490117
458 4 0.0056692 0.172851 0.42435
471 4 0.0331522 0.211683 0.472352
1035 4 0.102881 0.176823 0.496993
261 4 0.104615 0.193193 0.483962
260 4 0.095378 0.238493 0.464904
259 2 0.0999967 0.215843 0.474433
467 4 0.324793 0.181974 0.434617
411 4 0.257631 0.191328 0.467838
409 2 0.276716 0.179244 0.47856
651 4 0.270952 0.259669 0.428075
466 2 0.34359 0.169519 0.445421
306 4 0.458406 0.243817 0.423581
305 4 0.49723 0.224174 0.448231
304 2 0.477818 0.233995 0.435906
3065 4 0.489747 0.23814 0.498962
346 2 0.0267954 0.296947 0.425816
348 4 0.00913706 0.310528 0.43717
2814 4 0.998114 0.322744 0.450074
695 4 0.0956123 0.291076 0.481177
694 2 0.115369 0.294811 0.49604
10 3 0.171191 0.329043 0.474771
650 4 0.261944 0.262308 0.477194
489 4 0.277055 0.254629 0.409773
649 2 0.266448 0.260988 0.452634
266 4 0.359301 0.298382 0.446817
265 2 0.350953 0.285959 0.426788
585 4 0.412989 0.280583 0.433693
2455 2 0.492017 0.31647 0.463636
2456 4 0.474445 0.302449 0.452691
583 2 0.436105 0.284388 0.442431
584 4 0.45922 0.288193 0.451169
7 3 0.135349 0.339427 0.475411
327 4 0.118581 0.329768 0.479289
326 4 0.0829958 0.360991 0.463178
325 2 0.100788 0.34538 0.471233
6 1 0.156888 0.345899 0.480242
709 2 0.150431 0.383455 0.429479
8 3 0.161955 0.364895 0.467919
711 4 0.15158 0.371838 0.451589
375 4 0.263587 0.376777 0.407186
804 4 0.273383 0.397825 0.48044
802 2 0.259743 0.393862 0.501017
238 2 0.35484 0.373003 0.440322
240 4 0.360824 0.385366 0.419429
239 4 0.348856 0.36064 0.461215
560 4 0.424621 0.41203 0.423386
927 4 0.462225 0.400857 0.491954
681 4 0.0398728 0.460522 0.415089
540 4 0.0553942 0.487511 0.493962
680 4 0.0150528 0.479072 0.45434
1383 4 0.997372 0.48575 0.460245
679 2 0.0274628 0.469797 0.434714
384 4 0.134717 0.444687 0.50168
569 4 0.137413 0.442911 0.481808
568 2 0.127656 0.438788 0.459159
570 4 0.117898 0.434664 0.43651
636 4 0.18408 0.470982 0.429113
774 4 0.224999 0.445362 0.47853
772 2 0.21886 0.432484 0.499064
635 4 0.219525 0.454351 0.460223
634 2 0.201802 0.462667 0.444668
1399 2 0.342904 0.481192 0.462753
586 2 0.400156 0.453889 0.441981
588 4 0.378853 0.465447 0.448128
1400 4 0.360696 0.464549 0.457128
587 4 0.421459 0.442331 0.435835
1126 2 0.0322924 0.0844731 0.535779
1127 4 0.0427131 0.0750804 0.515082
1128 4 0.0218717 0.0938658 0.556476
720 4 0.0421354 0.0591586 0.502163
1058 4 0.113142 0.0331189 0.542296
1057 2 0.119548 0.0524361 0.556821
1059 4 0.125955 0.0717534 0.571346
1030 2 0.244426 0.0720041 0.583626
1031 4 0.246656 0.0475725 0.588454
961 2 0.306208 0.0307764 0.518153
962 4 0.330627 0.0266906 0.521644
963 4 0.281789 0.0348621 0.514662
1181 4 0.270776 0.0428242 0.500338
1217 4 0.390441 0.0753824 0.532836
842 4 0.391482 0.0894412 0.517291
1216 2 0.413572 0.0810634 0.540444
1153 2 0.151795 0.106998 0.583305
939 4 0.151459 0.14155 0.531192
1155 4 0.138071 0.0874722 0.575852
937 2 0.129348 0.153197 0.530384
938 4 0.107238 0.164844 0.529575
1150 2 0.183638 0.119572 0.513322
1151 4 0.189962 0.129707 0.535287
1032 4 0.242197 0.0964357 0.578798
898 2 0.32156 0.161877 0.558491
899 4 0.298069 0.153362 0.559429
857 4 0.281187 0.156828 0.549608
841 2 0.370722 0.092997 0.503817
1218 4 0.436702 0.0867443 0.548051
3157 2 0.451896 0.143741 0.502561
878 4 0.0757057 0.233595 0.549302
470 4 0.0141444 0.201943 0.517568
1199 4 0.997717 0.182079 0.583218
469 2 0.0236483 0.206813 0.49496
877 2 0.0937426 0.225492 0.564605
879 4 0.111779 0.217389 0.579908
858 4 0.253184 0.190732 0.573422
797 4 0.258597 0.202782 0.587622
856 2 0.267185 0.17378 0.561515
796 2 0.262244 0.22614 0.579483
798 4 0.26589 0.249499 0.571343
900 4 0.34505 0.170393 0.557552
871 2 0.381698 0.24037 0.518246
872 4 0.391129 0.218599 0.526138
3159 4 0.457664 0.164647 0.515004
1260 4 0.147998 0.283752 0.515148
696 4 0.135126 0.298547 0.510902
1258 2 0.166504 0.296977 0.52553
1259 4 0.18501 0.310203 0.535912
1239 4 0.217073 0.321113 0.578514
792 4 0.281186 0.300383 0.580689
812 4 0.318408 0.29074 0.526906
811 2 0.337413 0.274656 0.524604
873 4 0.372268 0.262141 0.510355
813 4 0.356418 0.258572 0.522302
897 4 0.15113 0.358199 0.576534
1137 4 0.141351 0.367451 0.56284
1135 2 0.11804 0.364544 0.571404
383 4 0.127855 0.399134 0.521137
1136 4 0.0947297 0.361636 0.579968
9 3 0.158419 0.350531 0.502927
895 2 0.175806 0.357819 0.572516
1189 2 0.221603 0.373986 0.538176
896 4 0.200482 0.357439 0.568499
1191 4 0.212673 0.370986 0.561337
1190 4 0.230533 0.376986 0.515015
803 4 0.246103 0.389899 0.521594
929 4 0.352176 0.382555 0.541945
928 2 0.366989 0.368124 0.555997
930 4 0.381802 0.353692 0.57005
925 2 0.453011 0.390034 0.512525
926 4 0.443797 0.379211 0.533095
1001 4 0.428297 0.404111 0.567601
382 2 0.131286 0.421911 0.511409
1173 4 0.223658 0.442038 0.564674
773 4 0.212721 0.419605 0.519598
1171 2 0.243496 0.44156 0.549461
1172 4 0.263334 0.441083 0.534249
882 4 0.271868 0.458407 0.527558
880 2 0.294778 0.462175 0.518278
881 4 0.317688 0.465942 0.508998
1000 2 0.430301 0.427719 0.575591
661 2 0.475273 0.471548 0.50821
663 4 0.468549 0.448583 0.500958
1002 4 0.432305 0.451327 0.583581
1185 4 0.008791 0.0382949 0.638782
945 4 0.0505655 0.0379073 0.650515
2319 4 0.0472344 0.0237541 0.664361
943 2 0.0512197 0.0593395 0.663376
1183 2 0.997353 0.059879 0.644117
825 4 0.13422 0.028281 0.608862
951 4 0.230407 0.0383101 0.59665
949 2 0.206268 0.0318042 0.597089
950 4 0.18213 0.0252984 0.597528
1004 4 0.381738 0.0722403 0.651011
2283 4 0.452797 0.0131646 0.60274
2282 4 0.450141 0.0444896 0.641629
2281 2 0.451469 0.0288271 0.622184
45 3 0.490365 0.0676576 0.663375
810 4 0.485528 0.0589224 0.64574
43 3 0.455761 0.0550279 0.655583
808 2 0.500666 0.0586621 0.625841
1082 4 0.06371 0.11974 0.646838
1081 2 0.0806208 0.103427 0.638289
1083 4 0.0975316 0.0871134 0.629741
1154 4 0.16552 0.126524 0.590759
1283 4 0.160071 0.10502 0.648646
1221 4 0.184853 0.129763 0.583941
1219 2 0.193806 0.137971 0.605797
1220 4 0.202759 0.146179 0.627652
1212 4 0.217178 0.160474 0.627047
1210 2 0.238683 0.165812 0.638634
1003 2 0.366823 0.0826285 0.633841
1005 4 0.351908 0.0930168 0.616671
1272 4 0.111198 0.209061 0.598059
1270 2 0.115463 0.196441 0.619219
1271 4 0.119728 0.183821 0.640379
1207 2 0.0792673 0.250673 0.644169
1209 4 0.0989463 0.235332 0.64257
909 4 0.181098 0.206974 0.666714
1211 4 0.260187 0.17115 0.65022
1026 4 0.431554 0.229463 0.630702
1024 2 0.42851 0.214386 0.650415
1208 4 0.0595882 0.266014 0.645768
1244 4 0.0447123 0.30533 0.621803
1243 2 0.0314995 0.293084 0.639142
1245 4 0.0182867 0.280838 0.656481
1237 2 0.241493 0.31735 0.582345
948 4 0.170126 0.299693 0.648565
946 2 0.180322 0.290233 0.627786
947 4 0.190517 0.280772 0.607008
1238 4 0.265913 0.313587 0.586176
791 4 0.307187 0.259161 0.591884
790 2 0.294187 0.279772 0.586287
953 4 0.441904 0.276044 0.621452
952 2 0.440238 0.295641 0.606014
954 4 0.438572 0.315239 0.590576
3123 4 0.485511 0.3006 0.659889
983 4 0.0351651 0.368553 0.631241
1039 2 0.0584524 0.377005 0.613185
1041 4 0.0340615 0.371529 0.612659
982 2 0.016857 0.361262 0.64663
1040 4 0.0828434 0.38248 0.613712
993 4 0.0871707 0.391847 0.631169
991 2 0.100985 0.405032 0.647309
890 4 0.312007 0.416862 0.601128
1204 2 0.404961 0.374068 0.596979
1206 4 0.388337 0.369477 0.578875
1205 4 0.421585 0.378659 0.615083
3182 4 0.501979 0.404532 0.663096
2129 4 0.0218294 0.491609 0.649744
992 4 0.1148 0.418217 0.663448
2170 2 0.108835 0.488851 0.648862
2172 4 0.103851 0.47263 0.667225
1160 4 0.184486 0.446226 0.606257
1159 2 0.196888 0.461591 0.621595
1161 4 0.20929 0.476956 0.636934
891 4 0.336696 0.459864 0.594646
889 2 0.324352 0.438363 0.597887
1952 4 0.343742 0.470271 0.609714
1951 2 0.353376 0.492736 0.60445
1910 4 0.429289 0.469359 0.59037
1909 2 0.445158 0.488572 0.592426
2318 4 0.00516272 0.000975809 0.678916
2317 2 0.0261985 0.0123649 0.671638
944 4 0.0518739 0.0807717 0.676237
1075 2 0.0586876 0.0704592 0.715998
1077 4 0.054114 0.0676439 0.740418
41 1 0.469884 0.0630011 0.672178
1163 4 0.486898 0.0391978 0.700879
42 3 0.47211 0.0468741 0.68843
44 3 0.460854 0.0821082 0.681759
1076 4 0.0632612 0.0732744 0.691578
1106 4 0.0785502 0.157796 0.748818
1282 2 0.175239 0.109145 0.66809
1284 4 0.190407 0.113269 0.687535
1227 4 0.188751 0.129086 0.70219
1225 2 0.202626 0.125882 0.722742
1226 4 0.216501 0.122679 0.743295
1148 4 0.220713 0.103218 0.749929
830 4 0.325323 0.167994 0.698175
886 2 0.29106 0.159768 0.679502
887 4 0.310705 0.155168 0.69427
1142 4 0.397275 0.153306 0.70255
1105 2 0.0806529 0.173526 0.729496
1107 4 0.0827556 0.189255 0.710174
851 4 0.06686 0.191856 0.699919
852 4 0.0246266 0.218518 0.702408
850 2 0.0457433 0.205187 0.701164
1178 4 0.00903707 0.227314 0.690851
1177 2 0.00887721 0.25061 0.681769
907 2 0.18606 0.182822 0.670868
908 4 0.191022 0.15867 0.675022
888 4 0.271415 0.164367 0.664733
829 2 0.328213 0.179955 0.71994
1064 4 0.263643 0.250382 0.715798
831 4 0.331104 0.191916 0.741706
1193 4 0.353466 0.214046 0.676066
1192 2 0.367457 0.22178 0.695291
1194 4 0.381448 0.229514 0.714516
1262 4 0.400741 0.236841 0.712073
1141 2 0.414125 0.168464 0.691991
1143 4 0.430975 0.183622 0.681432
1025 4 0.425467 0.199309 0.670129
3356 4 0.465751 0.228095 0.718118
3355 2 0.480235 0.231675 0.698054
1261 2 0.424155 0.233403 0.720146
1263 4 0.447569 0.229965 0.728218
1145 4 0.459437 0.200098 0.725587
3357 4 0.494719 0.235256 0.677989
1144 2 0.478007 0.191381 0.739882
1179 4 0.00871734 0.273905 0.672687
821 4 0.136932 0.252231 0.74108
1242 4 0.192118 0.310344 0.746107
1065 4 0.254435 0.299534 0.715786
1063 2 0.259039 0.274958 0.715792
806 4 0.349227 0.317645 0.682815
3121 2 0.490253 0.277898 0.669234
892 2 0.0698416 0.38401 0.716804
894 4 0.0477342 0.38128 0.728161
3276 4 0.0277224 0.380132 0.729656
893 4 0.091949 0.38674 0.705446
1028 4 0.215621 0.420592 0.68765
1027 2 0.238867 0.418988 0.678583
1029 4 0.262114 0.417383 0.669517
807 4 0.366813 0.355696 0.710084
805 2 0.35802 0.336671 0.696449
1020 4 0.381162 0.36921 0.711864
1018 2 0.392228 0.372568 0.734032
1280 4 0.030292 0.41626 0.700752
1281 4 0.0289381 0.455014 0.732327
1279 2 0.0296151 0.435637 0.71654
1983 4 0.0225402 0.472433 0.722377
1981 2 0.0100606 0.490446 0.734417
1067 4 0.14983 0.416751 0.705659
941 4 0.144372 0.434682 0.713374
940 2 0.134719 0.437996 0.7362
1068 4 0.19614 0.422275 0.687614
1066 2 0.172985 0.419513 0.696636
1139 4 0.280486 0.420666 0.673557
1138 2 0.30206 0.426509 0.684764
1140 4 0.323634 0.432352 0.695972
1987 2 0.318071 0.492256 0.725751
1989 4 0.335648 0.477438 0.71592
1229 4 0.330767 0.459686 0.720783
1228 2 0.354436 0.451956 0.723061
1230 4 0.378106 0.444226 0.72534
1269 4 0.44951 0.508774 0.702698
1100 4 0.478732 0.460735 0.722442
1099 2 0.489299 0.4811 0.712505
1267 2 0.440764 0.502864 0.680032
1203 4 0.057213 0.0639157 0.759066
1201 2 0.0737496 0.0457101 0.763569
1202 4 0.0902862 0.0275044 0.768072
911 4 0.0961691 0.0584909 0.801551
2049 4 0.101003 0.0101689 0.765891
910 2 0.0917655 0.0788681 0.815356
1147 2 0.215531 0.0799276 0.757405
1149 4 0.21035 0.0566374 0.764882
1256 4 0.301347 0.0718389 0.782612
1050 4 0.288554 0.00532477 0.783679
817 2 0.356978 0.0816938 0.829613
1112 4 0.409622 0.0414983 0.800292
846 4 0.471059 0.0305204 0.820544
1113 4 0.45661 0.0449612 0.817051
844 2 0.488145 0.034487 0.802726
1111 2 0.433116 0.0432297 0.808672
845 4 0.505232 0.0384536 0.784907
864 4 0.0543614 0.0791585 0.773414
862 2 0.0391535 0.0954556 0.784742
863 4 0.0239456 0.111753 0.796069
833 4 0.0055902 0.115236 0.805494
35 3 0.0982038 0.149142 0.751348
33 3 0.104551 0.128125 0.781936
31 1 0.107405 0.148983 0.772179
34 3 0.0974794 0.16531 0.785343
32 3 0.129919 0.153413 0.770552
912 4 0.087362 0.0992453 0.82916
1130 4 0.237443 0.148129 0.795401
840 4 0.220862 0.113118 0.806084
838 2 0.244958 0.117924 0.801449
1255 2 0.293384 0.0923006 0.794574
1257 4 0.28542 0.112762 0.806536
839 4 0.269053 0.122729 0.796813
958 2 0.288276 0.149611 0.821313
959 4 0.271562 0.140813 0.80493
819 4 0.364438 0.0919523 0.808066