ITEM: TIMESTEP
2150000
ITEM: NUMBER OF ATOMS
4590
ITEM: BOX BOUNDS pp pp pp
-9.9985700000000008e+00 9.9985700000000008e+00
-9.9985700000000008e+00 9.9985700000000008e+00
-9.9985700000000008e+00 9.9985700000000008e+00
ITEM: ATOMS id type xs ys zs
1668 4 0.0595708 0.0306706 0.0423841
1666 2 0.0562908 0.0245319 0.0663995
463 2 0.0551131 0.0665957 0.018626
3290 4 0.0727997 0.0325201 0.00807674
464 4 0.0563597 0.0430273 0.0103704
566 4 0.179355 0.0439751 0.0369027
565 2 0.188572 0.0623092 0.0511884
567 4 0.197789 0.0806434 0.0654741
490 2 0.281425 0.0194961 0.0470245
491 4 0.284169 0.0307174 0.0248495
986 4 0.295571 0.0305423 0.00665896
2263 2 0.27286 0.0618003 0.00600412
2265 4 0.252355 0.0750077 0.0115099
296 4 0.392722 0.0537378 0.0769965
745 2 0.473971 0.0557711 0.0479406
747 4 0.492582 0.0681734 0.0591201
746 4 0.455359 0.0433689 0.0367612
465 4 0.0538664 0.0901641 0.0268816
701 4 0.0523051 0.095993 0.00791673
2624 4 0.97935 0.156689 0.0315335
836 4 0.0553134 0.249002 0.0224911
422 4 0.071327 0.198966 0.0387514
421 2 0.0811304 0.189932 0.0175982
358 2 0.22199 0.166625 0.0294994
360 4 0.210524 0.177091 0.00989932
737 4 0.195731 0.217392 0.0598195
736 2 0.207602 0.20128 0.0748084
738 4 0.219473 0.185169 0.0897972
506 4 0.198333 0.233295 0.0471019
359 4 0.233456 0.156159 0.0490996
665 4 0.359021 0.18353 0.0257919
664 2 0.34833 0.184095 0.00319636
254 4 0.389152 0.257166 0.0738028
630 4 0.394319 0.242711 0.086649
323 4 0.470438 0.217466 0.0595378
2807 4 0.0118341 0.292387 0.00855109
835 2 0.056378 0.256549 0.998677
294 4 0.148271 0.321755 0.0395765
292 2 0.16354 0.307038 0.0528225
507 4 0.191147 0.27764 0.0690705
293 4 0.178809 0.292321 0.0660684
505 2 0.19474 0.255467 0.0580862
481 2 0.295149 0.288866 0.0118842
482 4 0.301766 0.312896 0.00989188
483 4 0.288532 0.264836 0.0138766
573 4 0.384504 0.264651 0.0164966
571 2 0.363907 0.278567 0.0191951
572 4 0.34331 0.292483 0.0218935
741 4 0.352879 0.328364 0.0722544
255 4 0.348834 0.278868 0.0939072
253 2 0.368993 0.268017 0.083855
324 4 0.470847 0.26575 0.0725443
322 2 0.470642 0.241608 0.066041
315 4 0.0686608 0.407771 0.050358
621 4 0.0693819 0.399351 0.0690836
456 4 0.139323 0.34064 0.0415883
454 2 0.114799 0.341752 0.0368443
455 4 0.0902745 0.342865 0.0321004
608 4 0.242192 0.377919 0.0650136
607 2 0.244527 0.359374 0.0816209
252 4 0.24977 0.382067 0.0475895
250 2 0.271564 0.394136 0.0454681
251 4 0.293359 0.406205 0.0433467
523 2 0.323798 0.404044 0.0561297
524 4 0.302204 0.391802 0.0531222
226 2 0.394018 0.391495 0.0219044
228 4 0.382732 0.405891 0.0389506
670 2 0.417515 0.369458 0.0855189
525 4 0.345391 0.416286 0.0591373
1305 4 0.41717 0.363232 0.994746
227 4 0.405303 0.377099 0.00485818
671 4 0.439053 0.361524 0.0756023
1047 4 0.502417 0.352466 0.0361396
281 4 0.441202 0.371307 0.059338
280 2 0.463614 0.361544 0.0540885
282 4 0.486026 0.35178 0.048839
104 3 0.49225 0.35089 0.0673815
313 2 0.0517631 0.424222 0.0586647
552 4 0.0344609 0.453949 0.0512548
314 4 0.0348655 0.440674 0.0669713
550 2 0.0108872 0.457856 0.0438931
244 2 0.253748 0.471661 0.00230793
243 4 0.229119 0.496706 0.0544717
245 4 0.234933 0.455736 0.998114
242 4 0.182831 0.496419 0.0355495
241 2 0.205975 0.496563 0.0450106
1290 4 0.21599 0.447993 0.997379
246 4 0.272562 0.487586 0.00650139
37 3 0.359582 0.462278 0.00507641
494 4 0.389634 0.463196 0.0875433
1667 4 0.0530109 0.0183932 0.0904149
1422 4 0.0219886 0.00731736 0.142893
2480 4 0.0189425 0.0301262 0.137612
18 3 0.074943 0.0133789 0.132563
19 3 0.0372902 0.0185165 0.133097
2479 2 0.0159655 0.0493941 0.121958
2481 4 0.0129885 0.068662 0.106303
652 2 0.242541 0.0486899 0.142446
654 4 0.249207 0.0396529 0.120106
1475 4 0.276454 0.00476081 0.0882812
1474 2 0.256973 0.0161946 0.0990027
1476 4 0.237493 0.0276284 0.109724
485 4 0.37009 0.0174762 0.110797
297 4 0.366175 0.0139549 0.0916012
295 2 0.379449 0.0338463 0.0842989
557 4 0.395096 0.0664321 0.092395
484 2 0.360488 0.000648973 0.126603
2723 4 0.510862 0.0878572 0.111797
235 2 0.125138 0.162247 0.138769
236 4 0.135796 0.153259 0.159525
582 4 0.320446 0.10843 0.166928
758 4 0.338158 0.1209 0.168285
556 2 0.403869 0.0897568 0.0944374
558 4 0.412642 0.113081 0.0964797
771 4 0.429245 0.116215 0.10662
769 2 0.438079 0.121762 0.129344
770 4 0.446913 0.127308 0.152068
338 4 0.0314647 0.254416 0.125685
237 4 0.114479 0.171235 0.118014
354 4 0.227571 0.168866 0.094191
476 4 0.184468 0.186109 0.158828
477 4 0.229568 0.198463 0.141106
475 2 0.207018 0.192286 0.149967
352 2 0.248163 0.179975 0.103009
353 4 0.268754 0.191085 0.111828
461 4 0.285018 0.190176 0.122837
460 2 0.302161 0.201532 0.108612
462 4 0.319304 0.212888 0.0943875
628 2 0.407114 0.233822 0.106205
629 4 0.41991 0.224933 0.125761
624 4 0.438521 0.229178 0.132798
337 2 0.0441048 0.261268 0.146141
339 4 0.0567448 0.268121 0.166598
395 4 0.0665268 0.284244 0.161175
610 2 0.248244 0.309717 0.111439
611 4 0.258447 0.286939 0.109953
279 4 0.259881 0.240988 0.14994
755 4 0.299963 0.254848 0.128715
278 4 0.264645 0.268069 0.108171
277 2 0.262263 0.254529 0.129056
754 2 0.314384 0.265977 0.111587
285 4 0.277276 0.244209 0.159388
756 4 0.328805 0.277105 0.0944594
739 2 0.341392 0.330794 0.0943299
622 2 0.448464 0.251169 0.139336
623 4 0.458407 0.273159 0.145873
619 2 0.0774631 0.384493 0.087498
620 4 0.0855443 0.369634 0.105912
647 4 0.0975345 0.36985 0.122996
537 4 0.112807 0.380182 0.114575
535 2 0.134196 0.391153 0.107696
536 4 0.155585 0.402124 0.100817
646 2 0.0972114 0.36275 0.146968
612 4 0.238041 0.332496 0.112925
609 4 0.246861 0.340829 0.0982283
740 4 0.329905 0.333225 0.116405
386 4 0.329098 0.35499 0.118658
385 2 0.336325 0.378408 0.12361
387 4 0.343551 0.401827 0.128563
302 4 0.3451 0.419376 0.117191
12 3 0.39184 0.386785 0.113214
11 1 0.385367 0.400823 0.130249
15 3 0.365271 0.410181 0.125031
672 4 0.395977 0.377393 0.0954355
14 3 0.401396 0.417404 0.132806
13 3 0.383519 0.388505 0.149826
597 4 0.373663 0.383361 0.1706
1440 4 0.229785 0.484506 0.0710003
626 4 0.179009 0.418895 0.149285
1438 2 0.232171 0.466744 0.0884359
625 2 0.191305 0.440183 0.144727
1439 4 0.234556 0.448982 0.105871
638 4 0.212733 0.479461 0.140259
637 2 0.232787 0.494363 0.141229
627 4 0.203601 0.461472 0.140168
1559 4 0.322561 0.485783 0.111655
272 4 0.263036 0.495707 0.0832329
301 2 0.343147 0.437519 0.134285
495 4 0.40785 0.434669 0.124355
493 2 0.398742 0.448932 0.105949
303 4 0.341194 0.455662 0.151379
1584 4 0.475489 0.500926 0.113238
1582 2 0.478717 0.47668 0.108052
1583 4 0.481945 0.452434 0.102865
1420 2 0.0108159 0.999947 0.164012
318 4 0.0623036 0.0805278 0.237815
673 2 0.137051 0.0403213 0.244532
675 4 0.124519 0.0608213 0.251453
653 4 0.235875 0.057727 0.164786
1505 4 0.217996 0.997984 0.22472
689 4 0.200093 0.00268374 0.215859
690 4 0.167862 0.0284562 0.244102
688 2 0.183978 0.01557 0.22998
693 4 0.250283 0.0494523 0.175073
691 2 0.259413 0.0537199 0.197956
692 4 0.268544 0.0579874 0.220838
1699 2 0.300852 0.0634844 0.234303
1701 4 0.277835 0.0550736 0.239267
1700 4 0.32387 0.0718953 0.22934
21 1 0.365638 0.0732212 0.224824
25 3 0.371198 0.0730222 0.20274
22 3 0.370742 0.0528017 0.234106
759 4 0.368332 0.0879062 0.190682
23 3 0.342884 0.0770761 0.227226
698 4 0.37651 0.0627438 0.253218
1759 2 0.464582 0.00426729 0.185594
1761 4 0.442444 0.998482 0.175513
2744 4 0.492822 0.0155222 0.177231
511 2 0.00518311 0.140351 0.212327
578 4 0.0427858 0.158192 0.214242
513 4 0.0299388 0.143825 0.211813
450 4 0.142924 0.0912199 0.172105
449 4 0.150763 0.139614 0.16224
448 2 0.146844 0.115417 0.167172
28 3 0.223767 0.131826 0.168929
27 3 0.231119 0.142935 0.204075
26 1 0.239908 0.140897 0.182915
546 4 0.174394 0.135094 0.24109
580 2 0.296707 0.111341 0.174219
581 4 0.272968 0.114252 0.181511
30 3 0.258122 0.127245 0.183641
29 3 0.246077 0.161929 0.175297
24 3 0.377673 0.0897002 0.23587
757 2 0.353245 0.104403 0.179483
520 2 0.504908 0.156773 0.22149
312 4 0.429218 0.147822 0.196573
311 4 0.469657 0.134311 0.222705
310 2 0.449438 0.141067 0.209639
521 4 0.484015 0.145827 0.229787
577 2 0.0475797 0.179215 0.2269
529 2 0.0127051 0.218821 0.243165
530 4 0.0365808 0.21141 0.242719
579 4 0.0523736 0.200238 0.239558
372 4 0.149507 0.234338 0.191813
362 4 0.14645 0.24601 0.175437
370 2 0.163416 0.215509 0.183027
371 4 0.177325 0.19668 0.174241
401 4 0.22439 0.180996 0.258031
400 2 0.232536 0.204628 0.258626
396 4 0.0618999 0.315419 0.2
443 4 0.0636707 0.306105 0.218369
394 2 0.0642133 0.299831 0.180588
442 2 0.0457499 0.305531 0.235796
363 4 0.100212 0.264971 0.173641
361 2 0.123331 0.255491 0.174539
284 4 0.279208 0.2667 0.204011
283 2 0.278242 0.255455 0.1817
596 4 0.364117 0.336585 0.155713
527 4 0.463785 0.283771 0.163097
526 2 0.457065 0.292873 0.185395
528 4 0.450346 0.301974 0.207693
704 4 0.0254755 0.340593 0.171703
703 2 0.0114623 0.349019 0.190619
705 4 0.997449 0.357446 0.209534
264 4 0.0306022 0.414628 0.204846
750 4 0.090779 0.345146 0.257435
648 4 0.0968882 0.35565 0.17094
300 4 0.0991576 0.35269 0.190485
298 2 0.0979795 0.347354 0.214884
299 4 0.0968014 0.342018 0.239283
345 4 0.258943 0.339829 0.241125
343 2 0.280072 0.330557 0.250757
645 4 0.3813 0.402214 0.169097
595 2 0.36889 0.359973 0.163157
643 2 0.39927 0.402593 0.186479
447 4 0.416245 0.420327 0.211375
644 4 0.417239 0.402973 0.203861
108 3 0.496383 0.400065 0.215205
445 2 0.418661 0.421293 0.236243
2861 4 0.492229 0.414315 0.230799
109 3 0.490664 0.362501 0.214417
262 2 0.0372255 0.42634 0.225921
263 4 0.0438488 0.438053 0.246995
1430 4 0.175137 0.503023 0.191471
289 2 0.235705 0.434795 0.231205
417 4 0.186746 0.489213 0.200204
290 4 0.217834 0.429187 0.214641
416 4 0.209812 0.445736 0.209059
415 2 0.198279 0.467475 0.204631
659 4 0.349641 0.442447 0.164162
658 2 0.344754 0.456255 0.184426
438 4 0.298985 0.449318 0.250959
229 2 0.361012 0.491672 0.23205
660 4 0.339867 0.470063 0.20469
231 4 0.345193 0.473671 0.224914
1403 4 0.0244913 0.00566616 0.293094
232 2 0.0231757 0.0393558 0.299305
234 4 0.0327602 0.0617541 0.293681
317 4 0.0433818 0.0554609 0.276729
233 4 0.0135912 0.0169575 0.304929
316 2 0.0528427 0.0679944 0.257272
674 4 0.149582 0.0198213 0.237612
1406 4 0.199399 0.0115733 0.278837
333 4 0.387845 0.0780101 0.247717
1518 4 0.371545 0.00975824 0.282334
697 2 0.370351 0.0458467 0.270588
699 4 0.364192 0.0289496 0.287958
331 2 0.409887 0.0851939 0.257082
743 4 0.493449 0.0320427 0.258599
351 4 0.480992 0.0470655 0.252413
349 2 0.464515 0.0639681 0.260659
425 4 0.419983 0.0304456 0.333363
391 2 0.140921 0.151036 0.31593
392 4 0.144458 0.147647 0.291411
545 4 0.144848 0.130376 0.281158
544 2 0.159621 0.132735 0.261124
722 4 0.191564 0.0813221 0.263892
723 4 0.239647 0.08488 0.250623
721 2 0.215605 0.0831011 0.257257
599 4 0.213176 0.117332 0.303146
404 4 0.227519 0.129352 0.302521
598 2 0.205208 0.1095 0.325515
403 2 0.223362 0.147808 0.286173
405 4 0.219204 0.166264 0.269825
764 4 0.465369 0.178834 0.279708
350 4 0.448038 0.0808706 0.268905
332 4 0.43193 0.0923777 0.266447
762 4 0.426105 0.110708 0.274164
761 4 0.453181 0.118927 0.315396
760 2 0.439643 0.114817 0.29478
257 4 0.463478 0.115236 0.332087
402 4 0.240683 0.228259 0.259221
473 4 0.207776 0.204355 0.326704
765 4 0.42567 0.191582 0.252099
763 2 0.445519 0.185208 0.265904
444 4 0.0278292 0.304956 0.253223
366 4 0.0388081 0.325667 0.295218
734 4 0.131321 0.323711 0.27813
309 4 0.313835 0.316091 0.276382
344 4 0.301202 0.321285 0.260388
510 4 0.251774 0.322553 0.334607
496 2 0.349847 0.287561 0.309161
497 4 0.372582 0.288761 0.298823
613 2 0.400136 0.327691 0.305212
615 4 0.416702 0.309402 0.309246
614 4 0.383571 0.34598 0.301179
541 2 0.449527 0.298834 0.303416
542 4 0.464249 0.287013 0.287025
543 4 0.434804 0.310656 0.319808
749 4 0.0540811 0.339199 0.29088
365 4 0.00329122 0.347922 0.322494
364 2 0.0210497 0.336794 0.308856
748 2 0.0724301 0.342172 0.274158
735 4 0.162461 0.357835 0.297278
733 2 0.146891 0.340773 0.287704
602 4 0.118002 0.388699 0.317838
777 4 0.12202 0.40503 0.305521
676 2 0.166347 0.397868 0.299864
677 4 0.156196 0.376248 0.292465
678 4 0.176497 0.419487 0.307263
373 2 0.234862 0.356774 0.338817
374 4 0.25411 0.341052 0.33608
307 2 0.310955 0.331275 0.296037
727 2 0.327423 0.381319 0.31952
728 4 0.329485 0.40614 0.317322
308 4 0.308076 0.34646 0.315692
729 4 0.325361 0.356497 0.321717
2924 4 0.49613 0.382422 0.319774
2537 4 0.492011 0.39028 0.298875
118 3 0.495862 0.404835 0.314677
1758 4 0.126499 0.5041 0.291624
1757 4 0.116272 0.455263 0.288303
776 4 0.105988 0.441795 0.275655
775 2 0.114004 0.423412 0.290588
1756 2 0.121385 0.479681 0.289964
768 4 0.19145 0.469179 0.278038
291 4 0.253575 0.440404 0.247769
413 4 0.223975 0.411944 0.298484
412 2 0.240383 0.422167 0.282627
766 2 0.192568 0.488377 0.262058
414 4 0.256791 0.432389 0.26677
3 3 0.282561 0.416192 0.335511
2 3 0.315913 0.423211 0.319666
1435 2 0.259658 0.484789 0.322195
437 4 0.285825 0.459797 0.298052
436 2 0.292405 0.454557 0.274506
1437 4 0.273686 0.47109 0.306681
5 3 0.287059 0.445852 0.312758
1 1 0.297077 0.432927 0.328608
434 4 0.336264 0.427652 0.31003
433 2 0.347794 0.44956 0.313533
435 4 0.359324 0.471468 0.317036
2860 2 0.485353 0.423555 0.252992
714 4 0.433045 0.437188 0.263255
446 4 0.421077 0.42226 0.261111
119 3 0.497845 0.4404 0.32793
2862 4 0.478476 0.432795 0.275185
120 3 0.480629 0.433242 0.295219
713 4 0.457163 0.458106 0.301745
712 2 0.445104 0.447647 0.2825
116 1 0.49785 0.427205 0.308843
428 4 0.0420352 0.0296519 0.338043
427 2 0.0531939 0.00803351 0.343815
606 4 0.175099 0.0106416 0.368739
604 2 0.164124 0.0328776 0.371948
605 4 0.15315 0.0551136 0.375158
683 4 0.217605 0.0487119 0.388149
682 2 0.234031 0.0398541 0.371508
321 4 0.231023 0.0628761 0.391656
319 2 0.227614 0.0756277 0.412891
684 4 0.250457 0.0309963 0.354867
249 4 0.308854 0.0688677 0.355465
247 2 0.330178 0.0815276 0.352272
1749 4 0.48585 0.00375835 0.357441
480 4 0.497178 0.00874973 0.342891
424 2 0.435382 0.0432069 0.348369
426 4 0.450781 0.0559682 0.363375
258 4 0.456389 0.0681202 0.347272
393 4 0.137384 0.154426 0.340449
399 4 0.122089 0.141663 0.343324
732 4 0.105617 0.0934871 0.390033
398 4 0.111862 0.108454 0.379286
397 2 0.116976 0.125058 0.361305
686 4 0.206373 0.125885 0.407163
600 4 0.197241 0.101668 0.347884
685 2 0.197182 0.116777 0.385768
687 4 0.187992 0.107669 0.364372
410 4 0.225298 0.129954 0.412261
707 4 0.260888 0.165298 0.341178
248 4 0.351502 0.0941875 0.349079
633 4 0.370892 0.0989239 0.344498
632 4 0.388584 0.122732 0.384758
631 2 0.379738 0.110828 0.364628
420 4 0.388115 0.142364 0.38477
468 4 0.388802 0.0979106 0.407698
466 2 0.366695 0.0974517 0.41937
256 2 0.459933 0.0916779 0.339679
514 2 0.451756 0.178449 0.403113
515 4 0.466223 0.17527 0.382969
390 4 0.0717093 0.231095 0.39819
274 2 0.155382 0.239739 0.373067
388 2 0.0921691 0.235585 0.384537
389 4 0.112629 0.240076 0.370883
276 4 0.131784 0.232233 0.376523
275 4 0.178981 0.247244 0.369611
474 4 0.179802 0.236786 0.352518
472 2 0.193789 0.220571 0.339611
708 4 0.225825 0.20026 0.33418
651 4 0.222066 0.229526 0.411704
649 2 0.23499 0.209552 0.419399
706 2 0.243357 0.182779 0.337679
717 4 0.335253 0.235359 0.389039
377 4 0.329943 0.239177 0.370013
418 2 0.37753 0.164229 0.378847
419 4 0.366945 0.186094 0.372924
716 4 0.357025 0.190342 0.388659
715 2 0.346139 0.21285 0.388849
269 4 0.478801 0.244393 0.335253
268 2 0.485004 0.251387 0.358444
2654 4 0.99123 0.265047 0.384877
618 4 0.0100972 0.259076 0.390454
616 2 0.0196665 0.268021 0.411752
489 4 0.222461 0.246797 0.422183
487 2 0.226057 0.261934 0.402609
488 4 0.229653 0.27707 0.383035
508 2 0.246182 0.30492 0.351429
509 4 0.240589 0.287286 0.368251
376 2 0.327989 0.258081 0.353765
378 4 0.326036 0.276985 0.337517
498 4 0.327112 0.286361 0.319498
265 2 0.357076 0.322114 0.375522
266 4 0.37714 0.308187 0.380871
585 4 0.370692 0.291418 0.389532
583 2 0.392548 0.282907 0.398197
584 4 0.414404 0.274397 0.406861
270 4 0.491206 0.25838 0.381634
2456 4 0.431641 0.272221 0.395342
2455 2 0.444583 0.266246 0.415884
547 2 0.0895013 0.410704 0.388468
549 4 0.0966531 0.387817 0.381382
601 2 0.114434 0.388522 0.342585
603 4 0.110866 0.388345 0.367332
502 2 0.210353 0.400758 0.371935
504 4 0.214259 0.378991 0.360268
375 4 0.215614 0.372496 0.341554
267 4 0.337011 0.336042 0.370174
2925 4 0.499035 0.343287 0.350769
2923 2 0.497583 0.362855 0.335271
548 4 0.0823494 0.433592 0.395554
407 4 0.0663724 0.442836 0.404917
406 2 0.0453497 0.455517 0.400183
408 4 0.024327 0.468198 0.395448
570 4 0.141366 0.44054 0.424695
774 4 0.165967 0.494182 0.40934
503 4 0.206447 0.422525 0.383602
1436 4 0.245629 0.498489 0.33771
1543 2 0.218565 0.496641 0.360872
1545 4 0.23821 0.485257 0.3504
636 4 0.195845 0.437765 0.392898
634 2 0.18156 0.457211 0.399451
668 4 0.308476 0.4291 0.355833
4 3 0.303274 0.446014 0.346739
667 2 0.318829 0.423865 0.377982
669 4 0.329182 0.41863 0.400131
336 4 0.347845 0.423092 0.406056
752 4 0.486293 0.43283 0.393918
561 4 0.500346 0.426024 0.406621
753 4 0.489831 0.430488 0.344091
751 2 0.488062 0.431659 0.369005
718 2 0.0385602 0.0453941 0.494344
719 4 0.062615 0.0398134 0.490419
369 4 0.065504 0.0570714 0.480226
367 2 0.0814392 0.0585635 0.461016
720 4 0.0145055 0.0509747 0.49827
730 2 0.105906 0.085261 0.413643
731 4 0.106195 0.0770348 0.437253
368 4 0.0973744 0.0600556 0.441806
2430 4 0.191083 0.0722308 0.454656
2428 2 0.190148 0.0483702 0.447241
2429 4 0.189214 0.0245097 0.439826
441 4 0.202184 0.012632 0.451276
725 4 0.227433 0.0834212 0.454187
430 2 0.308212 0.0635541 0.493106
432 4 0.287258 0.0731453 0.483403
726 4 0.272756 0.0821958 0.475284
724 2 0.250094 0.0828085 0.464735
431 4 0.329165 0.0539629 0.502809
2879 4 0.437876 0.0333841 0.425999
2878 2 0.45332 0.0397201 0.444614
2880 4 0.468763 0.046056 0.46323
642 4 0.482312 0.060104 0.466491
640 2 0.49647 0.0802965 0.462368
261 4 0.0973134 0.162188 0.494396
259 2 0.0984185 0.170785 0.470942
409 2 0.230392 0.154362 0.414121
341 4 0.198664 0.087898 0.442769
340 2 0.1963 0.112311 0.447626
1152 4 0.182252 0.144966 0.465843
342 4 0.193936 0.136724 0.452483
1150 2 0.173951 0.140105 0.488922
320 4 0.224206 0.0883792 0.434127
467 4 0.344588 0.0969927 0.431042
516 4 0.437289 0.181628 0.423257
576 4 0.435236 0.127145 0.463001
574 2 0.432455 0.148761 0.450745
575 4 0.429675 0.170376 0.438489
469 2 0.0744803 0.205356 0.425825
470 4 0.0618029 0.215908 0.407034
471 4 0.0871577 0.194803 0.444617
260 4 0.0995236 0.179381 0.447489
411 4 0.235486 0.17877 0.41598
650 4 0.247915 0.189579 0.427094
617 4 0.0292357 0.276967 0.43305
695 4 0.115683 0.279677 0.443205
694 2 0.1371 0.291808 0.438813
696 4 0.158518 0.30394 0.434421
10 3 0.134237 0.329329 0.446087
1260 4 0.177857 0.304043 0.427641
1258 2 0.194681 0.317457 0.440375
1259 4 0.211506 0.330871 0.45311
2457 4 0.457526 0.260271 0.436426
326 4 0.062193 0.40043 0.446539
325 2 0.0843544 0.388854 0.446734
709 2 0.145292 0.400243 0.436263
7 3 0.110912 0.358379 0.443869
327 4 0.106516 0.377277 0.446929
6 1 0.126064 0.347412 0.45726
8 3 0.14336 0.361966 0.462495
9 3 0.11534 0.34055 0.476659
711 4 0.142435 0.378791 0.448787
239 4 0.322917 0.391093 0.505739
335 4 0.361322 0.410483 0.452533
238 2 0.339188 0.399516 0.488724
240 4 0.355459 0.407939 0.47171
2508 4 0.491117 0.375631 0.448905
559 2 0.493494 0.410862 0.425285
560 4 0.486643 0.395701 0.443949
2712 4 0.498836 0.398467 0.499357
1383 4 0.00816131 0.473816 0.433054
540 4 0.0450695 0.444313 0.475811
1381 2 0.0171967 0.460688 0.45232
1382 4 0.0262321 0.447559 0.471586
710 4 0.148148 0.421694 0.423739
384 4 0.15337 0.489647 0.459564
772 2 0.154769 0.500102 0.430898
569 4 0.102989 0.472212 0.429676
382 2 0.159558 0.475422 0.479174
568 2 0.122177 0.456376 0.427185
773 4 0.143571 0.506022 0.452455
635 4 0.167275 0.476658 0.406004
1400 4 0.325493 0.492145 0.451897
1399 2 0.323199 0.478102 0.431338
1401 4 0.320906 0.464058 0.410778
334 2 0.354584 0.416787 0.429294
1059 4 0.0817186 0.0686804 0.576097
1032 4 0.133705 0.047 0.551121
1030 2 0.154635 0.0554901 0.540395
1155 4 0.0988213 0.0792018 0.57672
951 4 0.196375 0.0634606 0.529387
1031 4 0.175564 0.0639802 0.529669
949 2 0.216824 0.0593716 0.515592
1182 4 0.248294 0.0501034 0.517397
950 4 0.237273 0.0552827 0.501797
961 2 0.315785 0.0266634 0.554292
1180 2 0.269382 0.0480875 0.53068
963 4 0.311718 0.0480128 0.541929
1181 4 0.290469 0.0460716 0.543963
962 4 0.319852 0.00531395 0.566654
2195 4 0.301609 0.00234064 0.575979
842 4 0.3918 0.0593577 0.509054
1217 4 0.402335 0.0529919 0.525732
843 4 0.345559 0.056362 0.490252
841 2 0.368679 0.0578598 0.499653
1216 2 0.417891 0.0686043 0.537541
939 4 0.151348 0.143441 0.523061
937 2 0.13157 0.158545 0.520637
1151 4 0.16565 0.135243 0.512001
938 4 0.111791 0.173648 0.518213
858 4 0.268784 0.154958 0.578128
900 4 0.363243 0.168335 0.567752
898 2 0.347219 0.154905 0.581465
1218 4 0.433447 0.0842167 0.54935
1033 2 0.07819 0.184313 0.524546
1035 4 0.0623249 0.193169 0.541723
1082 4 0.0687084 0.200863 0.55932
1034 4 0.0940551 0.175456 0.50737
877 2 0.0858307 0.237138 0.578627
797 4 0.263616 0.174169 0.575301
811 2 0.306413 0.228835 0.529003
812 4 0.28196 0.226606 0.533722
796 2 0.27103 0.193527 0.56132
798 4 0.278444 0.212885 0.547339
813 4 0.330866 0.231063 0.524285
872 4 0.36598 0.175894 0.549403
873 4 0.343283 0.216148 0.530292
871 2 0.354631 0.196021 0.539847
878 4 0.0838133 0.258636 0.56602
954 4 0.41196 0.30886 0.557373
905 4 0.432613 0.261736 0.573643
952 2 0.425408 0.2878 0.556486
953 4 0.438856 0.26674 0.555598
1136 4 0.165256 0.412681 0.573749
1135 2 0.1608 0.389343 0.565962
1137 4 0.156343 0.366004 0.558175
896 4 0.217339 0.342084 0.532111
1191 4 0.231291 0.354133 0.525433
897 4 0.176124 0.35845 0.555223
895 2 0.196732 0.350267 0.543667
1189 2 0.251098 0.341883 0.516335
1190 4 0.270906 0.329632 0.507237
803 4 0.287297 0.33632 0.515974
802 2 0.307909 0.348661 0.522904
804 4 0.328521 0.361002 0.529834
929 4 0.325581 0.352065 0.54736
928 2 0.344924 0.351274 0.563184
925 2 0.48104 0.396868 0.535102
927 4 0.483372 0.392998 0.51051
1001 4 0.467739 0.387546 0.570826
926 4 0.478708 0.400739 0.559693
539 4 0.041632 0.451555 0.525172
936 4 0.0271982 0.45415 0.538423
1938 4 0.053149 0.466414 0.531833
538 2 0.0433508 0.447934 0.500492
1936 2 0.0573274 0.490909 0.534612
934 2 0.00298713 0.457423 0.543742
2243 4 0.159245 0.484133 0.570438
383 4 0.165746 0.461197 0.498783
2244 4 0.170449 0.453662 0.532403
2242 2 0.164847 0.468897 0.551421
1172 4 0.240689 0.462797 0.565478
882 4 0.244434 0.478527 0.554811
880 2 0.261906 0.495307 0.548619
1057 2 0.0696831 0.0552288 0.593399
1185 4 0.020888 0.0713159 0.654354
945 4 0.0411679 0.0711278 0.657905
825 4 0.0667246 0.030748 0.624002
1058 4 0.0576476 0.0417772 0.610702
823 2 0.0742538 0.0140693 0.641041
2283 4 0.46619 0.0146977 0.591496
2282 4 0.465719 0.0390941 0.635146
2281 2 0.465955 0.0268959 0.613321
43 3 0.453892 0.043609 0.651035
41 1 0.47009 0.0585297 0.658343
44 3 0.460418 0.0791288 0.662874
45 3 0.486244 0.0608558 0.642459
810 4 0.49799 0.0762544 0.635405
4467 4 0.45025 0.00413179 0.587056
1198 2 0.0123011 0.155522 0.595617
1153 2 0.11019 0.0981126 0.58848
1154 4 0.121559 0.117023 0.600241
1221 4 0.139236 0.117337 0.610802
1219 2 0.143944 0.115973 0.635321
1220 4 0.148651 0.114608 0.659839
1283 4 0.165826 0.124759 0.660408
1212 4 0.249439 0.119684 0.628898
1210 2 0.265853 0.131839 0.643321
856 2 0.289919 0.148377 0.589753
899 4 0.331196 0.141474 0.595177
857 4 0.311055 0.141795 0.601378
1211 4 0.282266 0.143993 0.657745
1081 2 0.0544179 0.191886 0.577769
1083 4 0.0401274 0.182908 0.596218
1199 4 0.0232703 0.175946 0.604983
1209 4 0.0392631 0.232265 0.659712
879 4 0.0878482 0.21564 0.591234
1272 4 0.095432 0.200653 0.601045
1270 2 0.119184 0.203628 0.608269
1271 4 0.142935 0.206604 0.615493
909 4 0.145795 0.199852 0.633329
907 2 0.167186 0.212797 0.633201
908 4 0.188577 0.225742 0.633072
947 4 0.185511 0.246007 0.633542
1025 4 0.367855 0.196511 0.63793
1024 2 0.388071 0.198869 0.623407
1143 4 0.35737 0.188887 0.654091
1026 4 0.408287 0.201228 0.608884
904 2 0.447847 0.244959 0.584209
906 4 0.463081 0.228182 0.594774
3122 4 0.492091 0.214225 0.68125
946 2 0.188753 0.261705 0.652731
1237 2 0.244491 0.313688 0.587304
1239 4 0.227122 0.331219 0.583283
948 4 0.191995 0.277403 0.67192
792 4 0.277492 0.299316 0.603121
791 4 0.311524 0.303878 0.639476
790 2 0.294508 0.301597 0.621298
1238 4 0.261859 0.296157 0.591326
1205 4 0.397747 0.301135 0.570287
1204 2 0.385902 0.320066 0.581533
983 4 0.0212668 0.40229 0.633131
1041 4 0.039945 0.401374 0.625135
1039 2 0.0609642 0.413202 0.618543
992 4 0.132789 0.391282 0.637103
991 2 0.115646 0.40269 0.622921
993 4 0.098502 0.414099 0.60874
1206 4 0.374058 0.338998 0.592779
930 4 0.364267 0.350483 0.579008
1000 2 0.455402 0.406081 0.582202
1040 4 0.0819835 0.42503 0.61195
1171 2 0.242254 0.448554 0.585969
1173 4 0.243819 0.434312 0.60646
1161 4 0.174247 0.488076 0.584577
1160 4 0.212063 0.472865 0.613548
1159 2 0.193155 0.480471 0.599062
1175 4 0.225442 0.470941 0.628316
1174 2 0.235553 0.491652 0.63801
2170 2 0.172419 0.498357 0.658616
2172 4 0.196902 0.494342 0.66172
889 2 0.330196 0.478897 0.644126
890 4 0.320382 0.471573 0.665926
891 4 0.34001 0.486221 0.622326
1952 4 0.336761 0.502684 0.611643
1911 4 0.409306 0.47826 0.599423
3330 4 0.485552 0.422814 0.658846
1910 4 0.442165 0.440964 0.604905
1002 4 0.443064 0.424616 0.593578
1909 2 0.425735 0.459612 0.602164
3328 2 0.49149 0.433661 0.637115
3329 4 0.497428 0.444508 0.615383
1269 4 0.452185 0.500493 0.660248
943 2 0.0387419 0.0569656 0.678368
944 4 0.0363159 0.0428033 0.698831
1075 2 0.0631202 0.0402586 0.732235
1076 4 0.05254 0.0376099 0.709735
1004 4 0.315356 0.0831792 0.678622
1005 4 0.293549 0.0387502 0.671466
1003 2 0.304453 0.0609647 0.675044
42 3 0.479565 0.0503554 0.677645
1163 4 0.494845 0.0642119 0.679731
32 3 0.0879676 0.154215 0.738753
1282 2 0.169872 0.12247 0.684976
1284 4 0.173919 0.120182 0.709544
1227 4 0.192086 0.127265 0.705314
1225 2 0.206218 0.135016 0.72443
1226 4 0.22035 0.142766 0.743545
1130 4 0.214364 0.160567 0.751494
888 4 0.299447 0.140932 0.667615
886 2 0.297539 0.132917 0.691222
887 4 0.295632 0.124902 0.71483
830 4 0.312206 0.118586 0.723737
829 2 0.332854 0.11125 0.735779
1105 2 0.0264355 0.178819 0.744317
1107 4 0.00858428 0.192145 0.732961
822 4 0.135612 0.230373 0.696759
1278 4 0.143954 0.213103 0.700823
820 2 0.111222 0.234488 0.693103
1276 2 0.15924 0.20903 0.720186
1277 4 0.174526 0.204958 0.73955
1129 2 0.204213 0.183283 0.749019
1131 4 0.194063 0.206 0.746544
977 4 0.301625 0.17978 0.752683
916 2 0.297706 0.216717 0.729785
918 4 0.295997 0.19873 0.747069
917 4 0.299415 0.234703 0.7125
1141 2 0.346555 0.194702 0.675871
1142 4 0.33574 0.200518 0.697652
3123 4 0.443098 0.22233 0.675358
1194 4 0.416137 0.23753 0.742364
3121 2 0.467594 0.218277 0.678304
1262 4 0.415422 0.217337 0.743354
1261 2 0.432212 0.199184 0.747063
1263 4 0.449002 0.181032 0.750772
1207 2 0.0564716 0.243076 0.674278
1208 4 0.07368 0.253887 0.688844
1243 2 0.000203932 0.313171 0.708731
1244 4 0.00300919 0.332213 0.72469
821 4 0.0868323 0.238603 0.689446
1065 4 0.209478 0.28438 0.6743
1064 4 0.190163 0.304231 0.715936
1063 2 0.199821 0.294305 0.695118
1097 4 0.28919 0.252146 0.710115
1096 2 0.271601 0.264885 0.722505
1008 4 0.332143 0.243991 0.72994
1098 4 0.254011 0.277624 0.734895
806 4 0.4143 0.324004 0.741687
1006 2 0.346465 0.252934 0.748381
893 4 0.0810967 0.3424 0.689
892 2 0.0855253 0.3662 0.682747
894 4 0.089954 0.390001 0.676493
941 4 0.158005 0.40482 0.707697
1281 4 0.0907143 0.394 0.697041
1066 2 0.197509 0.40712 0.696588
1067 4 0.17667 0.398063 0.707023
1068 4 0.218349 0.416177 0.686154
1028 4 0.226522 0.411197 0.668605
1230 4 0.382808 0.415965 0.728417
1228 2 0.364968 0.422316 0.71209
2021 4 0.0436565 0.467291 0.727113
2020 2 0.0410148 0.480462 0.706024
2022 4 0.0383731 0.493633 0.684936
1280 4 0.076905 0.435105 0.721948
1983 4 0.024448 0.469261 0.733598
940 2 0.154216 0.415053 0.730193
1279 2 0.0838096 0.414552 0.709494
942 4 0.150427 0.425286 0.75269
2016 4 0.184159 0.495338 0.751938
1027 2 0.251226 0.412928 0.672052
1029 4 0.27593 0.414659 0.6755
1139 4 0.291429 0.424869 0.683668
1138 2 0.302963 0.439564 0.700287
1140 4 0.314496 0.45426 0.716906
1989 4 0.302716 0.447162 0.73216
1229 4 0.347127 0.428667 0.695763
3183 4 0.490268 0.419375 0.677661
1268 4 0.471392 0.457979 0.678257
1267 2 0.461788 0.479236 0.669252
1250 4 0.476507 0.478211 0.750562
1077 4 0.0737003 0.0429074 0.754734
1203 4 0.0658879 0.0342736 0.770319
1201 2 0.0859324 0.0236066 0.780788
2049 4 0.119468 0.00261983 0.783003
1202 4 0.105977 0.0129396 0.791258
1148 4 0.181677 0.0316798 0.755154
1147 2 0.201336 0.0434073 0.765213
1149 4 0.220994 0.0551348 0.775273
1049 4 0.238289 0.0638398 0.784177
1970 4 0.219434 0.997273 0.811182
1048 2 0.256628 0.047633 0.789295
1050 4 0.274967 0.0314262 0.794414
817 2 0.37338 0.0735862 0.815763
819 4 0.375198 0.0812108 0.79202
846 4 0.485631 0.0260861 0.788159
1113 4 0.490168 0.0133789 0.773231
844 2 0.495287 0.0491488 0.788374
1106 4 0.0442867 0.165494 0.755672
832 2 0.0375831 0.134136 0.782885
863 4 0.0145672 0.124344 0.815482
833 4 0.0264722 0.12027 0.800477
33 3 0.0675534 0.145451 0.769069
834 4 0.048694 0.148002 0.765294
31 1 0.0763208 0.162927 0.756574
840 4 0.18674 0.106499 0.787765
838 2 0.209877 0.110452 0.796381
839 4 0.233014 0.114405 0.804997
978 4 0.26719 0.144097 0.759135
959 4 0.238629 0.129553 0.817501
958 2 0.260672 0.123106 0.827387
976 2 0.284408 0.161938 0.755909
831 4 0.353503 0.103914 0.747821
1084 2 0.382605 0.127097 0.791849
1085 4 0.377384 0.102651 0.792408
1086 4 0.387826 0.151543 0.79129
1144 2 0.481302 0.162014 0.767704
1146 4 0.496366 0.154963 0.786373
3270 4 0.502223 0.136121 0.782838
35 3 0.0594761 0.176131 0.748794
1214 4 0.015658 0.236811 0.803063
778 2 0.0586391 0.236304 0.799311
779 4 0.0344453 0.237509 0.793115
780 4 0.0828329 0.2351 0.805507
1073 4 0.106191 0.185254 0.776383
1072 2 0.123801 0.185474 0.794132
1074 4 0.141411 0.185693 0.811881
34 3 0.0908429 0.175479 0.769611
869 4 0.0942082 0.237264 0.822069
1299 4 0.385076 0.170601 0.784265
1297 2 0.396612 0.186077 0.800158
1298 4 0.408149 0.201553 0.816051
47 3 0.401882 0.217022 0.825915