ITEM: TIMESTEP
350000
ITEM: NUMBER OF ATOMS
4590
ITEM: BOX BOUNDS pp pp pp
-9.9985700000000008e+00 9.9985700000000008e+00
-9.9985700000000008e+00 9.9985700000000008e+00
-9.9985700000000008e+00 9.9985700000000008e+00
ITEM: ATOMS id type xs ys zs
463 2 0.0352763 0.050828 0.0497821
465 4 0.0450647 0.0711557 0.0605594
464 4 0.025488 0.0305004 0.0390047
1667 4 0.0725024 0.0341837 0.0685795
534 4 0.205093 0.0446191 0.00756574
1474 2 0.231266 0.00394907 0.0739276
490 2 0.280089 0.0316349 0.0301105
491 4 0.276495 0.055602 0.0362618
492 4 0.283684 0.00766786 0.0239592
296 4 0.375894 0.0611342 0.059307
557 4 0.369876 0.0798341 0.0556359
295 2 0.379387 0.0482713 0.0804617
745 2 0.461132 0.0690929 0.0319679
747 4 0.458354 0.059969 0.00885477
2975 4 0.473801 0.0688095 0.999832
701 4 0.052891 0.0898709 0.0481986
700 2 0.0777845 0.0879819 0.0468113
591 4 0.0411802 0.0948314 0.0663227
421 2 0.0719214 0.160562 0.997695
702 4 0.102678 0.0860928 0.0454239
565 2 0.188572 0.117659 0.0483533
566 4 0.167866 0.119714 0.0344896
567 4 0.209278 0.115604 0.0622171
358 2 0.282318 0.124384 0.0250181
359 4 0.291904 0.121579 0.00209638
360 4 0.272731 0.127189 0.0479399
556 2 0.378107 0.103444 0.0556203
558 4 0.386339 0.127054 0.0556046
746 4 0.46391 0.0782168 0.055081
770 4 0.490016 0.166033 0.0646963
769 2 0.470914 0.16618 0.0485639
553 2 0.0220859 0.212624 0.0186621
555 4 0.0425613 0.210305 0.00450029
554 4 0.00161047 0.214943 0.0328239
422 4 0.0828326 0.181715 0.00535452
666 4 0.312097 0.209846 0.997087
664 2 0.336244 0.211837 0.990911
324 4 0.402672 0.239807 0.0668519
665 4 0.360391 0.213827 0.984736
1071 4 0.371805 0.24933 0.0132381
771 4 0.451811 0.166327 0.0324315
1014 4 0.475925 0.206252 0.98971
828 4 0.419826 0.188596 0.0135736
1012 2 0.500578 0.206873 0.993834
292 2 0.12581 0.312337 0.0442965
293 4 0.144936 0.297221 0.0498528
507 4 0.16531 0.294333 0.0507469
506 4 0.19975 0.261792 0.0347569
483 4 0.245604 0.290829 0.0702301
505 2 0.18253 0.278063 0.0427519
481 2 0.239315 0.312255 0.0589817
482 4 0.233026 0.333682 0.0477333
357 4 0.262504 0.280341 0.998951
571 2 0.311449 0.264736 0.0432452
573 4 0.294001 0.264291 0.0253418
572 4 0.328898 0.265181 0.0611487
322 2 0.411356 0.258375 0.0811695
1069 2 0.393806 0.261061 0.0113678
956 4 0.367569 0.322201 0.000419833
1070 4 0.415808 0.272792 0.00949749
955 2 0.34373 0.329011 0.997181
280 2 0.458825 0.331462 0.030164
281 4 0.457188 0.3206 0.0526251
330 4 0.0477156 0.426309 0.0451503
328 2 0.0382334 0.404353 0.0378584
329 4 0.0287511 0.382396 0.0305664
621 4 0.00460423 0.367335 0.0737357
294 4 0.106684 0.327453 0.0387403
455 4 0.109596 0.381783 0.0733545
252 4 0.307735 0.383216 0.0538849
250 2 0.289738 0.392907 0.0394841
251 4 0.271742 0.402598 0.0250834
608 4 0.315596 0.368799 0.0664211
671 4 0.452034 0.338992 0.0605622
670 2 0.442765 0.33886 0.083784
282 4 0.460463 0.342325 0.00770282
550 2 0.0879393 0.425488 0.0475778
551 4 0.0793819 0.423045 0.070944
552 4 0.0964967 0.427931 0.0242116
242 4 0.149441 0.49125 0.0700349
245 4 0.208453 0.472003 0.0311331
244 2 0.233184 0.469572 0.0338988
246 4 0.257915 0.467142 0.0366646
272 4 0.277699 0.466413 0.0430941
271 2 0.286396 0.489764 0.0410317
227 4 0.485465 0.42215 0.0449695
562 2 0.451399 0.487199 0.0271994
226 2 0.491994 0.446189 0.0471284
564 4 0.452534 0.485297 0.0521047
563 4 0.450264 0.489101 0.00229413
1666 2 0.0650685 0.0252445 0.0907156
19 3 0.0333455 0.0449424 0.156766
20 3 0.0522578 0.0673119 0.133111
1422 4 0.0255337 0.0253209 0.160411
1668 4 0.0576346 0.0163054 0.112852
16 1 0.0519866 0.0585018 0.15411
18 3 0.0713164 0.0462035 0.157786
2480 4 0.0116335 0.0434132 0.156639
450 4 0.168543 0.0620738 0.141208
1506 4 0.237452 0.00990137 0.149296
1475 4 0.229706 0.00692862 0.098704
652 2 0.295219 0.0413044 0.147857
653 4 0.317606 0.0482566 0.156555
654 4 0.272832 0.0343521 0.139159
297 4 0.382879 0.0354083 0.101617
485 4 0.346224 0.000859927 0.11354
758 4 0.428543 0.0647621 0.150527
2723 4 0.505637 0.0844532 0.12995
589 2 0.0371787 0.114144 0.0816913
590 4 0.0331772 0.133456 0.0970598
380 4 0.00161624 0.121349 0.171844
448 2 0.172585 0.0857499 0.148156
237 4 0.197117 0.163627 0.170055
449 4 0.176628 0.109426 0.155104
235 2 0.195257 0.140523 0.160678
236 4 0.193396 0.117419 0.151301
582 4 0.299103 0.0979631 0.151624
254 4 0.389006 0.153155 0.116953
630 4 0.400059 0.169556 0.118267
337 2 0.0709357 0.248207 0.157802
475 2 0.127997 0.177653 0.13845
477 4 0.105376 0.182347 0.148013
476 4 0.150618 0.17296 0.128888
338 4 0.0820042 0.233473 0.174701
737 4 0.186054 0.207782 0.117037
736 2 0.209034 0.214109 0.109483
738 4 0.232014 0.220437 0.101929
354 4 0.245382 0.221343 0.115132
352 2 0.269686 0.223393 0.109628
460 2 0.319757 0.194429 0.0991682
461 4 0.29965 0.208869 0.0956501
353 4 0.29399 0.225442 0.104124
255 4 0.348486 0.182256 0.12042
462 4 0.339864 0.179989 0.102686
253 2 0.368746 0.167706 0.118687
624 4 0.397747 0.253888 0.166603
629 4 0.441724 0.197167 0.116718
628 2 0.420891 0.183361 0.117492
518 4 0.491091 0.22024 0.138234
339 4 0.0598672 0.262941 0.140902
620 4 0.0338895 0.34745 0.109058
704 4 0.00582367 0.278328 0.164644
277 2 0.239088 0.265199 0.151567
279 4 0.215614 0.27065 0.158232
754 2 0.288 0.281809 0.124679
755 4 0.279906 0.26025 0.134418
756 4 0.296095 0.303368 0.114939
278 4 0.262562 0.259747 0.144901
611 4 0.262175 0.328355 0.1471
741 4 0.353569 0.305257 0.0963557
622 2 0.372812 0.252036 0.166537
739 2 0.357927 0.328737 0.103762
623 4 0.347877 0.250184 0.166472
323 4 0.42004 0.276944 0.095487
619 2 0.0192469 0.357393 0.0913969
647 4 0.0767481 0.387617 0.158007
537 4 0.158892 0.34454 0.149934
454 2 0.119033 0.360802 0.0831492
456 4 0.12847 0.339822 0.092944
535 2 0.16316 0.36542 0.136859
626 4 0.212157 0.384674 0.119258
536 4 0.167428 0.386301 0.123783
625 2 0.211192 0.404431 0.103964
609 4 0.30418 0.346039 0.10946
607 2 0.309888 0.357419 0.0879406
612 4 0.30263 0.350746 0.128053
610 2 0.282402 0.339551 0.137576
740 4 0.362286 0.352217 0.111168
387 4 0.342456 0.381375 0.159396
15 3 0.402407 0.367593 0.133435
385 2 0.342161 0.368823 0.137774
386 4 0.341867 0.356271 0.116151
11 1 0.425132 0.366341 0.134224
672 4 0.433497 0.338727 0.107006
13 3 0.432392 0.367955 0.156204
12 3 0.43191 0.346113 0.125621
14 3 0.434446 0.383389 0.121534
495 4 0.426478 0.401302 0.120567
595 2 0.471006 0.389064 0.156529
596 4 0.488839 0.394835 0.13998
627 4 0.210227 0.424187 0.088669
637 2 0.24396 0.48102 0.148369
1439 4 0.232798 0.49454 0.109367
639 4 0.232883 0.493029 0.129442
525 4 0.361604 0.465238 0.0897923
523 2 0.353383 0.487973 0.0834122
658 2 0.370505 0.459145 0.160534
659 4 0.350016 0.445571 0.155937
660 4 0.390993 0.472719 0.165131
493 2 0.431496 0.424519 0.128375
494 4 0.436514 0.447736 0.136183
17 3 0.0510063 0.0755865 0.169482
2479 2 0.00358062 0.04637 0.180124
673 2 0.11022 0.0531417 0.229146
674 4 0.12258 0.0380542 0.244791
675 4 0.0978594 0.0682293 0.213501
1505 4 0.219428 0.0204943 0.194723
1504 2 0.22844 0.0151978 0.172009
689 4 0.209079 0.0234546 0.211911
688 2 0.205716 0.0186997 0.236226
691 2 0.248234 0.0700268 0.203567
693 4 0.249581 0.0466837 0.19471
21 1 0.38963 0.0560492 0.22554
23 3 0.406801 0.0473782 0.238515
24 3 0.369365 0.0467705 0.231993
25 3 0.393534 0.0516524 0.203539
759 4 0.401006 0.0656392 0.19226
22 3 0.388715 0.0788202 0.22867
757 2 0.414775 0.0652007 0.171394
1760 4 0.490395 0.00812648 0.181838
742 2 0.447593 0.0530464 0.230603
743 4 0.453128 0.0694145 0.248675
744 4 0.442059 0.0366783 0.21253
379 2 0.0166958 0.139481 0.180152
381 4 0.0317754 0.157613 0.18846
511 2 0.0399373 0.15672 0.228703
513 4 0.0531997 0.1545 0.249783
512 4 0.0266749 0.15894 0.207623
579 4 0.108809 0.101882 0.204202
577 2 0.101331 0.121417 0.217899
578 4 0.0938532 0.140953 0.231597
692 4 0.246886 0.09337 0.212425
723 4 0.218081 0.099048 0.251257
580 2 0.292924 0.112729 0.170833
581 4 0.286745 0.127494 0.190041
30 3 0.284398 0.122613 0.209234
26 1 0.295443 0.119403 0.22889
28 3 0.280209 0.116756 0.246191
27 3 0.308307 0.100396 0.227335
29 3 0.309297 0.137503 0.233234
312 4 0.426195 0.0949115 0.195669
310 2 0.432044 0.115271 0.182384
311 4 0.437893 0.13563 0.1691
395 4 0.0307662 0.242533 0.196067
363 4 0.0972143 0.2415 0.184134
361 2 0.117544 0.247224 0.197518
284 4 0.262215 0.214649 0.198598
283 2 0.283236 0.213768 0.185088
285 4 0.304257 0.212887 0.171579
764 4 0.380756 0.195406 0.216413
763 2 0.392601 0.217357 0.214679
765 4 0.404446 0.239309 0.212946
520 2 0.46953 0.227983 0.244248
521 4 0.449647 0.220005 0.231356
394 2 0.0207598 0.246591 0.218619
396 4 0.0107534 0.250648 0.241171
750 4 0.111028 0.31379 0.227224
362 4 0.137874 0.252948 0.210902
372 4 0.152027 0.26234 0.22305
300 4 0.106371 0.33263 0.233257
748 2 0.102215 0.294125 0.239904
370 2 0.171105 0.271645 0.236265
371 4 0.190182 0.28095 0.249481
345 4 0.241549 0.303466 0.237104
343 2 0.257472 0.292914 0.22097
344 4 0.273394 0.282363 0.204835
307 2 0.317275 0.286463 0.208939
309 4 0.292733 0.286475 0.204158
308 4 0.341817 0.286452 0.21372
527 4 0.472733 0.289375 0.181901
528 4 0.470586 0.248216 0.210222
526 2 0.471659 0.268795 0.196061
646 2 0.0859323 0.368037 0.170556
648 4 0.0951164 0.348458 0.183105
298 2 0.122332 0.349429 0.242649
303 4 0.288659 0.406123 0.191771
301 2 0.310857 0.399982 0.18204
729 4 0.3122 0.389609 0.240887
302 4 0.333056 0.393841 0.172309
597 4 0.453173 0.383292 0.173077
643 2 0.461095 0.374935 0.20988
644 4 0.461792 0.380594 0.234224
645 4 0.460399 0.369275 0.185535
447 4 0.474996 0.38205 0.249445
263 4 0.0517869 0.442957 0.192347
262 2 0.0420028 0.456608 0.21087
264 4 0.0322187 0.470258 0.229394
417 4 0.139285 0.441763 0.216193
415 2 0.162925 0.43852 0.208725
638 4 0.255037 0.46901 0.167297
416 4 0.186566 0.435276 0.201257
291 4 0.201176 0.440955 0.189392
289 2 0.218511 0.430294 0.203919
290 4 0.235845 0.419632 0.218446
768 4 0.238072 0.487951 0.231276
766 2 0.243059 0.479117 0.208422
414 4 0.195308 0.482697 0.254104
767 4 0.248047 0.470283 0.185569
437 4 0.298721 0.474874 0.246807
231 4 0.396807 0.494015 0.20409
232 2 0.0359288 0.0379914 0.304223
233 4 0.0463531 0.0153565 0.306266
1402 2 0.0831681 0.999651 0.287157
1403 4 0.0606983 0.00723944 0.295075
234 4 0.0255044 0.0606263 0.30218
1464 4 0.135039 0.994565 0.298326
731 4 0.153051 0.0679934 0.332987
690 4 0.202353 0.0139449 0.260542
1701 4 0.243395 0.0355323 0.286057
1699 2 0.261247 0.0196802 0.293486
1700 4 0.279099 0.00382797 0.300915
1518 4 0.351028 0.0175678 0.31706
257 4 0.421886 0.0621557 0.325078
698 4 0.399307 0.0571834 0.328101
697 2 0.377095 0.0457362 0.327234
699 4 0.354883 0.0342891 0.326366
1748 4 0.479552 0.00738892 0.266591
478 2 0.488885 0.0413703 0.330039
480 4 0.477981 0.024479 0.315174
351 4 0.448175 0.0696443 0.267362
349 2 0.439953 0.07342 0.290671
350 4 0.43173 0.0771958 0.31398
530 4 0.0261305 0.138824 0.301257
398 4 0.0790137 0.0962206 0.313684
529 2 0.0073319 0.148492 0.287904
397 2 0.0899313 0.118169 0.31861
399 4 0.100849 0.140117 0.323537
721 2 0.20557 0.120193 0.2559
546 4 0.177059 0.15292 0.25947
722 4 0.193059 0.141337 0.260544
248 4 0.255012 0.0934937 0.301997
249 4 0.237893 0.138491 0.288473
247 2 0.246453 0.115992 0.295235
404 4 0.239814 0.157808 0.290555
403 2 0.2164 0.165874 0.287103
632 4 0.364202 0.113132 0.302655
631 2 0.386425 0.12402 0.30623
633 4 0.408648 0.134908 0.309805
333 4 0.420945 0.116085 0.246019
331 2 0.437615 0.125275 0.262231
332 4 0.454286 0.134464 0.278442
762 4 0.451456 0.153473 0.271611
444 4 0.0236947 0.247768 0.298341
544 2 0.156072 0.164032 0.267296
392 4 0.120054 0.188772 0.275602
391 2 0.105602 0.189865 0.295977
393 4 0.0911512 0.190958 0.316352
545 4 0.135085 0.175145 0.275121
388 2 0.0944816 0.245866 0.333515
405 4 0.192987 0.173941 0.283652
401 4 0.19383 0.246943 0.29653
599 4 0.197276 0.172628 0.330043
706 2 0.308266 0.191782 0.321024
707 4 0.291579 0.20539 0.308313
420 4 0.391376 0.196054 0.304771
418 2 0.401042 0.204611 0.326185
522 4 0.489412 0.235962 0.25714
761 4 0.48402 0.171862 0.30481
760 2 0.467738 0.162667 0.288211
443 4 0.00890615 0.26649 0.254393
442 2 0.0163004 0.257129 0.276367
390 4 0.0748775 0.259048 0.325323
749 4 0.0934018 0.274459 0.252583
400 2 0.215084 0.260109 0.296869
402 4 0.236337 0.273276 0.297208
678 4 0.191612 0.326696 0.324517
509 4 0.252417 0.317209 0.323895
496 2 0.310546 0.295761 0.307783
497 4 0.308795 0.279296 0.289047
498 4 0.312298 0.312225 0.326519
615 4 0.404955 0.321961 0.315733
543 4 0.419931 0.321187 0.330366
541 2 0.438097 0.310449 0.316955
542 4 0.456264 0.299712 0.303543
366 4 0.0101206 0.366026 0.264822
364 2 0.0224017 0.349972 0.279541
365 4 0.0346829 0.333919 0.29426
603 4 0.091794 0.378074 0.316405
299 4 0.138293 0.366229 0.25204
601 2 0.0916 0.397751 0.30098
734 4 0.150635 0.378776 0.261229
733 2 0.160198 0.380679 0.284253
735 4 0.169762 0.382582 0.307277
677 4 0.184083 0.375853 0.319262
676 2 0.187847 0.351275 0.321889
433 2 0.321468 0.39468 0.317263
727 2 0.324246 0.382795 0.261711
434 4 0.332931 0.390385 0.295461
613 2 0.389126 0.337047 0.327859
728 4 0.336292 0.375981 0.282534
445 2 0.456296 0.37797 0.265534
446 4 0.437596 0.373889 0.281622
119 3 0.482379 0.418587 0.318929
549 4 0.0550507 0.463017 0.334001
602 4 0.091406 0.417428 0.285554
777 4 0.104717 0.431195 0.284037
775 2 0.0960073 0.454045 0.289251
776 4 0.0872972 0.476895 0.294466
412 2 0.180845 0.476856 0.273646
413 4 0.166382 0.471014 0.293188
436 2 0.309151 0.464093 0.266811
438 4 0.319581 0.453312 0.286815
713 4 0.423274 0.455222 0.275966
712 2 0.431227 0.454565 0.299662
714 4 0.43918 0.453908 0.323358
593 4 0.421355 0.494502 0.333857
316 2 0.0542292 0.085591 0.357238
317 4 0.0559747 0.0611528 0.362228
428 4 0.0538406 0.0407129 0.362436
427 2 0.0712017 0.0297139 0.348196
1780 2 0.124173 0.994526 0.370027
429 4 0.0885628 0.0187149 0.333955
1782 4 0.115381 0.0161112 0.379081
606 4 0.174412 0.0398283 0.360871
604 2 0.197801 0.0473836 0.365461
605 4 0.22119 0.0549388 0.370051
683 4 0.295568 0.0604875 0.368325
682 2 0.280004 0.0740519 0.38243
684 4 0.26444 0.0876163 0.396535
424 2 0.405896 0.0175655 0.386328
425 4 0.389888 0.0104625 0.404174
426 4 0.421903 0.0246686 0.368482
256 2 0.427406 0.0523662 0.347414
479 4 0.499788 0.0582616 0.344905
258 4 0.432926 0.0425767 0.369749
2586 4 0.0164732 0.08248 0.381578
318 4 0.0524837 0.110029 0.352247
732 4 0.1308 0.111888 0.341868
730 2 0.141925 0.0899408 0.337428
687 4 0.160247 0.142543 0.3916
685 2 0.174959 0.153994 0.408262
600 4 0.194706 0.129728 0.355611
598 2 0.195991 0.151178 0.342827
320 4 0.251824 0.10164 0.403126
451 2 0.483006 0.166028 0.370575
453 4 0.459636 0.173718 0.375035
514 2 0.431723 0.158048 0.400514
515 4 0.444733 0.160445 0.379297
2653 2 0.0096911 0.222301 0.383206
2654 4 0.0334716 0.219213 0.390286
260 4 0.109299 0.220233 0.419681
389 4 0.114086 0.232685 0.341706
474 4 0.243699 0.200766 0.359627
275 4 0.178573 0.266548 0.38314
708 4 0.324953 0.178174 0.333735
472 2 0.268607 0.202649 0.358535
473 4 0.293516 0.204532 0.357442
488 4 0.29928 0.21834 0.398122
487 2 0.301219 0.240499 0.409541
468 4 0.347087 0.173859 0.400858
715 2 0.370538 0.241528 0.370876
716 4 0.359852 0.222348 0.358913
419 4 0.410707 0.213168 0.347598
304 2 0.486883 0.209355 0.407371
306 4 0.469721 0.227513 0.408334
616 2 0.0762049 0.320935 0.376463
618 4 0.0643279 0.304761 0.39138
347 4 0.0538588 0.292439 0.403187
346 2 0.0583129 0.29179 0.427782
617 4 0.0880819 0.337108 0.361545
274 2 0.200803 0.263216 0.39409
276 4 0.223033 0.259885 0.405039
508 2 0.234916 0.313421 0.341346
510 4 0.217414 0.309634 0.358796
373 2 0.19996 0.321072 0.400386
374 4 0.211804 0.29924 0.403257
376 2 0.31108 0.297692 0.364464
377 4 0.321554 0.275002 0.363667
378 4 0.300607 0.320383 0.365261
717 4 0.381223 0.260708 0.38284
269 4 0.492762 0.276159 0.376979
268 2 0.480278 0.261504 0.392934
270 4 0.467793 0.24685 0.408889
406 2 0.0685449 0.414032 0.391648
407 4 0.0696873 0.414598 0.366677
375 4 0.188115 0.342905 0.397515
435 4 0.310005 0.398974 0.339065
614 4 0.373298 0.352133 0.339986
336 4 0.368032 0.384355 0.397979
561 4 0.464834 0.392816 0.385097
752 4 0.449552 0.403589 0.376651
559 2 0.465756 0.384058 0.408499
751 2 0.46241 0.411343 0.356658
2461 2 0.0101246 0.497514 0.357622
2463 4 0.0278303 0.485596 0.344597
547 2 0.0538026 0.440062 0.343834
408 4 0.0674026 0.413466 0.416619
548 4 0.0525545 0.417107 0.353667
499 2 0.124561 0.479837 0.368631
501 4 0.129981 0.455476 0.367101
503 4 0.249695 0.41222 0.405965
668 4 0.314996 0.438414 0.400769
5 3 0.285861 0.468476 0.378373
1 1 0.306699 0.461279 0.37266
2 3 0.322304 0.476231 0.380537
4 3 0.310772 0.440495 0.38214
3 3 0.308564 0.459956 0.34957
592 2 0.397356 0.500346 0.337734
753 4 0.475269 0.419096 0.336665
718 2 0.0558546 0.072365 0.480188
720 4 0.0402419 0.0751364 0.499521
719 4 0.0714673 0.0695936 0.460856
2237 4 0.0128068 0.0245212 0.489307
367 2 0.122259 0.0353795 0.451373
369 4 0.11657 0.0559938 0.464329
368 4 0.127947 0.0147652 0.438416
1181 4 0.234646 0.0563918 0.473959
1180 2 0.243384 0.0784918 0.481733
341 4 0.18266 0.0336822 0.4836
342 4 0.203249 0.0743861 0.504094
340 2 0.192955 0.0540341 0.493847
441 4 0.255081 0.0215263 0.43353
439 2 0.274707 0.00659609 0.429394
726 4 0.311576 0.0619833 0.456255
724 2 0.328392 0.0757315 0.443871
2879 4 0.502072 0.0560611 0.435859
2878 2 0.491414 0.0748656 0.448428
458 4 0.0386258 0.161328 0.441098
457 2 0.0139321 0.161679 0.445007
1182 4 0.252121 0.100592 0.489506
321 4 0.255113 0.137429 0.437897
319 2 0.253469 0.119535 0.420512
725 4 0.345209 0.0894796 0.431486
574 2 0.387612 0.153178 0.450841
576 4 0.365071 0.152738 0.461653
516 4 0.418713 0.155651 0.421731
642 4 0.493163 0.109435 0.468976
2880 4 0.480756 0.0936702 0.460997
640 2 0.489509 0.132682 0.477425
641 4 0.485855 0.15593 0.485874
471 4 0.0635977 0.184069 0.479729
469 2 0.049499 0.20439 0.483401
470 4 0.0354004 0.22471 0.487074
261 4 0.10058 0.227718 0.46835
259 2 0.10494 0.223975 0.444016
1035 4 0.0937796 0.202868 0.478663
695 4 0.118283 0.236581 0.466231
1033 2 0.100012 0.180016 0.486671
686 4 0.189671 0.165446 0.424923
411 4 0.258359 0.215543 0.467334
409 2 0.282687 0.217221 0.472854
410 4 0.307016 0.218899 0.478375
575 4 0.410153 0.153619 0.44003
467 4 0.364386 0.205981 0.435057
466 2 0.355737 0.18992 0.417958
348 4 0.0627671 0.29114 0.452377
694 2 0.12486 0.253078 0.483831
10 3 0.167794 0.326777 0.477556
489 4 0.303158 0.262658 0.42096
651 4 0.297154 0.264718 0.440082
649 2 0.27717 0.278459 0.446168
650 4 0.257187 0.292199 0.452255
266 4 0.321105 0.302367 0.4278
812 4 0.313593 0.298701 0.500486
265 2 0.342758 0.292055 0.434873
267 4 0.36441 0.281743 0.441945
583 2 0.47083 0.27734 0.456463
584 4 0.492127 0.289814 0.452457
585 4 0.449534 0.264867 0.460469
681 4 0.0341809 0.404869 0.428616
326 4 0.0955468 0.345301 0.434363
7 3 0.132277 0.336493 0.483641
327 4 0.113017 0.340772 0.481
325 2 0.104282 0.343037 0.457681
6 1 0.154219 0.341512 0.488384
8 3 0.158686 0.363126 0.481224
711 4 0.178514 0.364584 0.47462
504 4 0.216863 0.392984 0.43841
709 2 0.189149 0.382848 0.46126
710 4 0.199785 0.401112 0.4479
772 2 0.231408 0.409316 0.492435
502 2 0.233279 0.402602 0.422187
334 2 0.366681 0.377942 0.422109
238 2 0.392261 0.371263 0.482728
240 4 0.37744 0.373239 0.462687
335 4 0.365331 0.371528 0.446238
560 4 0.466677 0.375301 0.4319
383 4 0.0739223 0.432644 0.465711
934 2 0.00951092 0.445663 0.503775
680 4 0.0258819 0.452388 0.441799
1381 2 0.0256239 0.490651 0.44181
1383 4 0.0359027 0.46922 0.434049
679 2 0.0300314 0.428629 0.435207
935 4 0.00394581 0.421536 0.507254
936 4 0.015076 0.46979 0.500297
570 4 0.137854 0.482915 0.423446
538 2 0.0912446 0.504844 0.498229
540 4 0.113531 0.503631 0.486959
568 2 0.135998 0.468337 0.443676
569 4 0.134142 0.453759 0.463905
382 2 0.0985578 0.435426 0.468957
384 4 0.123193 0.438208 0.472202
635 4 0.212427 0.438516 0.468341
634 2 0.229104 0.454405 0.458614
636 4 0.24578 0.470294 0.448886
774 4 0.216983 0.426655 0.481643
669 4 0.31987 0.445133 0.450083
667 2 0.317433 0.441773 0.425426
1401 4 0.365537 0.499797 0.444382
586 2 0.395312 0.440851 0.434319
588 4 0.37668 0.432576 0.448795
587 4 0.413944 0.449125 0.419842
1126 2 0.0286744 0.0562675 0.528324
1127 4 0.0288871 0.0584595 0.503418
1128 4 0.0284618 0.0540755 0.553231
2236 2 0.0095261 0.00598306 0.505761
1058 4 0.130205 0.0702922 0.536933
1057 2 0.135181 0.0822017 0.558347
2430 4 0.191869 0.0190918 0.493645
1152 4 0.18669 0.0805636 0.513988
1030 2 0.245413 0.0737136 0.578589
961 2 0.291156 0.0247113 0.519346
962 4 0.287645 0.00133069 0.527482
432 4 0.298624 0.0679149 0.510834
963 4 0.294667 0.048092 0.51121
1217 4 0.408534 0.0538421 0.54192
841 2 0.377176 0.0802962 0.525951
842 4 0.397199 0.0664122 0.531564
1216 2 0.419433 0.0326483 0.549485
1218 4 0.430331 0.0114546 0.55705
937 2 0.104877 0.146213 0.567256
939 4 0.112708 0.123904 0.559121
1151 4 0.149563 0.1134 0.520632
1150 2 0.168126 0.0969816 0.51731
1034 4 0.106245 0.157164 0.494678
430 2 0.317663 0.0831924 0.516245
1032 4 0.238995 0.097874 0.578076
899 4 0.31524 0.140453 0.578934
898 2 0.32564 0.145618 0.556791
431 4 0.336703 0.0984698 0.521655
843 4 0.357153 0.0941802 0.520338
900 4 0.336041 0.150783 0.534647
877 2 0.0622999 0.208887 0.579994
878 4 0.0412103 0.2083 0.566575
1199 4 0.0112172 0.197098 0.562398
938 4 0.0970456 0.168521 0.57539
857 4 0.253103 0.189127 0.533678
856 2 0.25561 0.213062 0.540462
858 4 0.258117 0.236996 0.547247
791 4 0.324267 0.244609 0.567328
872 4 0.41439 0.244933 0.509464
3159 4 0.485223 0.178419 0.539054
1258 2 0.154648 0.277319 0.529435
1260 4 0.145726 0.28308 0.506799
696 4 0.131436 0.269576 0.501431
1259 4 0.163571 0.271558 0.552071
811 2 0.33515 0.289602 0.509298
790 2 0.30986 0.255736 0.584468
813 4 0.356708 0.280503 0.51811
871 2 0.392293 0.256622 0.50893
873 4 0.370197 0.268311 0.508397
953 4 0.456025 0.308471 0.56939
983 4 0.0325994 0.31084 0.575776
1137 4 0.125386 0.372494 0.563425
1135 2 0.115609 0.350796 0.571091
9 3 0.157492 0.339924 0.511301
1189 2 0.237447 0.347603 0.564237
773 4 0.245833 0.391978 0.503228
896 4 0.1993 0.347323 0.578392
1191 4 0.216335 0.337695 0.573254
895 2 0.181237 0.364493 0.580418
1190 4 0.258559 0.35751 0.555219
802 2 0.267559 0.3822 0.526418
803 4 0.2716 0.363773 0.542829
804 4 0.263517 0.400626 0.510007
928 2 0.352513 0.390737 0.570204
929 4 0.345684 0.382485 0.547611
239 4 0.407081 0.369287 0.502768
925 2 0.475078 0.381806 0.526298
927 4 0.464531 0.404195 0.529856
926 4 0.485625 0.359417 0.52274
539 4 0.0689582 0.506057 0.5095
1161 4 0.16862 0.43325 0.581339
1171 2 0.234939 0.458453 0.550867
1173 4 0.228935 0.480276 0.540243
1172 4 0.240944 0.43663 0.56149
882 4 0.312119 0.44973 0.52163
880 2 0.323989 0.470732 0.528203
881 4 0.335859 0.491734 0.534776
1952 4 0.340299 0.499178 0.553131
1951 2 0.346672 0.494333 0.576819
1002 4 0.425609 0.464877 0.577193
1000 2 0.424373 0.44766 0.559104
1001 4 0.423137 0.430443 0.541014
662 4 0.490736 0.50121 0.522722
661 2 0.476148 0.480961 0.524249
663 4 0.461559 0.460712 0.525776
945 4 0.0634985 0.013414 0.64728
944 4 0.0590052 0.0624446 0.656028
943 2 0.0612519 0.0379293 0.651654
1185 4 0.00895028 0.0457816 0.622356
1183 2 0.00631889 0.0465417 0.647209
825 4 0.140429 0.0276347 0.627255
823 2 0.144173 0.00298507 0.625367
1031 4 0.251831 0.0495532 0.579102
951 4 0.252726 0.0437393 0.598275
1283 4 0.193358 0.0828283 0.653136
949 2 0.263236 0.0212513 0.595273
950 4 0.273746 0.998763 0.59227
4467 4 0.465958 0.999437 0.599728
2283 4 0.438265 0.999556 0.637512
808 2 0.478073 0.0843066 0.634837
810 4 0.466631 0.0715477 0.653044
45 3 0.448768 0.0806887 0.659622
1083 4 0.0622745 0.122007 0.608299
1082 4 0.0514449 0.0962141 0.649749
1081 2 0.0568597 0.109111 0.629024
1059 4 0.140156 0.0941112 0.579762
1153 2 0.162057 0.126571 0.590756
1155 4 0.151765 0.104683 0.597093
1284 4 0.164942 0.102628 0.617064
1154 4 0.172349 0.148459 0.584419
1282 2 0.17915 0.0927281 0.6351
1005 4 0.32725 0.0906086 0.667965
809 4 0.489515 0.0970656 0.616631
1244 4 0.0393062 0.231328 0.639219
909 4 0.166446 0.165424 0.657112
879 4 0.0833895 0.209475 0.593413
1272 4 0.0984138 0.205603 0.606942
1270 2 0.107669 0.195629 0.62792
1271 4 0.116925 0.185656 0.648897
1207 2 0.11054 0.256957 0.657478
1221 4 0.181059 0.178252 0.599692
797 4 0.226491 0.249115 0.576078
1212 4 0.208545 0.162113 0.65848
1210 2 0.224993 0.179172 0.666457
1219 2 0.18926 0.176245 0.623227
1220 4 0.197461 0.174237 0.646762
796 2 0.240694 0.241476 0.595186
798 4 0.254898 0.233836 0.614293
904 2 0.488217 0.219072 0.609712
906 4 0.468731 0.224483 0.624416
1024 2 0.436969 0.206239 0.641919
1025 4 0.445775 0.229637 0.641528
1026 4 0.428163 0.182841 0.642311
982 2 0.0223815 0.321664 0.595866
1243 2 0.0368851 0.254101 0.649254
1245 4 0.0344639 0.276875 0.659289
984 4 0.0121636 0.332489 0.615955
3263 4 0.00638269 0.3261 0.634858
1209 4 0.128932 0.271691 0.649122
948 4 0.167903 0.278219 0.619487
1136 4 0.105832 0.329097 0.578758
946 2 0.190303 0.268948 0.62561
947 4 0.212702 0.259677 0.631733
792 4 0.295452 0.266864 0.601608
1238 4 0.296502 0.286335 0.601958
1237 2 0.285276 0.3084 0.605465
1239 4 0.274051 0.330465 0.608972
954 4 0.427884 0.297433 0.609227
952 2 0.441954 0.302952 0.589309
3123 4 0.474856 0.281721 0.646742
3121 2 0.487169 0.262405 0.656766
1039 2 0.0599558 0.411151 0.611423
1041 4 0.040521 0.417519 0.597038
1040 4 0.0793906 0.404783 0.625807
897 4 0.163174 0.381662 0.582443
992 4 0.130618 0.400887 0.634625
991 2 0.106572 0.405544 0.63965
993 4 0.0825249 0.410201 0.644675
806 4 0.34597 0.351641 0.664427
930 4 0.359341 0.39899 0.592797
1204 2 0.380642 0.39714 0.624396
1206 4 0.372971 0.4084 0.60343
1205 4 0.388313 0.38588 0.645361
2129 4 0.00156919 0.498491 0.643124
1159 2 0.151109 0.449591 0.588517
1160 4 0.133598 0.465932 0.595694
2172 4 0.098292 0.493858 0.645683
889 2 0.325115 0.446602 0.617154
891 4 0.307055 0.463893 0.616874
890 4 0.343174 0.429311 0.617435
1953 4 0.353045 0.489488 0.600506
1269 4 0.421856 0.499919 0.636442
1267 2 0.42813 0.500113 0.660645
1147 2 0.208767 0.0875854 0.752183
1163 4 0.475576 0.0517252 0.694673
42 3 0.439861 0.0616796 0.69048
2321 4 0.48876 0.0147729 0.738466
1076 4 0.0485775 0.0799714 0.661098
862 2 0.0360654 0.0932479 0.736922
864 4 0.0458018 0.103047 0.716081
1075 2 0.0424814 0.0944804 0.680528
1077 4 0.0363853 0.108989 0.699957
907 2 0.167474 0.143547 0.669174
908 4 0.168503 0.12167 0.681237
1227 4 0.170985 0.127537 0.700071
1148 4 0.212213 0.0995539 0.730503
1225 2 0.192018 0.123287 0.712905
1226 4 0.213052 0.119037 0.725739
829 2 0.324941 0.156616 0.712047
43 3 0.418179 0.0902965 0.679361
1004 4 0.363427 0.116392 0.690924
1003 2 0.345338 0.1035 0.679444
831 4 0.339095 0.137542 0.719861
41 1 0.439976 0.0824327 0.680558
44 3 0.452892 0.0968128 0.693396
3425 4 0.493152 0.120541 0.68531
851 4 0.0566643 0.18612 0.703637
852 4 0.0258547 0.224739 0.711386
850 2 0.0412595 0.205429 0.707511
1107 4 0.0648036 0.178243 0.720987
1178 4 0.0111934 0.238055 0.715418
1215 4 0.00599899 0.236419 0.735286
1177 2 0.99722 0.251256 0.699428
1105 2 0.076023 0.16736 0.740502
1208 4 0.0921486 0.242222 0.665833
1211 4 0.241441 0.196231 0.674434
830 4 0.310787 0.175689 0.704233
886 2 0.278944 0.196182 0.685686
888 4 0.260694 0.202736 0.669902
887 4 0.297195 0.189628 0.70147
916 2 0.299415 0.251267 0.749411
1142 4 0.39828 0.172671 0.727524
1193 4 0.347822 0.214519 0.66679
1192 2 0.36194 0.214036 0.68742
1194 4 0.376059 0.213553 0.70805
1262 4 0.403925 0.232591 0.729611
3122 4 0.499483 0.24309 0.66679
3356 4 0.480731 0.234047 0.732797
3355 2 0.489431 0.238597 0.709801
1141 2 0.419274 0.184588 0.721012
1143 4 0.440268 0.196505 0.714501
1261 2 0.42674 0.242694 0.731213
1145 4 0.495737 0.223007 0.740009
821 4 0.152343 0.256271 0.725245
820 2 0.164675 0.261757 0.746292
1065 4 0.223187 0.271568 0.729097
1063 2 0.242283 0.275059 0.713338
1064 4 0.261379 0.278549 0.697579
917 4 0.296158 0.273527 0.738499
1263 4 0.449556 0.252796 0.732814
3274 2 0.0148062 0.387521 0.729772
892 2 0.0558695 0.404427 0.6898
893 4 0.0750625 0.420226 0.687117
894 4 0.0366764 0.388628 0.692482
3276 4 0.0282427 0.394905 0.710021
940 2 0.141148 0.406569 0.734498
941 4 0.162557 0.418799 0.73035
942 4 0.119738 0.394338 0.738646
815 4 0.100945 0.384553 0.73357
1067 4 0.172166 0.41081 0.714737
1028 4 0.215531 0.370518 0.679986
1066 2 0.184887 0.395587 0.699518
1068 4 0.197608 0.380364 0.684299
1027 2 0.238777 0.379522 0.678053
1236 4 0.219637 0.357031 0.753348
1029 4 0.262022 0.388526 0.676119
807 4 0.354358 0.352157 0.713723
805 2 0.350164 0.351899 0.689075
1019 4 0.393858 0.390957 0.735407
1018 2 0.377126 0.375078 0.745054
1281 4 0.0192401 0.462422 0.735373
1280 4 0.0252764 0.427345 0.700246
1279 2 0.0222583 0.444883 0.71781
1983 4 0.0283215 0.474151 0.748899
1981 2 0.0414442 0.494908 0.744197
2016 4 0.130461 0.488696 0.735894
1079 4 0.124491 0.495019 0.754128
1176 4 0.187425 0.482938 0.72631
1174 2 0.208148 0.482569 0.712325
1175 4 0.228871 0.482201 0.698339
1987 2 0.333423 0.501439 0.737522
1139 4 0.284758 0.409973 0.699621
1138 2 0.293775 0.432733 0.704706
1140 4 0.302791 0.455494 0.70979
1228 2 0.351813 0.449961 0.713331
1229 4 0.356042 0.474536 0.715168
1230 4 0.347584 0.425386 0.711494
1989 4 0.3483 0.494135 0.718801
1250 4 0.488972 0.48816 0.751819
3329 4 0.503738 0.480725 0.741532
1100 4 0.482596 0.442505 0.717022
1099 2 0.471783 0.461189 0.704406
1101 4 0.46097 0.479873 0.69179
1268 4 0.434404 0.500308 0.684848
2168 4 0.451233 0.497401 0.693987
911 4 0.0871327 0.0445018 0.824726
1202 4 0.0951336 0.026831 0.76657
910 2 0.100226 0.063784 0.833778
1203 4 0.0896412 0.0764902 0.768695
1201 2 0.0923874 0.0516606 0.767633
2049 4 0.104875 0.0137363 0.776575
1149 4 0.20532 0.0756169 0.773864
1257 4 0.270664 0.0934423 0.814493
1255 2 0.279633 0.0710741 0.821156
1048 2 0.326155 0.000558038 0.748602
975 4 0.367299 0.010308 0.824951
1050 4 0.342448 0.0118621 0.763831
846 4 0.474098 0.0527889 0.780971
1113 4 0.433827 0.0546341 0.814295
844 2 0.468396 0.0285647 0.783389
1111 2 0.447132 0.0694011 0.829464
845 4 0.462693 0.00434044 0.785807
834 4 0.995153 0.103528 0.815484
863 4 0.026329 0.0834492 0.757764
832 2 0.00350507 0.0949432 0.793536
833 4 0.0118567 0.0863587 0.771587
34 3 0.0952223 0.159447 0.81529
31 1 0.104249 0.159652 0.793916