ITEM: TIMESTEP
1640000
ITEM: NUMBER OF ATOMS
4590
ITEM: BOX BOUNDS pp pp pp
-9.9985700000000008e+00 9.9985700000000008e+00
-9.9985700000000008e+00 9.9985700000000008e+00
-9.9985700000000008e+00 9.9985700000000008e+00
ITEM: ATOMS id type xs ys zs
463 2 0.0606202 0.0731969 0.00371089
464 4 0.0631698 0.0488248 0.00867857
1666 2 0.0704272 0.0236702 0.0797469
1668 4 0.0679865 0.0399726 0.0609465
3290 4 0.0716316 0.0327209 0.000120196
591 4 0.0290206 0.0776643 0.0542784
589 2 0.0312951 0.0830765 0.078583
1474 2 0.237427 0.0133266 0.0575389
565 2 0.180804 0.0749479 0.0529425
566 4 0.160784 0.0651501 0.041611
490 2 0.275676 0.0336762 0.020452
492 4 0.262039 0.0359686 0.0412832
1475 4 0.243103 0.0298656 0.0396664
745 2 0.461084 0.0758501 0.0171561
2724 4 0.48125 0.0274445 0.0676049
1826 4 0.491616 0.0295398 0.0511096
1825 2 0.503995 0.0080447 0.0542546
2722 2 0.468657 0.0428612 0.0827348
465 4 0.0580707 0.097569 0.998743
701 4 0.0392045 0.101399 0.00513635
700 2 0.0386764 0.125031 0.0132869
702 4 0.0381482 0.148663 0.0214375
2760 4 0.00766417 0.124445 0.0295509
567 4 0.200823 0.0847457 0.0642739
1133 4 0.20132 0.136765 0.00946274
360 4 0.203959 0.149967 0.0231708
358 2 0.213381 0.136875 0.042276
359 4 0.222803 0.123783 0.0613813
747 4 0.466689 0.0903709 0.0367243
828 4 0.422644 0.158857 0.00777357
555 4 0.0396816 0.167267 0.0311143
553 2 0.030891 0.187921 0.020099
422 4 0.0802258 0.205411 0.0409105
554 4 0.0221005 0.208574 0.00908365
423 4 0.097628 0.172186 0.0078351
421 2 0.0889269 0.188798 0.0243728
737 4 0.208701 0.244398 0.0340915
736 2 0.218466 0.22778 0.0500178
354 4 0.240714 0.194369 0.0713676
738 4 0.228232 0.211161 0.065944
352 2 0.261132 0.180113 0.0691319
353 4 0.281551 0.165856 0.0668961
755 4 0.294975 0.255493 0.0855869
254 4 0.39909 0.232321 0.0780698
630 4 0.415832 0.225254 0.0721677
253 2 0.376278 0.237855 0.0866815
1056 4 0.079044 0.314913 4.25764e-05
506 4 0.195688 0.254718 0.0212848
507 4 0.193259 0.304657 0.0222531
293 4 0.175979 0.306436 0.0322248
292 2 0.165492 0.3233 0.0474173
505 2 0.194474 0.279688 0.0217689
481 2 0.297601 0.29916 0.0147157
482 4 0.298419 0.296 0.0395053
756 4 0.338371 0.27341 0.0683699
754 2 0.316673 0.264452 0.0769784
1071 4 0.379835 0.259006 0.0113988
323 4 0.407983 0.272999 0.0282411
573 4 0.389039 0.272638 0.0215244
571 2 0.380346 0.282091 0.0429781
572 4 0.371654 0.291544 0.0644318
741 4 0.368164 0.306134 0.0755128
322 2 0.431025 0.264636 0.0233083
324 4 0.454066 0.256272 0.0183755
1170 4 0.078384 0.331218 0.0131016
1168 2 0.0616787 0.349188 0.00828633
456 4 0.160492 0.354709 0.0745515
454 2 0.159712 0.378234 0.0661174
455 4 0.158932 0.401759 0.0576833
294 4 0.155006 0.340164 0.0626098
607 2 0.23457 0.351407 0.0736055
608 4 0.24372 0.371528 0.0619186
252 4 0.259323 0.383109 0.0561778
250 2 0.277227 0.400301 0.0531665
251 4 0.29513 0.417493 0.0501552
524 4 0.314799 0.419367 0.0522555
226 2 0.396775 0.379069 0.0287142
228 4 0.39665 0.384014 0.0532237
671 4 0.409271 0.373795 0.0639404
227 4 0.3969 0.374124 0.00420478
281 4 0.423928 0.345929 0.0552748
280 2 0.448855 0.347541 0.054165
282 4 0.473782 0.349153 0.0530553
104 3 0.483397 0.360438 0.0664967
1045 2 0.484949 0.372475 0.009422
1047 4 0.491203 0.352045 0.0224109
103 3 0.503216 0.346615 0.0371619
1046 4 0.478695 0.392904 0.996433
552 4 0.0150764 0.4389 0.0372702
314 4 0.0279859 0.433801 0.05183
313 2 0.0340672 0.424672 0.0742989
550 2 0.992195 0.44887 0.0387667
795 4 0.159238 0.47638 0.0063724
1440 4 0.249259 0.486331 0.0918763
246 4 0.23727 0.495776 0.00874943
244 2 0.227144 0.474376 0.000707487
243 4 0.228655 0.487685 0.062758
272 4 0.246222 0.48976 0.0536232
1559 4 0.312318 0.487225 0.0839231
523 2 0.327073 0.418661 0.0740272
37 3 0.31861 0.467808 0.986288
20 3 0.0674107 0.000502803 0.150784
1667 4 0.0728679 0.00736772 0.0985472
19 3 0.0380923 0.0212672 0.139518
1422 4 0.0269355 0.0181404 0.159888
16 1 0.0600775 0.0153024 0.135105
17 3 0.0610869 0.00546009 0.114338
2480 4 0.0181863 0.0322474 0.14603
18 3 0.0735638 0.0341842 0.13512
653 4 0.230917 0.0594709 0.164727
652 2 0.239717 0.0522205 0.142474
1661 4 0.328994 0.00288359 0.163045
654 4 0.248517 0.0449701 0.120222
484 2 0.335839 0.0140776 0.124951
297 4 0.360621 0.0409898 0.102617
485 4 0.346803 0.0261387 0.10599
295 2 0.381418 0.0538428 0.0973769
296 4 0.402215 0.0666958 0.0921371
758 4 0.389967 0.0962574 0.162551
557 4 0.414521 0.0743094 0.105892
1759 2 0.449666 0.00175631 0.146603
2723 4 0.456063 0.0582779 0.0978648
1760 4 0.463634 0.0224907 0.146188
590 4 0.0335696 0.0884887 0.102888
237 4 0.125124 0.151516 0.135356
235 2 0.134496 0.138148 0.154295
556 2 0.427552 0.0948703 0.100182
771 4 0.435922 0.131315 0.106024
558 4 0.440584 0.115431 0.0944725
769 2 0.451859 0.150135 0.101902
770 4 0.467796 0.168955 0.0977793
477 4 0.173252 0.219735 0.120701
475 2 0.16668 0.227209 0.143639
461 4 0.29488 0.176042 0.0797882
460 2 0.310896 0.186451 0.095923
279 4 0.288464 0.248978 0.151947
285 4 0.279053 0.244484 0.169253
462 4 0.326912 0.196859 0.112058
255 4 0.353466 0.243389 0.0952933
628 2 0.429034 0.214709 0.0905988
624 4 0.453953 0.220129 0.116084
629 4 0.442235 0.204165 0.10903
622 2 0.455717 0.237249 0.134221
338 4 0.0640459 0.245198 0.135754
337 2 0.0829929 0.257925 0.145962
339 4 0.10194 0.270652 0.156171
611 4 0.241547 0.304058 0.147749
610 2 0.237657 0.31429 0.125269
612 4 0.233766 0.324522 0.102789
278 4 0.302653 0.257012 0.104673
277 2 0.295559 0.252995 0.12831
739 2 0.354238 0.319616 0.0913081
623 4 0.45748 0.254369 0.152359
595 2 0.42142 0.320595 0.156267
596 4 0.424304 0.296484 0.150305
619 2 0.0598266 0.405472 0.119106
620 4 0.0786964 0.413784 0.133249
647 4 0.0904887 0.404324 0.146281
621 4 0.0409568 0.397161 0.104962
315 4 0.0401484 0.415542 0.0967677
537 4 0.118262 0.330751 0.151676
535 2 0.12276 0.347333 0.133511
536 4 0.127258 0.363915 0.115346
609 4 0.225419 0.331286 0.0852923
387 4 0.321676 0.399476 0.121555
385 2 0.328817 0.375968 0.116908
302 4 0.32949 0.397062 0.141771
740 4 0.340312 0.333097 0.107103
670 2 0.401137 0.365739 0.0861689
386 4 0.335957 0.352461 0.112262
12 3 0.403416 0.359123 0.124991
11 1 0.395409 0.369991 0.143616
15 3 0.373502 0.364548 0.146638
672 4 0.393003 0.357682 0.108397
14 3 0.397513 0.392878 0.140431
495 4 0.406519 0.406866 0.127668
13 3 0.407826 0.363388 0.162072
597 4 0.418536 0.344706 0.162228
626 4 0.171573 0.430278 0.124317
1438 2 0.24484 0.462504 0.0980369
625 2 0.184294 0.43599 0.145071
627 4 0.197014 0.441702 0.165825
638 4 0.211368 0.454142 0.161491
637 2 0.228208 0.472173 0.157435
639 4 0.245049 0.490205 0.153379
1439 4 0.240421 0.438678 0.104198
1574 4 0.25918 0.500443 0.143909
301 2 0.331041 0.420652 0.149915
525 4 0.339348 0.417955 0.0957989
493 2 0.423657 0.425039 0.128782
494 4 0.440794 0.443212 0.129895
1583 4 0.471977 0.490642 0.111964
1420 2 0.0197315 0.00293502 0.178384
674 4 0.123354 0.987805 0.230745
450 4 0.140569 0.0686952 0.176576
693 4 0.237995 0.0541949 0.182397
691 2 0.255294 0.0462094 0.198589
723 4 0.221736 0.0651047 0.239077
692 4 0.272593 0.0382239 0.21478
1700 4 0.323531 0.0478593 0.233938
1699 2 0.305258 0.0366244 0.221091
1701 4 0.286984 0.0253894 0.208244
23 3 0.333729 0.0622012 0.243994
21 1 0.356317 0.0640474 0.239015
25 3 0.359251 0.0649535 0.216449
22 3 0.367298 0.045633 0.24735
24 3 0.365076 0.0831201 0.24891
759 4 0.369932 0.0707854 0.200637
757 2 0.37995 0.0835214 0.181594
2744 4 0.475428 0.0259088 0.161387
511 2 0.0115986 0.129558 0.201398
578 4 0.0530207 0.137449 0.210115
513 4 0.0343959 0.130449 0.211628
577 2 0.0569761 0.160635 0.218597
448 2 0.148999 0.0919228 0.180395
449 4 0.157429 0.11515 0.184215
236 4 0.143868 0.124781 0.173233
722 4 0.205962 0.110932 0.251394
28 3 0.249646 0.151267 0.184694
721 2 0.213849 0.0880185 0.245236
580 2 0.307061 0.110202 0.191621
581 4 0.284389 0.109753 0.202156
30 3 0.269941 0.122568 0.198189
26 1 0.26505 0.144664 0.200741
29 3 0.284399 0.157327 0.198831
27 3 0.255973 0.148054 0.221603
582 4 0.329732 0.11065 0.181086
310 2 0.4518 0.153749 0.199191
311 4 0.456 0.12929 0.20224
529 2 0.0208817 0.19621 0.238712
530 4 0.0445872 0.194442 0.230959
579 4 0.0609315 0.183821 0.227078
476 4 0.160109 0.234684 0.166576
372 4 0.16594 0.238838 0.184902
284 4 0.278086 0.240502 0.219092
283 2 0.27857 0.242493 0.194173
312 4 0.447601 0.178208 0.196142
520 2 0.491803 0.191747 0.24468
521 4 0.470105 0.203951 0.247011
764 4 0.450707 0.209039 0.251507
396 4 0.0688528 0.293476 0.221614
443 4 0.0780701 0.280579 0.232349
394 2 0.0825628 0.287726 0.20151
362 4 0.153866 0.30416 0.188674
395 4 0.0962727 0.281976 0.181406
363 4 0.113535 0.2798 0.17192
361 2 0.1337 0.29198 0.180297
370 2 0.178641 0.253347 0.200818
371 4 0.191342 0.267857 0.216735
345 4 0.269992 0.344979 0.218334
527 4 0.449246 0.257366 0.170676
526 2 0.450191 0.27657 0.18666
528 4 0.451135 0.295774 0.202643
264 4 0.0491441 0.408676 0.204983
646 2 0.0955728 0.396757 0.169563
648 4 0.100657 0.38919 0.192846
300 4 0.10746 0.371502 0.198174
298 2 0.114961 0.362917 0.220427
299 4 0.122462 0.354331 0.24268
343 2 0.286263 0.345588 0.237309
645 4 0.419599 0.360246 0.179982
643 2 0.420434 0.367077 0.204019
644 4 0.42127 0.373909 0.228057
447 4 0.429112 0.388349 0.240284
445 2 0.423209 0.41213 0.235306
262 2 0.0332542 0.415579 0.223013
1430 4 0.170997 0.491773 0.194208
417 4 0.176348 0.472587 0.195852
290 4 0.217641 0.422083 0.218451
416 4 0.210959 0.439817 0.210982
415 2 0.193653 0.456202 0.203417
289 2 0.223786 0.422457 0.242685
303 4 0.332592 0.444241 0.158059
659 4 0.339285 0.459228 0.169999
658 2 0.342512 0.480245 0.183153
446 4 0.417307 0.435912 0.230328
232 2 0.053485 0.0325307 0.307582
234 4 0.0470724 0.0536072 0.295757
317 4 0.0322005 0.0669814 0.294463
233 4 0.0598975 0.0114543 0.319408
675 4 0.120718 0.00847873 0.276202
673 2 0.122036 0.998142 0.253474
697 2 0.380104 0.0296468 0.269864
699 4 0.37784 0.00727347 0.280795
698 4 0.382368 0.0520201 0.258933
333 4 0.379859 0.072425 0.255588
331 2 0.402157 0.0786554 0.26503
743 4 0.471242 0.0194138 0.277164
742 2 0.456874 0.00321932 0.264655
351 4 0.466941 0.0398967 0.277146
349 2 0.448661 0.0557222 0.283516
316 2 0.0350083 0.0912094 0.288959
318 4 0.0378161 0.115437 0.283455
393 4 0.129027 0.137825 0.315437
399 4 0.121584 0.135115 0.334007
391 2 0.14645 0.148037 0.300695
392 4 0.163873 0.158249 0.285953
546 4 0.214907 0.120956 0.265375
545 4 0.174469 0.150065 0.269644
544 2 0.194688 0.13551 0.26751
599 4 0.214861 0.116088 0.319873
404 4 0.228032 0.129675 0.325013
598 2 0.192454 0.11546 0.330951
403 2 0.228817 0.153428 0.317245
332 4 0.424455 0.0848859 0.274473
350 4 0.430381 0.0715477 0.289886
762 4 0.43581 0.144632 0.298929
760 2 0.439246 0.151607 0.275165
761 4 0.442683 0.158582 0.251401
401 4 0.236239 0.182407 0.291647
400 2 0.233441 0.197739 0.272095
402 4 0.230643 0.213071 0.252543
405 4 0.229603 0.177181 0.309476
765 4 0.401734 0.200747 0.257301
763 2 0.42622 0.204893 0.254404
442 2 0.0756 0.282366 0.257167
444 4 0.0731299 0.284152 0.281984
541 2 0.463624 0.283862 0.332402
542 4 0.465533 0.265458 0.315585
2493 4 0.0141469 0.358255 0.3263
749 4 0.0638077 0.34771 0.284792
365 4 0.0115647 0.363299 0.307304
364 2 0.0300234 0.360066 0.290751
366 4 0.0484822 0.356834 0.274197
603 4 0.0791324 0.398343 0.337287
750 4 0.109199 0.336811 0.26686
734 4 0.123441 0.34813 0.260943
748 2 0.0865034 0.34226 0.275826
733 2 0.143405 0.3467 0.275929
601 2 0.0983533 0.400566 0.321451
677 4 0.156113 0.346994 0.308482
735 4 0.163368 0.34527 0.290914
676 2 0.170988 0.363453 0.320015
602 4 0.117574 0.40279 0.305614
344 4 0.302534 0.346198 0.256284
309 4 0.318841 0.335256 0.261775
307 2 0.313293 0.336299 0.286133
727 2 0.319923 0.388148 0.314079
308 4 0.307745 0.337342 0.310491
728 4 0.319643 0.413075 0.316011
729 4 0.320202 0.363221 0.312147
497 4 0.344442 0.337401 0.329435
263 4 0.0173644 0.422481 0.241042
777 4 0.12323 0.422083 0.30107
1757 4 0.106917 0.473005 0.300683
1756 2 0.106226 0.49479 0.28843
776 4 0.123456 0.471137 0.310788
775 2 0.123343 0.44661 0.305929
291 4 0.229931 0.422831 0.266919
1545 4 0.209638 0.490066 0.334403
414 4 0.240852 0.420595 0.283441
413 4 0.202877 0.428642 0.314967
412 2 0.221864 0.424618 0.299204
1436 4 0.226634 0.480176 0.333985
1435 2 0.248196 0.472629 0.323822
438 4 0.314719 0.497971 0.268873
437 4 0.284533 0.472127 0.299232
436 2 0.299626 0.485049 0.284052
1437 4 0.269759 0.465081 0.313659
5 3 0.290767 0.459068 0.319097
3 3 0.277312 0.426766 0.332999
434 4 0.34071 0.410541 0.323094
2 3 0.305391 0.426568 0.308015
1 1 0.296283 0.438005 0.325774
712 2 0.385003 0.457391 0.254125
713 4 0.364823 0.469157 0.263041
714 4 0.405183 0.445624 0.245209
433 2 0.356852 0.429528 0.321071
435 4 0.372994 0.448515 0.319048
428 4 0.0784142 0.026187 0.351613
427 2 0.0913569 0.0105776 0.366242
606 4 0.158233 0.0631879 0.406046
731 4 0.0936247 0.050901 0.395689
730 2 0.092981 0.0734152 0.384832
604 2 0.153314 0.0411418 0.395324
605 4 0.148396 0.0190958 0.384602
368 4 0.0898843 0.0364523 0.409157
682 2 0.236542 0.0546209 0.377663
683 4 0.223539 0.0747233 0.384874
684 4 0.249545 0.0345184 0.370451
249 4 0.296613 0.0553726 0.348174
247 2 0.315448 0.0711933 0.352664
1749 4 0.478663 0.0248264 0.354564
2879 4 0.482479 0.0649062 0.391521
480 4 0.489828 0.0159574 0.341902
424 2 0.434807 0.0430996 0.391917
426 4 0.431541 0.0578923 0.372026
425 4 0.438073 0.0283069 0.411809
258 4 0.427556 0.0779333 0.373275
2878 2 0.477202 0.0663131 0.415921
732 4 0.0923373 0.0959293 0.373975
397 2 0.108888 0.115909 0.343759
398 4 0.0961919 0.0967024 0.353512
687 4 0.162673 0.11946 0.360292
600 4 0.170048 0.114831 0.34203
685 2 0.174648 0.12183 0.382114
686 4 0.186623 0.124199 0.403935
321 4 0.284566 0.120219 0.383913
319 2 0.276242 0.104003 0.401028
248 4 0.334282 0.0870141 0.357154
320 4 0.267918 0.0877864 0.418143
633 4 0.338815 0.103583 0.366744
632 4 0.379243 0.132648 0.371381
631 2 0.359029 0.118116 0.369062
420 4 0.378892 0.152146 0.374989
467 4 0.350801 0.100176 0.42992
257 4 0.467065 0.0987474 0.350768
256 2 0.44731 0.0883404 0.362021
2654 4 0.00366467 0.216862 0.367432
618 4 0.0199955 0.226616 0.375152
616 2 0.0317663 0.246653 0.384379
274 2 0.156242 0.230353 0.356076
276 4 0.133303 0.235869 0.347795
389 4 0.117701 0.246137 0.353912
275 4 0.179181 0.224837 0.364357
474 4 0.175757 0.205129 0.364511
472 2 0.196073 0.190578 0.365338
473 4 0.21639 0.176028 0.366164
708 4 0.235861 0.1797 0.369998
706 2 0.253985 0.193574 0.35979
707 4 0.27211 0.207447 0.349582
377 4 0.317048 0.245178 0.36504
717 4 0.332262 0.231547 0.36453
418 2 0.378826 0.17711 0.37639
419 4 0.37876 0.202074 0.377791
716 4 0.3772 0.221323 0.383939
715 2 0.354731 0.226435 0.374234
515 4 0.481128 0.170688 0.390136
514 2 0.461478 0.170903 0.405597
617 4 0.043537 0.26669 0.393607
390 4 0.0813424 0.278938 0.343769
388 2 0.0995216 0.262538 0.34884
510 4 0.249156 0.325733 0.359211
374 4 0.232208 0.32301 0.350345
508 2 0.264166 0.309064 0.370259
509 4 0.279175 0.292396 0.381308
376 2 0.310733 0.268749 0.359586
488 4 0.275991 0.294174 0.400793
487 2 0.269661 0.272934 0.412365
378 4 0.304418 0.292319 0.354133
496 2 0.334067 0.318306 0.341799
498 4 0.323692 0.29921 0.354164
267 4 0.376007 0.291068 0.355484
265 2 0.376237 0.279573 0.377687
266 4 0.376467 0.268078 0.399891
585 4 0.369886 0.251416 0.410027
270 4 0.494317 0.265683 0.401683
543 4 0.461715 0.302267 0.349219
615 4 0.452239 0.312558 0.335351
269 4 0.444371 0.263307 0.400984
268 2 0.469344 0.264495 0.401333
2491 2 0.997376 0.366474 0.342924
549 4 0.0680262 0.38128 0.339119
547 2 0.0544417 0.393961 0.355848
548 4 0.0408573 0.406642 0.372576
678 4 0.185863 0.379912 0.331548
502 2 0.20023 0.397406 0.358112
504 4 0.200051 0.376375 0.344591
373 2 0.224588 0.346129 0.344637
375 4 0.216967 0.369249 0.338928
614 4 0.431399 0.358008 0.334559
613 2 0.441819 0.335283 0.334955
2925 4 0.490732 0.35228 0.380653
119 3 0.487753 0.430107 0.33724
407 4 0.048433 0.420575 0.383789
406 2 0.0661648 0.438201 0.383485
408 4 0.0838965 0.455826 0.383182
1543 2 0.19189 0.506646 0.340344
503 4 0.200409 0.418438 0.371633
636 4 0.187846 0.433807 0.380358
634 2 0.19872 0.442567 0.401099
668 4 0.304288 0.425898 0.355996
4 3 0.31192 0.438966 0.34289
667 2 0.315154 0.427665 0.378446
669 4 0.32602 0.429431 0.400895
336 4 0.344314 0.422948 0.407949
561 4 0.482157 0.430218 0.409939
752 4 0.47123 0.442254 0.398827
753 4 0.484949 0.421985 0.355219
593 4 0.462799 0.508883 0.346143
751 2 0.47809 0.432119 0.377023
718 2 0.0600927 0.034818 0.484371
719 4 0.0731342 0.0323457 0.463182
369 4 0.0762003 0.0158948 0.452641
367 2 0.0830423 0.0261735 0.430899
2430 4 0.215127 0.0720508 0.439822
2428 2 0.225317 0.0492737 0.438229
341 4 0.219706 0.0879169 0.449443
2429 4 0.235508 0.0264966 0.436637
441 4 0.25061 0.0147644 0.430082
726 4 0.307018 0.0640725 0.46855
432 4 0.311759 0.0775053 0.482817
724 2 0.294773 0.0716751 0.448119
725 4 0.282529 0.0792777 0.427687
2880 4 0.471925 0.06772 0.440321
642 4 0.462082 0.0851898 0.438907
340 2 0.214548 0.0977375 0.471851
409 2 0.238804 0.173497 0.421411
1152 4 0.189228 0.107376 0.494786
410 4 0.248502 0.152978 0.410919
466 2 0.367373 0.118772 0.432101
468 4 0.383945 0.137367 0.434282
641 4 0.473118 0.121788 0.471148
640 2 0.4676 0.103489 0.455028
3158 4 0.482343 0.139537 0.464231
3157 2 0.503035 0.14503 0.451314
575 4 0.440289 0.167022 0.440303
576 4 0.410869 0.149732 0.476858
574 2 0.425579 0.158377 0.45858
469 2 0.0736968 0.235982 0.45351
471 4 0.079464 0.213626 0.463108
260 4 0.0752153 0.206721 0.481003
259 2 0.0978299 0.204212 0.491369
651 4 0.246619 0.246778 0.415477
650 4 0.226144 0.210694 0.443394
649 2 0.236382 0.228736 0.429435
411 4 0.229106 0.194016 0.431904
516 4 0.441829 0.171118 0.421058
470 4 0.0679296 0.258338 0.443911
2814 4 0.000635737 0.312123 0.476455
2812 2 0.0101507 0.307646 0.49914
695 4 0.0905042 0.302214 0.443419
694 2 0.10942 0.28881 0.452784
696 4 0.128336 0.275407 0.462149
1260 4 0.146502 0.281251 0.471432
1258 2 0.166 0.288917 0.485079
1259 4 0.185498 0.296583 0.498726
489 4 0.26333 0.251693 0.423938
583 2 0.386932 0.255959 0.427746
584 4 0.403978 0.260501 0.445466
2456 4 0.423366 0.263246 0.446845
2457 4 0.464303 0.29156 0.451657
2455 2 0.443835 0.277403 0.449251
709 2 0.15486 0.416259 0.429983
10 3 0.153266 0.351743 0.46216
7 3 0.122114 0.372168 0.459876
327 4 0.106007 0.38055 0.467022
325 2 0.0995536 0.402974 0.476005
6 1 0.144633 0.372681 0.464544
8 3 0.155024 0.387258 0.449781
711 4 0.168403 0.396488 0.437115
9 3 0.147607 0.380036 0.486349
239 4 0.373598 0.360669 0.484892
334 2 0.346074 0.39939 0.41614
335 4 0.347833 0.375832 0.42433
238 2 0.364441 0.361754 0.461651
240 4 0.355284 0.362839 0.43841
2710 2 0.499955 0.406325 0.486692
560 4 0.492818 0.40104 0.449126
2712 4 0.491213 0.391177 0.468823
559 2 0.487488 0.415629 0.429533
680 4 0.0227857 0.462245 0.441418
679 2 0.0161375 0.485634 0.43559
1383 4 0.0155539 0.44728 0.452145
1381 2 0.0231537 0.44342 0.475651
326 4 0.0930997 0.425398 0.484989
384 4 0.135968 0.446561 0.484417
710 4 0.141317 0.43603 0.422852
570 4 0.124614 0.443578 0.43192
569 4 0.121144 0.45982 0.479088
568 2 0.122879 0.451699 0.455504
774 4 0.197657 0.44311 0.434973
773 4 0.187911 0.467377 0.477597
635 4 0.209595 0.451328 0.421839
772 2 0.192784 0.455244 0.456285
1399 2 0.326847 0.456539 0.461131
1400 4 0.321371 0.479593 0.453149
1401 4 0.332323 0.433485 0.469114
588 4 0.332154 0.496423 0.451319
1126 2 0.0210109 0.0550824 0.530364
1127 4 0.040403 0.0531686 0.514697
4508 4 0.989109 0.00696321 0.57908
720 4 0.0470512 0.0372903 0.50556
1059 4 0.0997027 0.0656713 0.578287
1155 4 0.116352 0.071963 0.568442
951 4 0.194769 0.0582561 0.552453
1031 4 0.201182 0.0451808 0.565851
1030 2 0.219179 0.0363081 0.58077
949 2 0.198402 0.0599372 0.527772
950 4 0.202036 0.0616184 0.503091
961 2 0.280356 0.0242533 0.519939
2194 2 0.28361 0.996622 0.569397
1180 2 0.261606 0.0764006 0.503159
430 2 0.319663 0.0634003 0.501889
963 4 0.28179 0.0475643 0.51101
431 4 0.327568 0.0492954 0.520961
1181 4 0.281842 0.0628092 0.497593
841 2 0.371836 0.0483703 0.526235
843 4 0.347084 0.0514841 0.524569
842 4 0.396589 0.0452564 0.5279
1217 4 0.41309 0.0327062 0.528168
1218 4 0.447867 0.0593281 0.552303
1216 2 0.430479 0.0460172 0.540235
4465 2 0.437008 0.00288116 0.584304
1035 4 0.0683746 0.174936 0.550641
1033 2 0.0701631 0.158403 0.531968
1034 4 0.0719516 0.141871 0.513296
939 4 0.164512 0.164133 0.5221
1151 4 0.174413 0.146214 0.522585
1150 2 0.18182 0.126795 0.508686
1182 4 0.241371 0.089992 0.508724
342 4 0.209389 0.107558 0.494259
857 4 0.310429 0.135586 0.561769
899 4 0.329449 0.131555 0.562091
856 2 0.292034 0.152513 0.5623
898 2 0.346449 0.149705 0.559491
1082 4 0.0668083 0.195434 0.555497
1081 2 0.0466237 0.190633 0.569451
877 2 0.0814969 0.25425 0.578264
1083 4 0.0264392 0.185832 0.583405
937 2 0.152387 0.184551 0.514271
938 4 0.140263 0.204969 0.506443
261 4 0.120445 0.201704 0.501736
858 4 0.273639 0.169439 0.562831
797 4 0.265547 0.181637 0.577975
813 4 0.311298 0.226286 0.546477
811 2 0.291311 0.235426 0.534554
873 4 0.330392 0.228463 0.549046
900 4 0.36345 0.167854 0.556891
871 2 0.342327 0.207175 0.554483
872 4 0.354262 0.185888 0.55992
906 4 0.49544 0.243672 0.557865
878 4 0.0931607 0.258267 0.556515
2813 4 0.0196656 0.303169 0.521825
1238 4 0.257548 0.321122 0.582157
812 4 0.271325 0.244566 0.522631
792 4 0.260477 0.301106 0.582114
1204 2 0.384969 0.326567 0.573101
1205 4 0.400204 0.307447 0.567858
904 2 0.479428 0.26277 0.555844
905 4 0.463416 0.281867 0.553823
952 2 0.437436 0.302385 0.575044
953 4 0.458853 0.289997 0.571436
936 4 0.99983 0.414002 0.543862
1137 4 0.151721 0.346858 0.561624
897 4 0.168863 0.353758 0.569412
1135 2 0.131722 0.361699 0.559394
1136 4 0.111724 0.37654 0.557163
895 2 0.191186 0.343331 0.565153
896 4 0.213509 0.332904 0.560893
1189 2 0.23891 0.356027 0.535542
1191 4 0.220219 0.345905 0.548709
1190 4 0.257601 0.36615 0.522375
803 4 0.271133 0.380329 0.517392
802 2 0.28722 0.396193 0.528102
804 4 0.303308 0.412058 0.538813
1206 4 0.369734 0.345687 0.578345
928 2 0.35876 0.37384 0.553941
929 4 0.363328 0.392357 0.537772
930 4 0.354193 0.355323 0.57011
925 2 0.447332 0.408913 0.534523
927 4 0.440239 0.392621 0.516932
538 2 0.0368881 0.473857 0.521256
540 4 0.0248279 0.453678 0.512739
539 4 0.0489482 0.494036 0.529774
1382 4 0.0307536 0.43956 0.499157
383 4 0.140771 0.448058 0.53417
382 2 0.138369 0.44731 0.509293
2242 2 0.148624 0.48258 0.579882
2244 4 0.132052 0.47261 0.564034
1173 4 0.235387 0.438575 0.543057
1172 4 0.27502 0.467541 0.533522
1171 2 0.255203 0.453058 0.53829
882 4 0.275833 0.463918 0.515123
880 2 0.288459 0.484053 0.507356
1001 4 0.464591 0.416347 0.565276
926 4 0.454424 0.425205 0.552115
1000 2 0.460927 0.434201 0.582393
1185 4 0.0171077 0.0334914 0.651416
945 4 0.0357013 0.0269888 0.650796
825 4 0.0849374 0.0239184 0.61606
1058 4 0.0723912 0.0305639 0.60114
943 2 0.046532 0.0378684 0.670532
1057 2 0.0860469 0.0481176 0.589713
823 2 0.0967312 0.00744068 0.630709
824 4 0.108525 0.990963 0.645357
1032 4 0.237175 0.0274355 0.595689
2196 4 0.278723 0.988893 0.592668
1003 2 0.344824 0.0490101 0.660551
1005 4 0.343538 0.0350208 0.639867
4467 4 0.421303 0.0212169 0.590811
2283 4 0.430646 0.0385499 0.599374
2282 4 0.44528 0.0418668 0.647076
2281 2 0.437963 0.0402084 0.623225
43 3 0.463149 0.0464987 0.653837
45 3 0.48907 0.0676444 0.636556
41 1 0.483039 0.0581766 0.656371
42 3 0.49946 0.0435295 0.663078
1153 2 0.126337 0.0878825 0.584936
1154 4 0.136322 0.103802 0.60143
1221 4 0.153392 0.107302 0.613112
1219 2 0.154381 0.119881 0.634699
1220 4 0.155371 0.132459 0.656285
1212 4 0.235368 0.157458 0.670911
1283 4 0.170244 0.130217 0.667565
1210 2 0.25784 0.153756 0.660592
1211 4 0.280312 0.150055 0.650272
888 4 0.289629 0.139162 0.66359
879 4 0.069833 0.250233 0.600012
1209 4 0.0467488 0.253745 0.650153
1199 4 0.00990955 0.182118 0.5946
1272 4 0.0832731 0.237308 0.608227
1270 2 0.0997367 0.229296 0.625255
1271 4 0.1162 0.221285 0.642283
909 4 0.1302 0.208427 0.648099
907 2 0.154472 0.214329 0.649197
908 4 0.178744 0.220232 0.650296
947 4 0.188058 0.231877 0.636469
796 2 0.274842 0.20467 0.58085
798 4 0.284138 0.227703 0.583725
1025 4 0.391995 0.19978 0.64399
1024 2 0.400913 0.200978 0.620662
1143 4 0.389472 0.185617 0.658141
1026 4 0.409831 0.202177 0.597334
1141 2 0.364883 0.189726 0.660053
3123 4 0.451701 0.250941 0.653455
1207 2 0.0633745 0.264959 0.665087
946 2 0.187483 0.251325 0.620765
948 4 0.186907 0.270773 0.605061
791 4 0.292921 0.291011 0.618806
790 2 0.276699 0.296059 0.60046
954 4 0.416019 0.314772 0.578652
983 4 0.0263892 0.415442 0.625519
1041 4 0.0254855 0.417971 0.647697
982 2 0.00953373 0.399481 0.616229
992 4 0.133027 0.422939 0.641144
1239 4 0.235751 0.364571 0.593894
1237 2 0.246649 0.342847 0.588025
1039 2 0.0499318 0.421333 0.643666
1040 4 0.0743781 0.424695 0.639635
993 4 0.0866367 0.427862 0.623133
991 2 0.109832 0.425401 0.632139
2170 2 0.151156 0.490787 0.634891
2172 4 0.155838 0.46691 0.629132
1160 4 0.212272 0.458634 0.621868
1159 2 0.195232 0.468525 0.606473
2243 4 0.165195 0.492551 0.59573
1161 4 0.178193 0.478417 0.591079
890 4 0.309866 0.426554 0.601153
889 2 0.323526 0.447379 0.598945
1187 4 0.323331 0.485727 0.614129
891 4 0.337187 0.468205 0.596738
1952 4 0.338641 0.487385 0.601512
1002 4 0.457263 0.452056 0.599509
1910 4 0.464028 0.468323 0.589173
1909 2 0.451351 0.489019 0.595186
1268 4 0.442136 0.483187 0.655103
944 4 0.0573628 0.0487479 0.690268
1075 2 0.0591762 0.0590979 0.725903
1076 4 0.0617906 0.0647334 0.701683
1077 4 0.0565619 0.0534625 0.750122
2319 4 0.0398533 0.0204594 0.725552
2317 2 0.017685 0.0162756 0.71477
1257 4 0.289528 0.0603171 0.744696
1004 4 0.34611 0.0629994 0.681235
44 3 0.48057 0.0746063 0.672569
32 3 0.0901688 0.153323 0.746661
1282 2 0.193697 0.138043 0.671295
1284 4 0.217149 0.145869 0.675024
1227 4 0.228624 0.147959 0.693148
1225 2 0.236438 0.162126 0.712212
886 2 0.297555 0.128829 0.684934
887 4 0.305482 0.118495 0.706279
830 4 0.310087 0.101389 0.71586
829 2 0.30422 0.097534 0.739857
978 4 0.324419 0.145332 0.750896
1146 4 0.492588 0.143973 0.731583
3270 4 0.493421 0.140256 0.75122
1107 4 0.0113986 0.195047 0.742172
851 4 0.998191 0.205367 0.73382
822 4 0.139741 0.23561 0.715042
1278 4 0.154651 0.22418 0.722158
820 2 0.11883 0.248445 0.710225
1226 4 0.244251 0.176293 0.731276
1276 2 0.169831 0.21898 0.741334
916 2 0.305387 0.227705 0.722653
918 4 0.321352 0.2085 0.723857
977 4 0.315019 0.188829 0.728084
976 2 0.319719 0.16708 0.73949
1142 4 0.340293 0.193835 0.661964
917 4 0.289421 0.24691 0.721448
1192 2 0.410483 0.227312 0.739529
1144 2 0.485301 0.166931 0.724875
1145 4 0.478014 0.189889 0.718167
1194 4 0.424768 0.223386 0.719387
1262 4 0.427844 0.220287 0.700697
1261 2 0.446453 0.203647 0.702111
1263 4 0.465062 0.187007 0.703526
1243 2 0.000869315 0.312982 0.706464
1244 4 0.021346 0.319408 0.719293
1208 4 0.0800001 0.276172 0.68002
821 4 0.0979202 0.26128 0.705408
1065 4 0.203474 0.270022 0.694989
1064 4 0.215421 0.282481 0.741922
1063 2 0.209448 0.276251 0.718456
1096 2 0.272514 0.280042 0.739378
1097 4 0.288424 0.261012 0.736235
1098 4 0.256604 0.299073 0.742522
3121 2 0.474513 0.249405 0.663577
3122 4 0.497325 0.24787 0.673699
806 4 0.448191 0.301782 0.738194
892 2 0.0648153 0.392314 0.684826
893 4 0.0478589 0.393525 0.666491
894 4 0.0817717 0.391103 0.703162
942 4 0.120416 0.416884 0.740299
1028 4 0.235403 0.395358 0.687316
1066 2 0.200554 0.407705 0.706281
1068 4 0.224744 0.401476 0.705166
1027 2 0.255859 0.408835 0.682308
1139 4 0.282104 0.417573 0.697021
1230 4 0.366386 0.415506 0.7387
1281 4 0.0639719 0.449366 0.712917
1279 2 0.0607833 0.440224 0.73597
2021 4 0.0589381 0.47975 0.745279
2020 2 0.0698918 0.496889 0.730738
940 2 0.144522 0.416611 0.733663
1067 4 0.176364 0.413934 0.707397
941 4 0.168627 0.416337 0.727027
1138 2 0.30474 0.420959 0.707088
1140 4 0.327375 0.424344 0.717155
1029 4 0.276316 0.422312 0.6773
1269 4 0.421702 0.47699 0.700322
3328 2 0.486738 0.446116 0.678819
3329 4 0.46621 0.449273 0.692741
1267 2 0.431919 0.480089 0.677713
1203 4 0.0653078 0.057472 0.768233
1201 2 0.0865366 0.0468613 0.776103
1202 4 0.107765 0.0362506 0.783973
2049 4 0.123652 0.0228724 0.786266
1148 4 0.178437 0.0328939 0.796969
1147 2 0.197534 0.0411536 0.783102
1149 4 0.21663 0.0494133 0.769235
1049 4 0.230247 0.0424427 0.782415
1255 2 0.298105 0.0436834 0.761277
1256 4 0.306682 0.0270497 0.777858
1048 2 0.252136 0.049667 0.792102
1050 4 0.274026 0.0568914 0.801789
846 4 0.454076 0.0491874 0.786238
1113 4 0.447602 0.0307478 0.782849
1111 2 0.441054 0.0105481 0.79605
844 2 0.475092 0.0603849 0.793862
845 4 0.496107 0.0715823 0.801487
862 2 0.0258248 0.0884434 0.824725
832 2 0.0319263 0.137054 0.786412
863 4 0.0180743 0.107637 0.8107
833 4 0.0166262 0.125592 0.802528
33 3 0.0659656 0.142194 0.773175
834 4 0.0472263 0.148515 0.770296
31 1 0.0782179 0.160163 0.765088
1106 4 0.0478613 0.164503 0.757608
34 3 0.0930493 0.167583 0.781317
838 2 0.247573 0.122235 0.840544
840 4 0.226777 0.134226 0.833547
831 4 0.298353 0.0936789 0.763855
959 4 0.277342 0.128128 0.84553
819 4 0.372051 0.0890792 0.815212
1084 2 0.359108 0.116802 0.794217
1085 4 0.355472 0.0940398 0.803903
1086 4 0.362744 0.139565 0.784531
1299 4 0.377325 0.150109 0.793657
3269 4 0.485187 0.136918 0.800431
3468 4 0.495877 0.148745 0.81479
3268 2 0.489304 0.138587 0.775826
1105 2 0.02963 0.179775 0.74989
1214 4 0.0189217 0.217895 0.769578
35 3 0.0641836 0.177061 0.759077
780 4 0.0632767 0.22489 0.796005
1073 4 0.109889 0.178756 0.783633
1072 2 0.131141 0.184392 0.795539
1074 4 0.152393 0.190028 0.807446
1130 4 0.236138 0.176717 0.749425
1277 4 0.185011 0.213781 0.76051
1129 2 0.216082 0.188261 0.758894
1131 4 0.196026 0.199806 0.768363
1008 4 0.323559 0.242331 0.746311
1193 4 0.396197 0.231239 0.759671
1297 2 0.385684 0.173499 0.796523
1298 4 0.394043 0.196889 0.799389
47 3 0.409008 0.190399 0.811423
1043 4 0.407339 0.240156 0.80433
1006 2 0.339712 0.252591 0.762404
46 1 0.41913 0.20525 0.825781
49 3 0.420871 0.225856 0.815257
1166 4 0.428082 0.246591 0.806564
48 3 0.440253 0.197286 0.831146
778 2 0.054272 0.247982 0.79271
779 4 0.0452673 0.271074 0.789415
869 4 0.100974 0.270331 0.831887