ITEM: TIMESTEP
870000
ITEM: NUMBER OF ATOMS
4590
ITEM: BOX BOUNDS pp pp pp
-9.9985700000000008e+00 9.9985700000000008e+00
-9.9985700000000008e+00 9.9985700000000008e+00
-9.9985700000000008e+00 9.9985700000000008e+00
ITEM: ATOMS id type xs ys zs
463 2 0.0412494 0.0668498 0.0373088
464 4 0.0434704 0.0466719 0.0227109
3290 4 0.0422405 0.0281749 0.0170517
1667 4 0.0918701 0.0636975 0.0680202
1666 2 0.093039 0.0404361 0.0771152
1476 4 0.204412 0.0276528 0.0507622
1474 2 0.22118 0.0233042 0.0327319
1475 4 0.237949 0.0189556 0.0147016
490 2 0.270023 0.0197459 0.00420341
492 4 0.253003 0.00512859 0.0152409
986 4 0.400419 0.0679896 0.997816
745 2 0.454468 0.0688135 0.0338074
746 4 0.45054 0.0813203 0.055099
747 4 0.458396 0.0563067 0.0125159
465 4 0.0390283 0.0870277 0.0519067
591 4 0.0323201 0.10207 0.0629854
701 4 0.0639266 0.118105 0.00750701
700 2 0.0786167 0.109118 0.0256347
423 4 0.0479867 0.157111 0.00145385
2760 4 0.0121863 0.13164 0.0553582
702 4 0.0933068 0.100131 0.0437625
567 4 0.168902 0.0989928 0.0735447
565 2 0.191222 0.108957 0.0788069
358 2 0.27197 0.137368 0.0163989
359 4 0.285582 0.127646 0.0349834
556 2 0.363038 0.0968874 0.0717788
558 4 0.365962 0.118609 0.059745
421 2 0.0413085 0.171499 0.0207815
553 2 0.0146423 0.219966 0.0528873
422 4 0.0346303 0.185888 0.0401091
555 4 0.0306164 0.200746 0.0536546
506 4 0.18869 0.224367 0.0862997
1133 4 0.232608 0.175626 0.00660523
505 2 0.174241 0.239671 0.0728018
353 4 0.289386 0.2126 0.0769447
352 2 0.265012 0.208298 0.0804932
461 4 0.306565 0.203575 0.0721758
665 4 0.40631 0.165502 0.021181
1069 2 0.403757 0.244086 0.0195792
1071 4 0.397134 0.243813 0.0436881
664 2 0.386771 0.17462 0.00852063
324 4 0.447591 0.231789 0.0762888
771 4 0.478987 0.176585 0.0677878
1168 2 0.02883 0.328697 0.999808
292 2 0.157255 0.28507 0.0434828
294 4 0.14158 0.303545 0.0373062
456 4 0.135824 0.31875 0.0477418
507 4 0.159792 0.254975 0.059304
293 4 0.172931 0.266596 0.0496594
481 2 0.224195 0.277812 0.0382914
482 4 0.229721 0.278027 0.0626757
483 4 0.218668 0.277597 0.0139071
356 4 0.223494 0.267087 0.999373
956 4 0.304872 0.313163 0.000214625
573 4 0.383579 0.255295 0.0527299
572 4 0.356049 0.292647 0.0713749
571 2 0.369814 0.273971 0.0620524
322 2 0.432136 0.251204 0.079358
281 4 0.431913 0.329463 0.077513
1169 4 0.0339111 0.353077 0.00204165
328 2 0.0299619 0.39296 0.00644497
330 4 0.0176752 0.413676 0.0131579
329 4 0.0422487 0.372244 0.999732
454 2 0.125872 0.336981 0.0616615
455 4 0.115921 0.355212 0.0755812
287 4 0.144521 0.399499 0.0059369
252 4 0.27195 0.384498 0.0680472
250 2 0.274859 0.392581 0.0445658
608 4 0.260307 0.387294 0.0832251
251 4 0.277768 0.400665 0.0210845
671 4 0.415579 0.341155 0.0745832
280 2 0.455338 0.334674 0.0704905
282 4 0.478762 0.339885 0.063468
227 4 0.454044 0.412596 0.0210853
104 3 0.487695 0.353854 0.0529498
551 4 0.0588554 0.497748 0.0473849
314 4 0.0333062 0.454698 0.0781989
550 2 0.0460493 0.476987 0.0528766
552 4 0.0332432 0.456226 0.0583684
244 2 0.217075 0.452767 0.019911
246 4 0.231317 0.472415 0.0259357
245 4 0.202832 0.43312 0.0138863
272 4 0.244915 0.473433 0.0414874
271 2 0.255874 0.49465 0.034078
226 2 0.460962 0.42976 0.0042709
19 3 0.0480082 0.0366495 0.149687
20 3 0.0680466 0.0236444 0.120584
1422 4 0.0339175 0.0186902 0.154947
16 1 0.0616971 0.0423889 0.131852
17 3 0.0499974 0.0561779 0.117635
18 3 0.0804228 0.053715 0.139564
2480 4 0.0283538 0.0310889 0.137445
2479 2 0.00561935 0.0258437 0.128456
1668 4 0.0942078 0.0171747 0.0862103
693 4 0.239134 0.0712081 0.146618
653 4 0.248002 0.05421 0.148558
652 2 0.264032 0.0441485 0.132219
654 4 0.280063 0.0340869 0.11588
484 2 0.332043 0.0113717 0.137567
557 4 0.360114 0.075166 0.0838126
296 4 0.373776 0.0650779 0.0951633
295 2 0.357367 0.0471274 0.100968
297 4 0.340957 0.0291769 0.106773
485 4 0.348199 0.024891 0.124098
758 4 0.382859 0.066765 0.167575
1759 2 0.472646 0.00183697 0.142282
1760 4 0.490481 0.0182889 0.136248
2723 4 0.482577 0.0422131 0.0872758
589 2 0.0477479 0.10907 0.0813746
590 4 0.0631757 0.11607 0.0997639
566 4 0.213543 0.118921 0.0840691
582 4 0.266521 0.0987214 0.138324
580 2 0.279926 0.0947354 0.159051
769 2 0.485909 0.160931 0.0860143
770 4 0.492831 0.145276 0.104241
339 4 0.0857973 0.242918 0.111301
477 4 0.162053 0.177814 0.140803
475 2 0.159402 0.190359 0.162269
354 4 0.240638 0.203997 0.0840416
737 4 0.185391 0.211088 0.101262
738 4 0.233177 0.196381 0.102185
736 2 0.209284 0.203734 0.101724
460 2 0.31722 0.19766 0.0940086
462 4 0.327875 0.191745 0.115841
255 4 0.32751 0.199233 0.134583
277 2 0.268714 0.242535 0.149736
278 4 0.263462 0.248081 0.125928
254 4 0.376706 0.191265 0.138706
630 4 0.394272 0.191139 0.126333
253 2 0.352108 0.195249 0.136644
628 2 0.404691 0.210962 0.115211
624 4 0.409933 0.247914 0.111683
629 4 0.415109 0.230784 0.104088
2590 2 0.501118 0.214486 0.140475
2591 4 0.486175 0.19493 0.136066
337 2 0.0907577 0.251546 0.134239
338 4 0.095718 0.260174 0.157176
363 4 0.100587 0.274868 0.167835
611 4 0.234615 0.329076 0.166508
755 4 0.271549 0.265333 0.117
756 4 0.317274 0.283781 0.108661
754 2 0.294411 0.274557 0.112831
741 4 0.357897 0.295584 0.0918879
622 2 0.410696 0.265028 0.129896
623 4 0.411459 0.282142 0.148108
739 2 0.35277 0.315094 0.106662
323 4 0.416682 0.270618 0.0824272
527 4 0.44134 0.266037 0.149671
621 4 0.0306458 0.405868 0.112437
619 2 0.0459363 0.389358 0.123337
620 4 0.0612268 0.372848 0.134236
647 4 0.0757658 0.373266 0.148354
315 4 0.0254797 0.407853 0.09385
537 4 0.167857 0.381355 0.158712
610 2 0.242641 0.341347 0.146255
535 2 0.185891 0.376845 0.14199
536 4 0.203924 0.372334 0.125268
609 4 0.262905 0.346806 0.11246
607 2 0.261606 0.36705 0.0978423
612 4 0.250666 0.353617 0.126001
740 4 0.347644 0.334603 0.121437
386 4 0.339089 0.347106 0.133147
385 2 0.348465 0.368082 0.143011
387 4 0.357841 0.389057 0.152875
495 4 0.401712 0.411589 0.143306
672 4 0.397917 0.348403 0.120803
302 4 0.344476 0.405715 0.155811
14 3 0.413278 0.394695 0.141749
670 2 0.406748 0.344779 0.0976929
12 3 0.405848 0.358038 0.138039
11 1 0.413336 0.374189 0.152608
13 3 0.434896 0.368834 0.159307
595 2 0.468085 0.351251 0.153333
596 4 0.481133 0.335926 0.138498
313 2 0.0293929 0.431276 0.0860245
626 4 0.205694 0.424033 0.118254
625 2 0.216731 0.444573 0.127282
627 4 0.227767 0.465112 0.13631
639 4 0.229647 0.484717 0.141911
1439 4 0.243301 0.499753 0.134888
637 2 0.235846 0.488926 0.165766
493 2 0.409162 0.433188 0.133151
524 4 0.357897 0.49408 0.107408
523 2 0.355158 0.476009 0.12447
525 4 0.352419 0.457937 0.141531
303 4 0.362257 0.452342 0.159056
494 4 0.416612 0.454788 0.122996
301 2 0.353367 0.429029 0.157433
659 4 0.378097 0.459472 0.168807
1420 2 0.0382814 0.999289 0.170104
688 2 0.154859 0.0120317 0.241089
674 4 0.134404 0.03944 0.245698
450 4 0.18708 0.0628411 0.180249
1505 4 0.172381 0.00236792 0.211184
691 2 0.227486 0.0664371 0.168222
692 4 0.215838 0.0616661 0.189827
723 4 0.196811 0.0713173 0.242592
21 1 0.359308 0.0722019 0.244681
23 3 0.348814 0.0540977 0.254707
25 3 0.374448 0.0648809 0.229325
759 4 0.389607 0.0636535 0.217027
757 2 0.386233 0.0652093 0.192301
743 4 0.477734 0.044615 0.244613
577 2 0.079393 0.166796 0.227863
512 4 0.00950828 0.163556 0.185348
449 4 0.158767 0.10406 0.179944
235 2 0.14529 0.138653 0.20112
237 4 0.14517 0.161283 0.211751
236 4 0.14541 0.116023 0.190488
579 4 0.0974794 0.154681 0.240164
448 2 0.172923 0.0834505 0.180097
581 4 0.29333 0.0907494 0.179778
30 3 0.289485 0.0988303 0.196939
26 1 0.28849 0.108697 0.217441
29 3 0.269257 0.12157 0.219106
28 3 0.288635 0.0924876 0.234043
27 3 0.30682 0.122322 0.22019
24 3 0.343556 0.0857963 0.23441
311 4 0.452448 0.124678 0.19396
312 4 0.426579 0.0841315 0.180267
310 2 0.439514 0.104405 0.187113
513 4 0.0496899 0.189093 0.200647
511 2 0.0295991 0.176324 0.192998
578 4 0.0613065 0.17891 0.215563
476 4 0.156752 0.202904 0.183735
284 4 0.228787 0.215803 0.225965
279 4 0.273966 0.236989 0.173545
285 4 0.270896 0.242686 0.228166
283 2 0.249841 0.229245 0.227066
765 4 0.397526 0.217089 0.222368
763 2 0.418217 0.217428 0.236401
521 4 0.455468 0.209307 0.241312
520 2 0.480326 0.206796 0.240345
394 2 0.0763593 0.28727 0.203451
396 4 0.0612338 0.298653 0.219786
443 4 0.0452989 0.30775 0.224379
362 4 0.14901 0.286994 0.170828
361 2 0.124798 0.280931 0.169331
395 4 0.0914849 0.275888 0.187116
372 4 0.154147 0.277438 0.188043
370 2 0.165302 0.267229 0.207957
371 4 0.176456 0.257021 0.22787
345 4 0.262812 0.273602 0.202213
343 2 0.264157 0.294406 0.216018
344 4 0.265502 0.31521 0.229823
309 4 0.28105 0.317929 0.243484
526 2 0.453416 0.272495 0.170591
528 4 0.465492 0.278953 0.191511
749 4 0.0693893 0.338162 0.234693
748 2 0.085541 0.353721 0.223637
646 2 0.0871194 0.368637 0.170145
750 4 0.101693 0.36928 0.212581
300 4 0.112721 0.385604 0.211686
648 4 0.098473 0.364007 0.191936
298 2 0.13093 0.385669 0.22882
299 4 0.14914 0.385734 0.245955
289 2 0.197058 0.407175 0.207737
290 4 0.220985 0.403759 0.21414
291 4 0.173131 0.410591 0.201335
15 3 0.399536 0.374942 0.170709
597 4 0.455037 0.366577 0.168167
643 2 0.443863 0.378729 0.204384
644 4 0.44778 0.380283 0.22903
645 4 0.439947 0.377174 0.179738
447 4 0.450524 0.389276 0.247415
263 4 0.052061 0.486555 0.192333
262 2 0.0500343 0.465759 0.206067
264 4 0.0480077 0.444964 0.2198
417 4 0.159716 0.475632 0.183956
415 2 0.161847 0.452321 0.192745
416 4 0.163978 0.429011 0.201534
1430 4 0.170765 0.492664 0.184141
766 2 0.224404 0.476544 0.220627
768 4 0.213451 0.476527 0.243103
767 4 0.235357 0.47656 0.19815
638 4 0.242046 0.493135 0.18962
660 4 0.37577 0.483102 0.212817
658 2 0.376934 0.471287 0.190812
231 4 0.358179 0.484569 0.220332
234 4 0.0107225 0.035928 0.326554
232 2 0.0259634 0.0221253 0.312328
233 4 0.0412042 0.0083226 0.298102
1403 4 0.0531206 0.998418 0.311484
317 4 0.0459509 0.0614436 0.328263
731 4 0.0828295 0.0689582 0.333867
690 4 0.147896 0.0301754 0.256821
673 2 0.131611 0.0548315 0.265204
675 4 0.128817 0.0702231 0.28471
1700 4 0.337998 0.0377167 0.251197
1701 4 0.290032 0.04859 0.260239
1699 2 0.314015 0.0431534 0.255718
22 3 0.370214 0.0843755 0.260868
1518 4 0.346998 0.0119446 0.307425
697 2 0.38078 0.0362883 0.291372
699 4 0.364592 0.0192074 0.299821
698 4 0.396967 0.0533691 0.282923
742 2 0.469395 0.0235071 0.255106
1749 4 0.481114 0.00915253 0.304383
351 4 0.472362 0.0568916 0.259207
349 2 0.458366 0.0728266 0.272449
480 4 0.479536 0.0290854 0.308864
478 2 0.490549 0.0443474 0.325324
256 2 0.440754 0.0675174 0.331399
399 4 0.109631 0.152023 0.308454
397 2 0.11474 0.134122 0.325146
721 2 0.199388 0.0922462 0.256028
722 4 0.201966 0.113175 0.269463
544 2 0.17254 0.146773 0.266436
546 4 0.187617 0.127345 0.270955
599 4 0.216364 0.134111 0.290962
404 4 0.232596 0.145357 0.283021
598 2 0.207022 0.120765 0.30993
600 4 0.197681 0.10742 0.328899
249 4 0.276495 0.110833 0.299349
248 4 0.325085 0.109287 0.311066
247 2 0.30079 0.11006 0.305208
632 4 0.382958 0.0947127 0.332037
333 4 0.381211 0.0839223 0.276795
331 2 0.404089 0.0913074 0.283667
257 4 0.429816 0.0834746 0.315559
350 4 0.44437 0.0887617 0.285692
332 4 0.426968 0.0986925 0.290538
762 4 0.444519 0.107011 0.312323
760 2 0.46687 0.118219 0.312194
761 4 0.489221 0.129426 0.312064
530 4 0.00215521 0.188611 0.281787
545 4 0.157463 0.166201 0.261918
393 4 0.105045 0.170756 0.30279
392 4 0.144139 0.176162 0.272079
391 2 0.124592 0.173459 0.287434
403 2 0.239652 0.169331 0.283821
405 4 0.246708 0.193305 0.284621
401 4 0.234804 0.209636 0.285912
400 2 0.213244 0.221725 0.289678
402 4 0.191684 0.233815 0.293445
418 2 0.393725 0.219326 0.31476
420 4 0.380148 0.198492 0.312154
419 4 0.407301 0.24016 0.317366
764 4 0.438909 0.217767 0.250433
444 4 0.0561829 0.300808 0.272691
442 2 0.0507409 0.304279 0.248535
390 4 0.105427 0.284781 0.311852
388 2 0.116328 0.266094 0.299317
389 4 0.12723 0.247406 0.286783
307 2 0.297847 0.316004 0.261905
308 4 0.314644 0.314079 0.280326
496 2 0.326008 0.315808 0.314042
498 4 0.335123 0.301042 0.332044
615 4 0.415872 0.325158 0.322557
543 4 0.427629 0.311356 0.33108
541 2 0.447958 0.312643 0.31658
542 4 0.468287 0.31393 0.30208
365 4 0.0273069 0.386669 0.301854
2493 4 0.022789 0.391254 0.320397
364 2 0.0253745 0.376866 0.278934
366 4 0.0234422 0.367064 0.256013
603 4 0.0907012 0.355208 0.322102
601 2 0.104223 0.37563 0.317074
734 4 0.143337 0.390108 0.263596
733 2 0.148179 0.381016 0.286379
602 4 0.117744 0.396052 0.312045
735 4 0.153022 0.371924 0.309162
777 4 0.115531 0.415911 0.315866
677 4 0.16853 0.366353 0.319266
676 2 0.190377 0.354201 0.318793
678 4 0.212224 0.342049 0.31832
497 4 0.316893 0.330575 0.296041
729 4 0.305464 0.34693 0.304339
727 2 0.312201 0.369162 0.313588
728 4 0.318939 0.391393 0.322836
434 4 0.334302 0.394976 0.334478
613 2 0.391923 0.332134 0.324278
614 4 0.367974 0.33911 0.325999
445 2 0.452061 0.401747 0.269033
446 4 0.453597 0.414217 0.29065
549 4 0.0263283 0.421205 0.314753
547 2 0.0437688 0.420446 0.332653
1756 2 0.0873352 0.473619 0.270497
1757 4 0.0864018 0.448992 0.266275
1758 4 0.0882687 0.498246 0.274719
776 4 0.102402 0.438798 0.273387
775 2 0.108967 0.427355 0.294627
414 4 0.203732 0.459138 0.244059
413 4 0.190051 0.470772 0.29073
412 2 0.196892 0.464955 0.267395
1436 4 0.216022 0.482436 0.322304
437 4 0.272747 0.481445 0.266839
436 2 0.28504 0.489269 0.287158
713 4 0.402559 0.449739 0.324537
712 2 0.414298 0.44498 0.30298
714 4 0.426037 0.440221 0.281422
428 4 0.0801404 0.0550793 0.348584
429 4 0.0884247 0.00610067 0.354344
730 2 0.100831 0.0836144 0.343158
427 2 0.0842825 0.03059 0.351464
606 4 0.149434 0.0487084 0.366451
604 2 0.163935 0.03691 0.349847
605 4 0.178436 0.0251115 0.333243
1407 4 0.279206 0.0136647 0.344457
682 2 0.262921 0.055062 0.410339
725 4 0.28775 0.0834734 0.414653
684 4 0.269999 0.0788714 0.407477
683 4 0.255843 0.0312526 0.413201
2879 4 0.481573 0.0362138 0.405979
424 2 0.440168 0.0455976 0.382882
426 4 0.448861 0.0600371 0.364413
258 4 0.451692 0.0515602 0.347239
425 4 0.431475 0.0311581 0.401351
316 2 0.0466975 0.0845917 0.337686
318 4 0.0474441 0.10774 0.347108
398 4 0.119849 0.11622 0.341838
732 4 0.118833 0.0982706 0.352449
686 4 0.17513 0.137891 0.385043
685 2 0.182838 0.130989 0.362281
687 4 0.190546 0.124088 0.339518
321 4 0.233679 0.137567 0.405583
319 2 0.247415 0.117048 0.409516
320 4 0.261151 0.0965288 0.413448
631 2 0.359654 0.091385 0.340466
633 4 0.336351 0.0880573 0.348895
514 2 0.453947 0.164962 0.40343
453 4 0.467789 0.147928 0.375388
451 2 0.48311 0.146851 0.355657
515 4 0.452546 0.162646 0.378573
2654 4 0.00963542 0.248671 0.355604
274 2 0.161041 0.225733 0.35652
276 4 0.141844 0.241528 0.359192
275 4 0.180239 0.209938 0.353849
474 4 0.198499 0.214349 0.345873
472 2 0.22129 0.213431 0.356116
473 4 0.24408 0.212512 0.366359
707 4 0.292132 0.186813 0.335744
708 4 0.254751 0.216763 0.350109
706 2 0.273441 0.201788 0.342927
716 4 0.385186 0.221464 0.393159
715 2 0.365633 0.23703 0.393904
306 4 0.474574 0.247051 0.419979
618 4 0.0416331 0.28286 0.394378
616 2 0.0470731 0.275776 0.371024
617 4 0.0525131 0.268691 0.34767
347 4 0.045639 0.2835 0.413584
510 4 0.246426 0.321254 0.393958
508 2 0.242454 0.298819 0.383659
509 4 0.238481 0.276384 0.37336
489 4 0.27438 0.253482 0.409783
488 4 0.314599 0.278242 0.393348
487 2 0.29449 0.265862 0.401565
374 4 0.26632 0.323965 0.390915
376 2 0.330134 0.29003 0.367681
377 4 0.327194 0.296097 0.391759
378 4 0.333074 0.283963 0.343604
717 4 0.346081 0.252596 0.394649
267 4 0.344111 0.27216 0.402226
269 4 0.4654 0.27144 0.370391
268 2 0.46013 0.262275 0.39305
270 4 0.454861 0.253109 0.415708
2491 2 0.00734453 0.37913 0.335878
407 4 0.0719844 0.409452 0.365545
710 4 0.142664 0.402138 0.406463
502 2 0.23233 0.398915 0.405994
503 4 0.209033 0.407103 0.409913
504 4 0.255628 0.390727 0.402076
373 2 0.261094 0.347088 0.398863
375 4 0.255867 0.370212 0.406812
433 2 0.35436 0.409905 0.334334
335 4 0.359257 0.392039 0.40546
561 4 0.452035 0.414354 0.391434
752 4 0.456072 0.415483 0.372505
559 2 0.447008 0.405814 0.41439
548 4 0.0612092 0.419688 0.350554
406 2 0.0669761 0.422935 0.385998
408 4 0.0619677 0.436418 0.40645
500 4 0.100027 0.488466 0.343724
499 2 0.122424 0.4983 0.338542
1543 2 0.187102 0.504807 0.333983
1545 4 0.210362 0.496088 0.336833
1435 2 0.239069 0.481026 0.331896
3 3 0.28496 0.429267 0.32928
1437 4 0.262117 0.479616 0.341487
5 3 0.267443 0.462417 0.332731
668 4 0.29025 0.451022 0.381069
1 1 0.285727 0.450346 0.338949
2 3 0.304731 0.461135 0.331766
4 3 0.286467 0.448437 0.362062
667 2 0.31441 0.449565 0.387342
435 4 0.374417 0.424833 0.33419
334 2 0.358462 0.416651 0.401125
669 4 0.33857 0.448108 0.393615
593 4 0.413361 0.465263 0.383012
336 4 0.357668 0.441264 0.396791
594 4 0.457614 0.4882 0.387053
119 3 0.502368 0.436294 0.332825
751 2 0.47682 0.418817 0.358957
592 2 0.435488 0.476732 0.385033
753 4 0.497569 0.422152 0.345408
718 2 0.0626723 0.0543321 0.495637
719 4 0.0824525 0.0407633 0.48858
720 4 0.0428921 0.0679009 0.502695
368 4 0.118793 0.035854 0.421215
367 2 0.137188 0.0521334 0.425883
369 4 0.155583 0.0684128 0.43055
2429 4 0.246283 0.0125627 0.469207
2428 2 0.222635 0.0206779 0.469552
341 4 0.202755 0.0428838 0.48321
340 2 0.195432 0.0664065 0.48748
2430 4 0.198988 0.028793 0.469896
724 2 0.311866 0.0801831 0.420376
439 2 0.272827 0.0108694 0.441171
441 4 0.262783 0.0208426 0.461782
430 2 0.320611 0.0655408 0.486538
432 4 0.306208 0.0521816 0.471069
726 4 0.335983 0.0768928 0.426098
2878 2 0.480805 0.0567312 0.420248
2880 4 0.480037 0.0772485 0.434518
1034 4 0.0695478 0.134639 0.492374
1033 2 0.0835347 0.155354 0.493012
342 4 0.188109 0.0899292 0.491751
468 4 0.349261 0.132022 0.434492
576 4 0.412311 0.142139 0.47425
466 2 0.338264 0.154446 0.433305
574 2 0.430233 0.153688 0.461188
642 4 0.483473 0.0968468 0.432876
641 4 0.46477 0.119872 0.473135
640 2 0.474121 0.108359 0.453006
575 4 0.448156 0.165237 0.448127
3158 4 0.453486 0.115571 0.488328
471 4 0.0450006 0.215037 0.477232
469 2 0.0292444 0.204856 0.493763
261 4 0.115743 0.187291 0.492837
260 4 0.113556 0.218302 0.453667
259 2 0.114649 0.202796 0.473252
1035 4 0.0975216 0.17607 0.493649
410 4 0.28653 0.169325 0.494109
467 4 0.327268 0.176871 0.432119
411 4 0.2697 0.213247 0.47713
409 2 0.278115 0.191286 0.485619
516 4 0.455348 0.167279 0.428286
305 4 0.477219 0.235961 0.468669
304 2 0.475897 0.241506 0.444324
346 2 0.0298441 0.29509 0.42912
348 4 0.0140492 0.30668 0.444655
695 4 0.112986 0.294942 0.46673
694 2 0.126727 0.300922 0.486745
1260 4 0.15896 0.301768 0.501063
10 3 0.165934 0.330851 0.475148
651 4 0.268362 0.259643 0.426794
650 4 0.254133 0.273261 0.472759
649 2 0.261247 0.266452 0.449776
266 4 0.341488 0.292539 0.447817
265 2 0.342799 0.28235 0.425022
585 4 0.41128 0.28754 0.420107
2455 2 0.48503 0.31372 0.466649
2456 4 0.463768 0.301188 0.46264
583 2 0.431335 0.29069 0.434703
584 4 0.45139 0.29384 0.4493
326 4 0.0714594 0.370601 0.451471
7 3 0.130466 0.341875 0.478803
327 4 0.112061 0.349175 0.471299
325 2 0.09176 0.359888 0.461385
6 1 0.15238 0.348857 0.478423
709 2 0.148234 0.385234 0.424024
8 3 0.155107 0.36407 0.461116
711 4 0.153804 0.36833 0.441586
9 3 0.15739 0.358952 0.498706
804 4 0.290587 0.364505 0.503555
238 2 0.361486 0.378453 0.438043
240 4 0.370332 0.37737 0.414681
239 4 0.35264 0.379535 0.461404
560 4 0.44198 0.397274 0.437346
927 4 0.46694 0.387873 0.494025
681 4 0.0313038 0.469168 0.418735
540 4 0.0415709 0.482283 0.488921
680 4 0.0192582 0.477003 0.466634
1383 4 0.000580959 0.484236 0.463572
679 2 0.025281 0.473085 0.442685
570 4 0.124926 0.444095 0.430443
568 2 0.122023 0.431489 0.451841
569 4 0.11912 0.418883 0.473238
384 4 0.11933 0.434301 0.485163
636 4 0.187917 0.457346 0.423452
774 4 0.223577 0.438884 0.472801
634 2 0.206216 0.454024 0.440163
772 2 0.219679 0.435565 0.497274
635 4 0.224515 0.450702 0.456875
1454 4 0.319625 0.493797 0.491245
1399 2 0.353789 0.475405 0.478657
1400 4 0.370479 0.456899 0.476627
1401 4 0.337099 0.493912 0.480688
586 2 0.404066 0.450088 0.451145
588 4 0.389034 0.455737 0.470311
587 4 0.419097 0.444439 0.431979
1126 2 0.0214319 0.0666207 0.530699
1127 4 0.0220612 0.0689963 0.505817
1128 4 0.0208026 0.064245 0.555582
1058 4 0.1147 0.0536424 0.546669
1057 2 0.121042 0.0574188 0.570558
1180 2 0.251514 0.0551151 0.51686
1182 4 0.234596 0.0721033 0.509764
961 2 0.296458 0.0274922 0.532635
962 4 0.30727 0.016591 0.552369
963 4 0.285646 0.0383934 0.512901
1181 4 0.268432 0.0381269 0.523957
1217 4 0.402827 0.0850226 0.534772
842 4 0.398252 0.073063 0.519269
841 2 0.376027 0.0765717 0.508366
431 4 0.335014 0.0789 0.502006
843 4 0.353801 0.0800805 0.497462
1216 2 0.424057 0.0812593 0.547434
1218 4 0.445287 0.077496 0.560095
939 4 0.13391 0.13828 0.529536
937 2 0.131175 0.160472 0.518345
1151 4 0.151284 0.127151 0.529258
1150 2 0.169862 0.115948 0.516827
1032 4 0.244835 0.0886176 0.576451
1152 4 0.18844 0.104746 0.504396
898 2 0.325213 0.153167 0.563404
899 4 0.304427 0.140059 0.568018
857 4 0.287477 0.147451 0.56078
856 2 0.270557 0.165685 0.56331
900 4 0.346 0.166274 0.55879
3157 2 0.462903 0.134565 0.501585
3159 4 0.472321 0.153558 0.514841
470 4 0.0134883 0.194675 0.510294
1199 4 0.00857523 0.187759 0.575644
938 4 0.12844 0.182663 0.507154
877 2 0.0828695 0.244051 0.580454
879 4 0.104079 0.232663 0.573697
858 4 0.253636 0.183919 0.565841
797 4 0.26946 0.196713 0.567789
796 2 0.267764 0.21924 0.578505
871 2 0.380596 0.229785 0.531651
872 4 0.383615 0.217513 0.553225
873 4 0.377578 0.242058 0.510077
3065 4 0.497967 0.22851 0.504562
696 4 0.140469 0.306902 0.50676
1258 2 0.174936 0.300105 0.520225
1259 4 0.190912 0.298443 0.539387
812 4 0.325766 0.281534 0.50688
792 4 0.277714 0.311096 0.576295
811 2 0.347867 0.270747 0.51139
813 4 0.369969 0.259961 0.5159
897 4 0.15278 0.365837 0.574186
1135 2 0.112057 0.374373 0.57676
383 4 0.14028 0.41211 0.524778
1136 4 0.0885299 0.378303 0.569264
895 2 0.177225 0.361849 0.570762
1189 2 0.228322 0.371679 0.546466
896 4 0.201669 0.35786 0.567338
1191 4 0.220777 0.366815 0.569802
1190 4 0.235866 0.376543 0.523129
803 4 0.246572 0.387797 0.508127
802 2 0.268579 0.376151 0.505841
929 4 0.340823 0.380738 0.56098
928 2 0.365472 0.376547 0.561139
930 4 0.390122 0.372356 0.561298
1206 4 0.396797 0.357848 0.574073
925 2 0.45526 0.380858 0.514991
926 4 0.443581 0.373844 0.535957
1001 4 0.441755 0.403523 0.555681
538 2 0.0508755 0.500274 0.503581
382 2 0.129805 0.423206 0.504971
1173 4 0.234962 0.429161 0.560529
773 4 0.21578 0.432246 0.521748
1171 2 0.252362 0.434651 0.543432
1172 4 0.269761 0.440141 0.526336
882 4 0.285046 0.452456 0.526729
880 2 0.302764 0.465255 0.514586
881 4 0.320482 0.478053 0.502443
1000 2 0.430559 0.424974 0.561981
661 2 0.494498 0.469197 0.504752
663 4 0.490421 0.444528 0.504608
1002 4 0.419363 0.446425 0.568281
662 4 0.498575 0.493865 0.504896
1910 4 0.434921 0.457657 0.575937
1909 2 0.44799 0.477655 0.583317
1185 4 0.0210015 0.037676 0.65242
945 4 0.0376874 0.0503494 0.655283
2319 4 0.0449078 0.01996 0.663142
1059 4 0.127385 0.0611952 0.594447
1155 4 0.137008 0.0780797 0.590962
825 4 0.126831 0.0251673 0.601701
823 2 0.139875 0.0039142 0.603528
1030 2 0.233663 0.0721746 0.591616
1031 4 0.222491 0.0557317 0.606782
951 4 0.204933 0.0566149 0.598706
949 2 0.187727 0.0392767 0.593366
950 4 0.170521 0.0219385 0.588025
1004 4 0.360405 0.0640926 0.656294
1003 2 0.343345 0.0792004 0.646004
4466 4 0.493618 0.00643623 0.58886
4465 2 0.473863 0.02161 0.591018
4467 4 0.454107 0.0367838 0.593176
2283 4 0.437457 0.0467338 0.597129
2282 4 0.438409 0.0519362 0.646856
2281 2 0.437933 0.049335 0.621993
45 3 0.481897 0.0696704 0.655058
810 4 0.491571 0.0522698 0.649537
43 3 0.447177 0.0578732 0.663605
1082 4 0.0629491 0.129725 0.636041
1081 2 0.0705269 0.105948 0.637595
1083 4 0.0781047 0.0821707 0.639149
1153 2 0.158347 0.0910237 0.592472
1154 4 0.179686 0.103968 0.593983
1221 4 0.197407 0.115038 0.590118
1283 4 0.171719 0.0983262 0.657738
1219 2 0.211262 0.130421 0.604138
1220 4 0.225117 0.145805 0.618158
1212 4 0.224585 0.146695 0.638194
1210 2 0.240659 0.157182 0.654219
908 4 0.18912 0.16763 0.660418
1005 4 0.326285 0.0943083 0.635713
888 4 0.27119 0.156742 0.662911
1272 4 0.107057 0.220141 0.588739
1270 2 0.119227 0.204247 0.603722
1271 4 0.131397 0.188354 0.618704
909 4 0.190077 0.216418 0.671349
907 2 0.189598 0.192024 0.665884
798 4 0.266067 0.241767 0.58922
1026 4 0.405598 0.218136 0.647504
1024 2 0.418452 0.198112 0.655185
1025 4 0.431307 0.178089 0.662866
3122 4 0.499628 0.248773 0.669714
906 4 0.496677 0.246602 0.622586
878 4 0.0616602 0.255439 0.587211
1208 4 0.0747134 0.264598 0.667555
1244 4 0.0496563 0.32472 0.648334
1243 2 0.0373204 0.302982 0.64902
1245 4 0.0249846 0.281244 0.649706
1179 4 0.00571173 0.280238 0.654885
1209 4 0.113652 0.258214 0.636835
1207 2 0.0941828 0.261406 0.652195
1239 4 0.218032 0.320531 0.585538
1237 2 0.242699 0.319551 0.589503
948 4 0.18495 0.299437 0.650662
946 2 0.174447 0.297612 0.628045
947 4 0.163944 0.295788 0.605427
791 4 0.304464 0.272471 0.59342
1238 4 0.267367 0.318571 0.593468
790 2 0.291089 0.291784 0.584858
953 4 0.436158 0.269949 0.614613
952 2 0.43706 0.294707 0.611236
954 4 0.437962 0.319465 0.607859
983 4 0.0310015 0.377018 0.629952
1039 2 0.0538913 0.368087 0.609858
1041 4 0.029493 0.364128 0.61363
982 2 0.0141509 0.368952 0.646571
1040 4 0.0782895 0.372046 0.606085
1137 4 0.135585 0.370444 0.584256
993 4 0.0908032 0.383954 0.61458
991 2 0.0964747 0.398245 0.634297
992 4 0.102146 0.412537 0.654015
1204 2 0.416699 0.364053 0.587879
1205 4 0.436601 0.370258 0.601685
2129 4 0.0147367 0.501337 0.647296
2170 2 0.114884 0.496437 0.651179
1160 4 0.203401 0.451523 0.612645
1159 2 0.20053 0.476026 0.616709
1161 4 0.197659 0.50053 0.620774
1028 4 0.217926 0.425277 0.664007
1186 2 0.243607 0.49945 0.645033
1187 4 0.248277 0.483339 0.62649
890 4 0.327771 0.420642 0.597214
889 2 0.31855 0.443009 0.603526
891 4 0.309328 0.465377 0.609838
1952 4 0.326665 0.473037 0.615578
1951 2 0.347489 0.486737 0.61753
1911 4 0.461058 0.497653 0.590698
943 2 0.0535583 0.0629095 0.669964
2317 2 0.0254572 0.0115274 0.676399
944 4 0.0694292 0.0754695 0.684645
1075 2 0.0509038 0.070605 0.724174
1077 4 0.0466349 0.0698344 0.748799
1076 4 0.0551727 0.0713756 0.69955
41 1 0.465892 0.0692608 0.671254
1163 4 0.481846 0.0464386 0.704317
42 3 0.47414 0.0584107 0.689785
1106 4 0.0817738 0.157895 0.741073
1282 2 0.185583 0.106055 0.677057
1284 4 0.199448 0.113783 0.696376
1227 4 0.208793 0.132625 0.70022
1225 2 0.210754 0.125829 0.724203
1226 4 0.212715 0.119033 0.748185
1148 4 0.211575 0.0997772 0.742572
1211 4 0.256733 0.167669 0.670244
886 2 0.291319 0.155999 0.677726
887 4 0.311447 0.155255 0.692541
830 4 0.316689 0.155241 0.713073
1142 4 0.391397 0.15742 0.706964
1141 2 0.409821 0.159927 0.690247
44 3 0.460096 0.0909259 0.677207
1105 2 0.0782402 0.17813 0.726816
1107 4 0.0747065 0.198364 0.71256
851 4 0.0599433 0.206704 0.70174
852 4 0.0154386 0.222181 0.684991
850 2 0.037691 0.214442 0.693366
1178 4 0.999653 0.237486 0.680108
821 4 0.13461 0.24675 0.740904
1064 4 0.232593 0.250408 0.713518
829 2 0.328798 0.171668 0.727519
831 4 0.340908 0.188094 0.741965
1193 4 0.365802 0.202165 0.687441
1192 2 0.380872 0.221477 0.69245
1194 4 0.395943 0.240789 0.69746
1262 4 0.412035 0.235045 0.708647
1143 4 0.428245 0.162433 0.67353
3356 4 0.482509 0.213739 0.70966
3355 2 0.491001 0.221575 0.687486
1261 2 0.433017 0.222387 0.713616
1263 4 0.453999 0.209729 0.718584
1145 4 0.471375 0.199833 0.719987
1144 2 0.486491 0.192736 0.738597
1177 2 0.00268235 0.258862 0.667497
1065 4 0.268285 0.275752 0.689341
1063 2 0.250439 0.26308 0.701429
806 4 0.369112 0.325189 0.685943
892 2 0.0589887 0.391863 0.706925
894 4 0.0348025 0.397761 0.704597
3276 4 0.0326199 0.376155 0.749454
893 4 0.0831749 0.385966 0.709253
941 4 0.155955 0.421712 0.717757
1067 4 0.174874 0.418839 0.713204
807 4 0.384919 0.361129 0.716913
805 2 0.377015 0.343159 0.701428
1020 4 0.401081 0.356425 0.727444
1018 2 0.400722 0.378987 0.738217
1019 4 0.400363 0.401548 0.748989
1280 4 0.0366633 0.418819 0.707681
1281 4 0.0240075 0.464296 0.724187
1279 2 0.0303354 0.441558 0.715934
1983 4 0.0324631 0.479446 0.733957
1981 2 0.0105901 0.48417 0.745112
2172 4 0.116506 0.483192 0.672324
940 2 0.136797 0.42235 0.733811
1027 2 0.24131 0.423699 0.672717
1068 4 0.20208 0.416362 0.671319
1066 2 0.188477 0.417601 0.692262
1029 4 0.264695 0.42212 0.681427
1139 4 0.283074 0.429677 0.682881
1138 2 0.302926 0.440328 0.693727
1140 4 0.322778 0.450978 0.704574
1987 2 0.315703 0.486067 0.727123
1989 4 0.323272 0.470172 0.709369
1229 4 0.337076 0.443289 0.716773
1228 2 0.360112 0.447629 0.725474
1230 4 0.383148 0.451968 0.734176
1100 4 0.485624 0.469698 0.725562
1099 2 0.484757 0.489078 0.709787
1250 4 0.475973 0.44801 0.743571
3329 4 0.493326 0.458771 0.74084
1269 4 0.465551 0.49767 0.687002
1203 4 0.0537059 0.0452309 0.767167
1201 2 0.0767487 0.0355261 0.766999
864 4 0.0470123 0.0647591 0.768814
911 4 0.0725051 0.0819126 0.794332
1202 4 0.0997914 0.0258214 0.766831
2049 4 0.108123 0.00909751 0.775409
1147 2 0.2147 0.0792856 0.756555
1149 4 0.217825 0.058794 0.770537
1256 4 0.28611 0.0528591 0.800704
1255 2 0.285332 0.0778269 0.801792
1112 4 0.408994 0.0473831 0.792284
817 2 0.360887 0.0776834 0.828115
980 4 0.434399 0.0143137 0.829019
846 4 0.469944 0.0408833 0.797168
1113 4 0.45418 0.0319394 0.80713
844 2 0.494657 0.0443778 0.795666
1111 2 0.431587 0.0396612 0.799707
910 2 0.0851749 0.084252 0.81576
862 2 0.0374573 0.084977 0.78
863 4 0.0279023 0.105195 0.791185
833 4 0.0135693 0.119326 0.786461
35 3 0.0966777 0.150779 0.752158
33 3 0.0975352 0.138913 0.787881
31 1 0.107398 0.152825 0.772146
32 3 0.129428 0.146717 0.769588
1130 4 0.226135 0.138102 0.787464
840 4 0.224225 0.117819 0.785581
838 2 0.247758 0.119011 0.793945
1129 2 0.21267 0.158814 0.783607
1257 4 0.284553 0.102795 0.802879
839 4 0.271291 0.120204 0.802309
958 2 0.282924 0.153179 0.826066
959 4 0.271656 0.142036 0.806726
819 4 0.364577 0.0919824 0.807939
1084 2 0.357632 0.121411 0.796034
1085 4 0.351395 0.0974417 0.792601
1086 4 0.363868 0.145379 0.799466
47 3 0.416437 0.162239 0.828466
1299 4 0.37793 0.158299 0.793552
34 3 0.106514 0.174852 0.779386