ITEM: TIMESTEP
2980000
ITEM: NUMBER OF ATOMS
4590
ITEM: BOX BOUNDS pp pp pp
-9.9985700000000008e+00 9.9985700000000008e+00
-9.9985700000000008e+00 9.9985700000000008e+00
-9.9985700000000008e+00 9.9985700000000008e+00
ITEM: ATOMS id type xs ys zs
463 2 0.0171761 0.0444978 0.0162852
464 4 0.00818227 0.0213976 0.0195517
1668 4 0.0515402 0.0607905 0.0518875
1666 2 0.0381691 0.0582701 0.0728645
3290 4 0.0643994 0.0458292 0.0571821
465 4 0.0261699 0.067598 0.0130188
701 4 0.0158237 0.0674678 0.995431
3289 2 0.0812252 0.0395455 0.0397872
3291 4 0.0980511 0.0332618 0.0223922
2183 4 0.0878803 0.0288234 0.00422963
566 4 0.160659 0.0533786 0.0155318
565 2 0.174248 0.042335 0.0333801
567 4 0.187837 0.0312915 0.0512284
490 2 0.311674 0.0101915 0.0549933
491 4 0.3186 0.0265409 0.0373895
985 2 0.302376 0.0451815 0.0132954
987 4 0.304813 0.0429664 0.0380812
745 2 0.484715 0.0332121 0.0700306
746 4 0.466272 0.0491299 0.0644035
747 4 0.503158 0.0172944 0.0756577
450 4 0.0848922 0.100817 0.0749144
460 2 0.291604 0.149484 0.0411113
462 4 0.308999 0.131855 0.0376757
461 4 0.274209 0.167114 0.0445468
422 4 0.0635304 0.183702 0.0099801
421 2 0.082856 0.171387 0.999978
506 4 0.166342 0.240588 0.0790025
737 4 0.172665 0.23558 0.0602168
736 2 0.187618 0.21715 0.0523482
738 4 0.20257 0.19872 0.0444795
354 4 0.222115 0.202514 0.0430138
352 2 0.241841 0.188306 0.0371675
353 4 0.261568 0.174098 0.0313212
1069 2 0.389508 0.237069 0.00284435
323 4 0.485373 0.244169 0.0256817
828 4 0.49036 0.238949 0.00823511
836 4 0.0405447 0.255529 0.0108183
3339 4 0.00926212 0.286807 3.73006e-05
2807 4 0.992865 0.281356 0.00817878
294 4 0.0892254 0.312509 0.0754645
505 2 0.147874 0.253325 0.0679627
292 2 0.10524 0.29335 0.0741848
293 4 0.121254 0.274191 0.0729052
507 4 0.129406 0.266062 0.0569229
287 4 0.127489 0.29001 0.0151676
286 2 0.140804 0.310356 0.0093424
612 4 0.259089 0.297043 0.0490289
610 2 0.26675 0.282742 0.0680548
609 4 0.261376 0.316311 0.0496684
611 4 0.27441 0.268442 0.0870806
1071 4 0.375131 0.254073 0.0142176
573 4 0.354913 0.26166 0.0133585
571 2 0.33613 0.277841 0.0101108
324 4 0.466005 0.285252 0.00475922
322 2 0.475689 0.26471 0.0152205
1046 4 0.493594 0.334686 0.000166136
519 4 0.506485 0.260734 0.0523462
1045 2 0.490985 0.340293 0.0243928
2841 4 0.511936 0.278171 0.0625076
2787 4 0.995448 0.353884 0.0766682
990 4 0.153319 0.350535 0.00825802
1289 4 0.18847 0.392187 0.016704
988 2 0.168182 0.366469 0.0205203
989 4 0.183046 0.382403 0.0327825
1288 2 0.195641 0.410964 0.00183244
607 2 0.262638 0.338572 0.0383537
739 2 0.326925 0.351826 0.0389865
250 2 0.287476 0.397156 0.0332143
252 4 0.275089 0.377043 0.0250158
608 4 0.263901 0.360833 0.027039
740 4 0.339645 0.363129 0.0573068
251 4 0.299862 0.41727 0.0414127
741 4 0.314206 0.340523 0.0206662
386 4 0.338687 0.362473 0.0769521
226 2 0.380029 0.383244 0.0252545
228 4 0.373569 0.407346 0.0236577
227 4 0.386488 0.359142 0.0268513
1305 4 0.382617 0.359395 0.0060431
281 4 0.429792 0.35162 0.0724625
280 2 0.454582 0.350701 0.0693388
282 4 0.479373 0.349782 0.066215
1047 4 0.488376 0.3459 0.0486195
552 4 0.0019269 0.463917 0.0738019
314 4 0.995598 0.450323 0.0883129
550 2 0.00780457 0.474185 0.0517749
551 4 0.0136822 0.484454 0.0297478
1788 4 0.147537 0.491726 0.0812572
1786 2 0.165549 0.494385 0.0641196
243 4 0.238146 0.452941 0.0505302
1440 4 0.235134 0.444104 0.0684391
241 2 0.217453 0.466973 0.0502134
242 4 0.196761 0.481006 0.0498966
1787 4 0.18356 0.497045 0.046982
524 4 0.313233 0.428616 0.0513502
271 2 0.285671 0.47859 0.0679928
525 4 0.358041 0.419993 0.0308918
523 2 0.335637 0.424304 0.041121
1583 4 0.452384 0.440667 0.0532004
1582 2 0.455898 0.463745 0.0621588
1584 4 0.459412 0.486822 0.0711172
1667 4 0.0247979 0.0557498 0.0938416
16 1 0.0404349 0.060019 0.132127
19 3 0.0204684 0.0665945 0.14195
17 3 0.0364771 0.0546496 0.110112
20 3 0.0487656 0.0417754 0.142916
1422 4 0.0148413 0.0495852 0.157543
2480 4 0.00290507 0.0672539 0.157194
652 2 0.244311 0.0438219 0.16113
654 4 0.24818 0.0314504 0.139748
1476 4 0.267466 0.0283704 0.135288
1475 4 0.302327 0.0496053 0.106401
1474 2 0.284896 0.0389879 0.120845
297 4 0.381634 0.0365436 0.12049
295 2 0.399451 0.0532995 0.125685
484 2 0.360092 0.0132448 0.122788
485 4 0.364229 0.0354167 0.111996
296 4 0.417267 0.0700554 0.13088
557 4 0.432987 0.0654714 0.120597
556 2 0.453581 0.0794116 0.123198
18 3 0.0557788 0.0774048 0.132966
236 4 0.137139 0.118128 0.108633
449 4 0.117193 0.122497 0.106337
448 2 0.101043 0.111657 0.0906256
235 2 0.157041 0.124659 0.122287
237 4 0.176943 0.131189 0.135941
477 4 0.237787 0.16241 0.155363
580 2 0.318261 0.124051 0.149112
581 4 0.297974 0.138395 0.151914
30 3 0.286865 0.152951 0.145799
582 4 0.338549 0.109707 0.146311
758 4 0.347014 0.0922719 0.145582
757 2 0.353042 0.0862387 0.169086
558 4 0.474174 0.0933518 0.1258
771 4 0.47792 0.104141 0.14114
769 2 0.489392 0.113106 0.161467
372 4 0.164732 0.237468 0.17847
371 4 0.187258 0.198006 0.157587
476 4 0.19066 0.179108 0.154392
475 2 0.214224 0.170759 0.154877
370 2 0.175995 0.217737 0.168029
29 3 0.256174 0.170335 0.158973
756 4 0.35377 0.252566 0.13231
754 2 0.34778 0.248367 0.156219
624 4 0.464326 0.242663 0.135516
629 4 0.452491 0.235292 0.121424
628 2 0.435521 0.245214 0.105973
622 2 0.463887 0.250625 0.159214
339 4 0.0442 0.302564 0.159991
456 4 0.0910261 0.322803 0.093057
279 4 0.274587 0.278904 0.143163
277 2 0.282391 0.270181 0.121068
278 4 0.290196 0.261457 0.0989739
285 4 0.265759 0.27312 0.159574
255 4 0.358689 0.258922 0.113409
254 4 0.407376 0.265745 0.104255
253 2 0.383033 0.262334 0.108832
630 4 0.418551 0.255136 0.0905218
619 2 0.0371578 0.376587 0.126231
620 4 0.0588882 0.368391 0.11697
621 4 0.0154274 0.384784 0.135493
2694 4 0.00660273 0.402603 0.13796
454 2 0.0984136 0.346683 0.0924847
455 4 0.105801 0.370564 0.0919124
537 4 0.11679 0.38802 0.144696
535 2 0.129351 0.374471 0.127849
536 4 0.141912 0.360923 0.111002
647 4 0.119248 0.405558 0.154248
625 2 0.232053 0.38917 0.141142
627 4 0.227598 0.407305 0.124515
626 4 0.236508 0.371034 0.157768
670 2 0.408529 0.355432 0.100342
385 2 0.345364 0.372968 0.0986419
387 4 0.352042 0.383463 0.120332
12 3 0.40923 0.388265 0.119967
11 1 0.390258 0.399619 0.126317
15 3 0.37226 0.390782 0.115518
672 4 0.398459 0.371212 0.116919
302 4 0.354077 0.405057 0.115851
13 3 0.387561 0.397477 0.149263
671 4 0.418598 0.339652 0.0837663
104 3 0.487581 0.350895 0.0859858
313 2 0.000797599 0.432841 0.105415
1466 4 0.996785 0.49131 0.117408
1620 4 0.158811 0.491672 0.142178
1431 4 0.16716 0.497677 0.158413
1619 4 0.141145 0.50142 0.0964217
1618 2 0.149978 0.496546 0.1193
1438 2 0.232401 0.427452 0.0868896
1439 4 0.229668 0.4108 0.10534
272 4 0.290378 0.459029 0.0828392
639 4 0.267834 0.485052 0.130728
638 4 0.30724 0.458226 0.145837
637 2 0.287537 0.471639 0.138282
303 4 0.322176 0.442021 0.126654
659 4 0.32277 0.447365 0.145615
301 2 0.338126 0.423539 0.121253
1559 4 0.363962 0.4996 0.148485
14 3 0.392671 0.421998 0.120679
495 4 0.397439 0.439555 0.126942
493 2 0.409407 0.459802 0.118457
494 4 0.421375 0.48005 0.109972
1420 2 0.00089327 0.0312809 0.16732
674 4 0.141987 0.0809116 0.204555
690 4 0.158626 0.0681857 0.201284
688 2 0.162056 0.0443006 0.194733
689 4 0.165487 0.0204154 0.188182
1505 4 0.185214 0.0203378 0.182964
653 4 0.240443 0.0561934 0.182511
693 4 0.253245 0.0715667 0.180699
691 2 0.269011 0.0774119 0.199204
1699 2 0.32548 0.0807221 0.21736
1701 4 0.302101 0.0747797 0.223942
1700 4 0.348858 0.0866646 0.210779
22 3 0.391567 0.0642002 0.225746
698 4 0.409309 0.0676285 0.23327
21 1 0.383645 0.0834516 0.21596
333 4 0.412432 0.084291 0.221258
759 4 0.359071 0.0802054 0.19259
697 2 0.415101 0.0438204 0.238251
349 2 0.491484 0.0660011 0.226185
699 4 0.420893 0.0200124 0.243232
742 2 0.484855 0.0051637 0.246385
2479 2 0.997068 0.0886815 0.168682
513 4 0.0108061 0.151683 0.230524
578 4 0.031624 0.154177 0.231886
511 2 0.00360566 0.133605 0.214824
673 2 0.147234 0.0885123 0.227791
692 4 0.284776 0.083257 0.21771
28 3 0.261619 0.133324 0.165676
26 1 0.272031 0.153894 0.163054
23 3 0.364818 0.0905442 0.22752
25 3 0.378276 0.0791668 0.194247
24 3 0.400158 0.0997223 0.216969
770 4 0.500864 0.122071 0.181794
331 2 0.43666 0.090359 0.220077
312 4 0.484695 0.131168 0.190876
310 2 0.488041 0.139101 0.214351
350 4 0.476513 0.0857112 0.229728
332 4 0.460887 0.096427 0.218895
311 4 0.491387 0.147035 0.237825
577 2 0.0364002 0.178718 0.232216
529 2 0.0182824 0.230698 0.20836
530 4 0.0269572 0.215063 0.225838
579 4 0.0411764 0.203259 0.232546
531 4 0.00960766 0.246333 0.190882
362 4 0.149513 0.247976 0.171566
361 2 0.127666 0.257038 0.179677
27 3 0.28328 0.15906 0.182443
704 4 0.0362308 0.306983 0.179474
337 2 0.0637532 0.291045 0.170488
703 2 0.0263071 0.317129 0.200059
705 4 0.0163835 0.327276 0.220644
2483 4 0.00747546 0.251763 0.171519
363 4 0.105819 0.2661 0.187787
338 4 0.0833063 0.279527 0.180984
395 4 0.0952238 0.281049 0.196252
396 4 0.0956926 0.289488 0.24554
394 2 0.0954582 0.285269 0.220896
283 2 0.28036 0.274264 0.179839
284 4 0.29496 0.275408 0.200105
755 4 0.34179 0.244167 0.180129
528 4 0.444721 0.300571 0.227921
623 4 0.463449 0.258586 0.182913
527 4 0.44791 0.266271 0.191671
526 2 0.446316 0.283421 0.209796
542 4 0.44639 0.293988 0.247704
2615 4 0.00712389 0.344324 0.214912
300 4 0.109993 0.391185 0.220644
646 2 0.119142 0.402312 0.179039
648 4 0.119037 0.399065 0.203831
298 2 0.115319 0.376306 0.240019
289 2 0.222085 0.403875 0.246413
416 4 0.191925 0.411536 0.227454
597 4 0.392994 0.388669 0.168362
345 4 0.357163 0.363138 0.208442
596 4 0.353091 0.366427 0.188704
645 4 0.398583 0.410469 0.164711
595 2 0.373043 0.377548 0.178533
343 2 0.365072 0.368076 0.231642
344 4 0.372982 0.373014 0.254842
263 4 0.054917 0.415966 0.255753
290 4 0.211755 0.411256 0.224872
417 4 0.173456 0.433591 0.186549
1429 2 0.169164 0.474475 0.167514
1430 4 0.171168 0.451273 0.176616
415 2 0.182691 0.422563 0.207002
438 4 0.258251 0.469095 0.221626
436 2 0.270854 0.469926 0.243206
658 2 0.33423 0.455369 0.166347
643 2 0.401918 0.429553 0.180518
229 2 0.36927 0.499967 0.198457
644 4 0.405253 0.448637 0.196325
660 4 0.345689 0.463373 0.187078
231 4 0.35547 0.479853 0.192965
447 4 0.4049 0.456122 0.214307
445 2 0.417874 0.44832 0.234207
1403 4 0.0315418 0.0179731 0.257908
233 4 0.0282652 0.0326979 0.272086
232 2 0.0341325 0.0568977 0.27435
234 4 0.0399998 0.0810975 0.276614
317 4 0.0535102 0.0746515 0.291404
722 4 0.170975 0.0882681 0.256619
1407 4 0.239564 0.00801357 0.274935
1405 2 0.224377 0.0276882 0.277664
1406 4 0.20919 0.0473628 0.280393
721 2 0.18001 0.0848893 0.279687
723 4 0.189045 0.0815104 0.302755
599 4 0.187606 0.0823269 0.323039
1518 4 0.418511 0.999789 0.247485
743 4 0.489157 0.0184282 0.267139
425 4 0.476985 0.0120921 0.2823
424 2 0.470382 0.0340213 0.292334
258 4 0.451387 0.072389 0.298068
426 4 0.463778 0.0559504 0.302368
256 2 0.460894 0.0836159 0.318286
316 2 0.0698328 0.0911253 0.300751
318 4 0.0861554 0.107599 0.310098
393 4 0.0848368 0.148654 0.318066
675 4 0.152481 0.096113 0.251026
391 2 0.083977 0.148289 0.29308
392 4 0.0831172 0.147924 0.268094
544 2 0.120814 0.124981 0.257971
545 4 0.098054 0.133986 0.263078
546 4 0.143574 0.115976 0.252865
399 4 0.100671 0.135889 0.326029
404 4 0.241568 0.0882675 0.291281
403 2 0.235608 0.112532 0.29035
405 4 0.229647 0.136797 0.28942
401 4 0.239673 0.149284 0.277437
400 2 0.242793 0.173192 0.28406
402 4 0.245912 0.197099 0.290684
707 4 0.276641 0.186305 0.332052
765 4 0.433877 0.201611 0.335853
763 2 0.445008 0.20045 0.313494
764 4 0.456139 0.199289 0.291135
442 2 0.0751058 0.273378 0.27477
444 4 0.0651212 0.254348 0.28755
443 4 0.0850905 0.292408 0.261989
497 4 0.314961 0.27186 0.316614
496 2 0.332404 0.267772 0.334056
541 2 0.430688 0.307154 0.262032
543 4 0.414987 0.320321 0.27636
614 4 0.423434 0.341783 0.332365
749 4 0.063608 0.334729 0.285037
366 4 0.0495796 0.346619 0.295453
365 4 0.00791923 0.373935 0.299804
364 2 0.0287494 0.360277 0.297629
602 4 0.0711954 0.396463 0.308881
601 2 0.0822396 0.390188 0.330417
748 2 0.0861279 0.342168 0.277119
299 4 0.120645 0.361427 0.259395
750 4 0.108648 0.349608 0.269202
777 4 0.0881562 0.408519 0.304629
735 4 0.139996 0.395886 0.290072
733 2 0.144204 0.371273 0.288789
734 4 0.148411 0.346659 0.287507
677 4 0.159926 0.398573 0.292051
291 4 0.232414 0.396495 0.267954
414 4 0.241256 0.413036 0.274354
504 4 0.196719 0.400335 0.328969
412 2 0.257217 0.415788 0.293402
308 4 0.340989 0.373281 0.314446
729 4 0.337789 0.377087 0.33393
413 4 0.273179 0.418539 0.312451
615 4 0.407009 0.336033 0.285483
309 4 0.367116 0.365223 0.272575
307 2 0.354053 0.369252 0.293511
613 2 0.415222 0.338908 0.308924
2924 4 0.491826 0.350665 0.317122
2923 2 0.467976 0.349257 0.324494
2862 4 0.477913 0.389971 0.274172
2860 2 0.49249 0.388033 0.25395
120 3 0.481206 0.396211 0.296594
119 3 0.488681 0.401187 0.333159
713 4 0.47521 0.412374 0.281177
2925 4 0.444125 0.347849 0.331867
262 2 0.0426002 0.436339 0.263396
264 4 0.0302834 0.456712 0.271039
1758 4 0.11018 0.505052 0.276065
775 2 0.100981 0.424111 0.289877
1757 4 0.116324 0.456537 0.286517
776 4 0.113806 0.439703 0.275126
1756 2 0.113252 0.480794 0.281291
676 2 0.169422 0.421285 0.287675
678 4 0.178919 0.443997 0.283299
768 4 0.175341 0.464088 0.282771
766 2 0.192659 0.481998 0.284899
502 2 0.205177 0.42363 0.332287
1545 4 0.239614 0.498694 0.318187
5 3 0.268203 0.411924 0.331531
1436 4 0.257164 0.492678 0.325469
437 4 0.283456 0.470758 0.264785
1437 4 0.277796 0.476003 0.283078
1435 2 0.26748 0.484341 0.304274
433 2 0.311552 0.449483 0.316513
435 4 0.310134 0.464004 0.296208
446 4 0.430848 0.440517 0.254106
712 2 0.455859 0.427685 0.277139
714 4 0.436508 0.442996 0.273102
368 4 0.0684289 0.0570928 0.413619
731 4 0.0841021 0.0663374 0.405025
730 2 0.10197 0.0667429 0.387539
604 2 0.140758 0.0690008 0.348677
606 4 0.160927 0.0564398 0.340892
249 4 0.305953 0.022577 0.359549
684 4 0.288137 0.0331347 0.358252
682 2 0.271182 0.0508845 0.363008
683 4 0.254226 0.0686343 0.367765
247 2 0.325427 0.0382568 0.35982
248 4 0.344901 0.0539366 0.360091
633 4 0.347315 0.0531326 0.379399
631 2 0.345541 0.0707877 0.397015
1747 2 0.464206 0.0141478 0.343471
1749 4 0.488032 0.0214818 0.345394
2586 4 0.996349 0.151517 0.402915
732 4 0.119837 0.0671483 0.370053
397 2 0.105432 0.143459 0.349379
605 4 0.120589 0.0815617 0.356463
598 2 0.198143 0.0999535 0.337303
600 4 0.208681 0.11758 0.351566
685 2 0.199266 0.14224 0.376344
687 4 0.195199 0.131222 0.354271
686 4 0.203333 0.153259 0.398418
410 4 0.221611 0.147933 0.396623
321 4 0.255455 0.0857929 0.376365
319 2 0.265272 0.0942791 0.397737
419 4 0.36254 0.162147 0.386958
418 2 0.350786 0.144123 0.399691
420 4 0.339031 0.126098 0.412424
716 4 0.375127 0.16346 0.37093
257 4 0.470401 0.0948428 0.338503
760 2 0.479548 0.130913 0.356239
761 4 0.466307 0.110834 0.349407
762 4 0.492789 0.150993 0.363071
390 4 0.0858486 0.231522 0.415335
398 4 0.110193 0.151029 0.372728
388 2 0.0985286 0.237295 0.394573
274 2 0.149953 0.23072 0.368465
389 4 0.111209 0.243069 0.373811
473 4 0.231308 0.223339 0.361038
474 4 0.184716 0.220968 0.379046
472 2 0.208012 0.222154 0.370042
708 4 0.234902 0.211001 0.344246
275 4 0.169733 0.215426 0.368532
409 2 0.235757 0.164791 0.408493
650 4 0.251713 0.196246 0.407976
651 4 0.264841 0.242198 0.393252
649 2 0.258277 0.219222 0.400614
706 2 0.255771 0.198653 0.338149
489 4 0.255887 0.250235 0.376559
377 4 0.389072 0.212337 0.340452
717 4 0.394808 0.192408 0.335218
715 2 0.384967 0.177934 0.353074
376 2 0.375846 0.233556 0.340632
584 4 0.400109 0.24696 0.409297
618 4 0.995519 0.26979 0.421171
276 4 0.130173 0.246015 0.368399
1258 2 0.146558 0.315768 0.392359
1259 4 0.163756 0.312405 0.374523
1260 4 0.12936 0.319131 0.410194
509 4 0.220763 0.292973 0.36635
487 2 0.24756 0.273785 0.375431
488 4 0.239233 0.297334 0.374303
508 2 0.218831 0.31768 0.363032
267 4 0.336008 0.33101 0.36981
498 4 0.349846 0.263684 0.351498
378 4 0.36262 0.254774 0.340812
266 4 0.364993 0.290399 0.373166
585 4 0.380639 0.286276 0.3853
583 2 0.390374 0.266618 0.397298
265 2 0.3505 0.310704 0.371488
268 2 0.488355 0.256721 0.362232
270 4 0.481641 0.270622 0.3819
306 4 0.492118 0.266052 0.398985
304 2 0.473951 0.262741 0.415842
603 4 0.0932839 0.383914 0.351954
547 2 0.109277 0.416648 0.373904
549 4 0.0944055 0.4027 0.359431
510 4 0.2169 0.342387 0.359715
374 4 0.22725 0.356006 0.369926
373 2 0.241799 0.376334 0.370469
375 4 0.256347 0.396662 0.371012
727 2 0.32343 0.397187 0.330064
3 3 0.27183 0.409567 0.368934
753 4 0.498085 0.402453 0.349622
679 2 0.0430756 0.489398 0.375315
407 4 0.0326805 0.408736 0.392681
680 4 0.0493811 0.468078 0.386755
406 2 0.0430144 0.431119 0.396853
408 4 0.0533482 0.453502 0.401024
2463 4 0.0123488 0.511652 0.335102
569 4 0.114989 0.432917 0.407042
548 4 0.124148 0.430595 0.388377
635 4 0.169361 0.477302 0.364315
634 2 0.188935 0.472008 0.349687
636 4 0.20851 0.466714 0.335058
503 4 0.213635 0.446924 0.335605
669 4 0.290717 0.488366 0.396442
728 4 0.30907 0.417288 0.326198
434 4 0.31297 0.434962 0.336819
2 3 0.30145 0.417966 0.347376
1 1 0.278727 0.420645 0.349748
668 4 0.269959 0.451515 0.369761
4 3 0.273991 0.44329 0.35154
667 2 0.280338 0.46994 0.383102
336 4 0.326586 0.431405 0.418173
718 2 0.0394895 0.0561387 0.494296
719 4 0.0362206 0.0648515 0.471089
369 4 0.036946 0.0590368 0.452423
367 2 0.0526874 0.0580648 0.433021
441 4 0.221776 0.00628487 0.451683
341 4 0.166536 0.0708617 0.464176
2430 4 0.177005 0.0570566 0.454107
2428 2 0.190517 0.0360541 0.455327
2429 4 0.20403 0.0150517 0.456547
1218 4 0.395742 0.0371266 0.492328
2878 2 0.456721 0.0064672 0.444196
2880 4 0.465716 0.0296431 0.441524
642 4 0.479894 0.0444569 0.439431
640 2 0.483552 0.0651606 0.425897
641 4 0.487211 0.0858644 0.412364
340 2 0.176504 0.0923527 0.472173
1152 4 0.193772 0.131288 0.486188
342 4 0.186473 0.113844 0.48017
320 4 0.27509 0.102765 0.419109
725 4 0.270249 0.0876932 0.431874
724 2 0.282088 0.0899145 0.453785
432 4 0.281257 0.102465 0.485688
726 4 0.293926 0.0921359 0.475696
468 4 0.332552 0.0934241 0.431524
632 4 0.343767 0.0884427 0.414631
467 4 0.371849 0.11637 0.452259
466 2 0.352201 0.104897 0.441892
574 2 0.403172 0.13175 0.427189
576 4 0.390318 0.116334 0.442099
575 4 0.416026 0.147166 0.41228
516 4 0.43545 0.147847 0.414904
514 2 0.454335 0.149743 0.431181
515 4 0.47322 0.151639 0.447458
260 4 0.0652573 0.18234 0.483169
259 2 0.0681803 0.164978 0.500922
469 2 0.0748604 0.200007 0.446143
471 4 0.0696868 0.182183 0.462897
470 4 0.080034 0.217831 0.429389
411 4 0.249904 0.181649 0.420362
2455 2 0.393473 0.217479 0.439667
2457 4 0.397781 0.197956 0.454683
2456 4 0.389165 0.237001 0.42465
616 2 0.00853109 0.278306 0.44075
617 4 0.0215433 0.286822 0.460329
695 4 0.104934 0.262535 0.440485
694 2 0.115849 0.282736 0.430589
696 4 0.126765 0.302937 0.420693
878 4 0.10513 0.274103 0.494109
1010 4 0.460308 0.318403 0.46823
1009 2 0.457915 0.295629 0.458189
1011 4 0.455523 0.272856 0.448148
305 4 0.455783 0.259431 0.432699
2507 4 0.471718 0.333426 0.473376
326 4 0.0994658 0.356276 0.446276
325 2 0.120944 0.359946 0.458539
7 3 0.159842 0.373221 0.478393
327 4 0.142423 0.363617 0.470801
8 3 0.159015 0.39349 0.510033
6 1 0.162956 0.372411 0.50117
711 4 0.14524 0.405878 0.502442
1189 2 0.230485 0.355129 0.507368
1190 4 0.255478 0.355063 0.506656
335 4 0.358783 0.405478 0.446313
238 2 0.356134 0.385369 0.485612
240 4 0.364413 0.395255 0.46419
239 4 0.347854 0.375484 0.507034
559 2 0.501302 0.403234 0.431197
560 4 0.50853 0.388107 0.449747
2506 2 0.485323 0.353177 0.466306
2508 4 0.498928 0.372928 0.459237
1381 2 0.00726883 0.450941 0.475207
1382 4 0.0213122 0.467687 0.487353
538 2 0.0412209 0.491908 0.485416
540 4 0.0260909 0.477976 0.471198
774 4 0.11009 0.494168 0.42975
773 4 0.129154 0.495282 0.475967
772 2 0.119622 0.494725 0.452859
710 4 0.119624 0.430873 0.467516
709 2 0.132432 0.418376 0.484979
570 4 0.132481 0.439052 0.453486
568 2 0.123735 0.435984 0.430264
1394 4 0.228134 0.485723 0.485399
1446 4 0.241586 0.490262 0.498605
1400 4 0.326864 0.49789 0.428889
1399 2 0.322963 0.473397 0.425724
1401 4 0.319061 0.448903 0.422559
587 4 0.353595 0.519057 0.483804
334 2 0.342685 0.418441 0.432243
1127 4 0.0331107 0.0436556 0.535354
720 4 0.0427585 0.047426 0.517504
1126 2 0.0121805 0.0399426 0.548519
1031 4 0.162062 0.0813838 0.541974
949 2 0.193037 0.0694562 0.554135
950 4 0.21776 0.0698037 0.550419
1182 4 0.227899 0.0553932 0.558378
951 4 0.168313 0.0691086 0.557852
1180 2 0.250091 0.0444362 0.554826
963 4 0.284173 0.0176781 0.544193
1181 4 0.272284 0.0334793 0.551274
961 2 0.298901 0.99968 0.553376
1216 2 0.383355 0.0524025 0.507768
1217 4 0.370969 0.0676783 0.523209
842 4 0.359251 0.0735514 0.538908
2283 4 0.450583 0.995295 0.570966
1035 4 0.0773849 0.142362 0.577713
261 4 0.0711033 0.147615 0.518675
1033 2 0.0773286 0.151886 0.554595
1034 4 0.0772724 0.161411 0.531477
1030 2 0.140181 0.0899179 0.550552
1032 4 0.118301 0.098452 0.55913
938 4 0.150603 0.155234 0.562147
1150 2 0.196275 0.147885 0.504721
843 4 0.313939 0.0919691 0.528503
431 4 0.294871 0.0960829 0.533382
857 4 0.337702 0.122753 0.57361
430 2 0.288064 0.0992738 0.509535
856 2 0.324409 0.138378 0.587904
899 4 0.347224 0.135941 0.561649
841 2 0.336595 0.0827603 0.533705
898 2 0.361095 0.152339 0.548848
900 4 0.374965 0.168738 0.536046
937 2 0.169029 0.165622 0.548814
1272 4 0.111967 0.256395 0.55938
1270 2 0.116639 0.234769 0.571027
1151 4 0.198778 0.164481 0.523254
939 4 0.187455 0.17601 0.535481
872 4 0.377623 0.183428 0.551526
873 4 0.361584 0.223415 0.576913
871 2 0.369604 0.203421 0.56422
813 4 0.358983 0.243471 0.582354
879 4 0.118575 0.26386 0.541173
877 2 0.111853 0.268981 0.517641
1239 4 0.268459 0.277326 0.569578
928 2 0.32827 0.33532 0.563992
1205 4 0.402229 0.290009 0.571011
1204 2 0.3777 0.294581 0.569399
1206 4 0.353171 0.299154 0.567787
930 4 0.341764 0.314296 0.562955
954 4 0.419039 0.28027 0.570518
983 4 0.0507937 0.403389 0.579304
9 3 0.148068 0.357096 0.510236
896 4 0.193055 0.354509 0.523831
1137 4 0.174092 0.367861 0.576121
897 4 0.173808 0.348853 0.569638
895 2 0.183431 0.351681 0.546734
10 3 0.184356 0.366 0.505592
1191 4 0.205491 0.355194 0.50808
802 2 0.291526 0.355156 0.527099
804 4 0.307967 0.351595 0.545597
929 4 0.314775 0.356344 0.56503
803 4 0.275085 0.358717 0.508601
1001 4 0.465487 0.392821 0.547919
926 4 0.474084 0.391291 0.531162
925 2 0.481607 0.371575 0.517751
1000 2 0.467958 0.404589 0.569842
927 4 0.489131 0.351859 0.50434
934 2 0.00976843 0.483615 0.577934
936 4 0.0341619 0.485385 0.583131
1938 4 0.0439379 0.485824 0.564688
1936 2 0.0507876 0.494089 0.542106
382 2 0.132199 0.4889 0.518504
383 4 0.12948 0.48124 0.542149
2244 4 0.134439 0.495709 0.552924
2242 2 0.146269 0.494028 0.574887
882 4 0.285902 0.467004 0.583595
880 2 0.291343 0.47441 0.560341
881 4 0.296785 0.481815 0.537087
1445 4 0.279451 0.490844 0.531264
1172 4 0.268072 0.456459 0.584008
1444 2 0.260518 0.490553 0.514935
1183 2 0.996997 0.0408871 0.645198
1185 4 0.0185651 0.0355336 0.656657
1155 4 0.0853334 0.0681153 0.610264
1059 4 0.0951622 0.0519242 0.618335
1058 4 0.0831399 0.00558926 0.6328
1057 2 0.089151 0.0287567 0.625568
2282 4 0.469773 0.0154898 0.612495
2281 2 0.460178 0.00539243 0.591731
43 3 0.471289 0.0351939 0.606458
41 1 0.477824 0.0557656 0.614973
44 3 0.45932 0.0672839 0.622932
45 3 0.48818 0.0679519 0.598759
42 3 0.492474 0.0523004 0.632367
1163 4 0.507492 0.0480187 0.644427
1082 4 0.0587234 0.139595 0.584749
1081 2 0.0367534 0.138272 0.596613
1083 4 0.0147834 0.136949 0.608476
1199 4 0.00637955 0.155737 0.604639
1154 4 0.113887 0.0856921 0.573163
1221 4 0.155393 0.0992462 0.610678
1153 2 0.0996103 0.0769037 0.591713
1219 2 0.170129 0.108534 0.628616
1220 4 0.184866 0.117823 0.646553
1212 4 0.204967 0.12055 0.648432
1210 2 0.22473 0.1358 0.649845
1211 4 0.244494 0.151051 0.651257
1005 4 0.290483 0.0861765 0.601754
1003 2 0.290881 0.0888312 0.626613
1004 4 0.291279 0.0914859 0.651472
858 4 0.311116 0.154003 0.602199
888 4 0.257795 0.137087 0.659242
886 2 0.279594 0.127801 0.667228
1143 4 0.374604 0.13899 0.644676
1025 4 0.381863 0.15651 0.634657
1141 2 0.358977 0.132917 0.663226
810 4 0.478933 0.0864418 0.59777
808 2 0.489119 0.0978842 0.57801
1271 4 0.121312 0.213143 0.582674
909 4 0.133662 0.205919 0.596529
907 2 0.145053 0.207195 0.618751
908 4 0.156443 0.208471 0.640973
947 4 0.164693 0.222041 0.653034
946 2 0.176368 0.242224 0.662064
812 4 0.314934 0.235019 0.604467
798 4 0.306921 0.216802 0.603203
796 2 0.304347 0.192284 0.607376
797 4 0.301773 0.167766 0.611549
811 2 0.336958 0.239245 0.59341
1024 2 0.383638 0.181183 0.6383
1026 4 0.385413 0.205856 0.641944
905 4 0.461793 0.236715 0.600999
904 2 0.483612 0.239581 0.589128
3122 4 0.491354 0.227696 0.661689
1237 2 0.280997 0.285417 0.58964
792 4 0.31012 0.296582 0.619931
790 2 0.330276 0.309089 0.612025
1238 4 0.293536 0.293509 0.609703
791 4 0.350431 0.321597 0.604118
952 2 0.436371 0.265561 0.580929
953 4 0.453703 0.250851 0.591341
982 2 0.0276859 0.394098 0.581513
984 4 0.00457815 0.384807 0.583723
1041 4 0.0590451 0.421579 0.58256
3263 4 0.00270244 0.398875 0.598371
1135 2 0.177521 0.390913 0.58518
1136 4 0.18095 0.413964 0.594238
1002 4 0.470429 0.416356 0.591765
1910 4 0.458538 0.412599 0.609107
1039 2 0.0802262 0.434425 0.585954
992 4 0.164971 0.42464 0.598906
991 2 0.14313 0.434211 0.591386
993 4 0.12129 0.443783 0.583867
1040 4 0.101407 0.447271 0.589348
2243 4 0.1581 0.492348 0.596851
1171 2 0.243194 0.458825 0.584832
1160 4 0.221517 0.481113 0.584868
1159 2 0.19919 0.490477 0.591115
1173 4 0.218316 0.461191 0.585655
890 4 0.393436 0.492024 0.668433
1952 4 0.36368 0.4992 0.619996
889 2 0.376089 0.500857 0.65274
1951 2 0.350964 0.503065 0.598817
1267 2 0.417401 0.463308 0.660629
1911 4 0.442805 0.442835 0.645699
1909 2 0.450671 0.427717 0.627403
1268 4 0.423213 0.441065 0.650799
945 4 0.0366513 0.0434199 0.661977
943 2 0.0423086 0.0386864 0.685868
1076 4 0.0465418 0.0360122 0.72929
944 4 0.047966 0.0339528 0.709758
1075 2 0.0679844 0.0383258 0.741941
831 4 0.342958 0.077759 0.701939
32 3 0.0920391 0.131892 0.728858
1283 4 0.146308 0.0884512 0.686143
35 3 0.0843536 0.157098 0.755286
1227 4 0.185799 0.098634 0.734806
1284 4 0.167921 0.0910338 0.731165
1282 2 0.157115 0.0897425 0.708654
887 4 0.301392 0.118516 0.675214
830 4 0.314199 0.116792 0.689689
829 2 0.328578 0.0972755 0.695814
1142 4 0.34335 0.126843 0.681776
851 4 0.0148683 0.19067 0.732055
850 2 0.995262 0.205693 0.728173
1208 4 0.0891146 0.246303 0.708856
822 4 0.148053 0.220576 0.707184
1278 4 0.161063 0.206921 0.716899
820 2 0.123942 0.226018 0.703409
821 4 0.0998318 0.231459 0.699634
1276 2 0.159867 0.189738 0.735023
976 2 0.284729 0.20179 0.737744
977 4 0.308281 0.207746 0.731827
916 2 0.309962 0.244366 0.70911
918 4 0.312898 0.221378 0.718498
978 4 0.261177 0.195834 0.743662
3121 2 0.474572 0.234465 0.678943
3123 4 0.45779 0.241234 0.696197
1261 2 0.448075 0.232606 0.753243
1263 4 0.450511 0.208058 0.757324
1207 2 0.0731967 0.263733 0.700612
1209 4 0.0572788 0.281164 0.692368
1244 4 0.0378219 0.284827 0.685747
1243 2 0.0162948 0.276308 0.695192
894 4 0.0648568 0.338496 0.677129
893 4 0.112138 0.338653 0.660846
892 2 0.0884976 0.338574 0.668987
1064 4 0.236241 0.29662 0.68126
1063 2 0.220987 0.276827 0.680408
1065 4 0.205733 0.257034 0.679555
948 4 0.188042 0.262407 0.671093
1240 2 0.227851 0.316751 0.728049
1242 4 0.21691 0.318112 0.75049
1241 4 0.238792 0.31539 0.705607
917 4 0.307026 0.267353 0.699722
1097 4 0.293024 0.278484 0.690121
1096 2 0.271841 0.291739 0.691008
1098 4 0.250659 0.304994 0.691894
1008 4 0.349408 0.256005 0.725002
1006 2 0.363888 0.266707 0.742351
1262 4 0.44564 0.257153 0.749161
1194 4 0.442707 0.276534 0.751636
1279 2 0.0467552 0.364644 0.703528
3275 4 0.0460289 0.383032 0.734908
1280 4 0.0335619 0.372218 0.723371
1281 4 0.0599486 0.357071 0.683684
3274 2 0.0551098 0.39981 0.751069
940 2 0.151314 0.391609 0.751132
941 4 0.162534 0.37991 0.732095
1028 4 0.235317 0.360254 0.695507
1068 4 0.216804 0.359032 0.705359
1067 4 0.177634 0.386365 0.72017
1066 2 0.197219 0.372698 0.712765
1029 4 0.274208 0.378995 0.670268
1139 4 0.279766 0.393427 0.683798
1027 2 0.254763 0.369624 0.682887
1229 4 0.36628 0.397211 0.685141
1228 2 0.367463 0.419065 0.697232
1080 4 0.193231 0.42309 0.760412
2172 4 0.21339 0.497823 0.674429
1175 4 0.264032 0.509592 0.680182
1138 2 0.286381 0.4159 0.692538
1140 4 0.292995 0.438373 0.701278
1989 4 0.295856 0.456445 0.708244
1987 2 0.305896 0.456461 0.731143
2214 4 0.260558 0.495112 0.755495
1269 4 0.411588 0.485552 0.670459
1230 4 0.368646 0.440918 0.709324
1100 4 0.464095 0.485414 0.713222
1250 4 0.469353 0.478697 0.731349
911 4 0.0700265 0.0693229 0.829155
1077 4 0.089427 0.0406395 0.754592
1202 4 0.1364 0.0109258 0.788582
1203 4 0.094879 0.0235944 0.763758
1201 2 0.115639 0.0172601 0.77617
2049 4 0.152764 0.998357 0.79105
1147 2 0.201264 0.056379 0.797409
1149 4 0.208778 0.0326239 0.799511
1049 4 0.227829 0.0371118 0.804847
1048 2 0.252665 0.0350088 0.806834
1050 4 0.2775 0.0329058 0.808822
818 4 0.361698 0.0636677 0.810123
817 2 0.346202 0.0830721 0.807207
965 4 0.376848 0.0646734 0.8234
3387 4 0.999074 0.100917 0.759566
1106 4 0.0657935 0.149009 0.753122
832 2 0.0455528 0.118365 0.771931
863 4 0.0362885 0.0926436 0.791666
833 4 0.0261805 0.10449 0.779506
33 3 0.080894 0.120378 0.762855
834 4 0.064925 0.13224 0.764356
862 2 0.0438037 0.0818816 0.812947
31 1 0.0930978 0.136436 0.751383
34 3 0.115293 0.135829 0.758122
1073 4 0.122022 0.153806 0.766721
1225 2 0.189849 0.107282 0.757914
1148 4 0.19375 0.080134 0.795307
1226 4 0.1939 0.11593 0.781022
840 4 0.197892 0.131659 0.791717
838 2 0.222369 0.135459 0.795125
839 4 0.246846 0.139258 0.798533
959 4 0.262076 0.152308 0.793856
819 4 0.330705 0.102477 0.80429
1084 2 0.340428 0.143185 0.808991
1085 4 0.333405 0.12124 0.799282
1086 4 0.34745 0.16513 0.818701
1299 4 0.36589 0.169026 0.826076
3270 4 0.493476 0.151381 0.771334
1146 4 0.476999 0.144581 0.763395
153 3 0.00501841 0.239764 0.823984
1107 4 0.0308 0.181494 0.738259
1105 2 0.0482968 0.165252 0.745691
779 4 0.06439 0.205018 0.82687