ITEM: TIMESTEP
2280000
ITEM: NUMBER OF ATOMS
4590
ITEM: BOX BOUNDS pp pp pp
-9.9985700000000008e+00 9.9985700000000008e+00
-9.9985700000000008e+00 9.9985700000000008e+00
-9.9985700000000008e+00 9.9985700000000008e+00
ITEM: ATOMS id type xs ys zs
463 2 0.049214 0.0486355 0.0162192
3290 4 0.0804927 0.0228124 0.0338152
464 4 0.0634594 0.0307045 0.0262555
465 4 0.0349686 0.0665665 0.00618299
1667 4 0.0469839 0.00275914 0.0823951
567 4 0.155401 0.0722458 0.055012
3289 2 0.0891714 0.00959291 0.0144476
565 2 0.164858 0.0497102 0.0497316
566 4 0.174315 0.0271745 0.0444512
490 2 0.301467 0.0131845 0.0599334
491 4 0.310485 0.0109222 0.036723
986 4 0.311908 0.0220133 0.0184876
2264 4 0.301155 0.0385956 0.0108692
557 4 0.401358 0.0616069 0.07392
296 4 0.388397 0.0470918 0.0731195
745 2 0.460096 0.0544086 0.0496975
747 4 0.483431 0.0538944 0.0586639
746 4 0.436761 0.0549228 0.0407311
2724 4 0.496789 0.0548637 0.0750861
1826 4 0.496043 0.0359144 0.080341
701 4 0.0436655 0.0834709 0.0130095
700 2 0.0399343 0.106684 0.00449918
555 4 0.0345536 0.149409 0.00497825
359 4 0.235185 0.156721 0.0378225
358 2 0.215133 0.164463 0.0250489
828 4 0.454627 0.165372 0.0100436
836 4 0.0456758 0.253701 0.0227079
422 4 0.0877539 0.20624 0.0522173
421 2 0.0910018 0.197308 0.0290903
423 4 0.0942497 0.188377 0.00596335
360 4 0.195082 0.172206 0.0122753
737 4 0.177897 0.205132 0.0752118
506 4 0.181524 0.219521 0.0635783
505 2 0.182606 0.244481 0.0645609
666 4 0.322987 0.189095 0.00446949
665 4 0.368917 0.187771 0.0242015
664 2 0.345952 0.188433 0.0143355
1071 4 0.40557 0.251103 0.996176
323 4 0.483122 0.23463 0.0446199
322 2 0.461936 0.236245 0.0577994
324 4 0.440749 0.237859 0.0709789
2807 4 0.00842007 0.263622 0.0368553
294 4 0.13818 0.314277 0.0639213
292 2 0.15204 0.293764 0.0604143
456 4 0.126712 0.323704 0.0512121
293 4 0.1659 0.273251 0.0569073
507 4 0.183688 0.269442 0.0655435
483 4 0.293662 0.279103 0.00655578
739 2 0.337904 0.330246 0.0789021
254 4 0.382308 0.26529 0.0642973
573 4 0.389434 0.259556 0.00446457
741 4 0.341796 0.318789 0.0570212
630 4 0.397966 0.268774 0.0759018
253 2 0.360337 0.266216 0.0761973
454 2 0.111932 0.343778 0.0531417
455 4 0.0971509 0.363853 0.0550713
608 4 0.257315 0.374038 0.0691091
252 4 0.277239 0.369082 0.0674583
250 2 0.290101 0.37581 0.0470995
251 4 0.302963 0.382538 0.0267407
524 4 0.315758 0.399019 0.0238159
523 2 0.339123 0.407873 0.0229003
226 2 0.393469 0.395079 0.0087212
228 4 0.376424 0.402554 0.0254174
525 4 0.362489 0.416728 0.0219847
670 2 0.408375 0.375405 0.0821692
671 4 0.422477 0.382726 0.0628633
281 4 0.442151 0.383025 0.0614622
280 2 0.464089 0.371097 0.060179
282 4 0.486027 0.35917 0.0588958
104 3 0.489784 0.351252 0.076834
1047 4 0.498912 0.355799 0.0429197
1045 2 0.501 0.356168 0.0180062
313 2 0.0543928 0.423637 0.0701621
552 4 0.0408282 0.447739 0.049462
314 4 0.0595664 0.442278 0.0543209
550 2 0.0214336 0.458481 0.0379021
551 4 0.00203899 0.469223 0.0263421
1224 4 0.160603 0.462089 0.99781
243 4 0.228882 0.484559 0.0570037
1440 4 0.231856 0.481434 0.0772219
1290 4 0.233239 0.438458 0.00602686
1583 4 0.471977 0.465544 0.0807244
16 1 0.0500908 0.00439989 0.121184
1422 4 0.0303537 0.0239689 0.150936
2480 4 0.0221595 0.0350517 0.133119
18 3 0.0728832 0.00543691 0.116961
19 3 0.0429375 0.0241905 0.13096
2479 2 0.00843787 0.0543106 0.124996
1420 2 0.0102905 0.0128575 0.160895
17 3 0.0389612 0.00149876 0.101263
652 2 0.239657 0.0381327 0.148417
654 4 0.246971 0.0283735 0.126589
1476 4 0.244655 0.0106062 0.118401
492 4 0.292448 0.0154468 0.0831439
1474 2 0.26208 0.00578946 0.101129
485 4 0.345312 0.00138347 0.10211
297 4 0.356976 0.0156782 0.0960679
295 2 0.372686 0.031385 0.0845937
556 2 0.414002 0.0736868 0.0917915
236 4 0.134474 0.147918 0.132767
449 4 0.149073 0.135502 0.134596
450 4 0.144272 0.0876937 0.148453
448 2 0.146673 0.111598 0.141524
582 4 0.319932 0.118954 0.164196
558 4 0.426645 0.0857666 0.109663
771 4 0.440755 0.0983782 0.116358
769 2 0.441424 0.10859 0.139171
770 4 0.442093 0.118801 0.161985
338 4 0.048466 0.23797 0.13975
235 2 0.143268 0.17117 0.13545
237 4 0.152063 0.194421 0.138132
361 2 0.125528 0.243747 0.167889
372 4 0.146016 0.208375 0.163678
736 2 0.192691 0.187146 0.0843117
738 4 0.207486 0.16916 0.0934116
354 4 0.221386 0.181444 0.0986605
476 4 0.213551 0.221995 0.154823
477 4 0.237154 0.178544 0.162279
475 2 0.225353 0.200269 0.158551
352 2 0.244481 0.189252 0.104214
371 4 0.195307 0.215881 0.15984
370 2 0.170662 0.212128 0.161759
279 4 0.24882 0.246009 0.157422
353 4 0.267576 0.19706 0.109767
461 4 0.278854 0.192934 0.094271
460 2 0.303072 0.197825 0.0981102
462 4 0.32729 0.202716 0.101949
277 2 0.249532 0.249813 0.132719
624 4 0.426997 0.238434 0.124962
337 2 0.0485619 0.259617 0.152264
395 4 0.0593361 0.295862 0.157584
704 4 0.00841682 0.326304 0.144886
339 4 0.0486577 0.281264 0.164777
363 4 0.121507 0.268388 0.166518
612 4 0.249207 0.322259 0.0996241
755 4 0.324702 0.256301 0.152596
610 2 0.251553 0.297684 0.10359
611 4 0.253899 0.273108 0.107555
278 4 0.250245 0.253618 0.108017
754 2 0.32735 0.265101 0.129343
756 4 0.329998 0.273901 0.106089
628 2 0.413663 0.260642 0.0935836
255 4 0.338366 0.267141 0.0880972
629 4 0.42936 0.25251 0.111265
622 2 0.4313 0.248431 0.147473
315 4 0.0492191 0.404997 0.0860032
621 4 0.0667818 0.395765 0.0888513
619 2 0.0770319 0.386941 0.109881
620 4 0.087282 0.378118 0.130911
647 4 0.106528 0.377032 0.139244
537 4 0.130396 0.373503 0.141235
535 2 0.144609 0.380189 0.121781
536 4 0.158823 0.386875 0.102327
646 2 0.098053 0.368161 0.161031
609 4 0.250553 0.341627 0.106585
607 2 0.253934 0.357832 0.0878472
386 4 0.321722 0.344821 0.115781
385 2 0.330375 0.366773 0.124051
740 4 0.334013 0.341703 0.100783
387 4 0.339029 0.388726 0.132321
12 3 0.395819 0.377715 0.116851
11 1 0.382499 0.392689 0.128143
15 3 0.36068 0.388692 0.122985
672 4 0.394273 0.368083 0.101475
13 3 0.385863 0.390009 0.150945
302 4 0.348741 0.40645 0.131797
14 3 0.38833 0.414219 0.121753
626 4 0.189969 0.440396 0.158267
1438 2 0.225239 0.466709 0.0963154
625 2 0.210733 0.446689 0.14584
1439 4 0.218622 0.451983 0.115409
638 4 0.245544 0.465355 0.139059
637 2 0.246063 0.490352 0.138833
627 4 0.231497 0.452983 0.133412
272 4 0.276067 0.498363 0.0922649
303 4 0.322315 0.440609 0.157006
1559 4 0.338243 0.486769 0.116859
301 2 0.335528 0.42353 0.144401
494 4 0.370995 0.477774 0.116847
495 4 0.387962 0.430918 0.112689
493 2 0.379479 0.454346 0.114768
1584 4 0.445425 0.493391 0.112666
1582 2 0.458701 0.479468 0.096695
674 4 0.162461 0.0526509 0.241664
653 4 0.232342 0.0478919 0.170244
689 4 0.204921 0.00949402 0.211247
690 4 0.170857 0.034826 0.23768
688 2 0.187889 0.02216 0.224464
693 4 0.239298 0.0540945 0.187229
1505 4 0.224096 0.0184604 0.209615
691 2 0.257948 0.0614046 0.202193
692 4 0.276598 0.0687148 0.217157
1699 2 0.315031 0.0758164 0.2292
1701 4 0.293873 0.0631354 0.225114
21 1 0.371864 0.0733489 0.221453
25 3 0.377679 0.0786343 0.200078
22 3 0.37716 0.0513367 0.225524
23 3 0.349029 0.0762369 0.224391
333 4 0.396045 0.0756493 0.248068
698 4 0.389097 0.05664 0.242783
1784 4 0.432555 0.999881 0.176186
511 2 0.00986945 0.145231 0.214251
578 4 0.0331649 0.154871 0.249075
513 4 0.0238352 0.158377 0.230292
318 4 0.0390265 0.0901042 0.250878
28 3 0.217124 0.133979 0.182082
27 3 0.243353 0.130622 0.208792
26 1 0.238298 0.140727 0.188754
29 3 0.238733 0.163746 0.191641
758 4 0.331624 0.125288 0.179273
580 2 0.296508 0.124922 0.170589
581 4 0.273084 0.130889 0.176983
30 3 0.253696 0.13456 0.173149
1700 4 0.33619 0.0884973 0.233286
759 4 0.366594 0.0904005 0.187064
24 3 0.383528 0.0867533 0.236376
757 2 0.349109 0.107844 0.183168
312 4 0.437916 0.120517 0.181731
311 4 0.477406 0.138594 0.20652
310 2 0.457661 0.129556 0.194125
521 4 0.48413 0.152589 0.218577
577 2 0.0393041 0.179032 0.250998
529 2 0.00710683 0.221497 0.240026
530 4 0.0294105 0.216142 0.249979
362 4 0.129549 0.219107 0.16926
396 4 0.061597 0.314875 0.20378
443 4 0.0549051 0.30452 0.219501
394 2 0.0604666 0.305369 0.180682
442 2 0.0509042 0.30553 0.244162
703 2 0.00725674 0.329237 0.16969
705 4 0.00609667 0.332169 0.194494
285 4 0.260948 0.257977 0.16858
284 4 0.288342 0.284119 0.201243
283 2 0.274645 0.271048 0.184911
345 4 0.271152 0.322395 0.237672
623 4 0.435602 0.258429 0.169983
527 4 0.444231 0.276367 0.175918
526 2 0.444851 0.293894 0.193739
528 4 0.445471 0.31142 0.211561
264 4 0.0528946 0.410132 0.213133
262 2 0.0357909 0.409164 0.231346
263 4 0.0186872 0.408195 0.249559
2615 4 0.00253752 0.341025 0.212498
299 4 0.0993077 0.338429 0.246746
648 4 0.089578 0.359289 0.182818
300 4 0.0923624 0.346097 0.197821
298 2 0.0958351 0.342263 0.222283
289 2 0.222267 0.407079 0.241547
597 4 0.372 0.377359 0.174332
596 4 0.346941 0.334685 0.167147
595 2 0.359471 0.356022 0.170739
645 4 0.393893 0.385824 0.172441
643 2 0.405796 0.395246 0.192309
644 4 0.417699 0.404669 0.212177
447 4 0.401722 0.414128 0.222151
1430 4 0.194038 0.485629 0.177454
417 4 0.187894 0.473259 0.19206
290 4 0.208323 0.420132 0.225411
416 4 0.212897 0.436368 0.214746
415 2 0.200395 0.454814 0.203403
659 4 0.327983 0.453785 0.172326
658 2 0.34096 0.469785 0.186495
660 4 0.353938 0.485785 0.200665
231 4 0.356456 0.489779 0.220928
445 2 0.407463 0.426861 0.242889
232 2 0.0282576 0.023433 0.290164
234 4 0.0360157 0.0468529 0.294226
317 4 0.0443876 0.0471621 0.275937
316 2 0.041707 0.0686332 0.263407
673 2 0.147385 0.0572427 0.261076
675 4 0.132309 0.0618345 0.280487
1406 4 0.202766 0.013022 0.281756
1518 4 0.38492 0.00205745 0.274012
697 2 0.387751 0.0391916 0.260641
699 4 0.386405 0.0217432 0.2785
425 4 0.417407 0.0346954 0.321336
351 4 0.48973 0.0552054 0.26135
349 2 0.471093 0.0718472 0.260401
424 2 0.441555 0.040172 0.324813
426 4 0.465702 0.0456486 0.328289
258 4 0.479873 0.0592801 0.320512
391 2 0.140004 0.144986 0.328468
392 4 0.147182 0.143546 0.30456
545 4 0.138342 0.145048 0.28665
544 2 0.156466 0.153731 0.271773
546 4 0.17459 0.162415 0.256897
723 4 0.23853 0.10194 0.254355
722 4 0.191152 0.0944481 0.268492
721 2 0.214841 0.0981938 0.261423
599 4 0.227275 0.120154 0.308977
404 4 0.227283 0.139749 0.309475
598 2 0.222302 0.108991 0.330791
403 2 0.221172 0.161393 0.298547
331 2 0.417223 0.0886103 0.251018
350 4 0.452456 0.0884891 0.259453
256 2 0.474395 0.0836753 0.320727
332 4 0.4384 0.101571 0.253968
762 4 0.439659 0.153704 0.306444
761 4 0.473879 0.117279 0.304752
760 2 0.456769 0.135492 0.305598
257 4 0.468917 0.10807 0.320942
579 4 0.0454433 0.203194 0.252921
405 4 0.21506 0.183036 0.28762
401 4 0.22805 0.187718 0.272061
400 2 0.223677 0.212326 0.272781
402 4 0.219303 0.236933 0.273501
765 4 0.426442 0.223748 0.315261
764 4 0.465686 0.193059 0.319591
763 2 0.446064 0.208403 0.317426
444 4 0.0469034 0.30654 0.268822
750 4 0.0953088 0.328004 0.262454
734 4 0.16823 0.327864 0.309983
343 2 0.285977 0.322455 0.257806
309 4 0.317623 0.324562 0.288705
344 4 0.300802 0.322514 0.277941
496 2 0.354285 0.282567 0.326052
497 4 0.365716 0.29862 0.310663
541 2 0.444622 0.321169 0.288383
542 4 0.454333 0.322415 0.265376
543 4 0.434911 0.319923 0.31139
2493 4 0.00657541 0.36126 0.327813
365 4 0.00671812 0.341631 0.320524
366 4 0.0529747 0.336124 0.302338
749 4 0.0645975 0.35206 0.293741
364 2 0.0298464 0.338877 0.311431
748 2 0.0799532 0.340032 0.278098
602 4 0.111984 0.391037 0.304006
777 4 0.11435 0.403046 0.288006
735 4 0.159727 0.37541 0.297032
601 2 0.110351 0.388413 0.328818
677 4 0.178598 0.38123 0.291582
733 2 0.163979 0.351637 0.303507
676 2 0.180421 0.402876 0.303963
291 4 0.23621 0.394025 0.257683
412 2 0.249913 0.413415 0.293581
414 4 0.238049 0.407252 0.272451
2 3 0.312989 0.411099 0.319512
613 2 0.400151 0.338636 0.316503
728 4 0.334157 0.412382 0.320162
614 4 0.375325 0.341254 0.317921
307 2 0.336948 0.33652 0.299133
727 2 0.339836 0.389879 0.31086
729 4 0.345514 0.367376 0.301558
308 4 0.356272 0.348478 0.309561
615 4 0.424977 0.336019 0.315085
2924 4 0.49515 0.380881 0.322573
2537 4 0.491528 0.379419 0.299879
118 3 0.491686 0.399063 0.309552
1757 4 0.119052 0.471157 0.283298
776 4 0.114905 0.453021 0.289728
775 2 0.114627 0.428034 0.288867
1756 2 0.115194 0.495405 0.278573
678 4 0.182244 0.424522 0.316344
768 4 0.19602 0.463835 0.26205
766 2 0.202886 0.486482 0.25398
413 4 0.261777 0.419578 0.31471
438 4 0.287341 0.470493 0.25227
1435 2 0.258272 0.465773 0.318945
437 4 0.279134 0.438607 0.289909
436 2 0.283238 0.45455 0.27109
1437 4 0.269282 0.447115 0.306461
5 3 0.280518 0.427097 0.310423
1 1 0.294421 0.421927 0.327704
434 4 0.322231 0.429354 0.308589
433 2 0.338951 0.447562 0.312342
435 4 0.35567 0.465771 0.316096
446 4 0.413204 0.439593 0.263628
714 4 0.427363 0.447547 0.277364
2862 4 0.495334 0.437278 0.274145
120 3 0.49539 0.433701 0.295264
713 4 0.475661 0.438049 0.286183
712 2 0.451512 0.442798 0.281774
428 4 0.0570008 0.0375842 0.341995
427 2 0.0574355 0.0126585 0.343919
605 4 0.149839 0.0707442 0.373721
730 2 0.114394 0.0764993 0.406056
604 2 0.161144 0.0593197 0.354568
606 4 0.17245 0.0478951 0.335415
683 4 0.238806 0.0309817 0.382471
682 2 0.243862 0.0264685 0.358404
321 4 0.233966 0.0491341 0.387399
319 2 0.228613 0.0577679 0.410246
684 4 0.248919 0.0219554 0.334336
249 4 0.309467 0.0577767 0.33223
247 2 0.332234 0.0578448 0.342567
248 4 0.355 0.0579129 0.352904
633 4 0.366496 0.0747689 0.347722
631 2 0.378314 0.0808426 0.368903
1749 4 0.488553 0.00870395 0.361301
480 4 0.492808 0.0143725 0.342006
732 4 0.125167 0.0940504 0.391876
393 4 0.132825 0.146426 0.352375
399 4 0.113953 0.138331 0.354415
398 4 0.107748 0.0991766 0.384897
397 2 0.11085 0.118754 0.369656
686 4 0.228387 0.119199 0.408531
600 4 0.217329 0.0978275 0.352604
685 2 0.21765 0.114412 0.386463
687 4 0.206914 0.109625 0.364396
410 4 0.235325 0.137777 0.414398
632 4 0.390133 0.0869164 0.390083
420 4 0.387164 0.118085 0.38796
468 4 0.383538 0.103235 0.401368
418 2 0.373287 0.138733 0.390456
419 4 0.359409 0.159382 0.392952
515 4 0.478655 0.162107 0.400756
2654 4 0.0124178 0.246901 0.394447
390 4 0.0765464 0.226684 0.389171
470 4 0.0700307 0.211897 0.399739
617 4 0.0623738 0.243642 0.411892
388 2 0.0967797 0.233377 0.376094
389 4 0.117013 0.24007 0.363018
276 4 0.129213 0.24628 0.37812
473 4 0.211163 0.208723 0.332417
474 4 0.172715 0.238049 0.345161
472 2 0.191939 0.223386 0.338789
708 4 0.207616 0.194685 0.345589
706 2 0.229596 0.187386 0.355011
651 4 0.216784 0.235848 0.408337
649 2 0.231047 0.215312 0.408216
707 4 0.251576 0.180088 0.364433
650 4 0.24531 0.194776 0.408095
377 4 0.347003 0.246243 0.397062
717 4 0.348643 0.22643 0.403832
716 4 0.362753 0.179408 0.394311
715 2 0.355698 0.202919 0.399072
268 2 0.500104 0.235493 0.357519
270 4 0.490983 0.250751 0.375103
618 4 0.0216125 0.264446 0.391732
616 2 0.0419932 0.254044 0.401812
274 2 0.146295 0.251671 0.360674
275 4 0.163376 0.257061 0.343229
374 4 0.234136 0.328328 0.33504
489 4 0.212282 0.253345 0.419066
510 4 0.228431 0.311083 0.346361
487 2 0.22767 0.272147 0.413162
488 4 0.243059 0.290949 0.407258
508 2 0.238008 0.299855 0.366545
509 4 0.247585 0.288627 0.386729
378 4 0.329246 0.267946 0.355657
376 2 0.338124 0.257095 0.37636
498 4 0.342854 0.266515 0.341441
265 2 0.350088 0.320361 0.3655
266 4 0.356685 0.307873 0.386133
585 4 0.369113 0.292452 0.384003
583 2 0.381603 0.279525 0.401382
267 4 0.343491 0.332849 0.344868
304 2 0.491273 0.268226 0.40261
306 4 0.47661 0.262664 0.383136
547 2 0.0850742 0.415232 0.371442
549 4 0.0974152 0.393721 0.368254
603 4 0.108719 0.385789 0.353629
373 2 0.229178 0.352002 0.341375
502 2 0.205885 0.400876 0.368289
504 4 0.219347 0.394566 0.348186
375 4 0.22422 0.375676 0.34771
503 4 0.192423 0.407186 0.388392
3 3 0.283565 0.407917 0.34268
2923 2 0.481213 0.36677 0.337799
2925 4 0.467276 0.35266 0.353025
680 4 0.000712154 0.470339 0.408218
548 4 0.0727333 0.436743 0.37463
407 4 0.0577192 0.447862 0.381593
406 2 0.0408978 0.459898 0.395642
408 4 0.0240764 0.471933 0.40969
569 4 0.0899102 0.466817 0.40087
568 2 0.108245 0.453319 0.411207
1543 2 0.226772 0.498789 0.356276
1436 4 0.247262 0.484431 0.331429
635 4 0.183987 0.469717 0.413831
636 4 0.191705 0.421698 0.402198
634 2 0.187846 0.445708 0.408014
1545 4 0.250055 0.492297 0.349877
1401 4 0.327932 0.476727 0.396985
668 4 0.314245 0.443156 0.352502
4 3 0.301198 0.441323 0.338488
667 2 0.323099 0.437827 0.37527
669 4 0.331953 0.432497 0.398038
336 4 0.339984 0.444167 0.412262
119 3 0.490484 0.429446 0.332352
593 4 0.470214 0.494238 0.362947
752 4 0.481715 0.420136 0.388178
561 4 0.484773 0.42084 0.407984
753 4 0.497188 0.442891 0.346422
751 2 0.489451 0.431513 0.3673
718 2 0.0370199 0.0461331 0.487135
719 4 0.0619897 0.0448342 0.487114
369 4 0.0736059 0.0604906 0.482054
367 2 0.0845647 0.0623977 0.459661
720 4 0.0120501 0.047432 0.487157
731 4 0.103621 0.0589482 0.420237
368 4 0.0955236 0.0643048 0.437268
441 4 0.201369 0.000502282 0.443733
2430 4 0.188917 0.0592863 0.434831
2428 2 0.187506 0.0351751 0.4413
2429 4 0.186096 0.011064 0.447768
341 4 0.204628 0.0721619 0.436428
320 4 0.223259 0.0664016 0.433093
725 4 0.235458 0.0560764 0.446212
724 2 0.254182 0.067967 0.457752
430 2 0.306942 0.0689423 0.493487
432 4 0.283648 0.0744877 0.486289
726 4 0.272907 0.0798575 0.469293
2879 4 0.430143 0.0182347 0.432926
2878 2 0.446346 0.0301151 0.447809
2880 4 0.462549 0.0419955 0.462692
642 4 0.459857 0.0516741 0.479719
640 2 0.476056 0.0686991 0.47118
2586 4 0.000841804 0.0923932 0.461568
938 4 0.11687 0.162778 0.497729
409 2 0.245802 0.160262 0.417532
340 2 0.205414 0.0941708 0.448268
1152 4 0.203817 0.123112 0.478605
342 4 0.206199 0.11618 0.460107
1150 2 0.185785 0.128625 0.495025
467 4 0.382709 0.0892107 0.449361
466 2 0.383124 0.0962228 0.425365
576 4 0.416882 0.117063 0.469751
641 4 0.492255 0.0857241 0.462641
514 2 0.459462 0.165797 0.416352
574 2 0.422396 0.136151 0.454571
575 4 0.42791 0.155239 0.439392
469 2 0.0808717 0.206219 0.421543
260 4 0.0836678 0.187563 0.457316
471 4 0.0917127 0.200541 0.443347
261 4 0.108328 0.180231 0.500198
259 2 0.0959979 0.183897 0.478757
411 4 0.256279 0.182747 0.420666
516 4 0.44027 0.169486 0.431947
695 4 0.125579 0.275464 0.461266
694 2 0.137313 0.290273 0.44489
696 4 0.149048 0.305082 0.428514
1260 4 0.168556 0.308927 0.429306
1258 2 0.190799 0.313068 0.439948
1259 4 0.213043 0.317209 0.45059
584 4 0.394093 0.266597 0.418762
2456 4 0.412448 0.270405 0.423405
2455 2 0.433749 0.268852 0.436407
2457 4 0.45505 0.267298 0.449408
326 4 0.0750712 0.399811 0.456856
325 2 0.0887394 0.378993 0.454624
10 3 0.15184 0.354934 0.454333
709 2 0.139421 0.412489 0.44513
7 3 0.117019 0.351587 0.467339
327 4 0.102408 0.358176 0.452392
6 1 0.138314 0.358767 0.47225
8 3 0.137672 0.381476 0.476971
9 3 0.146109 0.347056 0.490703
711 4 0.137807 0.396906 0.464616
238 2 0.329928 0.414098 0.490833
240 4 0.347017 0.413858 0.472583
2508 4 0.489786 0.369635 0.441635
559 2 0.491138 0.404872 0.42614
1382 4 0.0307039 0.457923 0.471296
1381 2 0.0198819 0.460896 0.448953
540 4 0.0423321 0.463598 0.484947
1383 4 0.00905988 0.463869 0.426609
710 4 0.141034 0.428073 0.425643
382 2 0.161896 0.500237 0.496696
774 4 0.166514 0.476907 0.423978
570 4 0.126579 0.439822 0.421543
772 2 0.156287 0.49049 0.442311
1399 2 0.321748 0.487371 0.418748
1400 4 0.315564 0.498015 0.440512
335 4 0.336072 0.417725 0.454526
334 2 0.338028 0.430946 0.433394
951 4 0.182167 0.0677793 0.542819
1031 4 0.174933 0.0812731 0.556533
949 2 0.205864 0.0685729 0.53488
1182 4 0.240603 0.0527829 0.529267
950 4 0.22956 0.0693665 0.526942
961 2 0.31848 0.0259362 0.556752
1180 2 0.264807 0.0465127 0.529103
963 4 0.305511 0.0404479 0.541055
1181 4 0.289011 0.0402425 0.52894
431 4 0.330236 0.063397 0.500686
962 4 0.331448 0.0114244 0.57245
842 4 0.39857 0.0696874 0.501999
1217 4 0.414741 0.0769846 0.512689
841 2 0.373578 0.0702542 0.501499
843 4 0.348586 0.0708211 0.500998
1032 4 0.131225 0.0938775 0.577304
1030 2 0.153079 0.0875753 0.566919
939 4 0.16064 0.151241 0.518983
937 2 0.138755 0.157009 0.508356
1151 4 0.167753 0.134138 0.511446
898 2 0.355557 0.16584 0.581116
1216 2 0.431827 0.0872875 0.527759
1218 4 0.448913 0.0975903 0.542829
1035 4 0.0736426 0.171849 0.55829
1082 4 0.0697712 0.178651 0.576884
1033 2 0.0747553 0.177672 0.534
1034 4 0.075868 0.183495 0.509709
877 2 0.0937587 0.250759 0.578362
1272 4 0.107601 0.214097 0.580699
811 2 0.305908 0.233181 0.536682
812 4 0.282126 0.234198 0.544336
796 2 0.271631 0.20091 0.571288
798 4 0.273172 0.217487 0.552633
813 4 0.329689 0.232163 0.529028
900 4 0.365175 0.184463 0.567483
872 4 0.357866 0.185716 0.549819
873 4 0.349419 0.228022 0.524529
871 2 0.353643 0.206869 0.537174
878 4 0.0936957 0.274315 0.569978
896 4 0.210847 0.331045 0.534055
1191 4 0.224463 0.317091 0.535776
1189 2 0.241026 0.327104 0.519946
1239 4 0.257121 0.325256 0.572355
1205 4 0.400163 0.301114 0.576428
1204 2 0.38161 0.3171 0.581465
954 4 0.416083 0.307697 0.567181
952 2 0.430718 0.289242 0.575571
1137 4 0.170172 0.374501 0.559888
897 4 0.180733 0.369828 0.543527
895 2 0.19579 0.350436 0.538791
1135 2 0.169564 0.391954 0.577782
1190 4 0.257589 0.337117 0.504117
803 4 0.275697 0.337994 0.513464
802 2 0.29851 0.346556 0.51907
804 4 0.321323 0.355119 0.524675
929 4 0.319528 0.357011 0.544212
239 4 0.312839 0.414338 0.509084
928 2 0.340371 0.351793 0.556999
930 4 0.361215 0.346574 0.569786
1000 2 0.467838 0.413073 0.57439
539 4 0.051138 0.46119 0.534114
936 4 0.0265694 0.476982 0.534983
1938 4 0.0460324 0.480844 0.537702
1936 2 0.0597892 0.497035 0.550884
934 2 0.00397153 0.471555 0.544206
538 2 0.046735 0.462394 0.509531
383 4 0.165896 0.489591 0.518963
2244 4 0.148885 0.483313 0.526549
2242 2 0.15873 0.482123 0.549502
2243 4 0.168575 0.480934 0.572455
1172 4 0.248771 0.455364 0.561403
882 4 0.255488 0.460744 0.543599
880 2 0.261766 0.481816 0.531694
1001 4 0.4842 0.417595 0.556033
1057 2 0.0807308 0.0449397 0.60697
1185 4 0.0256855 0.069512 0.647974
945 4 0.0433484 0.070343 0.657666
825 4 0.0533158 0.0233568 0.632898
1058 4 0.0687161 0.0348839 0.626456
823 2 0.0634563 0.0071059 0.648969
1059 4 0.0927455 0.0549955 0.587484
1155 4 0.0880606 0.0757091 0.586375
1003 2 0.313282 0.0770355 0.654176
1004 4 0.332996 0.0729064 0.63936
1005 4 0.293569 0.0811646 0.668992
2282 4 0.457332 0.0232827 0.633886
2281 2 0.449993 0.00483636 0.618686
43 3 0.467517 0.0390248 0.641332
41 1 0.475066 0.0571855 0.653645
44 3 0.45989 0.074669 0.65209
45 3 0.495432 0.0638663 0.645949
1081 2 0.0565329 0.162901 0.591093
1199 4 0.0237771 0.150162 0.600781
1083 4 0.0432945 0.147152 0.605301
1198 2 0.00160076 0.150273 0.589232
1153 2 0.100196 0.0954469 0.595773
1154 4 0.112331 0.115185 0.605172
1221 4 0.132166 0.117023 0.613057
1219 2 0.1396 0.114598 0.636806
1220 4 0.147034 0.112172 0.660555
1212 4 0.243543 0.156854 0.630775
1210 2 0.265248 0.156258 0.643173
856 2 0.303137 0.157313 0.594959
857 4 0.326004 0.147227 0.595723
1211 4 0.286953 0.155662 0.655571
858 4 0.28027 0.167398 0.594195
899 4 0.34594 0.147217 0.594749
879 4 0.0938216 0.227204 0.586747
1270 2 0.128001 0.202558 0.589408
1271 4 0.148401 0.191018 0.598117
909 4 0.16356 0.191911 0.613384
907 2 0.16605 0.208439 0.63198
908 4 0.168539 0.224967 0.650576
947 4 0.171314 0.244608 0.653337
797 4 0.27009 0.184333 0.589943
1025 4 0.380259 0.187455 0.65753
1024 2 0.386582 0.20693 0.64318
1143 4 0.361467 0.190116 0.662946
1026 4 0.392904 0.226405 0.62883
904 2 0.444962 0.249173 0.614268
906 4 0.448108 0.226544 0.624427
946 2 0.188662 0.260744 0.66133
1237 2 0.273482 0.31933 0.590309
792 4 0.281775 0.306524 0.626611
791 4 0.312163 0.331108 0.657803
790 2 0.296969 0.318816 0.642207
1238 4 0.289843 0.313403 0.608264
1206 4 0.363056 0.333087 0.586503
905 4 0.441816 0.271802 0.604109
953 4 0.445354 0.270787 0.58396
983 4 0.0332594 0.404577 0.626245
1041 4 0.0519012 0.398185 0.627979
1039 2 0.0753753 0.405066 0.633157
982 2 0.00867079 0.400041 0.626147
1040 4 0.0988494 0.411946 0.638334
1136 4 0.168956 0.409407 0.595676
1002 4 0.451475 0.408551 0.592748
3330 4 0.487289 0.416521 0.647131
993 4 0.115319 0.419623 0.629035
992 4 0.160308 0.422461 0.607388
991 2 0.137814 0.421042 0.618211
1161 4 0.176451 0.484477 0.589072
1160 4 0.224286 0.486289 0.603536
1159 2 0.200368 0.485383 0.596304
1175 4 0.226435 0.48434 0.622687
1174 2 0.248116 0.490706 0.633391
1171 2 0.253435 0.465771 0.583654
1173 4 0.258099 0.476178 0.605905
1176 4 0.269796 0.497073 0.644096
889 2 0.341779 0.486769 0.640675
891 4 0.33686 0.48194 0.616641
1952 4 0.351266 0.491369 0.607663
1911 4 0.430447 0.461991 0.628125
1910 4 0.440093 0.42192 0.599807
1909 2 0.43527 0.441955 0.613966
3328 2 0.490309 0.434017 0.629525
3183 4 0.501353 0.423847 0.659288
1268 4 0.4364 0.473853 0.642793
1267 2 0.434463 0.489983 0.6618
3329 4 0.493329 0.451513 0.611919
943 2 0.0458276 0.0662508 0.682208
944 4 0.0483068 0.0621587 0.706749
1075 2 0.0441348 0.048419 0.735539
1076 4 0.0331678 0.0643193 0.719662
831 4 0.339464 0.0669107 0.724142
42 3 0.476978 0.050938 0.675701
1163 4 0.478816 0.0574757 0.694894
1283 4 0.154398 0.128997 0.66907
32 3 0.09366 0.144896 0.745623
1282 2 0.156808 0.127702 0.693924
1284 4 0.159219 0.126407 0.718777
1227 4 0.17573 0.119628 0.727556
1225 2 0.191581 0.131775 0.742601
888 4 0.279174 0.145222 0.670704
886 2 0.298102 0.133554 0.682137
887 4 0.317031 0.121885 0.693571
830 4 0.327351 0.112556 0.707695
829 2 0.333407 0.0897334 0.715919
1107 4 0.0295826 0.199371 0.738934
851 4 0.0308557 0.199902 0.718805
850 2 0.00910736 0.212236 0.719056
822 4 0.137271 0.223799 0.706642
1278 4 0.15416 0.21441 0.710477
820 2 0.114128 0.232284 0.702445
821 4 0.090986 0.240769 0.698249
1276 2 0.170429 0.217528 0.729206
1277 4 0.186698 0.220646 0.747935
1131 4 0.198313 0.204453 0.746898
916 2 0.308086 0.218159 0.721297
918 4 0.316665 0.196234 0.729716
917 4 0.299507 0.240083 0.712878
1142 4 0.315714 0.190181 0.68313
1008 4 0.325996 0.233252 0.741852
1097 4 0.280824 0.244445 0.717183
977 4 0.314252 0.180574 0.743758
1141 2 0.338591 0.190148 0.673038
1194 4 0.400945 0.241648 0.726952
3122 4 0.486736 0.216547 0.666199
1262 4 0.418541 0.230221 0.728729
3123 4 0.439448 0.203241 0.675551
3121 2 0.463092 0.209894 0.670875
1261 2 0.43645 0.213756 0.734505
1263 4 0.454359 0.197292 0.740281
1145 4 0.472169 0.194582 0.750636
1209 4 0.0377871 0.275905 0.692244
1207 2 0.0614096 0.26814 0.694863
1208 4 0.0850322 0.260375 0.697482
948 4 0.206009 0.27688 0.669322
1065 4 0.225016 0.283163 0.67246
1064 4 0.231773 0.318113 0.707581
1063 2 0.228394 0.300638 0.690021
1098 4 0.247469 0.269972 0.744322
1096 2 0.264146 0.257209 0.730752
1192 2 0.400662 0.262249 0.741119
893 4 0.0668181 0.339319 0.667593
1279 2 0.0868644 0.405365 0.715214
892 2 0.0816185 0.354239 0.68114
894 4 0.0964189 0.36916 0.694686
1281 4 0.0929637 0.388151 0.698136
940 2 0.162954 0.406174 0.724363
942 4 0.156726 0.416093 0.746454
941 4 0.169183 0.396255 0.702272
1067 4 0.173529 0.412852 0.693342
1028 4 0.231328 0.417934 0.666598
1029 4 0.273931 0.393334 0.675573
1027 2 0.252629 0.405634 0.671085
1139 4 0.285429 0.405603 0.686935
1983 4 0.0184668 0.488104 0.718339
1280 4 0.080765 0.422578 0.732293
1066 2 0.19507 0.42131 0.683875
1068 4 0.216611 0.429768 0.674408
1138 2 0.296866 0.419916 0.70395
1140 4 0.308303 0.434229 0.720965
1989 4 0.296927 0.438213 0.736227
1987 2 0.312245 0.450517 0.751692
1230 4 0.359352 0.424653 0.720457
890 4 0.346698 0.491598 0.66471
1228 2 0.356631 0.433174 0.697109
1229 4 0.353909 0.441695 0.67376
1100 4 0.467727 0.471719 0.72096
1099 2 0.470888 0.495036 0.712502
1250 4 0.467273 0.474535 0.74077
1077 4 0.0551018 0.0325186 0.751416
1203 4 0.0733793 0.0366005 0.752919
864 4 0.0269955 0.0764387 0.82932
1201 2 0.0922624 0.0310121 0.768326
2049 4 0.123377 0.011108 0.776173
1202 4 0.111146 0.0254237 0.783733
1148 4 0.178594 0.0590247 0.762044
1147 2 0.196924 0.0598645 0.779028
1149 4 0.215255 0.0607042 0.796012
1049 4 0.230068 0.0564482 0.783024
1048 2 0.247639 0.0507127 0.799863
1050 4 0.26521 0.0449773 0.816702
817 2 0.370007 0.0764383 0.812361
818 4 0.359984 0.0629162 0.830851
846 4 0.475322 0.034704 0.772177
1113 4 0.476821 0.015264 0.771351
844 2 0.49743 0.0463673 0.772781
832 2 0.0367751 0.135085 0.789036
863 4 0.00261613 0.109254 0.800518
833 4 0.0181607 0.121479 0.79871
33 3 0.0693892 0.134863 0.772511
834 4 0.0553895 0.14869 0.779363
862 2 0.0148058 0.0928463 0.814919
1106 4 0.0520872 0.163453 0.76547
31 1 0.0831959 0.15188 0.764881
34 3 0.0993229 0.156751 0.780838
1226 4 0.207432 0.143922 0.757647
1130 4 0.207053 0.16099 0.770035
840 4 0.209079 0.150609 0.787259
838 2 0.225381 0.147665 0.805988
839 4 0.241683 0.144722 0.824716
959 4 0.261166 0.140927 0.82622
978 4 0.296248 0.151087 0.779912
958 2 0.273697 0.119809 0.830928
960 4 0.286228 0.0986905 0.835637
819 4 0.38003 0.0899603 0.793872
1084 2 0.376105 0.129464 0.794783
1085 4 0.369832 0.106261 0.801672
1086 4 0.382378 0.152666 0.787893
3268 2 0.489608 0.145301 0.807584
3270 4 0.471503 0.140436 0.791039
1146 4 0.463792 0.156452 0.781888
1105 2 0.0408349 0.181412 0.752202
35 3 0.0708468 0.17048 0.760386
778 2 0.0565065 0.219104 0.800809
779 4 0.0376548 0.233292 0.792533
780 4 0.0753583 0.204916 0.809085
1214 4 0.0243834 0.247474 0.786855
1073 4 0.114546 0.169434 0.781135
1072 2 0.134644 0.183997 0.784163
1074 4 0.154741 0.198561 0.787191
869 4 0.0819734 0.213148 0.825895
1129 2 0.202683 0.182722 0.758466
976 2 0.30525 0.16583 0.761835
1299 4 0.38489 0.168809 0.775761
1006 2 0.339031 0.248704 0.756565
1297 2 0.387192 0.184663 0.794958
1298 4 0.389494 0.200517 0.814156
47 3 0.40651 0.20591 0.821659
49 3 0.400762 0.242945 0.824495
1144 2 0.46798 0.175517 0.766262
1213 2 0.00371086 0.256332 0.79778
1241 4 0.246395 0.281721 0.760452
1240 2 0.221914 0.283434 0.755663
1242 4 0.197434 0.285146 0.750875
801 4 0.297553 0.329671 0.825417
1166 4 0.410197 0.257702 0.811527
1043 4 0.386717 0.256193 0.814047
1042 2 0.373194 0.269104 0.797444
1007 4 0.352066 0.264156 0.771279
1044 4 0.359672 0.282015 0.780842
1193 4 0.400379 0.28285 0.755286
806 4 0.410953 0.319377 0.777555
805 2 0.390021 0.329062 0.767899
1167 4 0.457478 0.251572 0.79644
1165 2 0.433838 0.254637 0.803983
1306 2 0.489833 0.275633 0.812146
1307 4 0.476861 0.256493 0.802629
848 4 0.000825093 0.403356 0.828186