ITEM: TIMESTEP
480000
ITEM: NUMBER OF ATOMS
4590
ITEM: BOX BOUNDS pp pp pp
-9.9985700000000008e+00 9.9985700000000008e+00
-9.9985700000000008e+00 9.9985700000000008e+00
-9.9985700000000008e+00 9.9985700000000008e+00
ITEM: ATOMS id type xs ys zs
463 2 0.0171786 0.0621757 0.0461816
465 4 0.0142128 0.0790151 0.0644248
464 4 0.0201445 0.0453363 0.0279383
3290 4 0.0218074 0.0408186 0.00763103
3289 2 0.0142491 0.0170055 0.00862626
591 4 0.0336733 0.0772717 0.0703951
702 4 0.0937333 0.0795205 0.0346472
534 4 0.176144 0.0461787 0.00288049
1476 4 0.195021 0.00918234 0.0539589
490 2 0.284285 0.0442156 0.0276046
491 4 0.302253 0.0606722 0.0219925
492 4 0.266316 0.027759 0.0332167
557 4 0.385003 0.0777277 0.0716868
745 2 0.462005 0.0746878 0.0312326
747 4 0.466704 0.0574809 0.0137106
746 4 0.457306 0.0918947 0.0487546
1826 4 0.458627 0.00694723 0.0707459
2975 4 0.468841 0.0614769 0.994193
701 4 0.0622431 0.118147 0.0305181
700 2 0.0779882 0.0988339 0.0325826
423 4 0.0712662 0.148191 0.00611873
565 2 0.173884 0.111076 0.0587096
566 4 0.163757 0.133101 0.0648364
567 4 0.18401 0.089051 0.0525829
358 2 0.293258 0.136555 0.0137917
360 4 0.286365 0.135514 0.0378037
556 2 0.38053 0.101399 0.0649906
558 4 0.376058 0.125071 0.0582944
421 2 0.0615523 0.170904 0.00998796
553 2 0.0249209 0.210406 0.0328307
554 4 0.0169685 0.21921 0.0548402
422 4 0.0518384 0.193616 0.0138572
555 4 0.0328733 0.201601 0.0108212
353 4 0.283029 0.237149 0.0826896
352 2 0.258928 0.23196 0.0868599
324 4 0.403939 0.242601 0.0890257
665 4 0.364279 0.207122 0.0206309
770 4 0.446199 0.172503 0.0685804
771 4 0.45667 0.172562 0.0196819
769 2 0.451434 0.172533 0.0441312
828 4 0.44042 0.164859 0.0109398
292 2 0.141593 0.312192 0.0384763
293 4 0.154961 0.297441 0.0536055
294 4 0.128224 0.326942 0.0233472
507 4 0.166177 0.282773 0.0472878
506 4 0.180082 0.244274 0.0760141
505 2 0.173129 0.263523 0.061651
481 2 0.240736 0.314363 0.0744496
356 4 0.222578 0.261336 0.00270531
483 4 0.250525 0.291402 0.0759239
572 4 0.320146 0.258791 0.0582663
571 2 0.342233 0.26586 0.0489176
573 4 0.364319 0.272929 0.0395688
1071 4 0.373192 0.270452 0.0223884
1069 2 0.39461 0.265201 0.0106046
322 2 0.423809 0.255464 0.0809696
280 2 0.456199 0.324537 0.0484269
281 4 0.443065 0.324888 0.0697002
671 4 0.424548 0.320303 0.0741587
282 4 0.469332 0.324186 0.0271535
323 4 0.443678 0.268328 0.0729134
328 2 0.022004 0.402696 0.0354395
329 4 0.0225408 0.3919 0.0128929
330 4 0.0214672 0.413492 0.057986
455 4 0.0807609 0.372969 0.0759145
621 4 0.0165696 0.386529 0.0692379
1169 4 0.0605256 0.355721 0.00330866
454 2 0.101657 0.360619 0.0699142
456 4 0.122553 0.348269 0.0639139
482 4 0.230947 0.337323 0.0729754
252 4 0.320312 0.377475 0.0603093
250 2 0.303407 0.387577 0.0449031
251 4 0.286502 0.397678 0.0294968
608 4 0.316035 0.366504 0.0755431
227 4 0.470621 0.406212 0.0432265
551 4 0.0687005 0.454451 0.0687236
315 4 0.0333091 0.422002 0.0703326
550 2 0.087396 0.444955 0.0551046
552 4 0.106092 0.435459 0.0414855
245 4 0.207 0.454659 0.0278817
244 2 0.23161 0.458779 0.0294833
246 4 0.256219 0.462898 0.031085
272 4 0.273845 0.473724 0.0314777
271 2 0.289008 0.493602 0.0311015
562 2 0.461605 0.481875 0.0417597
564 4 0.462816 0.490245 0.0652897
563 4 0.460394 0.473505 0.0182298
226 2 0.485023 0.426586 0.0415881
228 4 0.499425 0.446959 0.0399496
1667 4 0.0739666 0.059687 0.0836267
1666 2 0.0846339 0.0381495 0.0905205
19 3 0.0280049 0.0449177 0.156257
20 3 0.0566486 0.0619777 0.13876
1422 4 0.0359454 0.0227159 0.154478
16 1 0.0500554 0.0519043 0.158092
18 3 0.0637671 0.0337445 0.162632
2480 4 0.0150893 0.0258906 0.151434
1668 4 0.0953011 0.016612 0.0974142
450 4 0.168989 0.061489 0.164566
1506 4 0.230498 0.00874766 0.157723
652 2 0.298119 0.0628198 0.130861
654 4 0.301293 0.0503846 0.109402
653 4 0.294945 0.075255 0.152319
296 4 0.374172 0.0629872 0.0807132
295 2 0.365225 0.0476836 0.0983466
297 4 0.356278 0.03238 0.11598
758 4 0.42048 0.0656857 0.159305
485 4 0.357952 0.0191251 0.131873
1759 2 0.483105 0.0140057 0.156417
1761 4 0.461015 0.00664241 0.165525
2723 4 0.500448 0.0744242 0.118356
589 2 0.0418972 0.0952855 0.085661
590 4 0.0501212 0.113299 0.100927
448 2 0.171441 0.0862953 0.16652
582 4 0.302235 0.0883364 0.165253
476 4 0.139908 0.196701 0.108397
475 2 0.132522 0.192782 0.131961
477 4 0.125135 0.188862 0.155525
737 4 0.198673 0.185319 0.102386
736 2 0.217659 0.201314 0.10536
738 4 0.236646 0.21731 0.108335
354 4 0.234827 0.226771 0.0910302
461 4 0.293728 0.221027 0.0814741
460 2 0.306836 0.205127 0.095636
462 4 0.319944 0.189228 0.109798
254 4 0.382152 0.17092 0.133522
630 4 0.402069 0.173701 0.12933
255 4 0.337974 0.18158 0.112656
253 2 0.360063 0.17625 0.123089
622 2 0.376634 0.243209 0.141515
628 2 0.418284 0.192101 0.124464
624 4 0.401004 0.239609 0.145792
629 4 0.4345 0.210502 0.119598
337 2 0.0785279 0.253784 0.14069
339 4 0.054685 0.25223 0.133323
338 4 0.102371 0.255339 0.148058
279 4 0.235773 0.287625 0.166925
277 2 0.249562 0.273706 0.151391
754 2 0.28452 0.284302 0.104769
755 4 0.269605 0.269261 0.118053
756 4 0.299436 0.299343 0.0914851
278 4 0.263352 0.259788 0.135856
741 4 0.354029 0.311082 0.0936206
623 4 0.352263 0.24681 0.137239
739 2 0.353101 0.330668 0.109136
670 2 0.427728 0.334607 0.0944186
527 4 0.462729 0.267377 0.164766
620 4 0.0216053 0.349913 0.102922
619 2 0.0190875 0.368221 0.0860797
647 4 0.0815178 0.365724 0.14233
537 4 0.149584 0.371764 0.120891
535 2 0.161654 0.379386 0.141418
626 4 0.206931 0.382898 0.0998302
625 2 0.2021 0.406041 0.107969
611 4 0.243994 0.349415 0.150296
609 4 0.290353 0.350392 0.115312
607 2 0.303194 0.358448 0.0954273
612 4 0.290699 0.341576 0.134235
610 2 0.267346 0.345495 0.142265
387 4 0.319547 0.394484 0.147653
302 4 0.315712 0.396711 0.166829
385 2 0.334189 0.374268 0.146187
740 4 0.352172 0.350254 0.124651
15 3 0.401599 0.353094 0.148289
386 4 0.34883 0.354053 0.14472
14 3 0.416735 0.387296 0.143958
495 4 0.408034 0.404814 0.14084
672 4 0.430909 0.348911 0.114678
11 1 0.421048 0.364941 0.148437
13 3 0.43143 0.362859 0.169084
12 3 0.43508 0.356675 0.132191
595 2 0.47726 0.368993 0.162285
596 4 0.501309 0.37158 0.155949
313 2 0.0147737 0.431504 0.0841649
627 4 0.197268 0.429184 0.116108
637 2 0.233535 0.47829 0.159538
639 4 0.232786 0.479355 0.134569
1438 2 0.236937 0.488361 0.0997852
1439 4 0.247656 0.479017 0.120351
525 4 0.335509 0.464252 0.0976341
523 2 0.327058 0.487702 0.0956655
493 2 0.419628 0.424216 0.130146
494 4 0.431221 0.443617 0.119453
17 3 0.0516707 0.0669562 0.175412
673 2 0.130016 0.0469019 0.249245
675 4 0.116856 0.0643452 0.237091
1505 4 0.204722 0.0195873 0.199181
1504 2 0.21761 0.0141675 0.178452
689 4 0.209546 0.0349936 0.211142
688 2 0.19158 0.0281194 0.227116
693 4 0.228541 0.0607292 0.19453
690 4 0.173615 0.0212453 0.24309
691 2 0.249471 0.0713614 0.203134
21 1 0.383044 0.0679688 0.233474
23 3 0.396678 0.0510759 0.241668
24 3 0.363576 0.0692319 0.246037
25 3 0.377956 0.0639462 0.211643
759 4 0.383056 0.0656269 0.192474
757 2 0.401768 0.0656563 0.175889
742 2 0.457529 0.0312897 0.246101
744 4 0.448523 0.0162133 0.228303
380 4 0.00256962 0.144298 0.16801
379 2 0.00990785 0.153987 0.189861
381 4 0.0172461 0.163675 0.211712
511 2 0.0457218 0.160613 0.231608
513 4 0.0676212 0.148958 0.234729
578 4 0.0759668 0.134769 0.245606
237 4 0.158928 0.15815 0.18477
577 2 0.0796563 0.11768 0.22773
579 4 0.0833457 0.100591 0.209855
235 2 0.174406 0.139174 0.17972
449 4 0.173893 0.111102 0.168474
236 4 0.189885 0.120198 0.17467
546 4 0.179837 0.156035 0.241887
721 2 0.191061 0.115854 0.254237
722 4 0.184464 0.136457 0.2417
692 4 0.270402 0.0819937 0.211739
580 2 0.294203 0.106299 0.18068
581 4 0.286171 0.124262 0.196108
30 3 0.288216 0.130178 0.215354
26 1 0.301692 0.132238 0.233597
28 3 0.292482 0.120818 0.251573
27 3 0.322315 0.123225 0.228839
29 3 0.304362 0.15465 0.238978
22 3 0.394242 0.0879985 0.235077
333 4 0.406292 0.094111 0.250187
312 4 0.410264 0.111058 0.190331
311 4 0.451407 0.127112 0.166874
310 2 0.430835 0.119085 0.178603
512 4 0.0238224 0.172269 0.228488
285 4 0.302637 0.229453 0.187716
284 4 0.256671 0.209793 0.186579
283 2 0.279654 0.219623 0.187148
764 4 0.40846 0.212033 0.219993
763 2 0.421656 0.233081 0.222822
520 2 0.473173 0.22219 0.248298
521 4 0.448521 0.218022 0.248014
395 4 0.0673555 0.25941 0.202016
394 2 0.0522066 0.260459 0.22188
396 4 0.0370578 0.261508 0.241745
363 4 0.104438 0.254494 0.167916
361 2 0.115778 0.261025 0.189222
750 4 0.111623 0.322511 0.218555
362 4 0.127119 0.267555 0.210527
372 4 0.137294 0.255613 0.222878
748 2 0.0940751 0.305996 0.225227
749 4 0.0765269 0.289482 0.231898
370 2 0.156577 0.271136 0.226397
371 4 0.175859 0.286659 0.229916
345 4 0.228902 0.291571 0.232261
343 2 0.252689 0.292196 0.224581
344 4 0.276475 0.292822 0.216901
307 2 0.307237 0.299098 0.239044
309 4 0.295948 0.290484 0.218464
765 4 0.434852 0.25413 0.225651
528 4 0.48001 0.272797 0.211379
526 2 0.47137 0.270087 0.188073
646 2 0.087653 0.370036 0.166182
536 4 0.173725 0.387008 0.161946
300 4 0.11751 0.334918 0.234248
648 4 0.0937882 0.374348 0.190035
298 2 0.11958 0.359158 0.24002
299 4 0.121649 0.383398 0.245792
290 4 0.241006 0.395655 0.221183
729 4 0.298542 0.376635 0.253582
597 4 0.453212 0.366407 0.168622
643 2 0.450103 0.354712 0.209895
644 4 0.456369 0.355381 0.234091
645 4 0.443837 0.354044 0.185699
263 4 0.0481201 0.474707 0.185803
262 2 0.0485176 0.461202 0.206842
264 4 0.0489151 0.447698 0.227881
417 4 0.160207 0.440437 0.211221
415 2 0.180609 0.438547 0.19689
638 4 0.234284 0.477225 0.184508
416 4 0.201011 0.436658 0.182559
291 4 0.21206 0.424607 0.192466
289 2 0.226533 0.410131 0.206824
768 4 0.214521 0.486864 0.246713
766 2 0.227072 0.484141 0.22526
767 4 0.239624 0.481418 0.203807
414 4 0.195034 0.481211 0.243032
1430 4 0.17348 0.492428 0.208928
301 2 0.319085 0.420854 0.17239
303 4 0.322458 0.444997 0.177951
437 4 0.276793 0.456971 0.238193
660 4 0.374584 0.479048 0.175276
658 2 0.358364 0.460019 0.175197
659 4 0.342145 0.44099 0.175118
231 4 0.373843 0.49786 0.184638
2755 2 0.00818498 0.062857 0.320688
232 2 0.0380166 0.0297362 0.284855
233 4 0.0581479 0.0149322 0.285722
1403 4 0.0705528 0.012177 0.30052
234 4 0.0178853 0.0445402 0.283987
2756 4 0.0134786 0.0586325 0.29662
674 4 0.143176 0.0294586 0.261399
1464 4 0.141247 0.00333122 0.291082
1701 4 0.289927 0.0528838 0.308854
1699 2 0.287626 0.037274 0.289458
1700 4 0.285325 0.0216641 0.270062
1516 2 0.361486 0.00632851 0.287173
1518 4 0.359705 0.0309144 0.291361
697 2 0.376263 0.0487999 0.327131
699 4 0.363156 0.0356188 0.310408
1747 2 0.46048 0.0148474 0.3009
1749 4 0.47789 0.0188237 0.318399
743 4 0.466534 0.0463662 0.263899
257 4 0.436557 0.0771823 0.329145
480 4 0.485723 0.0385334 0.3124
351 4 0.450942 0.0526874 0.277301
349 2 0.440575 0.0683836 0.293773
1748 4 0.443069 0.0108711 0.2834
530 4 0.0116996 0.161351 0.265047
397 2 0.072136 0.135381 0.31043
399 4 0.0584364 0.152623 0.29859
544 2 0.162082 0.172645 0.247723
398 4 0.0858357 0.118138 0.322271
732 4 0.101126 0.107031 0.328219
723 4 0.197658 0.0952515 0.266774
404 4 0.232631 0.135225 0.286645
403 2 0.235001 0.160032 0.288689
599 4 0.218679 0.150851 0.319954
249 4 0.250338 0.131601 0.296597
248 4 0.275919 0.0886937 0.294303
247 2 0.263129 0.110148 0.29545
632 4 0.360562 0.0948588 0.285441
631 2 0.368252 0.114317 0.299132
633 4 0.375943 0.133775 0.312822
350 4 0.430207 0.0840798 0.310245
331 2 0.423057 0.111659 0.256201
332 4 0.439823 0.129206 0.262215
762 4 0.446258 0.137507 0.279551
760 2 0.462345 0.140227 0.298498
761 4 0.478431 0.142946 0.317446
390 4 0.0870752 0.250621 0.308317
392 4 0.13671 0.193379 0.270857
391 2 0.119725 0.187914 0.288373
393 4 0.10274 0.18245 0.305889
545 4 0.144328 0.189256 0.253558
388 2 0.10244 0.234889 0.320218
389 4 0.117804 0.219158 0.332119
405 4 0.237372 0.184839 0.290733
401 4 0.198067 0.252677 0.277159
400 2 0.214259 0.252504 0.296211
706 2 0.291483 0.1871 0.317137
707 4 0.311449 0.183356 0.302559
420 4 0.396679 0.187972 0.317585
443 4 0.0191199 0.264685 0.251205
444 4 0.0350544 0.279751 0.296147
442 2 0.0270872 0.272218 0.273676
402 4 0.230452 0.252332 0.315262
308 4 0.318526 0.307713 0.259623
496 2 0.309641 0.309154 0.303233
497 4 0.291641 0.309002 0.285879
498 4 0.327642 0.309306 0.320586
615 4 0.395565 0.328599 0.291067
543 4 0.412994 0.320561 0.288717
541 2 0.436715 0.327587 0.292336
2493 4 0.0181023 0.374472 0.312585
366 4 0.0118475 0.373975 0.247179
364 2 0.0139253 0.379575 0.271458
365 4 0.016003 0.385175 0.295738
603 4 0.106349 0.366111 0.323253
601 2 0.099104 0.386516 0.310749
734 4 0.134978 0.380433 0.259826
733 2 0.14539 0.38288 0.282427
602 4 0.0918593 0.406921 0.298246
735 4 0.155803 0.385327 0.305027
677 4 0.163354 0.374887 0.32094
676 2 0.188041 0.373082 0.31741
678 4 0.212728 0.371278 0.313879
433 2 0.325743 0.38999 0.330426
727 2 0.295694 0.385316 0.276857
434 4 0.309786 0.394819 0.311792
728 4 0.292845 0.393996 0.300132
613 2 0.378911 0.337875 0.307246
614 4 0.362257 0.34715 0.323426
542 4 0.460437 0.334613 0.295955
447 4 0.463169 0.365868 0.250041
445 2 0.444631 0.378598 0.260972
446 4 0.426094 0.391328 0.271904
1756 2 0.0824626 0.496347 0.276187
549 4 0.0198734 0.460954 0.332105
1757 4 0.0793166 0.473754 0.286426
776 4 0.0663839 0.46031 0.292156
777 4 0.0983889 0.422097 0.288129
775 2 0.0823864 0.441203 0.290142
413 4 0.161248 0.465294 0.276287
412 2 0.178141 0.473253 0.259659
1435 2 0.240081 0.499997 0.325209
436 2 0.289459 0.470963 0.254593
438 4 0.302125 0.484956 0.270993
1437 4 0.26403 0.495756 0.331008
713 4 0.399721 0.464793 0.27821
593 4 0.385855 0.486815 0.332525
2862 4 0.491277 0.441609 0.292076
712 2 0.41838 0.461568 0.294538
714 4 0.43704 0.458342 0.310866
317 4 0.0744103 0.0652783 0.352171
428 4 0.0719357 0.0497956 0.339343
2584 2 0.000945137 0.0739596 0.400943
2586 4 0.0202155 0.0692443 0.385725
427 2 0.0814894 0.026854 0.336588
429 4 0.0910431 0.00391241 0.333833
731 4 0.129327 0.0870386 0.364354
1782 4 0.10269 0.00429972 0.375269
606 4 0.196582 0.0562091 0.352408
604 2 0.208616 0.0658914 0.37207
605 4 0.22065 0.0755738 0.391733
683 4 0.287407 0.0503884 0.367463
682 2 0.282505 0.0730445 0.376835
698 4 0.38937 0.0619809 0.343854
425 4 0.41968 0.0351662 0.415767
478 2 0.496625 0.0466749 0.333377
424 2 0.439491 0.0416904 0.401977
426 4 0.459301 0.0482145 0.388187
256 2 0.446363 0.0681275 0.350288
258 4 0.45617 0.0590726 0.371431
316 2 0.0609435 0.0849684 0.359663
318 4 0.0474767 0.104658 0.367154
730 2 0.115226 0.0970349 0.346286
685 2 0.167559 0.130423 0.397487
687 4 0.181684 0.113697 0.385407
600 4 0.196413 0.124746 0.356333
598 2 0.207546 0.137799 0.338143
684 4 0.277603 0.0957007 0.386208
320 4 0.269042 0.0992258 0.403026
514 2 0.440924 0.168862 0.406902
515 4 0.456773 0.159262 0.390114
2653 2 0.999275 0.223648 0.397488
2654 4 0.0220827 0.221884 0.407582
474 4 0.224056 0.197625 0.365834
472 2 0.247986 0.196117 0.358743
708 4 0.271517 0.190844 0.331716
473 4 0.271915 0.194609 0.351651
418 2 0.409047 0.206352 0.329177
716 4 0.382387 0.253793 0.367341
419 4 0.421415 0.224733 0.340768
451 2 0.486365 0.16976 0.362094
453 4 0.464451 0.165487 0.373351
304 2 0.498568 0.220707 0.405429
306 4 0.487747 0.237619 0.420331
616 2 0.081348 0.304113 0.38651
618 4 0.0595139 0.298877 0.397511
347 4 0.0433575 0.30923 0.403531
617 4 0.103182 0.309349 0.375508
275 4 0.175161 0.261888 0.366658
274 2 0.19427 0.251781 0.379223
276 4 0.213379 0.241675 0.391787
508 2 0.244402 0.309036 0.366111
510 4 0.237764 0.322916 0.38582
374 4 0.224156 0.329516 0.400251
509 4 0.251041 0.295155 0.346402
488 4 0.291412 0.264439 0.374816
376 2 0.315452 0.277367 0.348869
377 4 0.309418 0.262591 0.368115
378 4 0.321485 0.292144 0.329623
487 2 0.287986 0.271515 0.398551
715 2 0.365004 0.258702 0.38463
717 4 0.34762 0.26361 0.40192
270 4 0.475891 0.2515 0.413149
269 4 0.476608 0.286063 0.377016
268 2 0.47625 0.268781 0.395082
406 2 0.0655781 0.40338 0.370931
407 4 0.054253 0.410292 0.349738
681 4 0.0383418 0.414917 0.401781
408 4 0.0769033 0.396469 0.392124
373 2 0.216238 0.347907 0.415226
502 2 0.20768 0.401284 0.406422
435 4 0.3417 0.385161 0.34906
336 4 0.356162 0.401277 0.395936
561 4 0.47202 0.394203 0.408212
752 4 0.465198 0.401013 0.389782
559 2 0.458083 0.376629 0.419261
751 2 0.47758 0.410305 0.370147
547 2 0.0346581 0.445271 0.344779
548 4 0.0494429 0.429587 0.357453
500 4 0.100785 0.500132 0.372224
499 2 0.124681 0.500185 0.364864
501 4 0.148576 0.500239 0.357504
503 4 0.214657 0.42166 0.393722
668 4 0.303157 0.437106 0.393527
5 3 0.27657 0.457491 0.367804
1 1 0.294573 0.447274 0.358308
2 3 0.309824 0.463244 0.351867
4 3 0.30462 0.433065 0.373657
3 3 0.287911 0.435283 0.339593
667 2 0.316293 0.451594 0.409106
753 4 0.489962 0.419596 0.350512
718 2 0.0637329 0.0639258 0.493554
368 4 0.0781117 0.0377029 0.439502
719 4 0.0868951 0.0670907 0.484684
367 2 0.100971 0.0437774 0.447608
369 4 0.123831 0.049852 0.455715
341 4 0.192258 0.0272911 0.468975
340 2 0.187904 0.047412 0.483165
2430 4 0.190499 0.00973356 0.479597
1180 2 0.248659 0.064236 0.472469
1182 4 0.237135 0.0849312 0.464463
439 2 0.28505 0.00460767 0.434873
1181 4 0.260182 0.0435407 0.480475
441 4 0.270494 0.0210734 0.446797
726 4 0.292444 0.0748273 0.423051
724 2 0.312396 0.0597576 0.422982
432 4 0.29262 0.0604949 0.490346
963 4 0.278491 0.0452521 0.489523
430 2 0.311788 0.0760686 0.494249
725 4 0.332348 0.0446878 0.422913
2878 2 0.493844 0.0749631 0.44107
2880 4 0.473174 0.0814462 0.453555
459 4 0.0102148 0.148834 0.442661
1034 4 0.112903 0.148768 0.484868
686 4 0.153435 0.147149 0.409566
321 4 0.262168 0.135158 0.437119
319 2 0.265605 0.117192 0.420073
468 4 0.353331 0.165082 0.422823
574 2 0.398808 0.150316 0.440191
576 4 0.386309 0.135569 0.45605
575 4 0.411307 0.165062 0.424332
516 4 0.425075 0.178462 0.423689
641 4 0.493317 0.12918 0.494353
642 4 0.467513 0.0958308 0.467469
640 2 0.480415 0.112505 0.480911
458 4 0.0239928 0.195563 0.431379
457 2 0.0171038 0.172198 0.43702
470 4 0.0269792 0.208761 0.497887
260 4 0.0749302 0.226169 0.434463
261 4 0.0954134 0.208585 0.476558
259 2 0.0851718 0.217377 0.45551
1035 4 0.108004 0.198452 0.487748
1033 2 0.110453 0.17361 0.486308
411 4 0.259965 0.227244 0.483455
409 2 0.279672 0.212555 0.478866
410 4 0.299378 0.197866 0.474276
466 2 0.351413 0.186227 0.436027
467 4 0.349496 0.207373 0.449231
346 2 0.0444306 0.298314 0.426
348 4 0.0455037 0.287398 0.44847
695 4 0.087534 0.254064 0.490391
694 2 0.110025 0.264506 0.493599
10 3 0.160561 0.32093 0.487363
696 4 0.132516 0.274948 0.496807
650 4 0.246826 0.3033 0.457958
489 4 0.28456 0.278591 0.422287
651 4 0.273145 0.268123 0.434071
649 2 0.259986 0.285712 0.446015
812 4 0.330076 0.29877 0.484457
267 4 0.351535 0.278229 0.415245
266 4 0.367683 0.292856 0.460256
265 2 0.359609 0.285542 0.437751
811 2 0.344814 0.280592 0.493263
2456 4 0.49421 0.295954 0.451931
583 2 0.458232 0.285198 0.454426
584 4 0.482066 0.280862 0.448234
585 4 0.434399 0.289534 0.460617
7 3 0.134802 0.347503 0.492185
326 4 0.10664 0.34885 0.430272
327 4 0.130149 0.338742 0.473236
325 2 0.118395 0.343796 0.451754
6 1 0.157193 0.342499 0.49385
711 4 0.165233 0.36801 0.463202
8 3 0.169133 0.356864 0.480084
375 4 0.208321 0.366299 0.4302
504 4 0.200703 0.380908 0.419123
709 2 0.173077 0.372833 0.439956
710 4 0.180921 0.377657 0.41671
334 2 0.366044 0.392705 0.417244
238 2 0.39823 0.370932 0.470273
240 4 0.387295 0.37021 0.447798
335 4 0.375926 0.384134 0.438553
239 4 0.409165 0.371654 0.492747
560 4 0.444146 0.359055 0.43031
383 4 0.0698183 0.429955 0.484224
680 4 0.0371557 0.443701 0.442657
1381 2 0.0194564 0.47576 0.4521
1383 4 0.0295894 0.453607 0.457736
679 2 0.0377487 0.429309 0.422219
935 4 0.0133315 0.456978 0.492817
570 4 0.133104 0.493516 0.422389
540 4 0.100444 0.496654 0.461045
384 4 0.108557 0.453959 0.463637
382 2 0.0891877 0.441957 0.47393
569 4 0.115774 0.452025 0.444271
568 2 0.124439 0.47277 0.43333
634 2 0.218107 0.458615 0.448742
636 4 0.225502 0.466822 0.426311
772 2 0.229771 0.424171 0.493568
635 4 0.210711 0.450409 0.471172
774 4 0.210114 0.431901 0.480188
669 4 0.32943 0.466082 0.424685
586 2 0.400899 0.436815 0.438655
588 4 0.385131 0.418718 0.431653
587 4 0.416667 0.454912 0.445658
1126 2 0.0244911 0.0617201 0.533961
1127 4 0.0217771 0.0611601 0.509111
1128 4 0.0272052 0.0622802 0.55881
2236 2 0.00893659 0.00160966 0.519357
720 4 0.0405708 0.0607608 0.502424
2237 4 0.0121359 0.0223452 0.505756
1058 4 0.125901 0.0547263 0.542661
1057 2 0.133323 0.0769292 0.551443
1030 2 0.239725 0.0772596 0.579104
342 4 0.18355 0.0675329 0.497356
1152 4 0.166937 0.0753876 0.492387
961 2 0.28261 0.0335864 0.511252
962 4 0.286728 0.0219207 0.532981
1217 4 0.399619 0.046949 0.527658
841 2 0.365991 0.0729605 0.514414
842 4 0.382301 0.0557093 0.52226
1216 2 0.398486 0.0324497 0.547997
1218 4 0.397353 0.0179505 0.568336
1060 2 0.491741 0.010685 0.531499
1062 4 0.484054 0.0165355 0.554561
937 2 0.105549 0.164186 0.569258
1151 4 0.168617 0.119698 0.515507
1059 4 0.140745 0.0991322 0.560225
1155 4 0.153383 0.107836 0.572095
1150 2 0.167777 0.0975427 0.503947
1153 2 0.167052 0.127418 0.579502
1032 4 0.243204 0.100877 0.571669
1154 4 0.180721 0.147 0.58691
898 2 0.31936 0.145135 0.558872
899 4 0.295267 0.140981 0.553633
431 4 0.330956 0.0916422 0.498152
843 4 0.349681 0.0902117 0.506569
900 4 0.343453 0.149289 0.564111
3158 4 0.490198 0.140891 0.510566
3157 2 0.4801 0.163764 0.510778
878 4 0.0549783 0.185186 0.578061
471 4 0.0373311 0.164612 0.518967
469 2 0.0321552 0.186686 0.508427
938 4 0.0925769 0.176011 0.551452
797 4 0.233727 0.224486 0.575113
856 2 0.241974 0.202282 0.550617
857 4 0.233632 0.18263 0.537603
858 4 0.250316 0.221934 0.563632
3159 4 0.470001 0.186636 0.51099
1258 2 0.155581 0.272612 0.524002
1260 4 0.145091 0.261567 0.504174
1136 4 0.105199 0.335335 0.558016
1259 4 0.166071 0.283656 0.54383
873 4 0.379575 0.265663 0.501385
871 2 0.399433 0.264206 0.516508
813 4 0.359552 0.262414 0.502068
872 4 0.419291 0.262749 0.531631
953 4 0.442999 0.314881 0.574734
1135 2 0.118056 0.34994 0.573719
897 4 0.146727 0.369733 0.578104
9 3 0.16388 0.345272 0.515895
1189 2 0.229159 0.357705 0.548048
896 4 0.19541 0.371937 0.566887
1191 4 0.206273 0.357189 0.558104
895 2 0.171069 0.370835 0.572495
1190 4 0.252046 0.35822 0.537992
773 4 0.249428 0.41644 0.506947
802 2 0.269111 0.391522 0.525905
803 4 0.269192 0.369794 0.538277
804 4 0.26903 0.41325 0.513532
929 4 0.337476 0.400247 0.561145
928 2 0.360368 0.398975 0.571122
930 4 0.38326 0.397704 0.581098
925 2 0.467156 0.37492 0.511598
927 4 0.47052 0.398855 0.505196
926 4 0.463792 0.350985 0.517999
1001 4 0.442702 0.410847 0.557293
1171 2 0.235445 0.430531 0.548735
1173 4 0.228774 0.436796 0.572003
1172 4 0.242116 0.424266 0.525466
2243 4 0.162942 0.500144 0.583833
882 4 0.334264 0.445242 0.514761
880 2 0.324006 0.455844 0.534949
881 4 0.313749 0.466446 0.555138
1952 4 0.33026 0.476808 0.56108
1951 2 0.345268 0.489222 0.576759
1000 2 0.442046 0.433351 0.568171
661 2 0.478809 0.475582 0.516742
663 4 0.477512 0.450813 0.519901
662 4 0.480106 0.500351 0.513582
2319 4 0.0653115 0.99714 0.663508
945 4 0.0707192 0.0154468 0.657387
1185 4 0.00255303 0.0319158 0.633396
1183 2 0.00952588 0.0427329 0.654833
943 2 0.0687881 0.0398475 0.662492
825 4 0.11464 0.0140307 0.632224
951 4 0.233562 0.0412791 0.603592
1031 4 0.236246 0.053642 0.586539
949 2 0.234068 0.0163196 0.602197
1283 4 0.187282 0.0798277 0.626303
808 2 0.472403 0.0854782 0.623355
810 4 0.452443 0.0779084 0.636373
43 3 0.427972 0.0594118 0.668345
45 3 0.451741 0.0856164 0.65546
1082 4 0.0424041 0.114567 0.653319
1083 4 0.0664363 0.0994613 0.612149
1081 2 0.0544202 0.107014 0.632734
939 4 0.118522 0.152361 0.587064
909 4 0.156822 0.162305 0.658767
1284 4 0.177579 0.120044 0.654397
1282 2 0.18243 0.0999356 0.64035
1221 4 0.17533 0.165876 0.592768
1005 4 0.329579 0.108261 0.645339
1003 2 0.344844 0.0998738 0.663278
809 4 0.492364 0.0930479 0.610337
877 2 0.0700567 0.204039 0.584572
1208 4 0.0671234 0.250304 0.644662
879 4 0.085135 0.222891 0.591084
1272 4 0.0968325 0.214714 0.605177
1270 2 0.118303 0.208099 0.616152
1271 4 0.139773 0.201484 0.627127
1212 4 0.20617 0.178182 0.653731
1219 2 0.18546 0.168442 0.615483
1220 4 0.19559 0.171007 0.638198
796 2 0.240783 0.242305 0.591172
1210 2 0.229333 0.177104 0.663085
791 4 0.316377 0.248494 0.582879
906 4 0.481057 0.221105 0.623091
1024 2 0.42467 0.20277 0.650084
1026 4 0.433192 0.203316 0.626584
904 2 0.500456 0.222707 0.607397
1244 4 0.0150852 0.258919 0.615618
1243 2 0.0258783 0.273419 0.632894
1245 4 0.0366714 0.287919 0.650169
1207 2 0.085375 0.259001 0.659373
948 4 0.146483 0.288519 0.61208
798 4 0.247838 0.260124 0.607231
946 2 0.169923 0.29713 0.610808
947 4 0.193362 0.305741 0.609535
1239 4 0.245372 0.330805 0.606824
790 2 0.307544 0.271822 0.584593
792 4 0.298711 0.29515 0.586307
1238 4 0.289351 0.30971 0.595796
1237 2 0.267362 0.320258 0.60131
954 4 0.44029 0.324169 0.623797
952 2 0.441644 0.319525 0.599266
3123 4 0.499611 0.293248 0.653085
3121 2 0.493648 0.270329 0.661107
1039 2 0.0480201 0.413167 0.619337
1041 4 0.0249789 0.409638 0.610291
984 4 0.00637885 0.337658 0.629876
1137 4 0.130913 0.364545 0.589421
993 4 0.0903713 0.419215 0.62516
992 4 0.12532 0.395439 0.651881
991 2 0.107846 0.407327 0.638521
1204 2 0.396164 0.392643 0.611353
1206 4 0.398093 0.38574 0.587399
1205 4 0.394235 0.399546 0.635307
1040 4 0.0710613 0.416695 0.628383
2129 4 0.00965019 0.499153 0.64437
1159 2 0.160959 0.441142 0.60956
1160 4 0.139559 0.453663 0.606333
1188 4 0.197034 0.484772 0.62891
1161 4 0.182359 0.42862 0.612787
889 2 0.29908 0.435672 0.599314
891 4 0.282811 0.454492 0.596806
890 4 0.315349 0.416851 0.601821
1002 4 0.44139 0.455855 0.579048
1910 4 0.436395 0.457967 0.599382
1267 2 0.435452 0.503266 0.652175
1909 2 0.427319 0.480342 0.592892
1269 4 0.454134 0.498075 0.636389
1184 4 0.0164987 0.0535501 0.67627
944 4 0.066857 0.0642481 0.667596
1076 4 0.0682904 0.0781053 0.681714
1163 4 0.488518 0.022141 0.674773
42 3 0.465091 0.0551998 0.672474
41 1 0.447969 0.0705576 0.672123
845 4 0.486888 0.0225527 0.754318
864 4 0.0625179 0.108783 0.742573
1075 2 0.0697103 0.0861217 0.705355
1077 4 0.0711303 0.094138 0.728996
1105 2 0.0754217 0.157696 0.733926
1106 4 0.0919515 0.149251 0.750678
907 2 0.170572 0.162169 0.67965
908 4 0.184323 0.162032 0.700532
1227 4 0.203474 0.164671 0.705104
1148 4 0.216815 0.107559 0.733041
1225 2 0.213759 0.145486 0.717406
1226 4 0.224044 0.126301 0.729708
829 2 0.332583 0.160082 0.7174
831 4 0.354083 0.151914 0.727208
1004 4 0.360109 0.0914864 0.681218
44 3 0.447228 0.0814348 0.692606
1107 4 0.058892 0.166142 0.717175
851 4 0.0627351 0.184838 0.721751
852 4 0.059491 0.224013 0.690839
850 2 0.061113 0.204425 0.706295
1215 4 0.0183314 0.234366 0.722964
1178 4 0.0392729 0.219545 0.693198
1177 2 0.0239602 0.233359 0.67906
1213 2 0.00434599 0.218821 0.736674
1179 4 0.00864745 0.247172 0.664922
830 4 0.311083 0.16825 0.707592
1211 4 0.252496 0.176026 0.672438
886 2 0.283799 0.182215 0.692486
888 4 0.259004 0.180672 0.689663
887 4 0.308595 0.183757 0.695309
1064 4 0.268152 0.244351 0.716955
1193 4 0.368828 0.234367 0.674867
1192 2 0.359159 0.217436 0.69052
1194 4 0.34949 0.200505 0.706173
1262 4 0.400506 0.231282 0.730825
1143 4 0.408773 0.184442 0.680171
1142 4 0.437273 0.157414 0.711122
1025 4 0.416148 0.202224 0.673584
1141 2 0.423023 0.170928 0.695646
3122 4 0.487684 0.247411 0.66913
3356 4 0.488187 0.23458 0.730984
3355 2 0.486875 0.233213 0.706053
1261 2 0.424221 0.236919 0.725257
1145 4 0.495696 0.23371 0.75003
3357 4 0.485562 0.231846 0.681121
1263 4 0.447936 0.242556 0.719689
821 4 0.144212 0.259935 0.736128
1209 4 0.103627 0.267699 0.674084
820 2 0.167068 0.259488 0.746255
1065 4 0.238668 0.284704 0.718694
1063 2 0.25341 0.264528 0.717824
806 4 0.338195 0.33147 0.673415
3274 2 0.00855927 0.388301 0.736041
892 2 0.0591262 0.403493 0.711006
894 4 0.0341395 0.4026 0.711218
3276 4 0.025039 0.385865 0.717395
893 4 0.084113 0.404385 0.710793
1067 4 0.158212 0.413891 0.685655
942 4 0.125756 0.416081 0.745547
1028 4 0.223594 0.396048 0.684818
1066 2 0.181904 0.406508 0.682594
1068 4 0.205595 0.399125 0.679534
1027 2 0.248118 0.400878 0.68417
1029 4 0.272642 0.405708 0.683522
807 4 0.352985 0.37255 0.697796
805 2 0.34559 0.35201 0.685605
1019 4 0.398874 0.396186 0.724139
1018 2 0.381126 0.379373 0.718895
1230 4 0.341673 0.417748 0.75635
1020 4 0.363377 0.362561 0.713652
1281 4 0.0198096 0.46155 0.731488
1279 2 0.00785908 0.445155 0.716874
1983 4 0.0248555 0.476962 0.720767
1981 2 0.0273385 0.494906 0.738002
1280 4 0.995909 0.42876 0.70226
2128 2 0.0235891 0.501012 0.665044
2172 4 0.109085 0.489491 0.675364
940 2 0.140097 0.418613 0.725223
941 4 0.154438 0.421144 0.704898
1174 2 0.208952 0.491251 0.712067
1175 4 0.227891 0.476644 0.704777
1987 2 0.328004 0.494525 0.74622
1139 4 0.288572 0.419315 0.681756
1138 2 0.301215 0.43816 0.692254
1140 4 0.313858 0.457005 0.702752
1228 2 0.338947 0.438579 0.742792
1229 4 0.336222 0.45941 0.729234
1989 4 0.34306 0.477914 0.735148
3329 4 0.501551 0.474777 0.745152
1100 4 0.471643 0.449922 0.709247
1099 2 0.479716 0.471646 0.699863
1101 4 0.487789 0.493371 0.690479
1203 4 0.0694638 0.065133 0.777516
1202 4 0.0901382 0.0223427 0.761951
1201 2 0.079801 0.0437379 0.769733
911 4 0.121331 0.0612422 0.79624
2049 4 0.108252 0.0141493 0.757517
910 2 0.10937 0.0764037 0.812123
1149 4 0.213025 0.0743261 0.770215
1255 2 0.295068 0.073303 0.798193
1256 4 0.30997 0.0597898 0.813043
1050 4 0.350497 0.0151147 0.76731
975 4 0.380516 0.995957 0.836509
817 2 0.357617 0.0807597 0.837222
846 4 0.458903 0.0207967 0.795724
1113 4 0.459103 0.0394898 0.799797
844 2 0.472896 0.0216747 0.775021
1111 2 0.44556 0.0594446 0.806397
1112 4 0.432016 0.0793993 0.812997
980 4 0.434507 0.0318757 0.829039
862 2 0.039534 0.103993 0.751173
863 4 0.0165501 0.0992025 0.759774
833 4 0.0137146 0.0929148 0.779886
832 2 0.00509352 0.104342 0.800387
33 3 0.115425 0.137821 0.778611
912 4 0.0974091 0.0915651 0.828005
31 1 0.109328 0.160208 0.778315
35 3 0.0897513 0.162779 0.766966
1147 2 0.21492 0.0909428 0.751628
1130 4 0.191548 0.154955 0.773545
840 4 0.241606 0.133993 0.834062