ITEM: TIMESTEP
940000
ITEM: NUMBER OF ATOMS
4590
ITEM: BOX BOUNDS pp pp pp
-9.9985700000000008e+00 9.9985700000000008e+00
-9.9985700000000008e+00 9.9985700000000008e+00
-9.9985700000000008e+00 9.9985700000000008e+00
ITEM: ATOMS id type xs ys zs
463 2 0.0397457 0.0530836 0.0353116
464 4 0.0439108 0.0311891 0.0239774
3290 4 0.0526987 0.0363775 0.00723694
465 4 0.0355805 0.074978 0.0466459
1668 4 0.0758346 0.0225669 0.0614507
1667 4 0.0982487 0.0589724 0.0873922
1666 2 0.0870416 0.0407696 0.0744215
1476 4 0.192587 0.042881 0.0452194
1474 2 0.214036 0.0368831 0.0338552
1475 4 0.235485 0.0308852 0.022491
492 4 0.253214 0.0209235 0.0175478
745 2 0.458747 0.0706879 0.0257669
746 4 0.450358 0.0773649 0.0483551
747 4 0.467136 0.0640109 0.00317866
591 4 0.049121 0.0879467 0.052711
701 4 0.0516603 0.100135 0.0188764
700 2 0.07225 0.114287 0.019857
423 4 0.0612265 0.158061 0.00242565
2760 4 0.0188302 0.125766 0.0406225
2758 2 0.00697035 0.147537 0.0373787
589 2 0.0558638 0.092366 0.0763792
702 4 0.0928397 0.128439 0.0208377
567 4 0.161984 0.0903979 0.0755216
565 2 0.181039 0.105251 0.0690829
566 4 0.200094 0.120105 0.0626442
358 2 0.27002 0.141759 0.0199186
359 4 0.291029 0.131537 0.0288237
360 4 0.249011 0.151982 0.0110135
556 2 0.369894 0.102347 0.089302
558 4 0.374613 0.122487 0.0752564
665 4 0.391373 0.146669 0.0142818
421 2 0.0567044 0.17 0.0239245
553 2 0.0237753 0.213746 0.0455295
422 4 0.0521823 0.181938 0.0454233
555 4 0.0432358 0.198699 0.0500069
1133 4 0.215775 0.174926 0.0181111
505 2 0.174829 0.255105 0.0780162
353 4 0.27209 0.207481 0.0654727
352 2 0.254259 0.203589 0.0825633
461 4 0.28675 0.204221 0.0777038
1069 2 0.405574 0.24879 0.0228035
1071 4 0.38669 0.24647 0.0390278
664 2 0.384177 0.168105 0.00361217
1070 4 0.424457 0.251109 0.00657919
324 4 0.45015 0.256954 0.0534126
771 4 0.475961 0.147273 0.0750926
1168 2 0.0255278 0.324407 0.00243164
1170 4 0.0297074 0.299819 0.00419669
292 2 0.162877 0.295748 0.0391534
294 4 0.148755 0.31624 0.0367404
456 4 0.150849 0.330579 0.0510724
507 4 0.16703 0.266459 0.0571485
454 2 0.136993 0.340782 0.0692133
293 4 0.176999 0.275256 0.0415665
481 2 0.238088 0.287972 0.0414573
482 4 0.238602 0.296575 0.0649287
483 4 0.237574 0.279369 0.017986
356 4 0.232828 0.268346 0.00197572
573 4 0.389568 0.263829 0.0485638
572 4 0.372942 0.2988 0.0802078
571 2 0.381255 0.281314 0.0643858
322 2 0.435604 0.249766 0.0724376
330 4 0.0436151 0.411302 0.0158741
455 4 0.123136 0.350985 0.0873541
287 4 0.133011 0.399597 0.995647
252 4 0.269799 0.396929 0.0685842
250 2 0.283016 0.394305 0.0475221
608 4 0.262517 0.379911 0.0735519
251 4 0.296233 0.391681 0.0264599
281 4 0.441148 0.343366 0.0689035
671 4 0.425356 0.345673 0.0818827
280 2 0.466013 0.342982 0.0715127
282 4 0.490877 0.342598 0.0741219
104 3 0.509295 0.339936 0.0633
314 4 0.0192668 0.449672 0.0744762
550 2 0.0391471 0.479319 0.0466304
552 4 0.0315962 0.460254 0.0609384
313 2 0.0313487 0.436129 0.091675
244 2 0.214929 0.467787 0.0184523
246 4 0.224571 0.483983 0.0348814
272 4 0.243531 0.480951 0.0288558
271 2 0.25847 0.500933 0.0272089
227 4 0.427853 0.416118 0.0336089
226 2 0.441836 0.422611 0.013924
19 3 0.0477951 0.0227866 0.136488
20 3 0.0779529 0.0178233 0.114499
1422 4 0.0336014 0.0154089 0.153432
16 1 0.0647137 0.0333423 0.124624
17 3 0.0552436 0.0468449 0.108589
18 3 0.0774213 0.0464665 0.138931
2480 4 0.0270951 0.0326023 0.141411
1506 4 0.191104 0.00495538 0.150957
693 4 0.247614 0.043646 0.169707
653 4 0.261845 0.0303508 0.162501
652 2 0.263281 0.027454 0.137707
654 4 0.264717 0.0245572 0.112914
484 2 0.32482 0.0175923 0.140825
296 4 0.371523 0.066165 0.0920254
295 2 0.358304 0.0461634 0.0991231
297 4 0.345086 0.0261618 0.106221
485 4 0.335036 0.0316245 0.122828
2722 2 0.494735 0.0554842 0.0835805
1760 4 0.495324 0.011277 0.151909
2723 4 0.474326 0.0425295 0.0899702
590 4 0.0626066 0.0967853 0.100047
477 4 0.163512 0.163906 0.152032
582 4 0.304438 0.0990938 0.134995
580 2 0.295285 0.0911098 0.15685
557 4 0.365176 0.0822064 0.103348
339 4 0.105813 0.232001 0.122068
337 2 0.0917029 0.247018 0.13623
506 4 0.182627 0.243752 0.0988838
475 2 0.173357 0.185886 0.158751
354 4 0.236428 0.199697 0.0996539
737 4 0.180022 0.227919 0.110818
738 4 0.216106 0.195214 0.0994571
736 2 0.198064 0.211567 0.105137
460 2 0.306883 0.209578 0.0915289
462 4 0.327017 0.214935 0.105354
255 4 0.322029 0.213228 0.124536
277 2 0.270977 0.239193 0.137549
278 4 0.287406 0.242205 0.118942
254 4 0.364298 0.193008 0.142007
630 4 0.382319 0.190585 0.132219
253 2 0.343163 0.203118 0.133272
628 2 0.40006 0.203909 0.120691
624 4 0.424531 0.237358 0.10995
769 2 0.487778 0.160707 0.092559
629 4 0.417801 0.217233 0.109162
2590 2 0.505456 0.208617 0.145522
2591 4 0.483412 0.197635 0.149836
338 4 0.0775925 0.262035 0.150393
755 4 0.294189 0.262219 0.117109
756 4 0.326489 0.283517 0.0854272
754 2 0.310339 0.272868 0.101268
741 4 0.361697 0.311944 0.089872
622 2 0.425436 0.253157 0.129308
739 2 0.349245 0.325961 0.106413
623 4 0.426342 0.268957 0.148666
323 4 0.421059 0.242579 0.0914626
527 4 0.42498 0.284622 0.160886
621 4 0.0387249 0.403839 0.0992358
619 2 0.0509338 0.391172 0.117003
620 4 0.0631427 0.378504 0.134769
647 4 0.0719614 0.378263 0.152345
315 4 0.0434305 0.422586 0.108874
610 2 0.249532 0.340948 0.141919
535 2 0.171356 0.373213 0.152427
536 4 0.177895 0.372656 0.128299
612 4 0.243002 0.335873 0.118323
609 4 0.238005 0.352147 0.107153
607 2 0.250261 0.366029 0.0903523
740 4 0.336792 0.339979 0.122955
386 4 0.354298 0.349169 0.126706
385 2 0.350085 0.370425 0.13918
387 4 0.345872 0.391681 0.151654
495 4 0.414432 0.403989 0.146868
672 4 0.392291 0.363827 0.114713
302 4 0.334561 0.399713 0.165967
14 3 0.423849 0.387372 0.15137
670 2 0.408824 0.35475 0.098298
12 3 0.40098 0.363868 0.133008
11 1 0.409507 0.369278 0.153676
13 3 0.4211 0.350995 0.162027
595 2 0.461219 0.34641 0.150142
596 4 0.479274 0.336835 0.135737
626 4 0.189928 0.434276 0.113564
625 2 0.203403 0.435006 0.134613
627 4 0.216878 0.435736 0.155662
639 4 0.254107 0.479919 0.137744
1439 4 0.257145 0.489343 0.119261
637 2 0.25057 0.47597 0.162179
493 2 0.425265 0.423721 0.135984
524 4 0.352653 0.465676 0.0950953
523 2 0.354933 0.460055 0.119352
525 4 0.357214 0.454433 0.143608
303 4 0.348994 0.447194 0.159802
301 2 0.341778 0.423453 0.162884
494 4 0.436098 0.443453 0.125099
688 2 0.156907 0.0203436 0.226841
450 4 0.177744 0.0770476 0.177673
691 2 0.225388 0.0479975 0.180301
692 4 0.203161 0.052349 0.190895
758 4 0.395716 0.0470147 0.161525
21 1 0.362607 0.0749007 0.242972
25 3 0.372212 0.0637156 0.225614
759 4 0.375385 0.0601529 0.205282
757 2 0.385551 0.0535838 0.183403
1700 4 0.333078 0.0606669 0.243373
449 4 0.149811 0.118416 0.17465
235 2 0.158673 0.148023 0.198358
236 4 0.144273 0.129513 0.189685
579 4 0.111832 0.174481 0.223482
448 2 0.163777 0.0977318 0.176162
581 4 0.286132 0.0831259 0.178706
30 3 0.291821 0.0995552 0.188054
26 1 0.294931 0.099657 0.210614
29 3 0.280034 0.114384 0.220594
28 3 0.291852 0.0782923 0.219127
27 3 0.316395 0.106496 0.215272
24 3 0.350332 0.0928932 0.234972
311 4 0.436765 0.125933 0.206125
312 4 0.405084 0.0936604 0.184782
310 2 0.420925 0.109796 0.195454
512 4 0.013897 0.172858 0.172929
513 4 0.0441751 0.165957 0.212125
511 2 0.0290361 0.169407 0.192527
578 4 0.0624745 0.168803 0.217794
577 2 0.0871531 0.171642 0.220638
237 4 0.173073 0.166532 0.207032
476 4 0.183202 0.207866 0.165471
284 4 0.242129 0.219759 0.20403
279 4 0.254548 0.236181 0.156155
285 4 0.282711 0.235033 0.228939
283 2 0.26242 0.227396 0.216484
765 4 0.391037 0.198352 0.229301
763 2 0.408822 0.210253 0.242233
521 4 0.444159 0.214755 0.249045
520 2 0.468683 0.21805 0.252633
764 4 0.426607 0.222155 0.255164
522 4 0.493208 0.221345 0.25622
394 2 0.0688942 0.292778 0.200248
396 4 0.0587005 0.306615 0.218409
443 4 0.0450484 0.303645 0.232803
705 4 0.996161 0.330785 0.16998
363 4 0.0969253 0.272543 0.180629
362 4 0.144495 0.283156 0.191819
361 2 0.12071 0.277849 0.186224
395 4 0.0790878 0.278942 0.182087
372 4 0.159643 0.288221 0.204252
370 2 0.161495 0.271349 0.222612
371 4 0.163347 0.254477 0.240972
345 4 0.248082 0.279162 0.21516
343 2 0.252245 0.299195 0.229531
344 4 0.256408 0.319228 0.243901
526 2 0.445775 0.281848 0.17449
528 4 0.46657 0.279074 0.188094
749 4 0.0618022 0.344458 0.238439
748 2 0.0805146 0.349268 0.222568
646 2 0.0857834 0.366518 0.169556
750 4 0.099227 0.354077 0.206697
300 4 0.110478 0.369497 0.213287
648 4 0.0996053 0.354774 0.186766
298 2 0.125635 0.38162 0.22905
299 4 0.140793 0.393742 0.244813
611 4 0.256062 0.346023 0.165515
537 4 0.164818 0.373769 0.176554
289 2 0.215717 0.41728 0.214462
290 4 0.235945 0.406199 0.204808
15 3 0.392378 0.374675 0.167679
597 4 0.443164 0.355984 0.164547
643 2 0.439697 0.368818 0.201991
644 4 0.450175 0.378482 0.222533
645 4 0.429219 0.359154 0.181448
447 4 0.435892 0.38485 0.234714
263 4 0.0601859 0.495496 0.206502
262 2 0.0501032 0.473062 0.210996
264 4 0.0400206 0.450627 0.215489
417 4 0.162531 0.467358 0.180257
415 2 0.177903 0.453031 0.193807
1430 4 0.166277 0.478337 0.163057
291 4 0.195489 0.428361 0.224117
416 4 0.193275 0.438703 0.207357
766 2 0.224477 0.475255 0.216554
768 4 0.220189 0.470307 0.240685
767 4 0.228766 0.480204 0.192423
414 4 0.203014 0.461717 0.240214
638 4 0.247033 0.472022 0.186614
659 4 0.362873 0.460975 0.16679
660 4 0.35468 0.483319 0.21077
658 2 0.358776 0.472147 0.18878
231 4 0.338753 0.490618 0.21841
234 4 0.0159458 0.0418876 0.329793
232 2 0.0283252 0.0212432 0.32303
233 4 0.0407046 0.000598847 0.316267
1403 4 0.0515921 0.994564 0.332773
2756 4 0.998585 0.0321639 0.332626
674 4 0.148816 0.0385504 0.257177
690 4 0.139463 0.0321711 0.240293
673 2 0.140557 0.061913 0.260516
675 4 0.132297 0.0852756 0.263855
723 4 0.223867 0.0763555 0.242371
605 4 0.168331 0.0490434 0.325762
1701 4 0.294517 0.0369686 0.264636
1699 2 0.313797 0.0488178 0.254005
248 4 0.332245 0.0965547 0.320639
23 3 0.348809 0.0605937 0.254943
1518 4 0.34673 0.0136838 0.299606
697 2 0.373355 0.042287 0.295794
699 4 0.350484 0.03223 0.294808
698 4 0.396225 0.0523441 0.29678
333 4 0.389451 0.0781439 0.27466
743 4 0.473659 0.038074 0.257023
742 2 0.46979 0.0140042 0.251469
351 4 0.480587 0.0544681 0.268097
349 2 0.467749 0.0747056 0.275225
480 4 0.488513 0.0234283 0.33783
478 2 0.503817 0.0411252 0.32901
256 2 0.450322 0.0678187 0.335603
531 4 0.0113891 0.157197 0.298585
399 4 0.116841 0.151193 0.315467
397 2 0.119445 0.128403 0.325417
721 2 0.212201 0.0970793 0.250092
722 4 0.200535 0.117803 0.257813
544 2 0.173694 0.151687 0.257985
546 4 0.185678 0.130548 0.252095
599 4 0.223934 0.13901 0.295629
404 4 0.239529 0.140256 0.282106
598 2 0.210295 0.12787 0.313379
600 4 0.196656 0.116729 0.331128
403 2 0.232399 0.162679 0.273649
249 4 0.29226 0.0994891 0.29075
247 2 0.312252 0.0980219 0.305694
22 3 0.379086 0.082772 0.256959
331 2 0.414211 0.0811382 0.276437
257 4 0.441297 0.0888265 0.325485
350 4 0.454911 0.094943 0.282353
332 4 0.438971 0.0841326 0.278214
762 4 0.432548 0.102726 0.314708
760 2 0.453285 0.116302 0.311415
761 4 0.474022 0.129878 0.308121
393 4 0.111123 0.167878 0.304989
392 4 0.155086 0.175552 0.282426
391 2 0.133105 0.171715 0.293707
545 4 0.161709 0.172826 0.263875
405 4 0.225269 0.185103 0.265191
401 4 0.225604 0.203897 0.264044
400 2 0.222729 0.226137 0.275104
402 4 0.219855 0.248376 0.286164
418 2 0.390751 0.226093 0.327753
420 4 0.390463 0.203642 0.316751
419 4 0.391038 0.248545 0.338754
444 4 0.0742599 0.313059 0.272284
442 2 0.0596541 0.308352 0.252543
390 4 0.0929211 0.2857 0.299491
388 2 0.109241 0.270556 0.310871
389 4 0.12556 0.255412 0.322251
309 4 0.272186 0.321848 0.255963
307 2 0.294049 0.322086 0.268093
308 4 0.315912 0.322324 0.280223
497 4 0.323457 0.308376 0.292303
496 2 0.33789 0.298759 0.310313
498 4 0.352323 0.289141 0.328323
615 4 0.412317 0.327614 0.324472
543 4 0.430966 0.326674 0.32239
541 2 0.451247 0.316564 0.311824
542 4 0.471528 0.306455 0.301257
365 4 0.0245749 0.381684 0.305471
2493 4 0.0160876 0.396696 0.314152
364 2 0.0271217 0.366881 0.285481
366 4 0.0296685 0.352079 0.265491
549 4 0.0313538 0.409353 0.310774
547 2 0.0533318 0.411554 0.322492
601 2 0.124596 0.380362 0.331454
734 4 0.143183 0.394752 0.264246
733 2 0.148948 0.375229 0.278766
602 4 0.124242 0.398544 0.314294
735 4 0.154714 0.355707 0.293285
777 4 0.121931 0.408213 0.297824
677 4 0.160583 0.343831 0.308504
676 2 0.18503 0.344773 0.313663
678 4 0.209478 0.345715 0.318822
729 4 0.305029 0.34797 0.29924
727 2 0.315603 0.366446 0.312356
728 4 0.326177 0.384921 0.325473
613 2 0.395357 0.342993 0.334522
614 4 0.378396 0.358372 0.344571
433 2 0.364677 0.403751 0.335659
435 4 0.383704 0.417844 0.343694
445 2 0.450798 0.397899 0.24997
1756 2 0.0914972 0.47508 0.267323
1757 4 0.0857847 0.452544 0.258122
776 4 0.0928066 0.435423 0.267622
775 2 0.107369 0.421818 0.282723
413 4 0.201157 0.445511 0.287486
412 2 0.202085 0.453614 0.26385
1436 4 0.2248 0.485752 0.319182
1543 2 0.183753 0.4899 0.328848
1545 4 0.207181 0.481259 0.327567
438 4 0.307651 0.486355 0.278641
437 4 0.258202 0.478916 0.278178
436 2 0.282927 0.482635 0.278409
2 3 0.302349 0.451471 0.330618
713 4 0.395988 0.455259 0.30081
712 2 0.416945 0.447929 0.28931
446 4 0.465703 0.410947 0.265226
714 4 0.437902 0.440599 0.277811
317 4 0.0172311 0.0600392 0.339375
428 4 0.0820629 0.0529605 0.362489
427 2 0.0869951 0.028561 0.364838
731 4 0.0835077 0.062598 0.346061
429 4 0.0919274 0.00416152 0.367186
730 2 0.0968583 0.0835235 0.349072
606 4 0.161513 0.0173982 0.363878
604 2 0.164922 0.0332208 0.34482
368 4 0.134149 0.0130309 0.417364
440 4 0.276264 0.989761 0.411937
1407 4 0.287149 0.00749849 0.350091
682 2 0.249449 0.0554656 0.402721
684 4 0.254278 0.0689719 0.38224
632 4 0.383385 0.0717042 0.334397
1749 4 0.469403 0.0292097 0.343764
2879 4 0.487095 0.0348723 0.400929
424 2 0.446056 0.0352584 0.378032
426 4 0.463583 0.0472181 0.364805
258 4 0.459348 0.0468108 0.345721
425 4 0.428529 0.0232987 0.391259
316 2 0.0270727 0.0822399 0.345328
318 4 0.0369144 0.104441 0.351282
398 4 0.122049 0.105613 0.335367
732 4 0.110209 0.104449 0.352082
686 4 0.173018 0.149795 0.374777
685 2 0.175311 0.134822 0.354884
687 4 0.177603 0.119849 0.334991
321 4 0.23473 0.111516 0.411619
319 2 0.254534 0.105897 0.425811
467 4 0.323314 0.176348 0.416323
631 2 0.360238 0.0808623 0.33675
633 4 0.337091 0.0900203 0.339102
453 4 0.473246 0.16348 0.378141
451 2 0.489625 0.151719 0.363355
515 4 0.456298 0.152209 0.38138
274 2 0.153985 0.224025 0.346782
276 4 0.131031 0.233889 0.347787
275 4 0.176938 0.214161 0.345778
474 4 0.190731 0.218119 0.359625
472 2 0.214599 0.220538 0.352581
473 4 0.238468 0.222958 0.345537
707 4 0.287114 0.189769 0.35265
708 4 0.251904 0.224648 0.359318
706 2 0.269509 0.207209 0.355984
716 4 0.392512 0.235652 0.372834
715 2 0.374125 0.246273 0.386036
717 4 0.355738 0.256894 0.399239
514 2 0.454399 0.162522 0.404079
306 4 0.463352 0.245341 0.42123
2654 4 0.012556 0.247213 0.35656
618 4 0.0419503 0.278978 0.399518
616 2 0.0532759 0.273791 0.377838
617 4 0.0646015 0.268604 0.356159
347 4 0.0532925 0.291172 0.409984
508 2 0.22677 0.293242 0.386086
509 4 0.223675 0.274429 0.36991
374 4 0.244157 0.323795 0.397161
510 4 0.229865 0.312055 0.402262
489 4 0.274563 0.254604 0.42059
488 4 0.308372 0.260396 0.384202
487 2 0.291468 0.2575 0.402396
376 2 0.336923 0.281524 0.366481
377 4 0.327176 0.268439 0.385427
378 4 0.34667 0.29461 0.347535
267 4 0.336409 0.261916 0.40143
269 4 0.468081 0.243722 0.351096
268 2 0.465198 0.246251 0.375804
270 4 0.462315 0.24878 0.400511
2491 2 0.00398948 0.38425 0.33215
603 4 0.12495 0.362181 0.348614
502 2 0.23224 0.396833 0.406025
503 4 0.212191 0.410863 0.411162
504 4 0.252289 0.382803 0.400889
373 2 0.253374 0.34673 0.393394
375 4 0.262591 0.369666 0.389627
434 4 0.345651 0.389658 0.327623
335 4 0.360668 0.382049 0.401569
334 2 0.358855 0.406828 0.40438
561 4 0.460035 0.410837 0.396884
559 2 0.45727 0.400702 0.419574
407 4 0.0654997 0.414922 0.351134
548 4 0.0753098 0.413755 0.33421
406 2 0.0679691 0.423125 0.374624
408 4 0.0704386 0.431328 0.398114
500 4 0.107489 0.482138 0.325602
1435 2 0.242508 0.483153 0.336642
3 3 0.27559 0.428258 0.343179
1437 4 0.260215 0.480555 0.354103
5 3 0.272737 0.465415 0.348551
668 4 0.29558 0.45448 0.385105
1 1 0.28721 0.44786 0.347557
4 3 0.298715 0.445937 0.367615
667 2 0.316427 0.44344 0.393392
669 4 0.337274 0.4324 0.40168
336 4 0.357042 0.431607 0.407191
752 4 0.469252 0.420875 0.382018
593 4 0.428771 0.467819 0.380205
751 2 0.482614 0.427426 0.361925
592 2 0.4352 0.488881 0.368364
753 4 0.495975 0.433977 0.341832
718 2 0.0599008 0.0494564 0.485797
719 4 0.0805704 0.0449154 0.472481
367 2 0.13866 0.0296617 0.435481
369 4 0.143171 0.0462925 0.453599
2429 4 0.246603 0.0283977 0.4383
2428 2 0.227745 0.0367161 0.452455
341 4 0.21826 0.0582164 0.481492
340 2 0.200699 0.0757293 0.484666
2430 4 0.208887 0.0450346 0.46661
342 4 0.183137 0.0932421 0.487841
1182 4 0.236662 0.0608152 0.490312
683 4 0.24462 0.0419592 0.423201
724 2 0.31313 0.0853082 0.438538
439 2 0.27122 0.00871668 0.427442
441 4 0.266176 0.0276721 0.442948
430 2 0.319748 0.0585328 0.49102
432 4 0.305345 0.0394533 0.498348
431 4 0.334151 0.0776123 0.483692
726 4 0.332368 0.0721324 0.429512
843 4 0.348078 0.070953 0.49551
2878 2 0.486888 0.0568063 0.412931
2880 4 0.486682 0.0787404 0.424932
1033 2 0.0841692 0.153781 0.500055
1035 4 0.0942538 0.171368 0.485421
725 4 0.293892 0.098484 0.447565
320 4 0.274337 0.100278 0.440004
466 2 0.332916 0.158313 0.430736
468 4 0.342517 0.140278 0.445148
576 4 0.409897 0.148389 0.470136
574 2 0.42203 0.156684 0.449909
642 4 0.467925 0.0863675 0.425722
641 4 0.467254 0.11858 0.463966
640 2 0.467589 0.102474 0.444844
3158 4 0.471084 0.13776 0.469335
3157 2 0.475263 0.14752 0.491972
458 4 0.990364 0.16784 0.434496
471 4 0.0487174 0.219506 0.480321
469 2 0.0337761 0.220793 0.500329
261 4 0.111752 0.182871 0.483641
260 4 0.113568 0.227758 0.461675
259 2 0.11266 0.205314 0.472658
938 4 0.123729 0.183467 0.499527
410 4 0.270251 0.17178 0.48833
411 4 0.247961 0.214143 0.473863
409 2 0.259106 0.192962 0.481097
575 4 0.434163 0.164978 0.429681
516 4 0.4525 0.172835 0.426777
305 4 0.496729 0.256544 0.456744
304 2 0.480041 0.250942 0.438987
3065 4 0.502891 0.23988 0.501674
2814 4 0.000478468 0.321961 0.441547
346 2 0.0358126 0.301764 0.424387
348 4 0.0183326 0.312355 0.43879
695 4 0.0950518 0.295737 0.459159
694 2 0.114094 0.297096 0.475305
1260 4 0.144484 0.283453 0.498255
10 3 0.141381 0.33233 0.457547
651 4 0.276046 0.270304 0.434406
650 4 0.247608 0.265288 0.475233
649 2 0.261827 0.267796 0.454819
266 4 0.3482 0.289935 0.441137
265 2 0.342304 0.275926 0.421283
585 4 0.41298 0.283017 0.410598
2455 2 0.486199 0.309258 0.460163
2456 4 0.463956 0.308761 0.448754
583 2 0.430196 0.29109 0.426835
584 4 0.447411 0.299163 0.443072
326 4 0.0717338 0.381488 0.457239
710 4 0.139914 0.414586 0.423016
7 3 0.122018 0.360115 0.47323
327 4 0.105568 0.348145 0.472866
325 2 0.0886509 0.364817 0.465052
6 1 0.143101 0.352005 0.468887
709 2 0.149786 0.392776 0.430232
8 3 0.154625 0.367545 0.456076
9 3 0.154123 0.348601 0.48902
711 4 0.159658 0.370967 0.437447
804 4 0.280733 0.380499 0.488404
238 2 0.362577 0.369172 0.443855
240 4 0.358687 0.37474 0.419792
239 4 0.366467 0.363605 0.467919
2508 4 0.500978 0.373715 0.455303
560 4 0.454505 0.390567 0.442263
681 4 0.0482866 0.464777 0.42089
680 4 0.0269301 0.457882 0.465579
1383 4 0.0130801 0.4655 0.475607
679 2 0.0376083 0.461329 0.443235
570 4 0.12348 0.426505 0.423615
568 2 0.119055 0.436421 0.446138
569 4 0.114631 0.446337 0.468661
384 4 0.118762 0.432515 0.482766
635 4 0.222367 0.466459 0.45877
634 2 0.203949 0.456089 0.445413
774 4 0.22671 0.457266 0.475313
636 4 0.18553 0.44572 0.432056
1401 4 0.329473 0.487859 0.474623
1454 4 0.315517 0.492512 0.487857
881 4 0.315756 0.476555 0.500095
1400 4 0.366647 0.455389 0.482656
1399 2 0.34806 0.471624 0.47864
587 4 0.408844 0.439919 0.433356
588 4 0.377503 0.443717 0.472138
586 2 0.393173 0.441818 0.452747
1126 2 0.0177272 0.0642722 0.528623
1127 4 0.0220087 0.0491499 0.509176
1128 4 0.0134458 0.0793945 0.548069
720 4 0.0392312 0.0539974 0.499113
1058 4 0.116288 0.0328225 0.559124
1057 2 0.121636 0.0523738 0.573764
1030 2 0.238152 0.072767 0.585583
1031 4 0.225831 0.0511647 0.582992
1180 2 0.259472 0.0519855 0.495504
961 2 0.299242 0.0351687 0.543757
962 4 0.311208 0.0299827 0.56509
963 4 0.287277 0.0403546 0.522424
1181 4 0.282281 0.0431559 0.500695
1217 4 0.403237 0.0745039 0.532568
842 4 0.394608 0.0704844 0.513828
841 2 0.371343 0.0707187 0.504669
1216 2 0.42634 0.0740506 0.542118
1218 4 0.449444 0.0735973 0.551668
1034 4 0.0740846 0.136193 0.514689
939 4 0.15594 0.150173 0.518361
937 2 0.139835 0.16682 0.508944
1151 4 0.171851 0.140756 0.526684
1150 2 0.175356 0.117896 0.517181
1152 4 0.178861 0.0950358 0.507679
898 2 0.334972 0.153771 0.571033
899 4 0.311385 0.157003 0.563391
857 4 0.294305 0.153948 0.574689
856 2 0.279414 0.171604 0.565114
900 4 0.358559 0.150538 0.578675
3159 4 0.479443 0.157279 0.51461
470 4 0.0188348 0.222079 0.520336
1199 4 0.00896235 0.203103 0.547657
877 2 0.0804615 0.224433 0.571841
879 4 0.0960851 0.208586 0.583241
858 4 0.264523 0.189261 0.555539
797 4 0.251148 0.204576 0.553994
796 2 0.258182 0.226296 0.56419
798 4 0.265215 0.248016 0.574385
871 2 0.375106 0.232305 0.538705
872 4 0.390069 0.21617 0.550577
873 4 0.360142 0.248439 0.526832
878 4 0.064838 0.24028 0.560441
696 4 0.133137 0.298454 0.491452
1258 2 0.166319 0.290589 0.508128
1259 4 0.188155 0.297724 0.518001
812 4 0.323965 0.295576 0.529904
811 2 0.332085 0.272025 0.532057
813 4 0.340205 0.248475 0.534209
1135 2 0.111863 0.38071 0.572056
383 4 0.122604 0.402623 0.522671
1136 4 0.0870401 0.38364 0.572715
895 2 0.175927 0.364804 0.575108
1189 2 0.226851 0.380138 0.549278
896 4 0.200899 0.365789 0.574323
1191 4 0.203862 0.372046 0.554862
1190 4 0.24984 0.388231 0.543694
803 4 0.246014 0.384706 0.524148
802 2 0.263374 0.382603 0.506276
929 4 0.347281 0.378911 0.568634
928 2 0.37144 0.373791 0.564726
930 4 0.3956 0.36867 0.560819
1206 4 0.408795 0.369595 0.575056
925 2 0.452352 0.380824 0.516633
926 4 0.455516 0.356239 0.519906
927 4 0.449187 0.40541 0.513359
538 2 0.0454613 0.494343 0.511144
540 4 0.0399392 0.47018 0.514438
382 2 0.120683 0.417569 0.502718
773 4 0.21186 0.441076 0.520236
772 2 0.219285 0.449171 0.497775
1173 4 0.261984 0.406017 0.571164
1171 2 0.268108 0.419431 0.550971
1172 4 0.274232 0.432845 0.530779
882 4 0.291981 0.438737 0.522573
880 2 0.303869 0.457646 0.511334
1001 4 0.445579 0.413863 0.555017
1000 2 0.443631 0.431339 0.572792
661 2 0.501611 0.474105 0.508659
663 4 0.504899 0.457875 0.489925
1909 2 0.457036 0.485841 0.576343
1185 4 0.0201137 0.0539485 0.643142
945 4 0.0356526 0.0447357 0.652988
2319 4 0.025342 0.0295282 0.660852
1059 4 0.126985 0.0719251 0.588403
1155 4 0.145034 0.0791436 0.593889
825 4 0.121198 0.0113731 0.607949
951 4 0.206252 0.0465464 0.578929
949 2 0.188405 0.039518 0.594968
950 4 0.170558 0.0324896 0.611008
1004 4 0.358427 0.0503547 0.641019
1003 2 0.33701 0.0632591 0.640947
4466 4 0.472115 0.00912044 0.574753
4465 2 0.460839 0.026783 0.588393
4467 4 0.449563 0.0444456 0.602034
2283 4 0.43521 0.0585366 0.603293
2282 4 0.441298 0.0619039 0.652814
2281 2 0.438254 0.0602203 0.628053
45 3 0.479026 0.057569 0.662882
810 4 0.480906 0.071116 0.646637
1082 4 0.053544 0.141385 0.608184
1081 2 0.0523707 0.118038 0.617059
1083 4 0.0511974 0.0946923 0.625933
1153 2 0.159652 0.0988505 0.589078
1283 4 0.163811 0.103395 0.662132
1032 4 0.250473 0.0943693 0.588174
1154 4 0.174269 0.118557 0.584267
1221 4 0.188916 0.115577 0.598312
1219 2 0.211525 0.122863 0.606118
1220 4 0.234134 0.130149 0.613924
1212 4 0.22642 0.142348 0.627049
1210 2 0.247366 0.147131 0.639839
1005 4 0.315594 0.0761635 0.640875
1211 4 0.268312 0.151913 0.652628
1272 4 0.104721 0.213295 0.60045
1270 2 0.115249 0.190643 0.601566
1271 4 0.125776 0.167991 0.602681
1209 4 0.0968892 0.238078 0.653257
908 4 0.171832 0.183021 0.649115
907 2 0.175525 0.20284 0.663905
1025 4 0.410016 0.176208 0.651428
1026 4 0.431277 0.221455 0.650249
1024 2 0.420646 0.198831 0.650839
905 4 0.486765 0.201787 0.582922
1244 4 0.048209 0.322099 0.654772
1243 2 0.0372276 0.300355 0.660407
1245 4 0.0262462 0.27861 0.666043
1179 4 0.00633854 0.276322 0.661533
1207 2 0.0867022 0.259355 0.661548
947 4 0.179322 0.280469 0.624727
1237 2 0.223917 0.323686 0.59277
948 4 0.184869 0.328345 0.638064
946 2 0.182095 0.304407 0.631395
792 4 0.265058 0.307747 0.589421
791 4 0.280269 0.265509 0.611452
1238 4 0.247224 0.315278 0.589413
790 2 0.272664 0.286628 0.600436
953 4 0.429584 0.282405 0.614463
952 2 0.438247 0.302106 0.601734
954 4 0.44691 0.321806 0.589005
983 4 0.0287129 0.386044 0.616804
1039 2 0.0637352 0.379333 0.619566
1041 4 0.0410494 0.374228 0.628757
982 2 0.00641666 0.380084 0.626424
1040 4 0.0864211 0.384439 0.610376
897 4 0.150956 0.363819 0.575894
1137 4 0.136685 0.377779 0.571397
993 4 0.101234 0.389305 0.621541
991 2 0.110358 0.401414 0.641422
992 4 0.119483 0.413524 0.661304
1239 4 0.20061 0.332094 0.596127
1204 2 0.414648 0.355654 0.59497
1205 4 0.420502 0.341712 0.614883
2129 4 0.0102643 0.494398 0.647428
2170 2 0.118723 0.500611 0.650134
1160 4 0.194286 0.453055 0.613618
1159 2 0.191591 0.477454 0.608861
1186 2 0.233561 0.507565 0.635922
1187 4 0.241053 0.49889 0.6137
890 4 0.323817 0.412121 0.589424
889 2 0.328681 0.431901 0.603925
891 4 0.333545 0.451681 0.618426
1953 4 0.369366 0.50046 0.605474
1952 4 0.330796 0.468671 0.607079
1951 2 0.350081 0.484565 0.606277
1002 4 0.441684 0.448815 0.590568
1910 4 0.455562 0.462293 0.584618
943 2 0.0480723 0.0611591 0.667172
2317 2 0.0116717 0.0130858 0.673811
944 4 0.060492 0.0775824 0.681357
1075 2 0.0486306 0.0680151 0.722873
1077 4 0.0449854 0.0638698 0.747259
1076 4 0.0522758 0.0721604 0.698486
43 3 0.442739 0.055976 0.672799
41 1 0.463724 0.0641268 0.678421
1163 4 0.48557 0.0507419 0.710649
42 3 0.469711 0.0557066 0.698974
1106 4 0.0921766 0.166728 0.730952
1282 2 0.18423 0.107714 0.675901
1284 4 0.204649 0.112033 0.68967
1227 4 0.203892 0.119202 0.709108
1225 2 0.214397 0.112515 0.73079
1226 4 0.224902 0.105827 0.752471
1148 4 0.228689 0.0838394 0.742543
888 4 0.27279 0.151094 0.672867
886 2 0.290151 0.149007 0.69074
887 4 0.307512 0.146921 0.708612
830 4 0.326213 0.147194 0.715004
1142 4 0.373183 0.159445 0.694668
1141 2 0.394336 0.163961 0.682124
44 3 0.463148 0.0872888 0.679683
1143 4 0.415488 0.168477 0.66958
1105 2 0.0755364 0.169591 0.712511
1107 4 0.0588961 0.172455 0.694069
851 4 0.0598732 0.192635 0.688025
852 4 0.0204032 0.223206 0.690889
850 2 0.0401382 0.20792 0.689457
1178 4 0.00328633 0.231812 0.684123
909 4 0.179218 0.222659 0.678695
1064 4 0.24014 0.246011 0.697056
829 2 0.333647 0.168038 0.72664
831 4 0.341082 0.188883 0.738277
1193 4 0.360261 0.229893 0.677421
1192 2 0.381736 0.23697 0.688093
1194 4 0.403212 0.244047 0.698764
1262 4 0.409187 0.232689 0.712722
3356 4 0.464131 0.212128 0.694156
3355 2 0.479665 0.223849 0.678456
1261 2 0.430963 0.220421 0.71202
1263 4 0.452739 0.208154 0.711319
1145 4 0.470862 0.208192 0.720062
1144 2 0.479155 0.194584 0.739329
1208 4 0.0765152 0.280631 0.669838
1177 2 0.00481244 0.254067 0.672828
1063 2 0.252153 0.265403 0.707294
1242 4 0.208616 0.311316 0.748885
1065 4 0.264165 0.284795 0.717533
917 4 0.298827 0.276569 0.748157
806 4 0.364808 0.327347 0.679641
892 2 0.0707235 0.405839 0.700688
894 4 0.0475745 0.397268 0.704668
893 4 0.0938725 0.41441 0.696708
1068 4 0.206557 0.40741 0.688085
807 4 0.396071 0.347658 0.712969
805 2 0.380439 0.337502 0.696305
1020 4 0.411468 0.360073 0.712096
1018 2 0.404775 0.373704 0.73196
1280 4 0.031299 0.42055 0.728762
1281 4 0.0248731 0.469397 0.737333
1279 2 0.028086 0.444973 0.733048
941 4 0.152857 0.443505 0.710473
2172 4 0.107969 0.484373 0.665814
940 2 0.139768 0.439645 0.731425
942 4 0.12668 0.435784 0.752376
1028 4 0.222573 0.415871 0.67877
1067 4 0.167471 0.437375 0.696753
1027 2 0.243388 0.428869 0.673975
1066 2 0.187014 0.422393 0.692419
1029 4 0.264202 0.441867 0.66918
1139 4 0.283616 0.437524 0.674003
1138 2 0.296896 0.421098 0.687382
1140 4 0.310176 0.404672 0.700762
1987 2 0.32097 0.489358 0.742291
1989 4 0.337063 0.473488 0.731599
1229 4 0.346121 0.465018 0.716349
1228 2 0.364364 0.453425 0.728918
1230 4 0.382607 0.441833 0.741486
1100 4 0.48486 0.462303 0.72702
1099 2 0.482684 0.485548 0.718069
1250 4 0.46497 0.443829 0.739371
3329 4 0.484216 0.450611 0.74492
1203 4 0.051204 0.0537624 0.763468
1201 2 0.0699469 0.0377203 0.767534
864 4 0.0592888 0.0705151 0.787059
911 4 0.0729214 0.0821746 0.795932
1202 4 0.0886899 0.0216781 0.7716
2049 4 0.0993432 0.00377138 0.770939
1147 2 0.225434 0.0682024 0.76178
1149 4 0.22218 0.0525653 0.781017
1050 4 0.300288 0.015314 0.827224
1256 4 0.310344 0.0668109 0.805695
1112 4 0.40702 0.0478002 0.794698
817 2 0.35569 0.0842296 0.829145
819 4 0.362061 0.0804408 0.805265
980 4 0.427782 0.0100747 0.832776
846 4 0.466784 0.0489971 0.803045
1113 4 0.454844 0.0334653 0.797542
844 2 0.490071 0.0510728 0.794179
1111 2 0.430932 0.0406327 0.79612
832 2 0.00801968 0.135903 0.791511
862 2 0.0375021 0.0817493 0.782128
863 4 0.0157153 0.0929834 0.777198
833 4 0.013278 0.113864 0.780937
910 2 0.0849056 0.0958857 0.813065
35 3 0.101864 0.154887 0.743928
33 3 0.0835573 0.144351 0.775097
31 1 0.0965817 0.160846 0.765264
32 3 0.115933 0.163296 0.777458
912 4 0.0968899 0.109597 0.830199
1130 4 0.212876 0.134012 0.772343
840 4 0.224805 0.119756 0.769535
838 2 0.246762 0.120076 0.781491
1129 2 0.206743 0.158038 0.775558
1255 2 0.290253 0.0771548 0.794993
1257 4 0.270162 0.0874987 0.784291
839 4 0.268719 0.120395 0.793447
958 2 0.288739 0.138073 0.828811
959 4 0.276706 0.127163 0.809802
1084 2 0.359896 0.117599 0.784337
1085 4 0.362872 0.0931259 0.788508
1086 4 0.35692 0.142072 0.780166
1299 4 0.360861 0.160747 0.786331
34 3 0.085124 0.181023 0.765243
1073 4 0.109236 0.182034 0.817428
1072 2 0.130059 0.19414 0.810719
1074 4 0.150883 0.206245 0.80401
822 4 0.13956 0.213096 0.764623
820 2 0.121314 0.229692 0.760518
1278 4 0.150853 0.214766 0.780775