ITEM: TIMESTEP
1490000
ITEM: NUMBER OF ATOMS
4590
ITEM: BOX BOUNDS pp pp pp
-9.9985700000000008e+00 9.9985700000000008e+00
-9.9985700000000008e+00 9.9985700000000008e+00
-9.9985700000000008e+00 9.9985700000000008e+00
ITEM: ATOMS id type xs ys zs
463 2 0.0540048 0.0718339 0.011303
464 4 0.0463051 0.0482003 0.00859304
1666 2 0.0791194 0.00953093 0.0642941
591 4 0.0509971 0.0784916 0.0617293
3290 4 0.055512 0.0306642 0.00450293
1476 4 0.217818 0.0405592 0.054699
1474 2 0.237619 0.0278668 0.0462147
490 2 0.286467 0.0146506 0.0160709
492 4 0.276811 0.0134675 0.0391043
1475 4 0.257421 0.0151744 0.0377303
986 4 0.33419 0.0269766 0.0266988
985 2 0.345724 0.0224338 0.00498483
745 2 0.448017 0.0643415 0.0222124
747 4 0.451697 0.053407 0.0443952
2724 4 0.464911 0.0414921 0.0572732
1826 4 0.480119 0.0304238 0.0641168
1825 2 0.493078 0.00918414 0.0616461
2722 2 0.45749 0.0493382 0.0798241
465 4 0.0617045 0.0954676 0.014013
701 4 0.0676666 0.114595 0.0204193
700 2 0.0473163 0.127693 0.0267022
702 4 0.026966 0.140792 0.0329852
2760 4 0.0152574 0.142557 0.0489864
567 4 0.182787 0.0970529 0.0547289
565 2 0.182801 0.0759657 0.0681642
1133 4 0.20144 0.144507 0.0131547
360 4 0.21571 0.147275 0.0280345
358 2 0.235791 0.135034 0.0365245
359 4 0.255872 0.122792 0.0450145
746 4 0.444338 0.075276 2.96446e-05
771 4 0.435324 0.159677 0.0885309
828 4 0.44983 0.159365 0.00951459
553 2 0.033426 0.18551 0.0120288
422 4 0.0613198 0.178166 0.0414104
555 4 0.0470418 0.173755 0.0293955
554 4 0.0198102 0.197266 0.994662
423 4 0.104904 0.162703 0.0223819
421 2 0.0831117 0.170435 0.0318962
506 4 0.197001 0.247682 0.0351154
737 4 0.196888 0.22835 0.0297633
736 2 0.200103 0.207787 0.0436187
354 4 0.224243 0.191977 0.0551304
738 4 0.203318 0.187223 0.0574741
352 2 0.245409 0.185833 0.066938
353 4 0.266576 0.17969 0.0787455
461 4 0.286344 0.182411 0.0792587
255 4 0.327302 0.223857 0.086898
1071 4 0.407665 0.241621 0.00334635
1170 4 0.066624 0.326997 0.0149019
1056 4 0.0629615 0.307664 0.0194637
1054 2 0.0652712 0.29136 0.000648287
837 4 0.0527891 0.262596 0.976654
1055 4 0.0675808 0.275056 0.981833
287 4 0.134054 0.34282 0.0105889
292 2 0.166407 0.325906 0.0416816
293 4 0.170437 0.301759 0.0365996
505 2 0.179833 0.265702 0.0375069
507 4 0.162666 0.283722 0.0398983
481 2 0.294333 0.293247 0.0185787
482 4 0.298042 0.274618 0.0348384
756 4 0.319315 0.291373 0.0848383
323 4 0.40392 0.252543 0.0207896
573 4 0.385919 0.262749 0.0313477
571 2 0.373119 0.276907 0.0474998
572 4 0.360319 0.291065 0.0636518
741 4 0.365383 0.302439 0.0793332
322 2 0.427539 0.259994 0.0242282
324 4 0.451158 0.267444 0.0276667
1168 2 0.0545666 0.347828 0.00812746
1169 4 0.0425093 0.368658 0.00135299
294 4 0.162376 0.350054 0.0467636
456 4 0.157865 0.367982 0.0556223
454 2 0.16742 0.389537 0.0639435
455 4 0.176976 0.411092 0.0722647
607 2 0.249034 0.359585 0.089371
252 4 0.245285 0.386955 0.0607778
608 4 0.252331 0.369396 0.0666103
250 2 0.266491 0.397574 0.0528565
251 4 0.287697 0.408192 0.0449353
671 4 0.404815 0.359314 0.0577752
226 2 0.408045 0.393324 0.0344866
228 4 0.391235 0.402693 0.0504495
281 4 0.422991 0.364392 0.0636577
280 2 0.446829 0.359138 0.0582425
282 4 0.470667 0.353885 0.0528273
104 3 0.481682 0.348593 0.0713116
1047 4 0.502156 0.349907 0.0259995
1045 2 0.500943 0.366003 0.00690442
550 2 0.999864 0.471073 0.0344136
552 4 0.019507 0.455606 0.0340984
314 4 0.0350698 0.450752 0.0445255
313 2 0.0446382 0.439896 0.0649159
795 4 0.164493 0.470858 0.00272749
272 4 0.279192 0.497074 0.0555383
40 3 0.362674 0.427098 0.996993
589 2 0.0373153 0.0804551 0.082565
1667 4 0.0707003 0.0140838 0.0873932
19 3 0.035477 0.0194793 0.129494
20 3 0.070383 0.00663621 0.135349
1422 4 0.0184234 0.00963971 0.142198
16 1 0.0580602 0.023125 0.125607
17 3 0.0618167 0.0229879 0.102913
2480 4 0.0177664 0.0320094 0.137947
18 3 0.0643309 0.0437782 0.134123
1420 2 0.0215068 0.989327 0.156449
590 4 0.0236334 0.0824186 0.103401
652 2 0.245539 0.0461057 0.140086
566 4 0.182815 0.0548784 0.0815995
1661 4 0.323221 0.998801 0.146134
654 4 0.260578 0.0495714 0.120414
486 4 0.31951 0.0141931 0.133109
484 2 0.331858 0.0287883 0.116994
297 4 0.355168 0.0443761 0.0835927
485 4 0.344205 0.0433835 0.100878
295 2 0.370193 0.0604829 0.0954254
2723 4 0.450069 0.0571842 0.102375
582 4 0.333876 0.0954326 0.172705
580 2 0.30921 0.0994639 0.173409
296 4 0.385218 0.0765897 0.107258
557 4 0.403962 0.0841232 0.107705
556 2 0.41519 0.105219 0.115058
758 4 0.396933 0.0964757 0.163386
558 4 0.426418 0.126315 0.12241
477 4 0.156903 0.213112 0.126669
475 2 0.163342 0.219756 0.149897
339 4 0.10249 0.253101 0.161206
460 2 0.303689 0.186274 0.0968491
277 2 0.29461 0.239259 0.133446
278 4 0.298545 0.241488 0.108855
462 4 0.321033 0.190137 0.11444
279 4 0.290674 0.237029 0.158037
755 4 0.297626 0.246533 0.089282
254 4 0.376924 0.219963 0.0917113
630 4 0.392378 0.207158 0.093969
253 2 0.352113 0.22191 0.0893046
628 2 0.405147 0.217924 0.112576
769 2 0.456718 0.165476 0.100101
770 4 0.478111 0.171274 0.11167
624 4 0.436537 0.23593 0.128707
629 4 0.417917 0.228689 0.131183
338 4 0.0818049 0.274519 0.12103
337 2 0.0921473 0.26381 0.141118
611 4 0.23241 0.298097 0.155888
610 2 0.236432 0.31539 0.138282
612 4 0.240454 0.332682 0.120676
754 2 0.30847 0.268953 0.0870601
739 2 0.362311 0.317443 0.0990978
622 2 0.456493 0.248473 0.137049
596 4 0.441638 0.29594 0.149842
623 4 0.476449 0.261017 0.14539
595 2 0.438741 0.320319 0.154585
619 2 0.0544352 0.410237 0.113306
620 4 0.0691905 0.3984 0.129657
647 4 0.0747645 0.405926 0.146292
646 2 0.0925837 0.395165 0.160144
535 2 0.133953 0.34792 0.140842
537 4 0.114521 0.334687 0.149353
536 4 0.153386 0.361153 0.13233
648 4 0.110403 0.384405 0.173995
609 4 0.245738 0.349773 0.112132
524 4 0.304416 0.404057 0.0833629
302 4 0.322958 0.400698 0.152054
387 4 0.320167 0.388917 0.135396
740 4 0.359238 0.332446 0.118862
385 2 0.333489 0.368837 0.128726
386 4 0.346811 0.348756 0.122056
12 3 0.399034 0.360774 0.121305
11 1 0.409386 0.373734 0.137243
15 3 0.394152 0.379766 0.15306
672 4 0.389183 0.366962 0.104656
670 2 0.396999 0.363138 0.0812158
14 3 0.418102 0.392655 0.127023
495 4 0.408689 0.410298 0.133073
597 4 0.435845 0.344697 0.159327
13 3 0.426466 0.361418 0.14699
621 4 0.03968 0.422073 0.0969544
315 4 0.0542066 0.42904 0.0853063
626 4 0.16504 0.451414 0.123598
625 2 0.184267 0.444824 0.138161
627 4 0.203494 0.438233 0.152723
638 4 0.214703 0.454477 0.147
637 2 0.236185 0.465181 0.154009
1438 2 0.248088 0.484387 0.0824418
1439 4 0.253406 0.461685 0.0914724
523 2 0.307944 0.42881 0.0832738
525 4 0.311471 0.453563 0.0831846
639 4 0.257667 0.475886 0.161018
1558 2 0.338175 0.497529 0.0837565
1559 4 0.352843 0.477742 0.0794575
494 4 0.427293 0.456522 0.12884
493 2 0.417991 0.43341 0.130957
450 4 0.141149 0.0639419 0.175582
653 4 0.230499 0.04264 0.159757
693 4 0.235545 0.0381882 0.177692
691 2 0.253558 0.0320365 0.193904
692 4 0.271572 0.0258847 0.210116
1700 4 0.328315 0.0528476 0.227499
1699 2 0.30813 0.0382406 0.225407
1701 4 0.287945 0.0236336 0.223316
21 1 0.357175 0.0670333 0.235658
25 3 0.356527 0.0723329 0.213518
759 4 0.367255 0.0757911 0.197912
23 3 0.335698 0.0630188 0.243469
22 3 0.369808 0.0480251 0.238531
511 2 0.00806849 0.15089 0.189529
578 4 0.0381388 0.156677 0.206092
513 4 0.0313157 0.142876 0.194058
577 2 0.0613637 0.160305 0.214614
449 4 0.136057 0.110748 0.192434
448 2 0.138603 0.0873447 0.184008
236 4 0.137025 0.121738 0.175689
235 2 0.128732 0.144711 0.170339
579 4 0.0845886 0.163933 0.223136
237 4 0.120438 0.167685 0.164988
581 4 0.284543 0.103495 0.174114
28 3 0.247312 0.138275 0.193606
30 3 0.27096 0.109806 0.186684
26 1 0.266707 0.127492 0.200386
29 3 0.284564 0.142304 0.199969
27 3 0.263853 0.119888 0.221908
757 2 0.382094 0.0861334 0.180649
24 3 0.366862 0.0843641 0.247667
310 2 0.43293 0.152889 0.207667
311 4 0.434016 0.132577 0.222207
529 2 0.0142872 0.200223 0.235348
530 4 0.0345049 0.203881 0.249597
531 4 0.99407 0.196565 0.221099
476 4 0.169781 0.226401 0.173126
362 4 0.147358 0.241532 0.189462
372 4 0.166249 0.236708 0.190775
370 2 0.185683 0.245 0.204144
283 2 0.292222 0.24718 0.199666
285 4 0.296209 0.247423 0.174983
284 4 0.288234 0.246937 0.224348
312 4 0.431843 0.173202 0.193128
521 4 0.45045 0.198618 0.250781
396 4 0.0692887 0.260965 0.224348
443 4 0.0791294 0.265626 0.241807
394 2 0.0807922 0.268939 0.203629
705 4 0.994917 0.327826 0.184319
395 4 0.0922958 0.276913 0.18291
363 4 0.107062 0.26663 0.173745
361 2 0.12721 0.254081 0.181603
371 4 0.205116 0.253292 0.217514
343 2 0.29392 0.323729 0.228989
344 4 0.303744 0.325535 0.251911
527 4 0.478588 0.266901 0.165067
526 2 0.468008 0.27111 0.187327
528 4 0.457428 0.275319 0.209587
264 4 0.0269829 0.400607 0.203123
300 4 0.12767 0.395165 0.175444
298 2 0.132711 0.392106 0.199742
299 4 0.137752 0.389046 0.22404
345 4 0.284097 0.321923 0.206067
643 2 0.437614 0.369313 0.192434
644 4 0.43579 0.374514 0.216823
645 4 0.439437 0.364111 0.168046
447 4 0.436081 0.392809 0.22634
445 2 0.428591 0.412097 0.240377
263 4 0.0399126 0.436409 0.235553
262 2 0.0334477 0.418508 0.219338
417 4 0.169235 0.480043 0.184053
1430 4 0.168103 0.499546 0.190523
290 4 0.213734 0.440032 0.211265
416 4 0.196355 0.441534 0.200855
415 2 0.182795 0.460789 0.192454
289 2 0.217127 0.440125 0.236037
768 4 0.228842 0.490279 0.203394
660 4 0.344662 0.496794 0.199334
301 2 0.319858 0.420466 0.167047
303 4 0.316758 0.440233 0.182041
659 4 0.332904 0.451927 0.180638
658 2 0.338783 0.474361 0.189986
712 2 0.390271 0.462464 0.239314
713 4 0.372878 0.479736 0.234378
232 2 0.0320464 0.0296368 0.303413
234 4 0.0257803 0.0538425 0.303379
317 4 0.0380649 0.0684375 0.297173
233 4 0.0383124 0.00543116 0.303448
675 4 0.127776 0.0023696 0.281658
723 4 0.237861 0.0678108 0.282826
697 2 0.376609 0.0308208 0.271441
699 4 0.376894 0.0107589 0.286361
698 4 0.376325 0.0508828 0.25652
333 4 0.378172 0.0714268 0.260145
331 2 0.397756 0.0822257 0.271325
743 4 0.47474 0.0240248 0.286462
742 2 0.474905 0.00661099 0.26852
351 4 0.458344 0.0361095 0.287593
349 2 0.444249 0.056758 0.287198
316 2 0.0371024 0.0921886 0.289418
318 4 0.0361399 0.11594 0.281663
393 4 0.154485 0.131256 0.316488
391 2 0.164282 0.147505 0.300204
722 4 0.224018 0.103149 0.250263
546 4 0.211374 0.11734 0.248695
545 4 0.179504 0.150215 0.268801
721 2 0.230939 0.0854798 0.266545
544 2 0.195439 0.133778 0.258748
599 4 0.215002 0.124065 0.308991
404 4 0.223668 0.141212 0.309031
598 2 0.202324 0.118198 0.329728
392 4 0.174078 0.163754 0.283919
403 2 0.229601 0.165078 0.304519
762 4 0.413641 0.120216 0.312949
332 4 0.417341 0.0930246 0.282506
760 2 0.424988 0.129972 0.292917
350 4 0.430154 0.0774065 0.286803
761 4 0.436335 0.139728 0.272886
257 4 0.477338 0.0991539 0.341357
401 4 0.244839 0.204587 0.289726
400 2 0.225278 0.219094 0.295393
402 4 0.205718 0.233601 0.301061
405 4 0.235535 0.188945 0.300007
765 4 0.402748 0.193303 0.284691
522 4 0.498532 0.187856 0.242235
520 2 0.474491 0.193237 0.246508
763 2 0.426749 0.194549 0.277795
764 4 0.450751 0.195796 0.2709
442 2 0.0791948 0.285477 0.257009
444 4 0.0792602 0.305328 0.272212
309 4 0.29529 0.334989 0.26742
543 4 0.426475 0.30084 0.33058
615 4 0.42573 0.320879 0.336924
541 2 0.437601 0.290879 0.310525
542 4 0.448726 0.280918 0.290471
748 2 0.080194 0.34686 0.262004
749 4 0.057757 0.353766 0.27061
365 4 0.00804678 0.387333 0.300102
364 2 0.0235625 0.369756 0.291414
366 4 0.0390782 0.352179 0.282725
549 4 0.0527888 0.380955 0.344703
603 4 0.069148 0.379616 0.331728
734 4 0.115475 0.353384 0.261879
750 4 0.102631 0.339955 0.253397
733 2 0.139897 0.350938 0.266652
735 4 0.164318 0.348493 0.271425
601 2 0.0918423 0.388867 0.326771
602 4 0.114537 0.398119 0.321815
777 4 0.115406 0.409819 0.30631
678 4 0.176845 0.381372 0.330281
676 2 0.171802 0.366913 0.310515
677 4 0.166758 0.352455 0.290749
307 2 0.31481 0.341128 0.281788
308 4 0.334331 0.347267 0.296157
729 4 0.332115 0.36063 0.310742
727 2 0.323708 0.383318 0.317048
728 4 0.315302 0.406006 0.323354
497 4 0.316837 0.350092 0.319834
434 4 0.333196 0.41961 0.327287
1757 4 0.109854 0.468959 0.273899
1756 2 0.105147 0.48926 0.287716
776 4 0.119041 0.45256 0.280605
775 2 0.117224 0.431189 0.293457
291 4 0.22052 0.440219 0.260809
1545 4 0.216708 0.486187 0.321091
414 4 0.220169 0.433312 0.279204
413 4 0.17994 0.449279 0.304254
412 2 0.200054 0.441296 0.291729
1543 2 0.198329 0.502001 0.327198
1436 4 0.227867 0.469608 0.314186
1435 2 0.251744 0.462381 0.312512
438 4 0.312019 0.492712 0.270155
437 4 0.295758 0.466313 0.309389
436 2 0.303889 0.479513 0.289772
1437 4 0.275622 0.455154 0.310837
5 3 0.289678 0.456335 0.327997
2 3 0.313845 0.428648 0.321497
433 2 0.356274 0.426904 0.33356
435 4 0.379353 0.434199 0.339834
446 4 0.421101 0.431385 0.254415
714 4 0.407664 0.445193 0.244249
2861 4 0.48292 0.469673 0.277906
2862 4 0.5087 0.430192 0.294558
2860 2 0.49581 0.449932 0.286232
2755 2 0.993104 0.0423564 0.371357
2757 4 0.996916 0.0666114 0.36663
2585 4 0.99749 0.0825564 0.379364
427 2 0.0782409 0.0101344 0.382513
428 4 0.0835648 0.0344402 0.384975
606 4 0.134427 0.0599192 0.384551
731 4 0.096804 0.0481716 0.390278
730 2 0.0988914 0.0678595 0.375007
604 2 0.145646 0.0376139 0.383216
605 4 0.156866 0.0153087 0.381881
368 4 0.099845 0.0386357 0.407923
732 4 0.100979 0.0875473 0.359736
682 2 0.229168 0.0560752 0.389114
684 4 0.234956 0.0475443 0.366335
683 4 0.22338 0.0646062 0.411894
249 4 0.289329 0.0634769 0.370434
439 2 0.257542 0.00780004 0.409869
425 4 0.406507 0.0321509 0.403483
2879 4 0.496286 0.0645061 0.391915
424 2 0.421323 0.0488407 0.392207
480 4 0.490938 0.020162 0.330429
426 4 0.436138 0.0655305 0.380932
258 4 0.439157 0.0811315 0.368155
2878 2 0.485767 0.066771 0.414484
2584 2 0.992886 0.0947687 0.400691
399 4 0.14404 0.131607 0.332943
397 2 0.125772 0.118823 0.344259
398 4 0.107504 0.10604 0.355574
600 4 0.189646 0.112331 0.350465
685 2 0.174275 0.140125 0.377062
687 4 0.189366 0.130167 0.359792
247 2 0.306331 0.0817676 0.369189
321 4 0.260584 0.0980437 0.383333
319 2 0.255 0.103024 0.407191
248 4 0.323333 0.100058 0.367943
633 4 0.341253 0.101608 0.359012
632 4 0.378553 0.13392 0.367097
631 2 0.359903 0.117764 0.363055
420 4 0.381487 0.146905 0.35155
418 2 0.379345 0.167493 0.365576
256 2 0.458248 0.0901427 0.354756
453 4 0.50249 0.166221 0.414852
2654 4 0.0181001 0.242604 0.361996
686 4 0.159184 0.150083 0.394333
274 2 0.147139 0.229088 0.366366
276 4 0.12598 0.242324 0.367883
275 4 0.168297 0.215852 0.364849
474 4 0.177939 0.22724 0.349854
472 2 0.198191 0.212662 0.351444
473 4 0.218442 0.198084 0.353034
708 4 0.23614 0.191856 0.362603
706 2 0.260136 0.197196 0.367166
707 4 0.284133 0.202535 0.371729
377 4 0.318559 0.245843 0.361759
419 4 0.377204 0.188081 0.379602
716 4 0.372948 0.20615 0.37221
715 2 0.35431 0.221453 0.365607
717 4 0.335671 0.236756 0.359005
270 4 0.487715 0.248958 0.41255
617 4 0.0621683 0.266151 0.391066
618 4 0.0212871 0.23924 0.380807
616 2 0.0417277 0.252695 0.385936
390 4 0.0727064 0.261679 0.355144
389 4 0.122138 0.2546 0.352478
388 2 0.0974224 0.258139 0.353811
374 4 0.229423 0.321892 0.348773
510 4 0.24216 0.320903 0.363235
508 2 0.261854 0.308623 0.372538
509 4 0.281548 0.296344 0.381841
498 4 0.316248 0.309406 0.348902
378 4 0.304375 0.292394 0.350246
496 2 0.316543 0.329749 0.334368
376 2 0.311467 0.269118 0.356003
267 4 0.375902 0.279527 0.377381
265 2 0.380101 0.263476 0.396086
269 4 0.479925 0.265754 0.366097
268 2 0.48382 0.257356 0.389324
547 2 0.0444541 0.40291 0.353288
548 4 0.0361194 0.424865 0.361872
502 2 0.204248 0.39446 0.372786
504 4 0.203467 0.377401 0.354522
373 2 0.225461 0.346577 0.348442
375 4 0.221498 0.371262 0.348111
503 4 0.205029 0.411518 0.391051
613 2 0.407798 0.337785 0.332706
614 4 0.389865 0.354691 0.328488
2924 4 0.496889 0.381823 0.331836
561 4 0.468313 0.404264 0.391927
408 4 0.0762533 0.456139 0.403345
407 4 0.0382804 0.438899 0.375748
406 2 0.0572669 0.447519 0.389546
636 4 0.198342 0.430203 0.397506
634 2 0.196153 0.448572 0.414328
3 3 0.288014 0.424818 0.348529
1 1 0.30201 0.43985 0.337733
668 4 0.32274 0.433598 0.36714
4 3 0.316958 0.449056 0.352906
667 2 0.336049 0.428639 0.387718
669 4 0.349358 0.423679 0.408297
336 4 0.359527 0.422171 0.425262
119 3 0.495324 0.429565 0.330854
752 4 0.465087 0.424557 0.386819
753 4 0.478468 0.437179 0.340318
593 4 0.450724 0.466221 0.349708
751 2 0.471777 0.430868 0.363569
592 2 0.452513 0.48275 0.368383
718 2 0.058345 0.0249966 0.474801
719 4 0.0585227 0.0294135 0.450191
369 4 0.0757758 0.0388814 0.451756
720 4 0.0581673 0.0205796 0.499411
367 2 0.0878104 0.0387585 0.42984
2430 4 0.206158 0.0500975 0.462411
2428 2 0.22289 0.0410434 0.446185
340 2 0.203605 0.078602 0.482404
341 4 0.218854 0.0627684 0.470489
2429 4 0.239621 0.0319894 0.42996
441 4 0.258064 0.0283914 0.424043
430 2 0.320078 0.0788622 0.498649
2880 4 0.475247 0.0690359 0.437054
642 4 0.466975 0.0841502 0.44637
2586 4 0.988282 0.106981 0.422018
342 4 0.188357 0.0944356 0.494319
1152 4 0.19297 0.113 0.49833
1150 2 0.183198 0.131566 0.511931
320 4 0.249417 0.108005 0.431049
726 4 0.296904 0.0748397 0.470166
410 4 0.261478 0.141207 0.456463
432 4 0.313507 0.0853259 0.475406
467 4 0.320619 0.112246 0.451348
724 2 0.28096 0.085906 0.454402
725 4 0.265017 0.0969723 0.438637
409 2 0.258502 0.165739 0.460271
466 2 0.343573 0.117868 0.443182
468 4 0.366527 0.12349 0.435017
641 4 0.485209 0.111903 0.483759
640 2 0.476092 0.0980267 0.465064
3158 4 0.484546 0.131766 0.485809
3157 2 0.493601 0.152407 0.474987
575 4 0.433204 0.156282 0.450511
469 2 0.0575408 0.230925 0.457864
470 4 0.0347619 0.241154 0.459152
471 4 0.0803197 0.220695 0.456576
260 4 0.0830446 0.216687 0.475647
261 4 0.12293 0.192911 0.494209
259 2 0.102987 0.204799 0.484928
651 4 0.245592 0.23812 0.424707
411 4 0.255526 0.190271 0.464079
650 4 0.244845 0.193671 0.447607
649 2 0.245218 0.215895 0.436157
266 4 0.3843 0.247424 0.414792
3159 4 0.502657 0.173048 0.464166
576 4 0.413763 0.186569 0.485231
516 4 0.442356 0.152479 0.433584
515 4 0.483271 0.174033 0.414555
574 2 0.423483 0.171425 0.467871
514 2 0.462814 0.163256 0.42407
348 4 0.0123114 0.334882 0.440041
695 4 0.0920914 0.271411 0.447121
694 2 0.106001 0.270229 0.467865
696 4 0.119911 0.269046 0.488609
488 4 0.29042 0.278493 0.422408
489 4 0.252739 0.250341 0.439387
487 2 0.271579 0.264417 0.430897
583 2 0.404629 0.246726 0.450698
585 4 0.387417 0.253336 0.433809
239 4 0.399242 0.33742 0.483019
584 4 0.421842 0.240117 0.467586
2457 4 0.461783 0.293546 0.470847
2455 2 0.449835 0.271594 0.470128
2456 4 0.437887 0.249641 0.469409
2814 4 0.00620632 0.338878 0.459937
2812 2 0.0134207 0.335384 0.483621
326 4 0.0780789 0.40889 0.450453
709 2 0.153904 0.405798 0.433059
10 3 0.157774 0.343405 0.477176
7 3 0.129631 0.365738 0.467071
327 4 0.111696 0.374147 0.463243
325 2 0.0948872 0.391518 0.456848
6 1 0.152223 0.364689 0.471275
8 3 0.163718 0.370837 0.45208
711 4 0.166256 0.384642 0.43806
9 3 0.157319 0.379287 0.488577
334 2 0.36533 0.397946 0.427425
335 4 0.371133 0.373722 0.429588
238 2 0.38862 0.350823 0.46478
240 4 0.377997 0.364227 0.44654
2508 4 0.490466 0.384574 0.455767
559 2 0.47669 0.406735 0.415356
560 4 0.485067 0.409205 0.438785
681 4 0.0289366 0.497103 0.430758
1383 4 0.00364216 0.455651 0.479766
679 2 0.0180331 0.483491 0.448675
680 4 0.00712966 0.469879 0.466592
710 4 0.141552 0.426955 0.428058
384 4 0.132881 0.444282 0.484554
568 2 0.135706 0.454776 0.451141
569 4 0.134444 0.463107 0.474682
570 4 0.136968 0.446445 0.4276
772 2 0.195281 0.459046 0.468895
774 4 0.191142 0.451708 0.445354
635 4 0.193963 0.466941 0.431149
773 4 0.199419 0.466385 0.492436
1401 4 0.317224 0.463461 0.466145
1400 4 0.36435 0.453138 0.452983
1399 2 0.340787 0.458299 0.459564
588 4 0.375569 0.469715 0.455816
586 2 0.386254 0.489154 0.444278
1126 2 0.0271767 0.0396413 0.523316
1128 4 0.00970338 0.0471988 0.539525
1058 4 0.0810769 0.0204252 0.5753
1127 4 0.0446501 0.0320838 0.507106
1059 4 0.10911 0.0607562 0.565904
1057 2 0.0950933 0.0405907 0.570602
951 4 0.197161 0.0509675 0.555956
1031 4 0.206518 0.0379928 0.568461
1030 2 0.231386 0.0389487 0.570878
949 2 0.190552 0.0645463 0.536028
1182 4 0.24708 0.0786435 0.517821
961 2 0.30352 0.0219497 0.519031
963 4 0.296175 0.0341889 0.498502
1032 4 0.256254 0.0399047 0.573296
1181 4 0.282755 0.0455994 0.506155
2194 2 0.29122 0.0203668 0.572819
1180 2 0.264918 0.0621214 0.511988
431 4 0.326649 0.0723986 0.521892
962 4 0.310865 0.00971058 0.539559
841 2 0.365143 0.0533038 0.522264
843 4 0.343814 0.0642767 0.515204
842 4 0.386472 0.0423309 0.529324
1217 4 0.395554 0.0585803 0.51993
4466 4 0.455464 0.0143618 0.560775
1218 4 0.443339 0.0710846 0.527736
1216 2 0.419447 0.0648325 0.523833
4465 2 0.43899 0.0292327 0.572292
4467 4 0.422515 0.0441036 0.583809
1035 4 0.0628899 0.148133 0.538668
1155 4 0.121326 0.0715892 0.577994
939 4 0.15919 0.164419 0.529843
1151 4 0.173427 0.150132 0.525532
950 4 0.183944 0.0781251 0.516101
857 4 0.288439 0.142919 0.550686
899 4 0.309791 0.145439 0.547428
898 2 0.330861 0.158813 0.548972
856 2 0.276412 0.162807 0.559903
1033 2 0.0639636 0.169937 0.526476
1199 4 0.00165432 0.189202 0.574739
877 2 0.0775279 0.244174 0.572868
1034 4 0.0650373 0.19174 0.514285
937 2 0.145849 0.183293 0.520307
938 4 0.132507 0.202168 0.510771
858 4 0.264384 0.182696 0.56912
796 2 0.277553 0.21524 0.580175
797 4 0.265453 0.201718 0.562973
813 4 0.328142 0.251888 0.549544
811 2 0.304584 0.257402 0.543234
873 4 0.342622 0.238716 0.555288
900 4 0.351931 0.172186 0.550516
871 2 0.346907 0.214189 0.557577
872 4 0.351192 0.189662 0.559866
904 2 0.476627 0.254663 0.563927
906 4 0.474245 0.231585 0.554604
878 4 0.0692303 0.26571 0.563249
1258 2 0.157366 0.27228 0.508653
1260 4 0.139725 0.26596 0.492098
1259 4 0.175006 0.2786 0.525207
812 4 0.281027 0.262915 0.536923
1204 2 0.394578 0.327959 0.573676
954 4 0.413821 0.294862 0.592341
952 2 0.437078 0.289472 0.584909
905 4 0.479008 0.277741 0.57325
2813 4 0.0206351 0.331889 0.507305
1137 4 0.14027 0.344862 0.563668
897 4 0.157114 0.350553 0.571465
383 4 0.136623 0.412545 0.523019
1135 2 0.124833 0.357327 0.578883
895 2 0.181425 0.347251 0.566643
1189 2 0.237469 0.353036 0.533341
896 4 0.205736 0.343948 0.561821
1191 4 0.216982 0.350675 0.547479
1190 4 0.257957 0.355397 0.519204
803 4 0.276629 0.35882 0.528394
802 2 0.294126 0.376411 0.525296
804 4 0.311623 0.394002 0.522198
928 2 0.372302 0.374234 0.548789
929 4 0.374335 0.396193 0.537005
930 4 0.370268 0.352275 0.560573
1206 4 0.391218 0.348204 0.559392
925 2 0.46155 0.394177 0.542797
926 4 0.471113 0.409573 0.560022
927 4 0.451987 0.378781 0.525573
538 2 0.0497454 0.47907 0.53915
540 4 0.0327186 0.460863 0.541101
539 4 0.0667721 0.497276 0.537199
936 4 0.981024 0.419668 0.541533
1382 4 0.0227207 0.468012 0.524307
1938 4 0.0741959 0.507602 0.520761
1381 2 0.0131814 0.461832 0.502037
382 2 0.134752 0.428413 0.503786
1172 4 0.282423 0.447171 0.542432
1171 2 0.263592 0.447189 0.558881
882 4 0.274673 0.450046 0.524093
880 2 0.288354 0.469057 0.515343
881 4 0.302034 0.488069 0.506592
1001 4 0.481129 0.425225 0.566538
1000 2 0.47797 0.445004 0.581504
1185 4 0.0250042 0.0299989 0.63643
945 4 0.038606 0.0212466 0.649133
1183 2 0.0114618 0.0509543 0.63806
943 2 0.0607648 0.0327067 0.650815
944 4 0.0829236 0.0441669 0.652497
825 4 0.0873605 0.020451 0.594361
2196 4 0.2869 0.0210952 0.597435
1004 4 0.354006 0.0707277 0.64319
1003 2 0.36116 0.0480892 0.651032
2283 4 0.413253 0.0404654 0.601208
2282 4 0.432869 0.0318658 0.646397
2281 2 0.423061 0.0361656 0.623803
43 3 0.446476 0.0434466 0.655972
45 3 0.477999 0.0408182 0.63555
41 1 0.46926 0.0478 0.655388
44 3 0.473057 0.0705234 0.658152
810 4 0.487562 0.0517624 0.623022
1083 4 0.0642389 0.158534 0.584203
1081 2 0.0761913 0.16682 0.604542
1153 2 0.141717 0.0853098 0.582594
1154 4 0.162107 0.0990304 0.587193
1221 4 0.175044 0.10582 0.600099
1219 2 0.172032 0.108833 0.624737
1220 4 0.169019 0.111846 0.649375
1212 4 0.227045 0.141706 0.631795
1210 2 0.240103 0.131355 0.650437
1211 4 0.253162 0.121004 0.669078
1283 4 0.174936 0.125834 0.661982
1026 4 0.396983 0.164927 0.609021
3426 4 0.500623 0.149089 0.638437
1272 4 0.0800499 0.222074 0.601886
879 4 0.0858255 0.222638 0.582488
1082 4 0.0881437 0.175105 0.624881
1270 2 0.0961883 0.222037 0.620984
1271 4 0.112327 0.222001 0.640082
909 4 0.130114 0.223137 0.630284
907 2 0.153371 0.232149 0.628524
908 4 0.176627 0.24116 0.626765
947 4 0.194135 0.232081 0.628258
798 4 0.289652 0.228763 0.597377
1142 4 0.348077 0.220502 0.680578
1025 4 0.386639 0.200056 0.643075
1024 2 0.391811 0.182491 0.626048
1141 2 0.36782 0.219222 0.665289
1143 4 0.387563 0.217942 0.65
3121 2 0.470738 0.239512 0.660014
3123 4 0.453454 0.238431 0.64198
946 2 0.201909 0.249999 0.612648
948 4 0.209683 0.267917 0.597037
791 4 0.28184 0.277334 0.644371
790 2 0.270919 0.296993 0.633442
1238 4 0.261699 0.313792 0.602927
792 4 0.259998 0.316652 0.622513
1205 4 0.397937 0.307714 0.587959
953 4 0.460335 0.284083 0.577476
983 4 0.0110508 0.416203 0.644681
1039 2 0.0532526 0.414102 0.63624
1041 4 0.0309474 0.418665 0.646576
1040 4 0.0755579 0.409538 0.625904
1136 4 0.109396 0.369792 0.594099
1239 4 0.256925 0.36049 0.585687
1237 2 0.259312 0.337141 0.594307
993 4 0.0880772 0.42014 0.638604
991 2 0.112963 0.422513 0.639094
992 4 0.137849 0.424887 0.639584
2242 2 0.162322 0.490876 0.577629
2170 2 0.132622 0.495606 0.651776
2244 4 0.152703 0.508153 0.562326
1160 4 0.227472 0.475196 0.614921
1159 2 0.205714 0.466571 0.606125
2243 4 0.171941 0.4736 0.592932
1161 4 0.183956 0.457946 0.597328
890 4 0.292107 0.443313 0.594907
1173 4 0.244761 0.447207 0.575329
891 4 0.326002 0.480071 0.594113
889 2 0.309054 0.461692 0.59451
1002 4 0.474812 0.464783 0.596471
1910 4 0.456129 0.467201 0.592263
1909 2 0.446068 0.489877 0.589137
1075 2 0.0636103 0.0392526 0.721552
1076 4 0.0626768 0.0349178 0.696945
1256 4 0.297134 0.0581028 0.760417
1255 2 0.274773 0.0516985 0.751243
1257 4 0.252412 0.0452942 0.742069
1005 4 0.368313 0.0254507 0.658874
1163 4 0.497251 0.0454214 0.672479
42 3 0.47945 0.0364128 0.672583
1282 2 0.193277 0.13072 0.678257
1284 4 0.211619 0.135607 0.694532
1227 4 0.230913 0.139102 0.695692
1225 2 0.230081 0.15628 0.713841
1226 4 0.229248 0.173458 0.731991
888 4 0.269968 0.131989 0.665585
886 2 0.290809 0.133184 0.679347
887 4 0.311651 0.13438 0.693108
830 4 0.318729 0.117622 0.703873
829 2 0.325355 0.123679 0.72721
831 4 0.331982 0.129736 0.750546
1146 4 0.490581 0.139124 0.731736
1144 2 0.476602 0.158488 0.724332
1209 4 0.0497465 0.235412 0.665028
1105 2 0.0366127 0.197288 0.747917
1107 4 0.0183936 0.21181 0.738843
851 4 0.0169332 0.214128 0.718435
850 2 0.994677 0.221295 0.709575
822 4 0.156984 0.230826 0.734112
1278 4 0.144302 0.216296 0.733834
820 2 0.143329 0.250917 0.728187
1276 2 0.153683 0.196685 0.746185
1065 4 0.209556 0.242842 0.713206
916 2 0.291341 0.238284 0.726162
918 4 0.312082 0.226676 0.733924
977 4 0.313139 0.206028 0.736555
1192 2 0.390693 0.231159 0.713743
1193 4 0.365893 0.231771 0.710621
1194 4 0.415493 0.230548 0.716865
1145 4 0.462624 0.177851 0.716927
1262 4 0.432154 0.220885 0.71123
1261 2 0.45247 0.206588 0.7084
1263 4 0.472787 0.192291 0.705571
3122 4 0.488023 0.240594 0.678049
3357 4 0.487665 0.24001 0.697861
1207 2 0.0542106 0.24956 0.685155
1245 4 0.00192169 0.299648 0.691145
1243 2 0.0253017 0.308499 0.691609
1244 4 0.0486817 0.31735 0.692072
1208 4 0.0586747 0.263708 0.705281
821 4 0.129675 0.271007 0.722262
1064 4 0.215315 0.278409 0.678528
1063 2 0.212435 0.260625 0.695867
917 4 0.2706 0.249891 0.7184
1097 4 0.260174 0.261473 0.731132
806 4 0.441812 0.294729 0.726086
805 2 0.433606 0.316912 0.734194
892 2 0.0639991 0.394641 0.69251
893 4 0.0426439 0.385577 0.683183
894 4 0.0853543 0.403705 0.701836
815 4 0.106892 0.41535 0.745502
1028 4 0.231471 0.406391 0.705214
1027 2 0.250714 0.405267 0.689289
1140 4 0.320794 0.421248 0.712776
1138 2 0.303385 0.409383 0.699309
1139 4 0.285977 0.397519 0.685842
1029 4 0.269957 0.404143 0.673364
1230 4 0.353004 0.41612 0.742567
807 4 0.4254 0.339095 0.742303
1020 4 0.420535 0.35878 0.739327
1281 4 0.0551373 0.433479 0.706903
1279 2 0.0602777 0.437182 0.731091
2021 4 0.0519146 0.497847 0.739184
1983 4 0.0503939 0.488118 0.756535
2020 2 0.0670794 0.501095 0.719571
2172 4 0.152167 0.48195 0.659306
941 4 0.152678 0.421247 0.701486
940 2 0.139535 0.420805 0.722752
942 4 0.126391 0.420362 0.744017
1067 4 0.169894 0.410843 0.70729
1066 2 0.194332 0.415965 0.705987
1068 4 0.218771 0.421087 0.704684
1228 2 0.34831 0.437233 0.755113
3330 4 0.476267 0.430233 0.680344
3328 2 0.474024 0.443851 0.701194
3329 4 0.471781 0.457468 0.722044
1077 4 0.0645437 0.0435873 0.746159
1203 4 0.0706026 0.0377049 0.765043
1201 2 0.0872513 0.0328087 0.783044
1202 4 0.1039 0.0279124 0.801045
2049 4 0.122682 0.0216309 0.797595
2047 2 0.13285 0.999838 0.790749
1148 4 0.177802 0.0403724 0.765644
1147 2 0.196913 0.0412984 0.78174
1149 4 0.216024 0.0422243 0.797836
1049 4 0.230588 0.0365168 0.810515
1048 2 0.253069 0.0384737 0.821283
1050 4 0.27555 0.0404305 0.832051
817 2 0.36422 0.0855514 0.825517
1112 4 0.416524 0.0170989 0.804979
846 4 0.467111 0.0380021 0.778663
1113 4 0.448302 0.0355489 0.77106
1111 2 0.432413 0.0263239 0.78802
844 2 0.488656 0.0485548 0.785708
864 4 0.0321631 0.0903558 0.835349
862 2 0.0247396 0.105383 0.816795
832 2 0.0322784 0.146954 0.773046
863 4 0.0173161 0.12041 0.798241
833 4 0.017473 0.128177 0.780352
32 3 0.0960098 0.158382 0.759221
1130 4 0.227311 0.178597 0.751217
840 4 0.239584 0.162093 0.836491
1129 2 0.203988 0.178276 0.760224
1131 4 0.180665 0.177955 0.769231
978 4 0.302267 0.169542 0.768978
838 2 0.261139 0.151533 0.82949
839 4 0.282695 0.140972 0.822489
819 4 0.37075 0.0913079 0.802078
1084 2 0.354656 0.128182 0.793462
1085 4 0.356931 0.106339 0.805417
1086 4 0.352381 0.150024 0.781507
3270 4 0.495191 0.138554 0.75121
1106 4 0.0548318 0.182765 0.756991
33 3 0.0631942 0.158334 0.777546
834 4 0.0470838 0.165732 0.765739
1214 4 0.0199875 0.242221 0.781043
35 3 0.0740295 0.188511 0.757808
31 1 0.0812124 0.171431 0.771049
780 4 0.0749486 0.247325 0.807517
34 3 0.0919926 0.179916 0.789763