ITEM: TIMESTEP
370000
ITEM: NUMBER OF ATOMS
4590
ITEM: BOX BOUNDS pp pp pp
-9.9985700000000008e+00 9.9985700000000008e+00
-9.9985700000000008e+00 9.9985700000000008e+00
-9.9985700000000008e+00 9.9985700000000008e+00
ITEM: ATOMS id type xs ys zs
463 2 0.0292692 0.0541422 0.0505778
465 4 0.041267 0.0742061 0.0594473
464 4 0.0172713 0.0340782 0.0417083
1667 4 0.0676595 0.0427976 0.0745195
3290 4 0.0218094 0.0264236 0.0232477
3289 2 0.00888744 0.0165933 0.00423271
702 4 0.104019 0.0838126 0.0468762
534 4 0.203041 0.041076 0.00913708
1474 2 0.228765 0.0033798 0.0725268
1476 4 0.23085 0.00780045 0.0480056
490 2 0.282912 0.0279976 0.0208923
491 4 0.2867 0.0511573 0.0295213
492 4 0.279125 0.00483782 0.0122633
296 4 0.367814 0.058274 0.0518351
557 4 0.37591 0.0766036 0.0492437
295 2 0.373679 0.0527823 0.0755124
745 2 0.468549 0.0720176 0.0414257
747 4 0.46861 0.0671701 0.0168966
746 4 0.468487 0.076865 0.0659548
701 4 0.0561198 0.0934867 0.0362563
700 2 0.0800695 0.0886497 0.0415662
591 4 0.0366776 0.0861831 0.0753837
421 2 0.0727906 0.162838 0.00245808
589 2 0.0378131 0.109499 0.0843431
565 2 0.187637 0.117556 0.0512556
566 4 0.174286 0.135677 0.040366
567 4 0.200988 0.0994361 0.0621452
358 2 0.283768 0.128073 0.0228422
359 4 0.296298 0.124187 0.00155641
360 4 0.271238 0.131959 0.0441279
556 2 0.377134 0.101043 0.0543794
558 4 0.378359 0.125483 0.059515
771 4 0.465456 0.169278 0.0279433
826 2 0.421814 0.16612 0.0046501
553 2 0.0285647 0.211448 0.0273536
555 4 0.0447094 0.213586 0.00838104
554 4 0.0124201 0.209309 0.0463261
422 4 0.0884987 0.180826 0.00986596
324 4 0.412254 0.242209 0.0591152
770 4 0.484745 0.167521 0.074047
769 2 0.475101 0.1684 0.0509952
828 4 0.422409 0.186335 0.0193523
292 2 0.134333 0.306795 0.0426489
293 4 0.153902 0.291792 0.046787
294 4 0.114764 0.321799 0.0385109
507 4 0.172816 0.295722 0.0536863
506 4 0.196978 0.257399 0.0325131
483 4 0.245313 0.28918 0.0768756
505 2 0.184897 0.276561 0.0430997
481 2 0.234028 0.308287 0.0653547
482 4 0.222743 0.327395 0.0538338
571 2 0.315538 0.265222 0.0499512
573 4 0.306805 0.274255 0.0283334
572 4 0.32427 0.256189 0.0715689
1071 4 0.356807 0.261379 0.0148461
322 2 0.414173 0.255973 0.079901
1069 2 0.381646 0.263722 0.0131971
1070 4 0.406484 0.266065 0.0115482
280 2 0.459574 0.328305 0.0317632
281 4 0.45878 0.317044 0.0540732
671 4 0.441919 0.319933 0.0660899
328 2 0.031792 0.406622 0.0428593
329 4 0.0302123 0.385196 0.0300685
621 4 0.999028 0.37521 0.0893552
551 4 0.0721373 0.417609 0.0667958
455 4 0.10169 0.383418 0.063997
454 2 0.112223 0.362638 0.0730775
288 4 0.168735 0.388037 0.00236576
252 4 0.31046 0.375506 0.0501583
250 2 0.291289 0.389929 0.0431135
251 4 0.272118 0.404352 0.0360687
608 4 0.309421 0.368839 0.0683412
957 4 0.315266 0.341353 0.996238
282 4 0.460369 0.339566 0.0094531
330 4 0.0333717 0.428048 0.0556502
1787 4 0.128686 0.497703 0.0780148
550 2 0.0873254 0.421875 0.0473972
552 4 0.102513 0.42614 0.0279985
242 4 0.146969 0.490068 0.0777335
245 4 0.211497 0.475596 0.0248664
244 2 0.234689 0.468376 0.0307974
246 4 0.257881 0.461157 0.0367285
272 4 0.276438 0.465109 0.0427695
271 2 0.285632 0.488062 0.0464847
227 4 0.491911 0.420217 0.0361201
562 2 0.457393 0.482017 0.0268192
226 2 0.496781 0.444454 0.0398642
564 4 0.456512 0.494851 0.0482601
563 4 0.458275 0.469184 0.00537828
228 4 0.50165 0.468691 0.0436082
1420 2 0.0344487 0.00400253 0.170428
1666 2 0.0673802 0.0286014 0.0951003
19 3 0.0390891 0.0383058 0.154004
20 3 0.055862 0.0682502 0.138523
1422 4 0.0297289 0.0285286 0.1716
1668 4 0.0671009 0.0144051 0.115681
16 1 0.053118 0.0563991 0.157776
18 3 0.0737 0.0489865 0.165512
2480 4 0.0182449 0.0414809 0.156389
450 4 0.172258 0.0612646 0.14732
1506 4 0.240358 0.00440561 0.156271
1475 4 0.22668 0.998959 0.0970479
652 2 0.298172 0.0496931 0.150473
653 4 0.312879 0.0488711 0.170677
654 4 0.283465 0.0505151 0.130269
297 4 0.379545 0.0472906 0.0991898
1759 2 0.479491 0.00879499 0.156522
758 4 0.428673 0.0685928 0.154945
590 4 0.0389486 0.132814 0.0933025
448 2 0.177104 0.0852641 0.15239
449 4 0.181951 0.109264 0.157461
235 2 0.195492 0.135935 0.162083
236 4 0.200111 0.11522 0.148863
582 4 0.303201 0.0969286 0.15378
254 4 0.385622 0.158678 0.121759
311 4 0.440272 0.141375 0.171878
475 2 0.126809 0.176391 0.132851
477 4 0.104226 0.177051 0.143562
476 4 0.149393 0.17573 0.12214
737 4 0.191733 0.200952 0.115543
736 2 0.212108 0.214122 0.109495
738 4 0.232483 0.227293 0.103447
354 4 0.244576 0.222975 0.117318
352 2 0.268306 0.220505 0.109835
460 2 0.319259 0.195319 0.0947324
461 4 0.301423 0.210693 0.0863235
353 4 0.292035 0.218034 0.102352
285 4 0.29347 0.219734 0.176175
630 4 0.395184 0.17474 0.117078
255 4 0.342062 0.183237 0.12205
462 4 0.337094 0.179944 0.103141
253 2 0.363842 0.170958 0.121905
622 2 0.378381 0.242371 0.164695
623 4 0.354126 0.246981 0.160743
629 4 0.437956 0.200425 0.113679
628 2 0.41657 0.187583 0.115378
518 4 0.491556 0.209585 0.130888
337 2 0.0690546 0.25026 0.160464
339 4 0.0592849 0.262537 0.140996
277 2 0.244853 0.26484 0.151118
279 4 0.221867 0.266121 0.160875
754 2 0.295685 0.281704 0.119586
755 4 0.28688 0.264451 0.135396
756 4 0.304489 0.298958 0.103775
278 4 0.267838 0.263558 0.141362
741 4 0.354073 0.298299 0.0961886
739 2 0.355908 0.322168 0.103406
323 4 0.416091 0.269738 0.100687
620 4 0.0404532 0.355891 0.10964
619 2 0.0197407 0.36555 0.0994977
647 4 0.0752182 0.376521 0.151595
537 4 0.153841 0.348382 0.146638
456 4 0.122755 0.341858 0.0821579
535 2 0.161789 0.36956 0.135983
626 4 0.226521 0.376913 0.119485
536 4 0.169736 0.390738 0.125329
625 2 0.214148 0.396577 0.110243
611 4 0.260367 0.327832 0.142147
609 4 0.315018 0.357409 0.116702
607 2 0.312219 0.363124 0.0925214
612 4 0.304669 0.341655 0.123522
610 2 0.282518 0.334744 0.132834
740 4 0.357743 0.346036 0.110624
387 4 0.330616 0.384954 0.160736
15 3 0.397525 0.366078 0.138064
385 2 0.341024 0.372007 0.142048
386 4 0.351432 0.359061 0.12336
670 2 0.437687 0.331092 0.0880616
11 1 0.420255 0.366609 0.136753
672 4 0.433456 0.342251 0.110033
13 3 0.429308 0.370485 0.157762
12 3 0.427872 0.346336 0.128998
14 3 0.42695 0.383261 0.122046
495 4 0.434165 0.402054 0.125572
595 2 0.469973 0.376543 0.156653
596 4 0.491239 0.384782 0.146402
315 4 0.0133129 0.420706 0.0829945
627 4 0.201775 0.41624 0.101
637 2 0.248968 0.489676 0.149253
1439 4 0.242004 0.497665 0.106511
639 4 0.246034 0.496475 0.125371
525 4 0.35156 0.46607 0.0927204
523 2 0.348958 0.490642 0.0888999
660 4 0.389131 0.460768 0.168131
493 2 0.43758 0.426792 0.124327
494 4 0.440995 0.45153 0.123081
17 3 0.0436226 0.0699703 0.173739
2479 2 0.00192896 0.0465252 0.174651
673 2 0.109165 0.0503988 0.231368
674 4 0.120553 0.0328638 0.24508
675 4 0.0977772 0.0679338 0.217656
1505 4 0.225586 0.0215521 0.200863
1504 2 0.232972 0.0129789 0.178567
689 4 0.212353 0.012497 0.2129
688 2 0.206396 0.0132274 0.237173
691 2 0.248401 0.0696967 0.208441
693 4 0.247818 0.0458512 0.215939
21 1 0.385691 0.0572984 0.22642
23 3 0.395165 0.0403674 0.239148
24 3 0.364879 0.062947 0.234983
25 3 0.383609 0.0505145 0.204779
759 4 0.398844 0.0533913 0.192092
22 3 0.399354 0.0757841 0.227283
757 2 0.413758 0.0609921 0.173519
1760 4 0.492521 0.0103943 0.177802
742 2 0.44346 0.0453931 0.235173
744 4 0.436895 0.039885 0.211684
379 2 0.0127353 0.143472 0.18144
381 4 0.0299222 0.157503 0.192969
511 2 0.0428192 0.16091 0.233436
512 4 0.0293441 0.16011 0.21239
578 4 0.087365 0.139521 0.236897
579 4 0.0989283 0.102386 0.205465
577 2 0.0931467 0.120953 0.221181
237 4 0.190874 0.156649 0.175303
692 4 0.248985 0.0935423 0.200942
580 2 0.296299 0.111735 0.172709
581 4 0.289396 0.126542 0.191637
30 3 0.295428 0.124745 0.210862
26 1 0.300478 0.124448 0.233067
28 3 0.280974 0.123657 0.245612
27 3 0.313076 0.105773 0.237723
29 3 0.312729 0.143345 0.238653
333 4 0.409582 0.116489 0.248345
312 4 0.423298 0.0953477 0.181579
310 2 0.431785 0.118361 0.176729
338 4 0.0788243 0.237982 0.179932
513 4 0.0562943 0.161709 0.254483
395 4 0.0225644 0.243407 0.201396
394 2 0.0129125 0.251229 0.223094
363 4 0.098915 0.239382 0.180494
361 2 0.11588 0.250521 0.195098
284 4 0.256548 0.198865 0.202668
283 2 0.275009 0.209299 0.189422
624 4 0.402636 0.237761 0.168646
764 4 0.373551 0.201343 0.220936
763 2 0.386738 0.222109 0.216453
765 4 0.399925 0.242874 0.211971
520 2 0.469072 0.220404 0.238655
521 4 0.445874 0.211903 0.234813
522 4 0.49227 0.228904 0.242497
704 4 0.996468 0.277413 0.166115
396 4 0.0032605 0.259052 0.244793
750 4 0.104945 0.316586 0.229777
362 4 0.132845 0.261661 0.209702
372 4 0.146268 0.258268 0.225181
300 4 0.106926 0.336891 0.226603
748 2 0.0949422 0.294573 0.236144
749 4 0.0849396 0.27256 0.242512
370 2 0.170455 0.26416 0.22752
371 4 0.194642 0.270051 0.229858
345 4 0.235498 0.291492 0.240259
343 2 0.254271 0.285884 0.224725
344 4 0.273044 0.280277 0.209191
307 2 0.315757 0.289891 0.211325
309 4 0.290904 0.288527 0.208947
308 4 0.340609 0.291255 0.213704
527 4 0.47732 0.284064 0.174914
528 4 0.473554 0.258387 0.21766
526 2 0.475437 0.271226 0.196287
646 2 0.0814578 0.360896 0.170091
648 4 0.0876973 0.345271 0.188587
298 2 0.124408 0.351027 0.237546
299 4 0.14189 0.365163 0.248488
303 4 0.296392 0.410977 0.19546
301 2 0.31767 0.404732 0.18391
729 4 0.306302 0.392401 0.25017
302 4 0.338949 0.398487 0.17236
597 4 0.448708 0.368305 0.166904
643 2 0.462119 0.37661 0.209949
644 4 0.467798 0.379336 0.234146
645 4 0.456439 0.373884 0.185752
263 4 0.0487796 0.446929 0.190794
262 2 0.0447874 0.454264 0.214362
264 4 0.0407951 0.4616 0.237929
417 4 0.142896 0.432587 0.22172
415 2 0.165554 0.43131 0.211223
638 4 0.251902 0.482878 0.173135
416 4 0.188211 0.430033 0.200726
291 4 0.200859 0.434385 0.185814
289 2 0.221256 0.425908 0.197531
290 4 0.241653 0.417431 0.209247
768 4 0.234279 0.478778 0.236168
766 2 0.236975 0.476284 0.211436
414 4 0.212928 0.472611 0.25191
767 4 0.239671 0.47379 0.186704
437 4 0.300334 0.47243 0.243532
658 2 0.366204 0.45146 0.171721
659 4 0.343278 0.442151 0.175312
231 4 0.394028 0.494398 0.20015
232 2 0.042851 0.0370369 0.296597
233 4 0.0569874 0.0164617 0.295181
1403 4 0.0651073 0.998563 0.30012
234 4 0.0287147 0.0576121 0.298012
429 4 0.076943 0.0186473 0.33715
690 4 0.20044 0.0139579 0.261446
1701 4 0.254173 0.0434854 0.305188
1699 2 0.262448 0.0202311 0.301196
1518 4 0.349831 0.0132166 0.310413
698 4 0.395104 0.0594052 0.327689
697 2 0.375253 0.0445061 0.324666
699 4 0.355402 0.029607 0.321643
1749 4 0.471047 0.00467432 0.317853
743 4 0.450026 0.0509011 0.258662
257 4 0.424775 0.0711447 0.331098
478 2 0.488228 0.0446999 0.327046
480 4 0.475447 0.0243721 0.320074
351 4 0.45399 0.0570743 0.276239
349 2 0.445763 0.0687947 0.296736
350 4 0.437536 0.080515 0.317232
2756 4 0.0150265 0.0881219 0.313324
530 4 0.0276879 0.136137 0.282685
398 4 0.0861078 0.0885533 0.330032
529 2 0.0051774 0.146995 0.281935
397 2 0.0903386 0.111961 0.322328
399 4 0.0945693 0.135369 0.314625
544 2 0.148216 0.163474 0.257409
723 4 0.218688 0.110161 0.252641
721 2 0.200353 0.127154 0.253129
546 4 0.16619 0.152018 0.244337
722 4 0.182018 0.144147 0.253616
249 4 0.246824 0.139328 0.283132
404 4 0.237384 0.149565 0.296598
599 4 0.201741 0.167831 0.340178
248 4 0.265529 0.0950169 0.296822
247 2 0.256177 0.117172 0.289977
632 4 0.370564 0.0976955 0.309245
631 2 0.385828 0.117343 0.306766
633 4 0.401093 0.136991 0.304286
331 2 0.428769 0.126378 0.260965
332 4 0.447955 0.136266 0.273586
762 4 0.4498 0.157122 0.268855
760 2 0.467211 0.16308 0.285782
392 4 0.111764 0.18011 0.275759
391 2 0.0992144 0.190923 0.294487
393 4 0.0866649 0.201736 0.313216
545 4 0.130242 0.174929 0.270481
388 2 0.0947387 0.250461 0.333444
403 2 0.219952 0.167236 0.293591
405 4 0.202521 0.184908 0.290585
706 2 0.305373 0.18861 0.316371
707 4 0.292575 0.197617 0.296871
708 4 0.318171 0.179602 0.335871
420 4 0.392604 0.201087 0.315239
418 2 0.398639 0.210716 0.337511
761 4 0.484622 0.169039 0.30271
444 4 0.0389789 0.257656 0.294329
443 4 0.00245925 0.267804 0.261709
442 2 0.0207191 0.26273 0.278019
390 4 0.0723196 0.256807 0.324373
401 4 0.199789 0.254784 0.284155
400 2 0.220802 0.25561 0.297682
402 4 0.241814 0.256436 0.311209
509 4 0.254651 0.313884 0.325578
496 2 0.309555 0.301107 0.30287
497 4 0.302505 0.289782 0.281722
498 4 0.316606 0.312431 0.324017
615 4 0.396894 0.330257 0.31804
543 4 0.416929 0.329188 0.316802
541 2 0.439675 0.318886 0.315517
542 4 0.462422 0.308584 0.314232
366 4 0.00296357 0.357872 0.257552
364 2 0.0195681 0.353015 0.275605
365 4 0.0361727 0.348158 0.293657
603 4 0.104246 0.377484 0.313178
601 2 0.0953856 0.396333 0.299343
734 4 0.146563 0.374609 0.264673
733 2 0.159342 0.383258 0.284346
602 4 0.086525 0.415181 0.285509
735 4 0.172122 0.391907 0.30402
677 4 0.183505 0.383972 0.318177
676 2 0.188915 0.36009 0.323231
433 2 0.323117 0.401473 0.323249
727 2 0.323522 0.389067 0.26799
434 4 0.337724 0.3951 0.303983
613 2 0.382524 0.347209 0.329499
728 4 0.340741 0.385732 0.28581
447 4 0.466959 0.382501 0.253513
445 2 0.447315 0.382004 0.268975
446 4 0.427671 0.381506 0.284436
549 4 0.0543289 0.463891 0.335088
777 4 0.10191 0.427881 0.284124
775 2 0.0922055 0.450912 0.284864
776 4 0.0825006 0.473943 0.285605
412 2 0.192822 0.476031 0.266374
413 4 0.172716 0.479451 0.280839
436 2 0.311506 0.462729 0.263688
438 4 0.322679 0.453027 0.283843
119 3 0.482772 0.41963 0.323178
713 4 0.431035 0.466666 0.279224
712 2 0.431146 0.458684 0.302919
714 4 0.431258 0.450702 0.326614
317 4 0.0548167 0.0639327 0.367149
428 4 0.0511571 0.0441343 0.371591
427 2 0.06405 0.0313908 0.354371
731 4 0.159624 0.0786602 0.345652
1782 4 0.108031 0.00815041 0.378747
606 4 0.175714 0.0393262 0.350807
604 2 0.193021 0.0513615 0.364254
605 4 0.210328 0.0633968 0.377701
683 4 0.293757 0.0537123 0.377782
682 2 0.279052 0.0710529 0.388186
424 2 0.40843 0.0225929 0.384404
425 4 0.389816 0.0198994 0.400879
426 4 0.427044 0.0252863 0.367929
256 2 0.432992 0.0558702 0.349108
258 4 0.441208 0.0405957 0.367118
316 2 0.0501103 0.0871337 0.359103
2586 4 0.0203447 0.0903593 0.40293
318 4 0.0454039 0.110335 0.351057
732 4 0.114269 0.0996693 0.34415
730 2 0.136946 0.0891647 0.344901
687 4 0.155249 0.143398 0.388883
685 2 0.171284 0.147011 0.407724
600 4 0.193373 0.120158 0.352748
598 2 0.197557 0.143995 0.346463
684 4 0.264347 0.0883935 0.39859
320 4 0.256143 0.089968 0.416904
516 4 0.419862 0.159444 0.416546
514 2 0.435103 0.155317 0.397159
515 4 0.450345 0.15119 0.377772
2653 2 0.00596229 0.22947 0.388271
2654 4 0.0301395 0.231395 0.394349
389 4 0.117158 0.244114 0.342516
474 4 0.235409 0.198711 0.354989
472 2 0.260209 0.200374 0.352279
473 4 0.28501 0.202037 0.349569
488 4 0.303294 0.22769 0.397933
487 2 0.303151 0.247429 0.41328
468 4 0.347153 0.171127 0.405951
715 2 0.361819 0.246774 0.365193
716 4 0.345548 0.228846 0.358945
419 4 0.404675 0.220345 0.359783
466 2 0.352259 0.192226 0.418357
451 2 0.483083 0.164091 0.373402
453 4 0.45851 0.167776 0.376188
304 2 0.488203 0.212161 0.405882
306 4 0.47476 0.2296 0.394036
270 4 0.486677 0.243289 0.403126
616 2 0.0758665 0.318685 0.381004
618 4 0.0669365 0.29874 0.393154
347 4 0.0494529 0.291618 0.400362
275 4 0.180404 0.261658 0.390152
274 2 0.205107 0.258551 0.392448
276 4 0.229811 0.255443 0.394743
508 2 0.239391 0.314662 0.345369
510 4 0.224131 0.315441 0.365161
373 2 0.205012 0.325959 0.405848
374 4 0.221826 0.30758 0.403683
376 2 0.308577 0.29315 0.363361
377 4 0.316712 0.269617 0.365639
378 4 0.300442 0.316684 0.361084
717 4 0.378089 0.264702 0.37144
269 4 0.494306 0.286458 0.379063
268 2 0.490491 0.264873 0.391095
406 2 0.0654801 0.409806 0.388848
407 4 0.0531616 0.408167 0.367152
408 4 0.0777986 0.411446 0.410545
681 4 0.0351248 0.411689 0.414551
617 4 0.0847966 0.33863 0.368854
678 4 0.194326 0.336208 0.328285
375 4 0.188198 0.344337 0.408014
502 2 0.23193 0.409929 0.411602
435 4 0.30851 0.407845 0.342516
503 4 0.253307 0.415194 0.39975
614 4 0.368154 0.364161 0.340958
336 4 0.373332 0.386209 0.392682
561 4 0.455203 0.394799 0.38464
752 4 0.447326 0.406854 0.36978
559 2 0.459844 0.394557 0.409208
751 2 0.460322 0.419762 0.35276
2461 2 0.00782291 0.49275 0.354734
2463 4 0.0246157 0.480412 0.340915
547 2 0.0481896 0.441618 0.344648
548 4 0.0420503 0.419345 0.354208
499 2 0.121706 0.48282 0.368334
501 4 0.12993 0.459207 0.368325
668 4 0.318177 0.429331 0.400322
5 3 0.290018 0.470585 0.378613
1 1 0.309714 0.460615 0.373016
2 3 0.326995 0.475314 0.376816
4 3 0.312977 0.441677 0.38602
3 3 0.309567 0.45486 0.350538
592 2 0.402606 0.494207 0.34236
593 4 0.418638 0.475038 0.34319
753 4 0.473318 0.43267 0.33574
718 2 0.0552083 0.0739059 0.477669
720 4 0.0416628 0.0738482 0.498686
719 4 0.0687539 0.0739635 0.456653
2237 4 0.00662347 0.0189007 0.484825
367 2 0.115214 0.0314034 0.453919
369 4 0.119271 0.0543526 0.462978
368 4 0.111157 0.00845423 0.444861
2428 2 0.202976 0.999776 0.497832
1181 4 0.24138 0.0489739 0.472996
1180 2 0.245793 0.0732744 0.476892
341 4 0.180412 0.0320871 0.480995
342 4 0.192919 0.0779078 0.49664
340 2 0.186666 0.0549974 0.488818
2430 4 0.192954 0.0221067 0.492726
441 4 0.260973 0.0246666 0.432822
439 2 0.279816 0.00858968 0.429406
726 4 0.307945 0.0567928 0.457911
724 2 0.322435 0.0759517 0.450971
432 4 0.298008 0.0669724 0.502345
2879 4 0.498408 0.0782625 0.418675
2878 2 0.490996 0.0849415 0.441602
458 4 0.0368328 0.17209 0.437932
457 2 0.0150444 0.161674 0.444409
1034 4 0.109164 0.156574 0.489272
686 4 0.187319 0.150625 0.426566
1182 4 0.250207 0.097575 0.480789
321 4 0.254097 0.137452 0.432454
319 2 0.25512 0.11371 0.424679
725 4 0.336924 0.0951105 0.44403
574 2 0.392181 0.157108 0.450863
576 4 0.373339 0.155607 0.46723
575 4 0.411024 0.158609 0.434495
642 4 0.480178 0.111349 0.464529
2880 4 0.483584 0.0916205 0.464529
640 2 0.489531 0.128444 0.480197
641 4 0.498883 0.145539 0.495865
471 4 0.0661571 0.188025 0.501108
469 2 0.0507622 0.203594 0.489034
470 4 0.0353673 0.219162 0.47696
260 4 0.0981123 0.211824 0.420784
261 4 0.100562 0.222559 0.469564
259 2 0.0993369 0.217192 0.445174
1035 4 0.101366 0.205545 0.482807
695 4 0.111808 0.241285 0.467302
1033 2 0.105265 0.18106 0.486039
411 4 0.259576 0.227593 0.472537
409 2 0.282618 0.217982 0.471161
410 4 0.305659 0.208371 0.469784
467 4 0.357366 0.213326 0.430763
346 2 0.0551638 0.288353 0.424485
348 4 0.0608747 0.285089 0.448607
694 2 0.119236 0.256916 0.485348
10 3 0.164432 0.323099 0.480997
7 3 0.131281 0.339776 0.48497
489 4 0.303008 0.267168 0.428627
651 4 0.28899 0.268942 0.442748
649 2 0.2722 0.28253 0.455343
650 4 0.25541 0.296118 0.467939
266 4 0.331435 0.313129 0.445605
265 2 0.353253 0.301313 0.442517
267 4 0.375071 0.289497 0.439429
583 2 0.466666 0.271874 0.447742
584 4 0.488368 0.28136 0.439728
585 4 0.444964 0.262388 0.455757
326 4 0.0944242 0.34921 0.433824
327 4 0.114911 0.332441 0.476248
325 2 0.104668 0.340826 0.455036
6 1 0.153776 0.341334 0.489517
8 3 0.162088 0.360656 0.479721
711 4 0.169965 0.375872 0.467223
504 4 0.210552 0.404664 0.423453
709 2 0.188657 0.386073 0.454118
710 4 0.207349 0.396273 0.441013
772 2 0.229836 0.413851 0.491102
334 2 0.365192 0.385767 0.41632
238 2 0.389506 0.380983 0.467705
240 4 0.375795 0.384404 0.447077
335 4 0.357052 0.385326 0.439957
239 4 0.403216 0.377562 0.488333
560 4 0.464485 0.394315 0.433776
383 4 0.0726106 0.430238 0.477034
680 4 0.0369129 0.452913 0.442802
1381 2 0.0252383 0.489962 0.435462
1383 4 0.0350038 0.467464 0.430597
679 2 0.0360188 0.432301 0.428676
384 4 0.118983 0.443632 0.46396
382 2 0.0957968 0.436935 0.470497
569 4 0.132201 0.459016 0.462625
568 2 0.131065 0.467705 0.439207
570 4 0.129929 0.476393 0.415789
635 4 0.200575 0.436261 0.467774
774 4 0.210173 0.427055 0.48309
636 4 0.227292 0.47381 0.448358
634 2 0.213934 0.455036 0.458066
667 2 0.321218 0.440704 0.422381
669 4 0.324258 0.452077 0.44444
1454 4 0.342064 0.482438 0.490846
587 4 0.41539 0.437013 0.427608
588 4 0.367543 0.440357 0.441755
586 2 0.391467 0.438685 0.434681
1401 4 0.363404 0.492496 0.455686
1126 2 0.0264077 0.0536801 0.527721
1127 4 0.0277036 0.0591194 0.503351
1128 4 0.0251119 0.0482409 0.552092
2236 2 0.00610566 0.00573779 0.506077
1058 4 0.129633 0.0781203 0.537031
1030 2 0.247771 0.065171 0.576111
961 2 0.297508 0.0238096 0.513605
963 4 0.295218 0.0474528 0.505799
430 2 0.316179 0.0827289 0.509181
1031 4 0.256206 0.0417498 0.573769
1217 4 0.411167 0.0531458 0.530954
841 2 0.373342 0.0768783 0.521828
842 4 0.39415 0.0637951 0.526416
1216 2 0.41928 0.0327251 0.542885
1218 4 0.427393 0.0123044 0.554817
1062 4 0.484911 0.00905874 0.533463
1057 2 0.136991 0.0843091 0.560113
937 2 0.102763 0.145285 0.577777
939 4 0.112842 0.122565 0.575053
1151 4 0.144554 0.103542 0.525413
938 4 0.0926842 0.168004 0.580502
1059 4 0.144348 0.090498 0.583194
1152 4 0.190269 0.0959202 0.50663
1150 2 0.167411 0.099731 0.516021
898 2 0.321815 0.142322 0.567059
431 4 0.33435 0.0984855 0.516016
843 4 0.352534 0.0899616 0.517241
900 4 0.334336 0.147729 0.546103
877 2 0.0688153 0.212286 0.576612
878 4 0.0500539 0.20643 0.561156
1199 4 0.00829819 0.197841 0.55825
858 4 0.240689 0.235002 0.554386
797 4 0.23457 0.233772 0.572716
857 4 0.252459 0.189629 0.536966
856 2 0.246574 0.212315 0.545676
791 4 0.331259 0.248556 0.57642
872 4 0.413715 0.249889 0.51699
3159 4 0.480735 0.193143 0.532313
983 4 0.0380354 0.323076 0.574621
1258 2 0.151115 0.279943 0.524243
1260 4 0.141396 0.286973 0.502305
696 4 0.126664 0.272547 0.503395
1259 4 0.160834 0.272913 0.546182
9 3 0.156738 0.342207 0.512515
1136 4 0.116486 0.326636 0.584265
812 4 0.324456 0.306011 0.510781
811 2 0.336847 0.284629 0.51458
813 4 0.349238 0.263247 0.518379
871 2 0.390071 0.256184 0.511837
873 4 0.366428 0.262479 0.506684
953 4 0.436814 0.318789 0.564621
1137 4 0.132419 0.371768 0.569777
1135 2 0.124453 0.349202 0.577021
1189 2 0.236142 0.357018 0.558532
773 4 0.249499 0.400646 0.499114
896 4 0.195146 0.347692 0.573807
1191 4 0.21415 0.35198 0.569309
895 2 0.177859 0.365276 0.577946
1190 4 0.258134 0.362057 0.547755
802 2 0.268334 0.392786 0.524164
803 4 0.271673 0.375265 0.541686
804 4 0.264995 0.410307 0.506641
928 2 0.352144 0.394651 0.567297
929 4 0.346311 0.39242 0.543086
925 2 0.47844 0.380073 0.526063
927 4 0.478962 0.404458 0.531566
926 4 0.477917 0.355688 0.52056
539 4 0.0706689 0.50091 0.50425
934 2 0.00638198 0.452406 0.498035
935 4 0.999143 0.430106 0.489347
936 4 0.0136212 0.474707 0.506723
1159 2 0.150111 0.453922 0.58673
1161 4 0.172978 0.445141 0.581714
1171 2 0.240205 0.457841 0.549396
1173 4 0.234925 0.481905 0.545131
1172 4 0.245486 0.433776 0.553661
882 4 0.303588 0.447178 0.528472
880 2 0.311993 0.468478 0.538514
881 4 0.320398 0.489778 0.548556
1952 4 0.333432 0.50276 0.557973
1951 2 0.336155 0.495557 0.581761
1910 4 0.45176 0.487934 0.569232
1002 4 0.436803 0.465011 0.570561
1000 2 0.430095 0.448935 0.552624
1001 4 0.423386 0.432859 0.534687
661 2 0.475989 0.481704 0.529419
663 4 0.461613 0.462698 0.536986
945 4 0.0710084 0.014146 0.63885
944 4 0.0532019 0.0551911 0.661187
943 2 0.0621051 0.0346686 0.650018
1185 4 0.99655 0.0492882 0.617019
1183 2 0.00561233 0.0487662 0.640317
1076 4 0.0520172 0.0740401 0.665637
1184 4 0.0146747 0.0482443 0.663615
825 4 0.13091 0.0287784 0.622316
823 2 0.137355 0.00482645 0.619162
1283 4 0.180927 0.0780707 0.64537
951 4 0.259057 0.0381342 0.593475
949 2 0.269494 0.0155353 0.591119
808 2 0.471934 0.0871689 0.627507
810 4 0.45627 0.0763905 0.643745
45 3 0.441654 0.0707451 0.657016
1083 4 0.0566097 0.128825 0.610627
1082 4 0.0435757 0.0967117 0.646676
1081 2 0.0500927 0.112768 0.628652
1153 2 0.160734 0.132615 0.588719
1155 4 0.154904 0.108352 0.587145
909 4 0.16778 0.157907 0.6487
1032 4 0.239337 0.0885921 0.578452
1284 4 0.172157 0.117804 0.6163
1154 4 0.166564 0.156878 0.590293
1282 2 0.176542 0.0979375 0.630835
1221 4 0.18452 0.165536 0.589876
899 4 0.309294 0.136916 0.588016
809 4 0.487597 0.0979473 0.611269
3008 4 0.504123 0.101282 0.600627
1244 4 0.0425205 0.228359 0.647473
1243 2 0.0427295 0.253185 0.650436
1208 4 0.0776344 0.242655 0.658024
879 4 0.0875768 0.218141 0.592068
1272 4 0.100622 0.216051 0.605459
1270 2 0.111201 0.201905 0.623155
1271 4 0.121781 0.187759 0.64085
1212 4 0.202768 0.170587 0.654366
1210 2 0.221872 0.182691 0.66503
1219 2 0.193645 0.170468 0.612626
1220 4 0.202769 0.1754 0.635377
796 2 0.243059 0.234278 0.596229
798 4 0.251549 0.234784 0.619742
1193 4 0.355658 0.209586 0.672822
904 2 0.493911 0.217587 0.609024
906 4 0.475781 0.225577 0.624276
1024 2 0.435245 0.207296 0.642011
1025 4 0.446562 0.228731 0.648149
1026 4 0.423928 0.185862 0.635874
3122 4 0.495246 0.246604 0.664383
982 2 0.0216991 0.32918 0.592539
1245 4 0.0429386 0.278012 0.653399
3263 4 0.996815 0.3298 0.627978
1207 2 0.100563 0.252198 0.660923
1209 4 0.123491 0.261741 0.663822
948 4 0.175107 0.291067 0.62689
946 2 0.197139 0.280925 0.620816
947 4 0.219172 0.270783 0.614743
790 2 0.313468 0.261263 0.588552
792 4 0.295677 0.273971 0.600684
1238 4 0.290841 0.292609 0.604631
1237 2 0.27773 0.313892 0.604043
1239 4 0.264619 0.335174 0.603455
954 4 0.427157 0.294608 0.607315
952 2 0.431986 0.306698 0.585968
3123 4 0.473254 0.284668 0.640546
3121 2 0.48425 0.265636 0.652465
984 4 0.0053628 0.335284 0.610457
1040 4 0.0818851 0.414634 0.627754
993 4 0.0876444 0.412568 0.646704
897 4 0.160572 0.38286 0.582085
992 4 0.129237 0.392582 0.627435
991 2 0.108441 0.402575 0.637069
806 4 0.337637 0.356029 0.670015
930 4 0.357978 0.396883 0.591508
1204 2 0.384238 0.393509 0.625211
1206 4 0.3753 0.400951 0.603077
1205 4 0.393177 0.386067 0.647345
1039 2 0.0587863 0.418891 0.61918
1041 4 0.0356876 0.423148 0.610607
1160 4 0.127244 0.462704 0.591746
2172 4 0.111491 0.49137 0.652078
889 2 0.317867 0.447171 0.610085
891 4 0.301849 0.464884 0.61749
890 4 0.333886 0.429458 0.602679
1953 4 0.338878 0.488353 0.60555
1269 4 0.426588 0.496852 0.628249
1267 2 0.421091 0.498506 0.652584
1163 4 0.481834 0.0459945 0.693639
42 3 0.436032 0.0580251 0.691649
2321 4 0.491171 0.023596 0.747053
41 1 0.43723 0.0768628 0.678502
862 2 0.0361249 0.097251 0.741759
864 4 0.0447341 0.106379 0.720132
1075 2 0.0424287 0.0867388 0.684924
1077 4 0.0328402 0.0994376 0.704211
1105 2 0.0756137 0.163683 0.740523
907 2 0.166001 0.141737 0.667688
908 4 0.164222 0.125567 0.686676
1227 4 0.172107 0.134702 0.703058
1148 4 0.209872 0.097796 0.73369
1225 2 0.190046 0.12623 0.718277
1226 4 0.207986 0.117759 0.733495
1005 4 0.33439 0.0866758 0.66746
829 2 0.324216 0.162006 0.714024
1004 4 0.363932 0.118777 0.691903
1003 2 0.349161 0.102726 0.679682
831 4 0.345392 0.152709 0.723528
43 3 0.416918 0.0880326 0.67953
44 3 0.454196 0.0905238 0.686497
3425 4 0.499852 0.104379 0.685164
851 4 0.0660807 0.183562 0.706977
852 4 0.0370316 0.223315 0.715726
850 2 0.0515561 0.203438 0.711352
1107 4 0.0633619 0.166196 0.718873
1178 4 0.018748 0.232472 0.71389
1215 4 0.00204266 0.228193 0.724577
1177 2 0.00604917 0.246498 0.697544
1213 2 0.997999 0.21106 0.742333
1211 4 0.240977 0.194794 0.675693
830 4 0.30304 0.171303 0.70452
886 2 0.279697 0.191681 0.697528
888 4 0.261411 0.19565 0.680943
887 4 0.297983 0.187712 0.714113
1142 4 0.386656 0.177108 0.729456
1192 2 0.368804 0.216844 0.692814
1194 4 0.381949 0.224103 0.712806
1262 4 0.410854 0.223628 0.730989
1141 2 0.409092 0.183361 0.72036
3356 4 0.484732 0.237704 0.730363
3355 2 0.483717 0.242243 0.705796
1143 4 0.431527 0.189614 0.711264
1261 2 0.428127 0.240506 0.737466
1145 4 0.490422 0.220459 0.73611
1144 2 0.490059 0.19934 0.749492
3357 4 0.482702 0.246782 0.681229
821 4 0.153045 0.264933 0.724916
820 2 0.16544 0.265728 0.746616
1065 4 0.225267 0.287726 0.721469
1063 2 0.24609 0.277518 0.712122
1064 4 0.266914 0.26731 0.702775
917 4 0.307183 0.273059 0.751368
1263 4 0.445399 0.257384 0.743944
3274 2 0.0175812 0.38052 0.729107
892 2 0.0639869 0.408356 0.7
894 4 0.0414999 0.397697 0.697569
3276 4 0.0350311 0.38692 0.712382
940 2 0.14012 0.411957 0.732113
941 4 0.164463 0.416262 0.728363
942 4 0.115777 0.407653 0.735864
815 4 0.107483 0.390988 0.744266
1067 4 0.166261 0.412576 0.709605
1028 4 0.217541 0.375913 0.681897
1066 2 0.183063 0.397183 0.699313
1068 4 0.199864 0.381789 0.68902
1027 2 0.241882 0.381386 0.683553
1029 4 0.266223 0.386859 0.685208
1139 4 0.281741 0.410736 0.698932
807 4 0.362861 0.354146 0.713153
805 2 0.350249 0.355087 0.691584
1019 4 0.399953 0.395372 0.730287
1018 2 0.384907 0.38266 0.745688
893 4 0.0864739 0.419014 0.70243
1281 4 0.0168712 0.459888 0.742574
1280 4 0.028253 0.438038 0.699057
1279 2 0.0225621 0.448963 0.720815
1983 4 0.025334 0.478181 0.741757
2016 4 0.128424 0.499299 0.739941
1176 4 0.181587 0.484509 0.722334
1174 2 0.199681 0.48389 0.705089
1175 4 0.217775 0.48327 0.687844
1138 2 0.292169 0.431887 0.707243
1140 4 0.302598 0.453037 0.715555
1228 2 0.344888 0.445985 0.716689
1229 4 0.346142 0.470791 0.713814
1230 4 0.343633 0.421179 0.719564
1989 4 0.335855 0.482958 0.726041
3329 4 0.491063 0.482288 0.745082
1100 4 0.477065 0.432075 0.701729
1099 2 0.470518 0.455586 0.696296
1101 4 0.463971 0.479098 0.690864
1268 4 0.415593 0.50016 0.67692
2168 4 0.449589 0.493049 0.696763
911 4 0.0928767 0.0500597 0.815485
1294 2 0.00581965 0.0199884 0.819274
1202 4 0.0902229 0.0250509 0.765901
1203 4 0.0865122 0.0744295 0.772879
1201 2 0.0883676 0.0497402 0.76939
2049 4 0.094016 0.00774574 0.775095
1149 4 0.20835 0.0817005 0.781012
1255 2 0.282527 0.0735568 0.814028
1256 4 0.287872 0.049267 0.811455
975 4 0.37958 0.00639629 0.820431
846 4 0.47211 0.0450352 0.782764
1113 4 0.444172 0.0566264 0.796743
844 2 0.466075 0.0208141 0.781317
1111 2 0.452864 0.0686922 0.816843
863 4 0.0275157 0.0881227 0.763386
832 2 0.00152868 0.0994425 0.794431
833 4 0.0178747 0.101635 0.775638
34 3 0.0976864 0.156377 0.810616
31 1 0.103188 0.161142 0.788583
33 3 0.10697 0.141441 0.776924
1106 4 0.0878656 0.16117 0.762174
1147 2 0.209111 0.0897483 0.757351
1130 4 0.193307 0.158017 0.765248
1257 4 0.277182 0.0978466 0.816602
839 4 0.272688 0.13332 0.787316
838 2 0.259017 0.143139 0.805805
840 4 0.245346 0.152959 0.824295
960 4 0.29524 0.159108 0.83153
1084 2 0.344527 0.133745 0.804084
1085 4 0.338882 0.114924 0.819547
1086 4 0.350172 0.152565 0.788621
819 4 0.354246 0.101788 0.815494