ITEM: TIMESTEP
1440000
ITEM: NUMBER OF ATOMS
4590
ITEM: BOX BOUNDS pp pp pp
-9.9985700000000008e+00 9.9985700000000008e+00
-9.9985700000000008e+00 9.9985700000000008e+00
-9.9985700000000008e+00 9.9985700000000008e+00
ITEM: ATOMS id type xs ys zs
463 2 0.0661538 0.0688553 0.0257451
464 4 0.0673115 0.0447334 0.0192665
1668 4 0.0564558 0.00196373 0.0398418
1666 2 0.0588065 0.0124862 0.0624013
591 4 0.0543882 0.0771869 0.0665424
3290 4 0.0596057 0.0276991 0.0114316
589 2 0.0396362 0.0798428 0.086555
1476 4 0.222548 0.0335209 0.0537523
1474 2 0.245617 0.024132 0.0515511
490 2 0.284204 0.0199181 0.0107315
492 4 0.281934 0.0120418 0.0343534
1475 4 0.268686 0.0147432 0.0493499
986 4 0.333754 0.0443747 0.034603
985 2 0.346005 0.032061 0.0166181
745 2 0.461877 0.0674429 0.0292406
747 4 0.474313 0.0537372 0.0460536
2724 4 0.481158 0.0447169 0.0634258
1826 4 0.490719 0.030046 0.0543053
1825 2 0.496318 0.00688467 0.0618808
465 4 0.0649962 0.0929773 0.0322236
701 4 0.0604794 0.112401 0.0291983
700 2 0.0424373 0.129068 0.0338756
702 4 0.0243952 0.145735 0.038553
2760 4 0.00706687 0.137942 0.0390369
567 4 0.189582 0.105028 0.047608
565 2 0.182002 0.0917169 0.0673697
1133 4 0.208013 0.145303 0.0124898
360 4 0.219048 0.138697 0.027198
358 2 0.241041 0.128038 0.0324792
359 4 0.263033 0.11738 0.0377605
746 4 0.449441 0.0811486 0.0124275
553 2 0.0389805 0.194204 0.0278698
422 4 0.0667869 0.16197 0.0403532
555 4 0.0519153 0.176364 0.0396845
554 4 0.0260457 0.212045 0.016055
423 4 0.111455 0.184221 0.0371381
421 2 0.089121 0.173095 0.0387456
506 4 0.18403 0.238536 0.0346491
737 4 0.184993 0.220371 0.0419895
736 2 0.201453 0.207097 0.0553323
354 4 0.227 0.178827 0.0595153
738 4 0.217912 0.193822 0.0686751
353 4 0.276109 0.18611 0.0535223
461 4 0.284686 0.201732 0.0629471
352 2 0.251554 0.182468 0.0565188
323 4 0.402723 0.25591 0.0310371
1069 2 0.38865 0.2429 0.996896
322 2 0.426489 0.254868 0.0387345
324 4 0.450256 0.253827 0.0464319
1170 4 0.050183 0.32553 0.011615
1056 4 0.0608169 0.315146 0.0233683
2808 4 0.0046674 0.300478 0.07973
1054 2 0.060402 0.293405 0.0110249
292 2 0.169464 0.327335 0.0413858
293 4 0.174496 0.303644 0.0475955
505 2 0.177217 0.262185 0.0390642
507 4 0.170405 0.285834 0.0434792
481 2 0.297225 0.288139 0.0112731
482 4 0.308642 0.269733 0.0237649
1071 4 0.40322 0.258361 0.0100821
573 4 0.384606 0.266199 0.0324712
571 2 0.378031 0.281156 0.0513984
572 4 0.371456 0.296113 0.0703256
741 4 0.355584 0.30153 0.0802833
1168 2 0.04689 0.350305 0.010902
1169 4 0.043597 0.375081 0.0101891
294 4 0.164432 0.351027 0.035176
456 4 0.158112 0.35594 0.0546411
454 2 0.157831 0.380784 0.0574481
455 4 0.15755 0.405628 0.0602551
607 2 0.241813 0.355667 0.0790944
252 4 0.243482 0.389347 0.0558189
608 4 0.25225 0.371732 0.0630269
250 2 0.264429 0.402155 0.0510945
523 2 0.314727 0.414645 0.0845212
251 4 0.285377 0.414964 0.04637
671 4 0.406276 0.356639 0.0665413
226 2 0.416155 0.404973 0.0184627
228 4 0.400083 0.416603 0.0336812
227 4 0.432227 0.393343 0.00324418
281 4 0.425532 0.362254 0.0702758
280 2 0.447506 0.357337 0.0594056
282 4 0.46948 0.35242 0.0485354
104 3 0.477523 0.343065 0.0640161
550 2 0.0127271 0.473316 0.0298896
552 4 0.0240304 0.453992 0.0410266
314 4 0.0345326 0.458462 0.0565768
313 2 0.0440459 0.441865 0.0726761
1440 4 0.250037 0.502405 0.0695818
525 4 0.309326 0.438908 0.0818107
1558 2 0.324551 0.49851 0.0867944
272 4 0.264929 0.491835 0.0509265
40 3 0.337854 0.45657 0.000209878
1667 4 0.0611573 0.0230087 0.0849608
19 3 0.0362393 0.0328144 0.135437
20 3 0.0539158 0.999806 0.131485
1422 4 0.0180656 0.028451 0.146603
16 1 0.0547571 0.0220219 0.126547
17 3 0.0546779 0.0247148 0.103702
2480 4 0.0179667 0.0456647 0.131432
18 3 0.0742136 0.0313077 0.135128
1420 2 0.0172955 0.00968502 0.163108
450 4 0.136433 0.0603022 0.174631
652 2 0.242178 0.0471905 0.145116
1661 4 0.307015 0.00366003 0.137458
654 4 0.246151 0.0413621 0.121128
484 2 0.332261 0.0251615 0.114972
486 4 0.32598 0.00553796 0.129137
297 4 0.357269 0.0522453 0.103209
485 4 0.338542 0.0447851 0.100807
295 2 0.37096 0.0700993 0.114117
2722 2 0.472935 0.0500364 0.0864314
2723 4 0.464711 0.0553559 0.109437
590 4 0.0248842 0.0824987 0.106568
566 4 0.174421 0.0784057 0.0871314
582 4 0.32733 0.0994773 0.138423
580 2 0.31687 0.104189 0.16064
296 4 0.38465 0.0879534 0.125025
557 4 0.394958 0.0968686 0.110882
556 2 0.408346 0.109913 0.127489
558 4 0.421734 0.122957 0.144095
758 4 0.369965 0.111545 0.1685
771 4 0.448177 0.155858 0.0961943
477 4 0.151691 0.217905 0.125079
475 2 0.160421 0.225624 0.147201
460 2 0.299676 0.20069 0.0829317
277 2 0.289425 0.235638 0.134953
278 4 0.292363 0.237612 0.110201
462 4 0.314666 0.199648 0.102916
279 4 0.286487 0.233663 0.159705
255 4 0.327139 0.231514 0.0874811
755 4 0.310341 0.242151 0.0990493
254 4 0.374922 0.218992 0.0952744
630 4 0.390886 0.219037 0.0830069
253 2 0.351031 0.225253 0.0913777
628 2 0.4077 0.230368 0.0976393
769 2 0.457928 0.174507 0.109697
770 4 0.467678 0.193157 0.123199
624 4 0.444693 0.240851 0.110954
629 4 0.424513 0.241698 0.112272
622 2 0.449558 0.254118 0.131582
339 4 0.106036 0.253771 0.155737
338 4 0.0908314 0.277395 0.114367
337 2 0.0984336 0.265583 0.135052
611 4 0.249244 0.325482 0.158364
754 2 0.309243 0.265752 0.0908669
756 4 0.308145 0.289354 0.0826845
739 2 0.355618 0.321465 0.095376
596 4 0.458359 0.320188 0.135265
623 4 0.454423 0.267386 0.152209
619 2 0.0499162 0.407162 0.119651
620 4 0.0588052 0.389265 0.13468
647 4 0.0784925 0.387191 0.136595
646 2 0.0964495 0.385629 0.153924
535 2 0.147319 0.358703 0.145639
537 4 0.127131 0.348835 0.156605
610 2 0.238216 0.32818 0.136086
612 4 0.227188 0.330878 0.113809
609 4 0.231376 0.339602 0.0951619
536 4 0.167508 0.36857 0.134673
524 4 0.320128 0.390383 0.0872318
387 4 0.346429 0.398417 0.138347
302 4 0.341926 0.395301 0.157241
740 4 0.355651 0.341399 0.110469
385 2 0.349551 0.373983 0.134056
386 4 0.352672 0.349549 0.129765
12 3 0.393375 0.365153 0.12848
11 1 0.405536 0.374922 0.145386
15 3 0.392128 0.377816 0.163566
672 4 0.400516 0.374424 0.112923
670 2 0.403396 0.365531 0.0897321
14 3 0.413448 0.395458 0.138034
495 4 0.427146 0.405242 0.126669
595 2 0.443793 0.332857 0.151155
597 4 0.429226 0.345526 0.167045
13 3 0.423334 0.361054 0.150803
621 4 0.0410273 0.425058 0.104622
315 4 0.0535592 0.425267 0.0887754
626 4 0.151211 0.447222 0.121592
625 2 0.174847 0.445645 0.129594
627 4 0.198483 0.444069 0.137596
638 4 0.212811 0.458743 0.137164
637 2 0.232788 0.470519 0.146515
1438 2 0.247627 0.49094 0.0916708
1439 4 0.245217 0.479475 0.11376
639 4 0.252764 0.482296 0.155866
1559 4 0.341023 0.480702 0.0928563
301 2 0.340423 0.418229 0.167101
1583 4 0.478417 0.496133 0.123902
494 4 0.445997 0.45154 0.128026
493 2 0.436572 0.428391 0.127347
653 4 0.238205 0.0530188 0.169104
693 4 0.237271 0.0400021 0.183569
691 2 0.255591 0.0316504 0.198395
692 4 0.273911 0.0232986 0.213221
1700 4 0.330653 0.0502764 0.226354
1699 2 0.309449 0.0370276 0.22656
1701 4 0.288245 0.0237788 0.226767
21 1 0.36194 0.0670115 0.231095
25 3 0.366069 0.057998 0.210593
759 4 0.370056 0.068223 0.193478
23 3 0.339333 0.0653664 0.236059
22 3 0.373903 0.0554699 0.246995
511 2 0.00934207 0.166294 0.19007
449 4 0.127635 0.105065 0.195115
448 2 0.132034 0.0826836 0.184873
236 4 0.139059 0.112307 0.180865
235 2 0.131248 0.136059 0.180976
579 4 0.0858165 0.162846 0.223147
581 4 0.306411 0.108901 0.182856
28 3 0.272277 0.140862 0.186722
30 3 0.291016 0.109316 0.195169
26 1 0.278097 0.12606 0.203617
29 3 0.289615 0.137272 0.220351
27 3 0.258907 0.117053 0.212549
757 2 0.37001 0.0898839 0.180989
24 3 0.368526 0.089258 0.231436
312 4 0.414669 0.168129 0.19658
310 2 0.433903 0.152195 0.197752
311 4 0.453137 0.136262 0.198923
578 4 0.0402635 0.166376 0.20282
513 4 0.0332927 0.170702 0.184403
577 2 0.06304 0.164611 0.212984
529 2 0.0114028 0.212346 0.231138
530 4 0.0315119 0.215051 0.245749
237 4 0.123437 0.159811 0.181086
476 4 0.169152 0.233344 0.169323
372 4 0.167018 0.238459 0.188958
283 2 0.2864 0.237454 0.192463
285 4 0.272449 0.228364 0.17381
284 4 0.30035 0.246543 0.211116
522 4 0.498174 0.19626 0.247509
520 2 0.473358 0.199286 0.247966
396 4 0.0750112 0.282706 0.222901
443 4 0.0767339 0.273248 0.240014
394 2 0.0828523 0.270336 0.202635
395 4 0.0906935 0.257967 0.18237
363 4 0.107063 0.264225 0.172334
361 2 0.130038 0.257881 0.179889
362 4 0.153013 0.251537 0.187444
370 2 0.180356 0.248687 0.207469
371 4 0.193693 0.258915 0.22598
343 2 0.299392 0.319231 0.230743
345 4 0.30054 0.321355 0.205857
527 4 0.467853 0.257758 0.164692
526 2 0.460152 0.27095 0.184487
528 4 0.452452 0.284142 0.204282
264 4 0.0394221 0.394116 0.19771
648 4 0.114407 0.384067 0.171253
300 4 0.123343 0.39938 0.179436
298 2 0.122265 0.397141 0.204315
299 4 0.121187 0.394902 0.229195
643 2 0.434076 0.379607 0.191631
644 4 0.436757 0.391096 0.213676
645 4 0.431394 0.368119 0.169585
447 4 0.433117 0.38842 0.23311
445 2 0.434694 0.411878 0.241622
263 4 0.0592516 0.4388 0.20824
262 2 0.0493368 0.416458 0.202975
417 4 0.161755 0.479243 0.20076
1430 4 0.162164 0.494047 0.186993
290 4 0.214227 0.436586 0.210009
416 4 0.198436 0.445255 0.201056
415 2 0.180095 0.462249 0.200908
289 2 0.218384 0.443015 0.233812
768 4 0.211092 0.499314 0.203266
303 4 0.338921 0.441157 0.176962
659 4 0.34591 0.458751 0.180368
658 2 0.337209 0.478977 0.192216
712 2 0.404259 0.458345 0.249703
713 4 0.379691 0.462892 0.248739
446 4 0.436271 0.435335 0.250133
232 2 0.0424673 0.0356537 0.290993
234 4 0.0373628 0.057291 0.27955
317 4 0.0414537 0.077338 0.276587
233 4 0.0475717 0.0140165 0.302437
675 4 0.132148 0.00381288 0.267877
723 4 0.229526 0.0630533 0.265528
697 2 0.377734 0.0298534 0.281786
699 4 0.380715 0.00898897 0.295239
698 4 0.374752 0.0507178 0.268334
333 4 0.383802 0.0703446 0.260823
331 2 0.407849 0.076613 0.26358
743 4 0.469499 0.0290332 0.290207
742 2 0.473798 0.0109788 0.273452
351 4 0.471242 0.0448618 0.299923
349 2 0.460774 0.0645343 0.288584
332 4 0.431897 0.0828814 0.266336
316 2 0.0416591 0.0980608 0.290576
318 4 0.0418646 0.118784 0.304565
393 4 0.144326 0.149605 0.325652
391 2 0.15839 0.153889 0.305428
399 4 0.130624 0.135964 0.332286
722 4 0.231134 0.112758 0.27078
546 4 0.223952 0.128109 0.258304
545 4 0.178752 0.145771 0.270378
721 2 0.23033 0.0879056 0.268154
544 2 0.201352 0.13694 0.264341
599 4 0.20766 0.129074 0.305306
404 4 0.221472 0.142879 0.304879
598 2 0.199184 0.125177 0.328503
392 4 0.172455 0.158173 0.285204
762 4 0.408418 0.115655 0.306172
760 2 0.427523 0.129057 0.297196
350 4 0.450305 0.0842067 0.277244
761 4 0.446628 0.142458 0.28822
257 4 0.459967 0.109265 0.326697
403 2 0.228413 0.166615 0.30119
401 4 0.248625 0.204753 0.292408
400 2 0.229314 0.220321 0.295556
402 4 0.210003 0.235889 0.298704
405 4 0.235353 0.190351 0.297502
765 4 0.395343 0.192189 0.280355
763 2 0.415472 0.190137 0.265666
521 4 0.448543 0.202312 0.248423
764 4 0.435602 0.188085 0.250977
442 2 0.0699998 0.293463 0.253097
444 4 0.0632658 0.313679 0.26618
344 4 0.298245 0.317107 0.25563
309 4 0.291789 0.315786 0.274289
615 4 0.408613 0.323955 0.321984
543 4 0.421472 0.307157 0.322051
541 2 0.434873 0.300339 0.302073
542 4 0.448273 0.293521 0.282094
748 2 0.0831634 0.360649 0.259403
749 4 0.05978 0.358527 0.267999
365 4 0.00535258 0.375825 0.30866
364 2 0.0257968 0.367738 0.296751
366 4 0.046241 0.359651 0.284843
549 4 0.0466058 0.392314 0.324709
734 4 0.115079 0.351499 0.26586
750 4 0.106547 0.362771 0.250807
733 2 0.137649 0.343932 0.273508
735 4 0.16022 0.336366 0.281157
601 2 0.0916914 0.391828 0.325033
603 4 0.0813829 0.369625 0.330127
602 4 0.102 0.414031 0.319939
777 4 0.105148 0.41048 0.300605
676 2 0.168324 0.365207 0.312744
677 4 0.168546 0.346352 0.296324
678 4 0.168102 0.384062 0.329164
307 2 0.305131 0.334398 0.284329
308 4 0.318472 0.35301 0.294368
729 4 0.326759 0.356899 0.312789
727 2 0.319218 0.380375 0.316936
728 4 0.311678 0.403851 0.321083
497 4 0.325179 0.346948 0.329945
613 2 0.404637 0.346842 0.331232
1757 4 0.104791 0.466944 0.278116
1756 2 0.0982695 0.490063 0.285054
776 4 0.119117 0.452387 0.277167
775 2 0.112132 0.431434 0.288886
291 4 0.222542 0.449443 0.257614
1545 4 0.210027 0.468997 0.33025
414 4 0.206656 0.43752 0.266086
413 4 0.178918 0.455932 0.303401
412 2 0.192787 0.446726 0.284744
1543 2 0.200917 0.491921 0.334335
1436 4 0.220116 0.470818 0.313372
1435 2 0.244326 0.464778 0.311759
434 4 0.328837 0.418716 0.323419
438 4 0.32468 0.486235 0.278631
437 4 0.289672 0.468383 0.309558
436 2 0.307176 0.477309 0.294094
1437 4 0.268535 0.458738 0.310147
5 3 0.285089 0.45364 0.324546
2 3 0.308684 0.425434 0.318174
433 2 0.352901 0.425293 0.321738
435 4 0.376965 0.43187 0.320057
714 4 0.428826 0.453798 0.250667
2861 4 0.491569 0.473831 0.277755
1376 4 0.00226999 0.00035351 0.394188
2757 4 0.0107013 0.0589422 0.366057
2585 4 0.0121713 0.0754883 0.376682
429 4 0.0818227 0.998404 0.358221
427 2 0.0825462 0.0174071 0.374455
428 4 0.0832698 0.0364099 0.390689
606 4 0.128388 0.0383849 0.388954
731 4 0.112487 0.0489472 0.38818
730 2 0.10742 0.0665263 0.371136
604 2 0.143184 0.0223571 0.376732
605 4 0.15798 0.00632938 0.364511
368 4 0.0966487 0.043842 0.401822
682 2 0.229659 0.0600679 0.38893
684 4 0.222497 0.0480131 0.368229
683 4 0.236821 0.0721227 0.409632
249 4 0.304067 0.0649366 0.3473
439 2 0.261565 0.0107199 0.404661
247 2 0.31789 0.0824328 0.358613
441 4 0.268271 0.0326533 0.414617
425 4 0.40539 0.0348961 0.369271
424 2 0.426404 0.0484461 0.369306
480 4 0.490207 0.0113302 0.336056
426 4 0.447418 0.0619962 0.36934
258 4 0.439099 0.0717522 0.35235
2878 2 0.485484 0.0754339 0.415546
2584 2 0.0115149 0.0833397 0.400412
397 2 0.123364 0.116757 0.346553
732 4 0.102353 0.0841054 0.354093
398 4 0.116105 0.0975499 0.360821
600 4 0.190707 0.12128 0.351701
685 2 0.175977 0.154679 0.378702
687 4 0.183259 0.136248 0.363456
321 4 0.261485 0.111468 0.384518
319 2 0.25487 0.105513 0.407883
248 4 0.331714 0.0999289 0.369925
633 4 0.349719 0.103266 0.36109
632 4 0.382938 0.140523 0.358068
631 2 0.366329 0.121895 0.359579
420 4 0.396086 0.142416 0.372769
256 2 0.449533 0.0905084 0.339524
453 4 0.496736 0.162031 0.418821
686 4 0.168696 0.17311 0.393949
274 2 0.146875 0.235844 0.362232
276 4 0.128587 0.25166 0.368604
275 4 0.165162 0.220028 0.35586
389 4 0.113727 0.242234 0.356786
474 4 0.182046 0.223809 0.34544
472 2 0.203283 0.210827 0.347809
473 4 0.224521 0.197844 0.350177
708 4 0.243002 0.206751 0.351958
706 2 0.26149 0.205648 0.368756
707 4 0.279978 0.204545 0.385553
419 4 0.385909 0.190076 0.383977
716 4 0.37451 0.206999 0.377234
715 2 0.360681 0.227101 0.371768
717 4 0.346852 0.247202 0.366303
418 2 0.390998 0.166246 0.378373
270 4 0.486872 0.244021 0.405395
2654 4 0.0190694 0.257559 0.361971
617 4 0.0677875 0.255184 0.387592
618 4 0.0180475 0.254793 0.382445
616 2 0.0429175 0.254989 0.385019
390 4 0.0735883 0.271154 0.349489
388 2 0.0936578 0.256694 0.353138
374 4 0.238428 0.331498 0.348115
510 4 0.251573 0.330127 0.363443
508 2 0.271402 0.316113 0.369409
509 4 0.29123 0.302098 0.375375
498 4 0.310757 0.302232 0.347068
378 4 0.3023 0.292888 0.362782
496 2 0.317968 0.32459 0.338507
376 2 0.31478 0.271221 0.362915
377 4 0.327259 0.249555 0.363049
267 4 0.354809 0.285556 0.401287
265 2 0.363309 0.264366 0.411481
269 4 0.481059 0.261942 0.359073
268 2 0.483965 0.252982 0.382234
547 2 0.041745 0.404129 0.346202
502 2 0.214215 0.409176 0.385424
504 4 0.220311 0.397035 0.364433
373 2 0.232736 0.355147 0.353904
375 4 0.227044 0.378796 0.359694
614 4 0.400661 0.36973 0.34048
2923 2 0.500988 0.373586 0.358114
2924 4 0.494433 0.384222 0.336456
561 4 0.463546 0.404736 0.408262
548 4 0.0368842 0.415944 0.367695
408 4 0.0677501 0.450592 0.407656
407 4 0.0304701 0.43069 0.38092
406 2 0.0491101 0.440641 0.394288
503 4 0.208119 0.421317 0.406414
636 4 0.197704 0.438421 0.401737
3 3 0.280393 0.420876 0.342495
1 1 0.295863 0.435991 0.33409
668 4 0.311113 0.43356 0.368623
4 3 0.309717 0.443453 0.351142
667 2 0.330428 0.427867 0.383446
669 4 0.349742 0.422175 0.398269
336 4 0.363334 0.428673 0.413488
752 4 0.462194 0.422329 0.397798
594 4 0.445705 0.490009 0.394128
753 4 0.478855 0.423783 0.35067
593 4 0.444131 0.477428 0.345755
751 2 0.470524 0.423056 0.374234
592 2 0.444918 0.483719 0.369941
718 2 0.0586104 0.0295391 0.476588
719 4 0.0668985 0.0299608 0.453002
1127 4 0.0352932 0.0427138 0.501293
367 2 0.0904792 0.0401784 0.425774
369 4 0.0843097 0.0365147 0.449726
2430 4 0.234555 0.0529519 0.468954
2428 2 0.243459 0.0431592 0.44774
340 2 0.202913 0.0759135 0.478681
341 4 0.215895 0.0547571 0.475672
2429 4 0.252363 0.0333664 0.426527
2880 4 0.468587 0.0790689 0.433614
642 4 0.477173 0.0786764 0.451634
2586 4 0.0108585 0.0911911 0.424142
342 4 0.189931 0.0970699 0.481689
1152 4 0.171885 0.100145 0.488521
320 4 0.248254 0.0995585 0.431249
726 4 0.305489 0.0987653 0.457864
410 4 0.271581 0.145887 0.461151
432 4 0.314178 0.102366 0.474383
467 4 0.31452 0.131939 0.45709
724 2 0.280736 0.0999958 0.454554
725 4 0.255983 0.101226 0.451244
430 2 0.318621 0.0838674 0.490608
409 2 0.256867 0.165304 0.455524
466 2 0.338579 0.126659 0.452792
468 4 0.362637 0.121379 0.448494
641 4 0.478401 0.117097 0.48362
640 2 0.477787 0.0978866 0.467627
3158 4 0.49478 0.127787 0.472973
3157 2 0.504481 0.150675 0.475662
469 2 0.0476352 0.230651 0.453405
470 4 0.0238861 0.236358 0.458751
471 4 0.0713843 0.224943 0.448058
260 4 0.0791566 0.208409 0.457924
261 4 0.115679 0.195528 0.489561
259 2 0.0974176 0.201969 0.473742
651 4 0.241138 0.243338 0.44113
411 4 0.242154 0.184722 0.449897
650 4 0.250606 0.194678 0.434548
649 2 0.245872 0.219008 0.437839
576 4 0.413065 0.187879 0.493126
583 2 0.410916 0.244984 0.446277
585 4 0.392069 0.241021 0.430331
266 4 0.371808 0.243176 0.421676
516 4 0.428985 0.171663 0.433557
515 4 0.477488 0.168391 0.421832
574 2 0.41906 0.175934 0.471994
514 2 0.453236 0.170027 0.427695
575 4 0.425056 0.16399 0.450862
348 4 0.00904204 0.329203 0.44572
346 2 0.995132 0.312272 0.433677
695 4 0.117522 0.275686 0.448348
694 2 0.128887 0.267412 0.469026
696 4 0.140252 0.259137 0.489703
488 4 0.300601 0.278018 0.422593
489 4 0.258185 0.254376 0.434538
487 2 0.279393 0.266197 0.428566
306 4 0.493115 0.260136 0.413636
584 4 0.429763 0.248946 0.462223
2457 4 0.480519 0.286303 0.452923
2455 2 0.457235 0.277432 0.455
2456 4 0.43395 0.26856 0.457077
2814 4 0.0251928 0.343947 0.450103
2813 4 0.00540489 0.349449 0.495698
2812 2 0.0152988 0.346698 0.472901
326 4 0.0830826 0.403535 0.448317
709 2 0.152073 0.404554 0.430843
10 3 0.159651 0.349244 0.479953
7 3 0.126334 0.358722 0.466059
327 4 0.119595 0.369428 0.450385
325 2 0.101339 0.386482 0.449351
6 1 0.147248 0.366467 0.471696
8 3 0.157398 0.375147 0.452721
711 4 0.166361 0.384885 0.436687
9 3 0.145025 0.383045 0.487777
334 2 0.367244 0.405904 0.423053
335 4 0.371154 0.383135 0.432617
238 2 0.382253 0.355882 0.452544
240 4 0.388808 0.375328 0.438259
239 4 0.375699 0.336435 0.466829
2508 4 0.49551 0.366551 0.426219
559 2 0.477814 0.40151 0.42854
560 4 0.492083 0.398285 0.448817
1383 4 0.0145465 0.450512 0.477287
1381 2 0.0201374 0.454881 0.501263
679 2 0.0243557 0.477703 0.450578
680 4 0.0220617 0.454979 0.460755
710 4 0.137784 0.424223 0.424999
384 4 0.121858 0.436911 0.482557
568 2 0.131403 0.449612 0.449152
569 4 0.124891 0.454539 0.472785
570 4 0.137914 0.444685 0.42552
772 2 0.199373 0.463798 0.478934
774 4 0.199225 0.464288 0.453935
634 2 0.205017 0.453382 0.420389
635 4 0.212329 0.468342 0.439041
1401 4 0.31944 0.463099 0.479209
586 2 0.392815 0.48874 0.440904
588 4 0.379599 0.46752 0.441364
1399 2 0.339559 0.464129 0.464398
1400 4 0.359677 0.465159 0.449588
1126 2 0.0250935 0.0472786 0.523661
720 4 0.0503224 0.0291173 0.500174
1128 4 0.0148938 0.0518434 0.546029
1059 4 0.118069 0.0663079 0.575658
1057 2 0.100928 0.0487371 0.580416
1058 4 0.083787 0.0311663 0.585174
951 4 0.203484 0.0593872 0.564404
1031 4 0.210517 0.0421205 0.573306
1030 2 0.234769 0.0476186 0.570697
949 2 0.186341 0.074349 0.554039
1182 4 0.250849 0.0722279 0.522984
961 2 0.306505 0.0203191 0.520036
963 4 0.299882 0.0328509 0.499438
1032 4 0.259021 0.0531168 0.568089
1181 4 0.290273 0.0508986 0.500814
2194 2 0.303787 0.00767693 0.574845
1180 2 0.270561 0.0615633 0.511899
431 4 0.323065 0.0653692 0.506833
962 4 0.313127 0.0077874 0.540634
841 2 0.361514 0.0562968 0.518274
843 4 0.341722 0.0700248 0.511565
842 4 0.381305 0.0425688 0.524984
1217 4 0.40089 0.0407 0.519169
4466 4 0.463128 0.0039236 0.560662
1218 4 0.437459 0.070916 0.534995
1216 2 0.419174 0.055808 0.527082
4465 2 0.447984 0.0210057 0.570862
4467 4 0.43284 0.0380879 0.581061
1035 4 0.0529292 0.153912 0.510771
1155 4 0.115171 0.0879048 0.575358
1153 2 0.137838 0.0981373 0.57794
939 4 0.161956 0.157656 0.524875
1151 4 0.1683 0.144386 0.511556
950 4 0.169197 0.0893108 0.543675
1150 2 0.170093 0.122265 0.500038
857 4 0.287926 0.141368 0.549484
899 4 0.304742 0.145876 0.55786
898 2 0.325317 0.160073 0.557301
856 2 0.270713 0.156806 0.558998
1033 2 0.0683286 0.173374 0.507732
1199 4 0.0148014 0.193391 0.567422
877 2 0.08088 0.246308 0.574817
1198 2 0.000154601 0.173705 0.572229
1034 4 0.0837281 0.192837 0.504693
937 2 0.142891 0.170673 0.51527
938 4 0.123827 0.183691 0.505665
858 4 0.2535 0.172245 0.568513
798 4 0.286902 0.228675 0.574684
796 2 0.27066 0.209687 0.575602
797 4 0.254418 0.190699 0.57652
813 4 0.317011 0.230847 0.539463
811 2 0.295748 0.243768 0.541934
873 4 0.331668 0.239445 0.550164
900 4 0.345891 0.17427 0.556742
871 2 0.341029 0.216284 0.551209
872 4 0.350391 0.193123 0.552254
904 2 0.480845 0.245944 0.562634
906 4 0.491089 0.224641 0.554484
878 4 0.069485 0.262201 0.559237
1258 2 0.159256 0.269708 0.519171
1260 4 0.137016 0.266101 0.508327
1259 4 0.181495 0.273314 0.530014
812 4 0.274484 0.256688 0.544406
1204 2 0.387412 0.318284 0.579739
1205 4 0.396895 0.295526 0.583904
952 2 0.435984 0.28673 0.578263
954 4 0.413435 0.29681 0.574379
905 4 0.470601 0.267248 0.570784
1137 4 0.149576 0.354562 0.563705
897 4 0.163871 0.341996 0.57202
383 4 0.114357 0.413117 0.525896
1135 2 0.128375 0.356166 0.576863
895 2 0.18678 0.341212 0.562033
1189 2 0.238257 0.356302 0.543259
896 4 0.209689 0.340428 0.552046
1191 4 0.214006 0.359379 0.548513
1190 4 0.262508 0.353225 0.538004
803 4 0.278327 0.349348 0.527332
802 2 0.288092 0.371496 0.521064
804 4 0.297857 0.393644 0.514795
928 2 0.376296 0.381667 0.560177
929 4 0.38235 0.405146 0.55407
930 4 0.370243 0.358189 0.566284
1206 4 0.377929 0.341041 0.575575
925 2 0.46496 0.389767 0.546253
926 4 0.462394 0.413891 0.552301
927 4 0.467527 0.365642 0.540204
538 2 0.0606049 0.469931 0.535088
540 4 0.0397584 0.456609 0.538713
539 4 0.0814514 0.483252 0.531463
936 4 0.00497704 0.440974 0.571811
1382 4 0.0257282 0.45925 0.525238
1938 4 0.0756495 0.497284 0.517259
382 2 0.118108 0.425014 0.504226
773 4 0.199522 0.463308 0.503932
1172 4 0.242949 0.447401 0.542314
1171 2 0.253241 0.4385 0.563291
882 4 0.261957 0.450517 0.535
880 2 0.278749 0.464033 0.522332
881 4 0.295542 0.477549 0.509663
890 4 0.307469 0.445047 0.590999
1001 4 0.469569 0.43224 0.556907
1000 2 0.476125 0.448111 0.575082
1185 4 0.020948 0.0319388 0.641877
945 4 0.0400296 0.0286058 0.640522
1183 2 0.00629585 0.0514639 0.636467
943 2 0.063744 0.0349217 0.645309
944 4 0.0874585 0.0412376 0.650095
825 4 0.0823251 0.0116356 0.589303
823 2 0.0949146 0.997439 0.605586
2196 4 0.300846 0.0214983 0.595472
1004 4 0.346271 0.0541525 0.621733
1003 2 0.350691 0.0466593 0.645174
2283 4 0.427577 0.0348753 0.601393
2282 4 0.445423 0.0236801 0.646746
2281 2 0.4365 0.0292777 0.624069
43 3 0.454266 0.040808 0.650867
45 3 0.490289 0.0390751 0.64005
41 1 0.476245 0.0451152 0.65693
44 3 0.478866 0.0676666 0.661723
1083 4 0.0650332 0.156922 0.589105
1154 4 0.160506 0.10837 0.580521
1221 4 0.168658 0.108331 0.600012
1219 2 0.173875 0.110654 0.624355
1220 4 0.179093 0.112977 0.648697
1212 4 0.216895 0.14792 0.644285
1210 2 0.236028 0.132838 0.649912
1211 4 0.25516 0.117756 0.655538
888 4 0.26229 0.126212 0.670607
3426 4 0.48468 0.147832 0.643213
1026 4 0.408844 0.161086 0.626729
1082 4 0.0704898 0.187649 0.62818
1081 2 0.0677615 0.172286 0.608642
1272 4 0.0811903 0.219544 0.604168
879 4 0.092275 0.230415 0.590397
1270 2 0.0996075 0.217326 0.620933
1271 4 0.118025 0.215108 0.637698
909 4 0.134656 0.214404 0.626508
907 2 0.156828 0.22593 0.625642
908 4 0.179 0.237456 0.624776
947 4 0.197616 0.240208 0.630802
1142 4 0.337454 0.224397 0.663764
1025 4 0.379301 0.197213 0.644696
1024 2 0.394073 0.179149 0.635713
1141 2 0.361588 0.219442 0.659505
1143 4 0.385723 0.214486 0.655246
3121 2 0.472517 0.24613 0.651884
946 2 0.203195 0.258533 0.614732
948 4 0.208774 0.276858 0.598662
791 4 0.236048 0.286078 0.638518
790 2 0.253912 0.293711 0.622777
1238 4 0.265495 0.315854 0.594562
792 4 0.271777 0.301344 0.607037
953 4 0.458534 0.27665 0.582148
3123 4 0.461355 0.251262 0.630107
983 4 0.015193 0.405798 0.644419
1039 2 0.0530142 0.404642 0.632324
1041 4 0.0287317 0.399927 0.628675
1040 4 0.0772966 0.409356 0.635973
1136 4 0.107174 0.35777 0.59002
993 4 0.0859452 0.414238 0.652639
1237 2 0.254766 0.338196 0.591263
1239 4 0.244037 0.360538 0.587964
991 2 0.108105 0.425028 0.648432
992 4 0.130265 0.435817 0.644225
2242 2 0.160997 0.495282 0.589711
1160 4 0.231683 0.459771 0.617998
1159 2 0.207476 0.461333 0.611932
2243 4 0.178671 0.478095 0.593887
1161 4 0.18327 0.462895 0.605867
1173 4 0.263533 0.429599 0.584268
891 4 0.304478 0.493342 0.603622
889 2 0.305974 0.469194 0.59731
1002 4 0.48268 0.463981 0.593256
1910 4 0.463902 0.469602 0.594426
1909 2 0.450915 0.490773 0.597306
2319 4 0.0293609 0.99892 0.716743
1075 2 0.0553268 0.0386726 0.720998
1076 4 0.0531483 0.0236436 0.701134
1077 4 0.0575053 0.0537016 0.740861
1256 4 0.303743 0.0438167 0.73976
1255 2 0.279739 0.0389225 0.744763
1005 4 0.355112 0.0391662 0.668616
1163 4 0.492454 0.048498 0.683425
42 3 0.481304 0.0328783 0.67574
1283 4 0.17399 0.107427 0.666478
1282 2 0.191309 0.119554 0.679826
1284 4 0.208628 0.131681 0.693174
1227 4 0.220556 0.146652 0.689081
1225 2 0.225004 0.150349 0.713406
1226 4 0.229452 0.154045 0.737732
886 2 0.286235 0.128883 0.677289
887 4 0.310181 0.131554 0.683972
830 4 0.326614 0.131196 0.694867
829 2 0.329881 0.135958 0.719195
831 4 0.333148 0.14072 0.743523
1146 4 0.47608 0.141158 0.742897
1144 2 0.474533 0.161086 0.727874
1209 4 0.0574457 0.241709 0.666097
1105 2 0.0452398 0.198468 0.733848
1107 4 0.0330522 0.212189 0.716866
851 4 0.0131282 0.209457 0.716359
1106 4 0.0574275 0.184747 0.750829
1207 2 0.0526169 0.254179 0.687224
822 4 0.149393 0.225238 0.713505
1278 4 0.15468 0.211667 0.72841
820 2 0.145508 0.245527 0.727592
1276 2 0.161052 0.192063 0.742563
1065 4 0.226455 0.240619 0.702921
916 2 0.289219 0.235577 0.742377
918 4 0.311465 0.226365 0.749117
917 4 0.266972 0.244789 0.735637
1192 2 0.401798 0.227036 0.713066
1193 4 0.378454 0.218485 0.710399
1194 4 0.425142 0.235587 0.715733
1145 4 0.472985 0.181013 0.712851
1262 4 0.440345 0.225833 0.706344
1261 2 0.452062 0.204593 0.700279
1263 4 0.463778 0.183354 0.694214
3122 4 0.483679 0.240998 0.673661
3357 4 0.491672 0.2291 0.687573
1245 4 0.0202321 0.295685 0.681803
1243 2 0.0388619 0.311777 0.677426
1244 4 0.0574917 0.327869 0.673049
1179 4 0.00348573 0.292426 0.6704
1208 4 0.0477881 0.266649 0.708351
821 4 0.141623 0.265816 0.741679
1064 4 0.211928 0.287373 0.692734
1063 2 0.219191 0.263996 0.697827
1097 4 0.262366 0.261743 0.743804
806 4 0.417876 0.284428 0.73744
807 4 0.438718 0.32963 0.742243
805 2 0.428297 0.307029 0.739842
894 4 0.0756387 0.375101 0.705092
892 2 0.0616314 0.392107 0.693269
893 4 0.0476241 0.409112 0.681446
815 4 0.113193 0.4034 0.743607
1028 4 0.219444 0.41431 0.701647
1027 2 0.240678 0.412922 0.688517
1140 4 0.319363 0.409412 0.713711
1138 2 0.29963 0.407971 0.698423
1139 4 0.279898 0.40653 0.683135
1029 4 0.261911 0.411535 0.675387
1230 4 0.35667 0.416959 0.745673
1020 4 0.431449 0.347421 0.749966
1281 4 0.0537452 0.440955 0.715117
1279 2 0.0624989 0.433043 0.737162
2021 4 0.0556703 0.497319 0.73717
1983 4 0.0461559 0.478999 0.741833
2170 2 0.124196 0.497825 0.664723
2172 4 0.139736 0.483788 0.678385
941 4 0.144053 0.427333 0.694898
940 2 0.134018 0.424082 0.717568
942 4 0.123982 0.420831 0.740237
1067 4 0.163263 0.432123 0.693025
1066 2 0.186507 0.430799 0.702141
1068 4 0.209752 0.429474 0.711257
3330 4 0.486356 0.427959 0.688078
3328 2 0.469386 0.43723 0.703929
3329 4 0.452417 0.446501 0.71978
1203 4 0.0747518 0.0534787 0.751979
1201 2 0.0852387 0.0410106 0.770946
1202 4 0.0957255 0.0285425 0.789913
2049 4 0.108684 0.0181773 0.802051
2047 2 0.124919 0.000775542 0.794383
1148 4 0.197939 0.0384565 0.756468
1147 2 0.208422 0.0394479 0.779146
1149 4 0.218906 0.0404392 0.801824
1049 4 0.234096 0.0305476 0.810618
1257 4 0.255735 0.0340284 0.749766
1048 2 0.255879 0.0312737 0.822872
1112 4 0.414936 0.00801654 0.786204
846 4 0.46957 0.047538 0.798594
1113 4 0.457439 0.0340546 0.790236
1111 2 0.436188 0.0210356 0.78822
844 2 0.490716 0.0571973 0.78939
864 4 0.0317355 0.0941889 0.823713
862 2 0.0264141 0.10909 0.804352
832 2 0.0303939 0.152919 0.765765
863 4 0.0210928 0.12399 0.784991
833 4 0.0150018 0.133478 0.76898
33 3 0.0618698 0.162568 0.774062
32 3 0.0918735 0.156014 0.752394
1130 4 0.225371 0.163927 0.755606
840 4 0.23618 0.15529 0.822332
1129 2 0.201816 0.163087 0.763951
978 4 0.309106 0.16412 0.776617
838 2 0.258992 0.145405 0.819673
839 4 0.281804 0.13552 0.817013
819 4 0.368759 0.0842113 0.813289
1084 2 0.352991 0.125023 0.804704
1085 4 0.361279 0.101449 0.805566
1086 4 0.344702 0.148597 0.803842
1299 4 0.342533 0.163957 0.790308
3270 4 0.487386 0.135009 0.758177
3268 2 0.496417 0.148045 0.777509
834 4 0.0457859 0.172359 0.762549
1214 4 0.0227044 0.241142 0.77264
35 3 0.0762361 0.189901 0.752517
31 1 0.081304 0.171796 0.765369
34 3 0.095504 0.178057 0.782619
1073 4 0.113599 0.188219 0.779314
1072 2 0.130391 0.195661 0.79628
1074 4 0.147183 0.203104 0.813245
1277 4 0.167423 0.17246 0.756715
1131 4 0.178261 0.162246 0.772296
976 2 0.30995 0.185446 0.76359
977 4 0.310793 0.206772 0.750564
1006 2 0.339579 0.242112 0.784426
1297 2 0.363786 0.176824 0.79312
1298 4 0.385039 0.189692 0.795933