ITEM: TIMESTEP
2650000
ITEM: NUMBER OF ATOMS
4590
ITEM: BOX BOUNDS pp pp pp
-9.9985700000000008e+00 9.9985700000000008e+00
-9.9985700000000008e+00 9.9985700000000008e+00
-9.9985700000000008e+00 9.9985700000000008e+00
ITEM: ATOMS id type xs ys zs
463 2 0.0384275 0.0532316 0.0151089
464 4 0.0351177 0.0344156 0.0312391
465 4 0.0417372 0.0720476 0.998979
1668 4 0.0597061 0.019374 0.0428016
1666 2 0.0470669 0.0248162 0.0636777
3290 4 0.0767305 0.00921638 0.0388033
3289 2 0.0890383 0.0155315 0.0179749
565 2 0.14338 0.0324163 0.0301884
567 4 0.141967 0.057378 0.0305014
566 4 0.144793 0.00745468 0.0298753
1475 4 0.274094 0.0118014 0.0790076
2143 2 0.349027 0.0215061 0.00683068
2145 4 0.365394 0.0107933 0.0224041
745 2 0.469076 0.0512578 0.0402893
746 4 0.459866 0.0528368 0.0170976
747 4 0.478286 0.0496788 0.063481
555 4 0.0443755 0.13522 0.99994
462 4 0.339041 0.145014 0.0528072
460 2 0.316484 0.155452 0.0555319
461 4 0.293928 0.16589 0.0582567
422 4 0.056565 0.190374 0.0413964
421 2 0.0745677 0.18662 0.0244557
423 4 0.0925704 0.182866 0.00751493
505 2 0.158044 0.253754 0.05338
506 4 0.172538 0.233386 0.052899
737 4 0.187601 0.225395 0.064271
736 2 0.201545 0.206279 0.072355
738 4 0.215488 0.187164 0.080439
354 4 0.232607 0.187478 0.0686474
352 2 0.254944 0.176253 0.0691169
665 4 0.319428 0.199784 0.0316506
664 2 0.322111 0.191973 0.00805049
353 4 0.277281 0.165028 0.0695864
1071 4 0.388696 0.241892 0.0167536
1069 2 0.405185 0.229169 0.00291791
826 2 0.47993 0.219123 0.992997
324 4 0.462442 0.263064 0.0308618
322 2 0.474536 0.24947 0.0480113
323 4 0.48663 0.235875 0.0651607
827 4 0.461911 0.209002 0.978924
2807 4 0.0236645 0.262328 0.00963191
2806 2 0.00132438 0.25579 0.0187615
294 4 0.0918688 0.307715 0.0672007
292 2 0.11179 0.292666 0.0685663
456 4 0.0850839 0.324011 0.0583639
293 4 0.13171 0.277617 0.0699319
507 4 0.14355 0.274122 0.0538609
741 4 0.307122 0.326569 0.0270428
611 4 0.279874 0.269529 0.0903836
612 4 0.260985 0.305641 0.0614034
610 2 0.27043 0.287585 0.0758935
739 2 0.318924 0.333346 0.0480178
609 4 0.253179 0.32106 0.0721835
573 4 0.384857 0.260273 0.0235832
571 2 0.371203 0.2776 0.0118124
254 4 0.394153 0.251708 0.0830851
572 4 0.35755 0.294926 4.14572e-05
1289 4 0.18936 0.404951 0.995416
250 2 0.290496 0.386864 0.057224
251 4 0.291081 0.408719 0.0450919
524 4 0.310473 0.417165 0.0448622
740 4 0.330727 0.340123 0.0689928
252 4 0.28991 0.365009 0.0693562
386 4 0.339268 0.348798 0.086008
523 2 0.335445 0.418179 0.0455976
226 2 0.385587 0.386554 0.0291395
228 4 0.370818 0.404671 0.0380179
227 4 0.400356 0.368436 0.0202611
525 4 0.360418 0.419192 0.046333
281 4 0.432602 0.359631 0.0642773
280 2 0.456311 0.351701 0.064678
282 4 0.480021 0.343771 0.0650786
671 4 0.419803 0.373525 0.0714475
552 4 0.0216492 0.457572 0.0563756
314 4 0.024509 0.438635 0.0606728
550 2 0.01975 0.481758 0.0503246
551 4 0.0178509 0.505944 0.0442735
243 4 0.23503 0.477992 0.0507397
1440 4 0.240134 0.461682 0.0615654
1290 4 0.214654 0.446006 0.00865962
241 2 0.21319 0.482308 0.0393581
1288 2 0.202007 0.425479 0.00203799
242 4 0.191349 0.486625 0.0279766
271 2 0.268648 0.491132 0.0647243
1583 4 0.44938 0.461596 0.0581154
1582 2 0.445374 0.467338 0.0821189
1667 4 0.0344277 0.0302584 0.0845538
16 1 0.036685 0.0449371 0.115851
2480 4 0.00299221 0.0606954 0.14017
18 3 0.037216 0.0626639 0.100888
19 3 0.02075 0.0488864 0.132248
2479 2 0.0133456 0.0792581 0.153339
17 3 0.0310445 0.0257616 0.104465
20 3 0.0571734 0.0422278 0.125418
450 4 0.12483 0.0815935 0.110795
652 2 0.249715 0.0386156 0.146742
653 4 0.242411 0.0351152 0.170397
486 4 0.330102 0.989809 0.127575
654 4 0.257019 0.0421161 0.123087
1476 4 0.265844 0.0513191 0.10852
1474 2 0.269969 0.0315602 0.0937639
297 4 0.367736 0.0171853 0.0888096
295 2 0.384096 0.0345129 0.096378
296 4 0.400456 0.0518406 0.103946
484 2 0.338872 0.00472801 0.109528
485 4 0.347642 0.019647 0.0914813
557 4 0.421093 0.0519188 0.104674
556 2 0.427634 0.0741082 0.114162
2481 4 0.0236989 0.0978208 0.166507
236 4 0.141359 0.138066 0.105243
449 4 0.124287 0.131404 0.106403
448 2 0.124558 0.106499 0.108599
235 2 0.146415 0.160585 0.11486
580 2 0.311627 0.134059 0.154562
581 4 0.288053 0.132308 0.146415
582 4 0.335201 0.135809 0.16271
30 3 0.272962 0.127505 0.158215
758 4 0.354239 0.12621 0.16482
558 4 0.434175 0.0962975 0.123651
771 4 0.451948 0.105634 0.127527
769 2 0.451214 0.108655 0.152337
370 2 0.157768 0.205176 0.156903
372 4 0.140995 0.223715 0.157328
237 4 0.151472 0.183104 0.124478
362 4 0.145135 0.243037 0.155389
279 4 0.25066 0.243842 0.133004
371 4 0.17454 0.186638 0.156478
476 4 0.193917 0.18517 0.155762
277 2 0.262519 0.246968 0.111214
278 4 0.274379 0.250093 0.0894253
285 4 0.255633 0.24251 0.151689
755 4 0.332215 0.23074 0.170535
283 2 0.268674 0.255042 0.168953
630 4 0.40842 0.262789 0.0925619
754 2 0.33953 0.241804 0.14934
338 4 0.054978 0.265869 0.122086
337 2 0.0576364 0.282329 0.140718
704 4 0.0405695 0.30465 0.162351
339 4 0.0602948 0.298789 0.159351
361 2 0.131176 0.260237 0.166986
756 4 0.346845 0.252869 0.128144
253 2 0.374337 0.257211 0.0973048
255 4 0.35452 0.262714 0.111524
624 4 0.438873 0.267244 0.137851
629 4 0.4499 0.262912 0.120492
628 2 0.42916 0.26285 0.106527
622 2 0.431552 0.26447 0.161597
621 4 0.0411617 0.414007 0.11961
619 2 0.0345142 0.398193 0.137801
620 4 0.0278667 0.38238 0.155992
315 4 0.0414455 0.428363 0.10659
454 2 0.0897644 0.343239 0.0736467
455 4 0.094445 0.362467 0.0889294
647 4 0.129926 0.393155 0.153626
537 4 0.140431 0.379957 0.14341
535 2 0.15991 0.393186 0.134997
646 2 0.113553 0.385244 0.170788
607 2 0.26402 0.343005 0.0772902
608 4 0.27486 0.36495 0.0823968
385 2 0.347025 0.367903 0.10015
387 4 0.354782 0.387008 0.114293
12 3 0.39758 0.383247 0.12259
11 1 0.384382 0.395925 0.136527
15 3 0.362987 0.388163 0.135708
672 4 0.414092 0.392078 0.117533
302 4 0.342725 0.398333 0.129174
14 3 0.385066 0.418015 0.12946
670 2 0.416947 0.382801 0.0944903
13 3 0.392579 0.394275 0.158171
104 3 0.484405 0.343663 0.0863709
1466 4 0.999646 0.503318 0.126476
313 2 0.0329773 0.433499 0.0836312
1431 4 0.178419 0.495679 0.159826
536 4 0.179388 0.406415 0.126585
1438 2 0.232045 0.454133 0.0839878
625 2 0.230482 0.433701 0.147477
1439 4 0.223957 0.446583 0.10641
627 4 0.226966 0.446843 0.126499
272 4 0.268709 0.471812 0.0805968
638 4 0.273438 0.459923 0.151353
637 2 0.276091 0.484352 0.146731
303 4 0.318761 0.441096 0.139062
301 2 0.330743 0.419714 0.134118
659 4 0.331444 0.454573 0.146663
494 4 0.392383 0.485529 0.113599
495 4 0.389189 0.436794 0.124342
493 2 0.390786 0.461162 0.118971
658 2 0.347981 0.464215 0.162749
1674 4 0.435853 0.493879 0.103346
1584 4 0.441368 0.473079 0.106123
690 4 0.161969 0.0532455 0.188502
674 4 0.16655 0.0632638 0.20555
673 2 0.178319 0.0717959 0.225894
689 4 0.202695 0.0327281 0.167982
688 2 0.182332 0.0429868 0.178242
1505 4 0.1977 0.0144396 0.166323
693 4 0.250743 0.0383918 0.188583
722 4 0.1871 0.0753475 0.265572
691 2 0.26244 0.0595275 0.195034
1699 2 0.317193 0.0822029 0.207645
692 4 0.274138 0.0806631 0.201486
1700 4 0.340801 0.0767372 0.213806
22 3 0.386092 0.0495937 0.225088
698 4 0.394495 0.0562588 0.242391
21 1 0.375552 0.0692895 0.219597
333 4 0.401351 0.0753142 0.237853
25 3 0.377736 0.0729835 0.197231
23 3 0.353096 0.0675915 0.225185
331 2 0.420213 0.0892974 0.246447
349 2 0.475328 0.0802319 0.244446
511 2 0.00755649 0.1529 0.203267
578 4 0.048799 0.167912 0.208573
513 4 0.0284765 0.165279 0.209123
29 3 0.239864 0.142273 0.168417
477 4 0.230184 0.157691 0.176508
28 3 0.253132 0.111148 0.185727
27 3 0.269608 0.144468 0.191289
1701 4 0.293585 0.0876686 0.201483
26 1 0.258935 0.13128 0.175755
759 4 0.363907 0.0834378 0.188859
24 3 0.385384 0.0866244 0.231482
757 2 0.359073 0.104824 0.176839
770 4 0.45048 0.111676 0.177146
312 4 0.460805 0.125294 0.185877
311 4 0.498692 0.117549 0.217583
310 2 0.479749 0.121421 0.20173
521 4 0.50494 0.122105 0.236137
332 4 0.439076 0.103281 0.255041
577 2 0.0494067 0.187563 0.224021
529 2 0.0223438 0.235723 0.221107
530 4 0.038234 0.223995 0.236441
579 4 0.0500144 0.207214 0.23947
531 4 0.00645366 0.247451 0.205773
475 2 0.212051 0.17143 0.166135
703 2 0.0235308 0.320712 0.171118
395 4 0.0758038 0.294182 0.171612
396 4 0.0740368 0.290527 0.221455
443 4 0.0895532 0.277175 0.22531
394 2 0.0749203 0.292354 0.196533
442 2 0.0791541 0.270355 0.247002
363 4 0.117217 0.277437 0.178583
284 4 0.281715 0.267575 0.186217
345 4 0.30847 0.332849 0.24632
528 4 0.433822 0.299503 0.238116
623 4 0.424231 0.261696 0.185344
527 4 0.418053 0.276624 0.196539
526 2 0.425937 0.288064 0.217327
542 4 0.434449 0.318804 0.237972
263 4 0.0414047 0.418341 0.237287
262 2 0.0635848 0.416089 0.248607
299 4 0.104488 0.354339 0.240978
648 4 0.0971809 0.377334 0.187951
300 4 0.0829452 0.368536 0.198141
298 2 0.0937167 0.361438 0.21956
290 4 0.215881 0.415542 0.234584
597 4 0.372324 0.372874 0.172558
596 4 0.33188 0.352583 0.193849
595 2 0.352102 0.362728 0.183204
645 4 0.38806 0.383821 0.175043
643 2 0.399671 0.400323 0.189809
644 4 0.411282 0.416826 0.204576
416 4 0.20437 0.430587 0.237043
1429 2 0.178007 0.472217 0.168459
626 4 0.233999 0.420558 0.168455
1430 4 0.177596 0.448755 0.177093
417 4 0.178318 0.441064 0.195663
415 2 0.191344 0.435826 0.216353
660 4 0.364518 0.473857 0.178834
231 4 0.356843 0.477749 0.198116
447 4 0.404853 0.43164 0.215489
445 2 0.409563 0.430262 0.240006
1403 4 0.018462 0.0170273 0.271905
233 4 0.00512439 0.0307812 0.269439
232 2 0.0178071 0.052267 0.2678
234 4 0.0304898 0.0737529 0.266161
317 4 0.0491899 0.0680311 0.261433
316 2 0.0681628 0.0711562 0.277416
318 4 0.0871357 0.0742812 0.293398
1407 4 0.2229 0.999043 0.309444
1518 4 0.421866 0.0207314 0.27644
697 2 0.398535 0.0380281 0.259019
699 4 0.402575 0.0197975 0.275648
744 4 0.504528 0.00389011 0.253992
480 4 0.491471 0.0140726 0.335422
425 4 0.455559 0.0244079 0.300495
424 2 0.461989 0.0482228 0.29641
258 4 0.482987 0.0838368 0.282607
426 4 0.468419 0.0720378 0.292325
1749 4 0.474642 0.00343008 0.333756
391 2 0.0957765 0.145017 0.291706
392 4 0.105963 0.134347 0.271518
393 4 0.0855903 0.155687 0.311895
544 2 0.145252 0.154521 0.26562
545 4 0.122812 0.143494 0.265797
675 4 0.190088 0.0803279 0.246238
723 4 0.22756 0.0876215 0.292277
721 2 0.20733 0.0814845 0.278924
599 4 0.234282 0.105741 0.299586
404 4 0.23397 0.132428 0.300871
403 2 0.222773 0.153811 0.294348
405 4 0.211576 0.175195 0.287824
350 4 0.453134 0.0904688 0.249721
256 2 0.48562 0.0981774 0.302919
761 4 0.498353 0.128098 0.318527
546 4 0.167692 0.165547 0.265442
402 4 0.228591 0.21158 0.238668
401 4 0.225445 0.188844 0.283096
400 2 0.227018 0.200212 0.260882
765 4 0.442499 0.205959 0.314269
763 2 0.466503 0.19904 0.315314
764 4 0.490508 0.192121 0.316359
444 4 0.068755 0.263535 0.268693
541 2 0.425254 0.321519 0.261065
748 2 0.0912592 0.343646 0.27197
366 4 0.0550998 0.345134 0.295767
365 4 0.01612 0.376278 0.299128
749 4 0.0737002 0.347291 0.289393
364 2 0.0356099 0.360706 0.297448
602 4 0.0990046 0.387044 0.298014
750 4 0.108818 0.340002 0.254546
777 4 0.0986839 0.405774 0.304451
735 4 0.151254 0.397908 0.267086
601 2 0.100007 0.379149 0.321718
677 4 0.15531 0.416278 0.277774
733 2 0.158391 0.376691 0.278225
289 2 0.223195 0.40486 0.255975
734 4 0.165527 0.355474 0.289365
291 4 0.230508 0.394178 0.277367
414 4 0.244173 0.388535 0.292315
343 2 0.331061 0.342254 0.251456
412 2 0.2563 0.408951 0.300144
615 4 0.413419 0.323557 0.304107
309 4 0.353844 0.351763 0.276768
344 4 0.353652 0.351658 0.256591
307 2 0.361884 0.364344 0.296824
727 2 0.344926 0.408194 0.329828
729 4 0.360631 0.388766 0.328777
308 4 0.369925 0.376925 0.31688
543 4 0.416058 0.324234 0.284157
613 2 0.408746 0.341692 0.320674
2924 4 0.493243 0.359269 0.31355
2923 2 0.469546 0.354783 0.306954
2925 4 0.445849 0.350297 0.300358
2862 4 0.491512 0.415804 0.276622
713 4 0.473695 0.411915 0.292032
120 3 0.49645 0.410665 0.297023
264 4 0.0857649 0.413838 0.259928
1757 4 0.119689 0.45943 0.289216
776 4 0.1058 0.448 0.278624
775 2 0.102242 0.426887 0.291538
1756 2 0.109847 0.482391 0.288162
767 4 0.220155 0.499501 0.262635
676 2 0.177241 0.427788 0.281198
678 4 0.199171 0.439299 0.284623
768 4 0.210477 0.451395 0.272273
766 2 0.215316 0.475448 0.267454
504 4 0.201473 0.434036 0.326244
413 4 0.268428 0.429367 0.307973
438 4 0.294727 0.451031 0.262115
437 4 0.285468 0.443396 0.310661
436 2 0.290097 0.447214 0.286388
1437 4 0.278905 0.46266 0.31343
5 3 0.284977 0.423109 0.321835
1435 2 0.260909 0.468757 0.329682
433 2 0.332707 0.470399 0.327968
435 4 0.342334 0.491716 0.31913
446 4 0.414272 0.428884 0.264523
714 4 0.426579 0.420285 0.277517
712 2 0.450137 0.4161 0.284774
730 2 0.111463 0.0598918 0.391883
604 2 0.159585 0.0507623 0.359954
732 4 0.124561 0.0687419 0.37251
605 4 0.144263 0.0694274 0.366438
731 4 0.0983647 0.0510416 0.411256
606 4 0.174907 0.0320973 0.35347
319 2 0.2573 0.072453 0.408772
321 4 0.258736 0.0580913 0.388355
249 4 0.320687 0.076143 0.340872
684 4 0.300532 0.0721386 0.343445
683 4 0.264124 0.0737084 0.37769
682 2 0.282328 0.0729235 0.360568
247 2 0.343001 0.0707577 0.350786
248 4 0.365314 0.0653725 0.3607
633 4 0.369106 0.0823576 0.371428
399 4 0.0988059 0.150667 0.32681
397 2 0.117345 0.160128 0.340666
598 2 0.229516 0.10346 0.324025
600 4 0.22475 0.101178 0.348463
685 2 0.224633 0.111852 0.381349
687 4 0.213038 0.0982532 0.363862
686 4 0.236229 0.125451 0.398836
707 4 0.262291 0.162066 0.359342
631 2 0.376268 0.0875496 0.394814
419 4 0.38883 0.154533 0.414875
760 2 0.493872 0.134898 0.342168
762 4 0.489391 0.141698 0.365808
470 4 0.0578623 0.225146 0.423339
390 4 0.0700751 0.240764 0.42177
398 4 0.135883 0.16959 0.354521
388 2 0.0918247 0.240886 0.409437
276 4 0.125281 0.240772 0.380215
389 4 0.113574 0.241008 0.397103
473 4 0.220536 0.200543 0.352737
474 4 0.191052 0.240323 0.35974
472 2 0.205794 0.220433 0.356239
708 4 0.231103 0.199722 0.369831
706 2 0.246697 0.180894 0.364587
651 4 0.231814 0.24468 0.39392
649 2 0.236688 0.223727 0.406665
489 4 0.225794 0.257392 0.379318
377 4 0.37394 0.209861 0.376536
717 4 0.375237 0.195066 0.364172
716 4 0.37706 0.159232 0.399005
715 2 0.376149 0.177149 0.381589
376 2 0.362699 0.225329 0.360426
2455 2 0.397637 0.230094 0.41757
269 4 0.499863 0.22777 0.344582
515 4 0.472814 0.172737 0.424853
268 2 0.487272 0.234776 0.365016
270 4 0.474682 0.241783 0.385451
306 4 0.459135 0.248268 0.395255
616 2 0.0313802 0.263168 0.421227
618 4 0.0109578 0.252107 0.411967
275 4 0.170704 0.246431 0.360079
274 2 0.147992 0.243601 0.370147
488 4 0.263947 0.289548 0.37599
508 2 0.252464 0.324523 0.356556
487 2 0.24487 0.27347 0.377654
509 4 0.264973 0.308493 0.371108
496 2 0.347727 0.28278 0.33576
497 4 0.348113 0.307688 0.33791
498 4 0.347342 0.257872 0.333611
378 4 0.351457 0.240798 0.344317
2456 4 0.393412 0.251733 0.405777
266 4 0.35738 0.321707 0.388175
585 4 0.353771 0.304828 0.4006
583 2 0.364547 0.282442 0.403417
584 4 0.375323 0.260056 0.406234
304 2 0.469094 0.264176 0.411776
547 2 0.0950851 0.399606 0.377757
549 4 0.103585 0.382352 0.361781
603 4 0.10101 0.371255 0.345421
548 4 0.0865857 0.41686 0.393734
510 4 0.239955 0.340553 0.342004
375 4 0.20934 0.390987 0.346228
374 4 0.247476 0.35864 0.346435
373 2 0.228408 0.374813 0.346331
3 3 0.287578 0.401326 0.352435
267 4 0.332334 0.352845 0.358111
265 2 0.344857 0.337276 0.373143
614 4 0.404072 0.359826 0.337241
119 3 0.495363 0.414081 0.334504
561 4 0.466761 0.406885 0.40421
752 4 0.481738 0.411738 0.390945
751 2 0.482023 0.419358 0.367132
679 2 0.0344271 0.501555 0.394369
407 4 0.0689548 0.423142 0.402161
680 4 0.0414385 0.478648 0.387207
406 2 0.0638416 0.445947 0.393275
408 4 0.0587284 0.468752 0.384389
569 4 0.098812 0.454683 0.404157
568 2 0.114501 0.443268 0.419929
635 4 0.151272 0.481614 0.398165
634 2 0.159997 0.461928 0.385456
1545 4 0.237597 0.485719 0.360676
502 2 0.193413 0.432214 0.349843
503 4 0.185354 0.430392 0.373442
636 4 0.168722 0.442242 0.372747
1436 4 0.242912 0.474853 0.345935
434 4 0.32308 0.449083 0.336805
2 3 0.312837 0.428426 0.346094
1 1 0.290675 0.422671 0.34388
668 4 0.292152 0.449714 0.362204
4 3 0.277755 0.437895 0.3557
667 2 0.297312 0.469238 0.376948
669 4 0.302472 0.488762 0.391691
728 4 0.329222 0.427622 0.330878
592 2 0.489098 0.503653 0.365623
593 4 0.50469 0.484426 0.362108
753 4 0.482307 0.426978 0.34332
1127 4 0.00879589 0.0622953 0.500923
718 2 0.0338598 0.0654721 0.470232
719 4 0.0556998 0.0626032 0.458401
369 4 0.0705632 0.0770221 0.460159
720 4 0.0120198 0.0683411 0.482062
367 2 0.0865664 0.0645159 0.445575
368 4 0.10257 0.0520097 0.430992
341 4 0.177583 0.0764595 0.454561
441 4 0.218606 0.00590987 0.458456
2430 4 0.173905 0.0575228 0.455248
2428 2 0.188983 0.0376386 0.453683
2429 4 0.204061 0.0177543 0.452118
467 4 0.353431 0.073927 0.463289
2879 4 0.438111 0.00776935 0.450415
2878 2 0.450773 0.0292788 0.451893
2880 4 0.463436 0.0507883 0.453371
642 4 0.480535 0.0508599 0.465269
640 2 0.49475 0.0704957 0.459142
320 4 0.255864 0.0868147 0.429189
725 4 0.239493 0.0894136 0.441391
410 4 0.236786 0.136819 0.414261
409 2 0.242678 0.160616 0.419178
340 2 0.185302 0.0930455 0.471605
1152 4 0.203171 0.126983 0.485648
342 4 0.193021 0.109632 0.48865
430 2 0.29789 0.0888927 0.494443
432 4 0.279784 0.10416 0.486427
724 2 0.249836 0.0948157 0.463504
726 4 0.26018 0.100218 0.485618
632 4 0.38343 0.0927415 0.418201
418 2 0.370532 0.139257 0.422426
420 4 0.352234 0.123981 0.429976
466 2 0.370105 0.087231 0.450245
468 4 0.386779 0.100535 0.4372
574 2 0.408799 0.149524 0.468522
576 4 0.390525 0.158999 0.482716
516 4 0.428325 0.154558 0.438675
575 4 0.427073 0.14005 0.454328
514 2 0.450569 0.163647 0.431764
469 2 0.0576036 0.200973 0.429725
260 4 0.0540263 0.169039 0.453605
471 4 0.0573449 0.1768 0.436112
259 2 0.0664459 0.167149 0.475224
650 4 0.241561 0.202775 0.41941
411 4 0.24857 0.184413 0.424095
2457 4 0.401862 0.208455 0.429364
617 4 0.0518026 0.274229 0.430488
695 4 0.0788036 0.296619 0.427639
696 4 0.125527 0.312183 0.418955
694 2 0.102165 0.304401 0.423297
1260 4 0.140398 0.313052 0.432527
1258 2 0.162764 0.303139 0.427364
1259 4 0.18513 0.293225 0.4222
2507 4 0.510322 0.335798 0.4762
305 4 0.479053 0.280085 0.428296
326 4 0.0827041 0.386524 0.430722
325 2 0.0959668 0.383676 0.451726
10 3 0.145101 0.362486 0.465196
7 3 0.113198 0.365518 0.484324
327 4 0.109229 0.380829 0.47273
6 1 0.13607 0.367705 0.485441
8 3 0.141246 0.389629 0.491004
711 4 0.129156 0.405307 0.483455
238 2 0.35799 0.391846 0.470309
240 4 0.361114 0.409602 0.452985
239 4 0.354865 0.374089 0.487633
2506 2 0.494388 0.354169 0.470386
559 2 0.470348 0.394611 0.425696
2508 4 0.478454 0.37254 0.464573
560 4 0.473934 0.382337 0.447183
927 4 0.506586 0.379992 0.507074
540 4 0.0445493 0.482247 0.477375
538 2 0.0590925 0.486999 0.497151
1382 4 0.0333009 0.494558 0.464844
1381 2 0.0152976 0.477428 0.462083
772 2 0.141574 0.489769 0.453939
709 2 0.134979 0.423224 0.467016
774 4 0.13151 0.478599 0.433961
570 4 0.13019 0.431853 0.4357
710 4 0.140801 0.441142 0.450577
336 4 0.306602 0.440056 0.443123
1400 4 0.34093 0.488639 0.442536
334 2 0.329777 0.43078 0.441699
335 4 0.352953 0.421504 0.440274
949 2 0.212287 0.0707389 0.549451
950 4 0.230836 0.0575271 0.559775
1031 4 0.183494 0.0957633 0.549973
1182 4 0.250126 0.0594381 0.558391
961 2 0.329185 0.0094983 0.568773
1180 2 0.272857 0.0491509 0.556761
963 4 0.310033 0.0242395 0.562362
1181 4 0.295588 0.0388636 0.55513
431 4 0.315996 0.0736252 0.502459
843 4 0.321296 0.0708349 0.521148
1217 4 0.390024 0.0663431 0.513935
841 2 0.345944 0.0670323 0.519359
842 4 0.370592 0.0632298 0.517569
1216 2 0.404459 0.0789553 0.529989
4467 4 0.429063 0.000756505 0.576337
1082 4 0.053477 0.156394 0.575351
1081 2 0.0316304 0.151258 0.586375
1035 4 0.0676682 0.162855 0.562006
1199 4 0.993306 0.156391 0.587802
937 2 0.147899 0.142227 0.544494
938 4 0.13012 0.141951 0.562073
1030 2 0.164451 0.0919881 0.56573
939 4 0.165677 0.142502 0.526915
951 4 0.193739 0.0839506 0.539128
1151 4 0.185498 0.14275 0.529691
1150 2 0.194335 0.134867 0.50767
857 4 0.326469 0.127349 0.564889
898 2 0.362872 0.153234 0.56749
899 4 0.342374 0.138919 0.567194
1218 4 0.418894 0.0915675 0.546043
261 4 0.0788655 0.165259 0.496842
1033 2 0.0671048 0.166062 0.537215
1034 4 0.0665415 0.169269 0.512424
1272 4 0.103356 0.235054 0.58484
879 4 0.0856809 0.23652 0.575904
877 2 0.0853575 0.238194 0.550959
811 2 0.320862 0.226896 0.565894
812 4 0.296638 0.226992 0.572088
796 2 0.279257 0.188976 0.578192
798 4 0.283979 0.211435 0.568269
813 4 0.345087 0.2268 0.559701
900 4 0.38337 0.167549 0.567785
872 4 0.390713 0.187171 0.569916
873 4 0.363785 0.225397 0.552185
871 2 0.377249 0.206284 0.561051
878 4 0.0850341 0.239868 0.526013
1190 4 0.245268 0.329007 0.516877
1191 4 0.195703 0.32488 0.522074
1189 2 0.220486 0.326943 0.519475
896 4 0.184787 0.340931 0.516313
803 4 0.251744 0.344053 0.526509
1239 4 0.271813 0.303091 0.585374
954 4 0.426938 0.309216 0.576552
1205 4 0.406501 0.308362 0.57741
1204 2 0.383745 0.318658 0.57856
930 4 0.352171 0.336874 0.564497
952 2 0.429247 0.284481 0.573715
953 4 0.431555 0.259746 0.570878
905 4 0.445847 0.250838 0.582382
9 3 0.144201 0.353278 0.501693
1135 2 0.165862 0.384313 0.575809
897 4 0.156936 0.352778 0.556121
1137 4 0.172069 0.364151 0.562386
895 2 0.170862 0.346854 0.536217
802 2 0.275173 0.35275 0.52728
804 4 0.298603 0.361447 0.52805
929 4 0.311927 0.348284 0.537093
928 2 0.332049 0.342579 0.550795
1001 4 0.461965 0.396586 0.549363
926 4 0.464016 0.389741 0.531436
925 2 0.485301 0.384867 0.519255
1000 2 0.459951 0.400529 0.573972
539 4 0.0736357 0.491752 0.516927
934 2 0.00586092 0.479518 0.574033
936 4 0.0245415 0.495715 0.577759
1936 2 0.0614511 0.496061 0.554516
1938 4 0.043812 0.49668 0.572227
1937 4 0.0790903 0.495442 0.536806
382 2 0.145532 0.502315 0.512262
383 4 0.141884 0.514688 0.533681
882 4 0.282042 0.473286 0.568065
880 2 0.277149 0.487667 0.548205
881 4 0.272256 0.502048 0.528344
1058 4 0.0852378 0.0100666 0.632791
1057 2 0.0859883 0.0337964 0.624948
825 4 0.0701904 0.99975 0.640646
1059 4 0.0867388 0.0575261 0.617104
1155 4 0.0811867 0.0736056 0.606007
962 4 0.348336 0.994757 0.575185
2283 4 0.429182 0.0206915 0.579931
2282 4 0.460306 0.041853 0.612858
2281 2 0.444744 0.0312722 0.596394
43 3 0.468807 0.0557073 0.623183
41 1 0.47534 0.0682403 0.641585
44 3 0.457022 0.0793316 0.650522
45 3 0.491308 0.0832826 0.63547
1083 4 0.00978389 0.146122 0.597399
1153 2 0.0980118 0.0894582 0.615535
1154 4 0.114837 0.105311 0.625063
1221 4 0.130188 0.109035 0.61235
1219 2 0.145205 0.114289 0.631639
1220 4 0.160222 0.119542 0.650928
1032 4 0.145408 0.0882128 0.581487
1212 4 0.21634 0.134615 0.645983
1210 2 0.236444 0.13977 0.659928
1004 4 0.307537 0.097911 0.651157
1003 2 0.290523 0.0948032 0.6331
1005 4 0.27351 0.0916954 0.615043
858 4 0.285512 0.152907 0.577929
856 2 0.30599 0.140128 0.571409
1270 2 0.121008 0.222262 0.597086
1271 4 0.138659 0.209471 0.609332
909 4 0.153926 0.212705 0.62049
907 2 0.160304 0.216506 0.644366
908 4 0.166683 0.220307 0.668241
797 4 0.274534 0.166517 0.588115
1025 4 0.360264 0.194116 0.660334
1024 2 0.381148 0.19432 0.646586
1026 4 0.402032 0.194523 0.632838
1143 4 0.360604 0.173032 0.65929
3122 4 0.492106 0.22879 0.680558
3123 4 0.459912 0.258337 0.656244
3121 2 0.476009 0.243564 0.668401
1064 4 0.220219 0.313761 0.659696
1065 4 0.201311 0.267799 0.66523
1063 2 0.210765 0.29078 0.662463
1237 2 0.287748 0.290907 0.6003
792 4 0.310168 0.293686 0.626555
790 2 0.333655 0.293321 0.635123
1238 4 0.303683 0.278722 0.615226
791 4 0.357142 0.292956 0.643691
1206 4 0.360989 0.328954 0.57971
906 4 0.48375 0.252719 0.614948
904 2 0.464798 0.251778 0.598665
983 4 0.0472438 0.403481 0.594441
1041 4 0.0597246 0.407297 0.607585
1039 2 0.0834913 0.413711 0.611965
982 2 0.0228993 0.401795 0.588993
984 4 0.998555 0.400108 0.583545
992 4 0.158889 0.409616 0.608754
1136 4 0.159654 0.404475 0.589231
991 2 0.138774 0.423096 0.614987
1002 4 0.457938 0.404472 0.59858
1910 4 0.460786 0.41299 0.616192
3330 4 0.498246 0.406009 0.656604
993 4 0.118659 0.436576 0.621219
1040 4 0.107258 0.420124 0.616345
1160 4 0.212825 0.470565 0.591202
1159 2 0.192506 0.484875 0.593946
1173 4 0.220706 0.45301 0.584522
2172 4 0.19846 0.482995 0.642525
1172 4 0.268637 0.467082 0.582206
1171 2 0.244672 0.460046 0.583364
1175 4 0.259473 0.471131 0.629121
1174 2 0.277903 0.486101 0.636958
889 2 0.360972 0.492629 0.66034
891 4 0.363169 0.498967 0.636253
1911 4 0.439226 0.432064 0.657083
1909 2 0.450006 0.422527 0.636638
1268 4 0.43501 0.450411 0.648279
1267 2 0.434946 0.474361 0.655461
1185 4 0.0222208 0.055362 0.66637
945 4 0.040308 0.0505235 0.673565
943 2 0.0431011 0.0529782 0.69829
1076 4 0.0326672 0.0635527 0.737309
944 4 0.0458942 0.055433 0.723016
42 3 0.483972 0.0540894 0.657535
1163 4 0.502716 0.0509007 0.659094
1105 2 0.0557914 0.161421 0.751823
1283 4 0.154898 0.110132 0.668469
1282 2 0.169261 0.112644 0.688781
1284 4 0.183624 0.115156 0.709093
1227 4 0.18413 0.110058 0.729568
831 4 0.330566 0.0891226 0.71235
1211 4 0.256547 0.144924 0.673873
888 4 0.273921 0.156512 0.678711
886 2 0.28659 0.134977 0.679655
887 4 0.29926 0.113442 0.680599
829 2 0.316871 0.0925147 0.691708
830 4 0.303176 0.0959068 0.671065
976 2 0.306172 0.163051 0.735015
977 4 0.326801 0.171057 0.723372
1142 4 0.342564 0.147271 0.69817
1141 2 0.351584 0.160151 0.67873
1107 4 0.0472496 0.175863 0.733285
851 4 0.027043 0.176489 0.731713
850 2 0.0043265 0.186931 0.73205
1208 4 0.0875842 0.24962 0.679354
822 4 0.13438 0.216254 0.714527
1278 4 0.154797 0.210352 0.714577
820 2 0.117729 0.231305 0.70351
821 4 0.101077 0.246356 0.692493
1276 2 0.16837 0.215491 0.734937
947 4 0.161878 0.230609 0.686158
946 2 0.181467 0.246123 0.685274
916 2 0.31857 0.214142 0.71672
918 4 0.320106 0.189214 0.715535
917 4 0.317035 0.239071 0.717904
1097 4 0.304713 0.256891 0.724565
1261 2 0.435525 0.223178 0.746073
1262 4 0.42798 0.241506 0.730831
1207 2 0.0764256 0.270177 0.688189
1209 4 0.065267 0.290735 0.697024
1244 4 0.0190077 0.29434 0.68522
1243 2 0.00711678 0.288352 0.706385
948 4 0.201055 0.261638 0.68439
1240 2 0.242576 0.299517 0.721679
1242 4 0.224384 0.315028 0.714353
1241 4 0.260767 0.284006 0.729004
1008 4 0.324177 0.260045 0.729984
1096 2 0.280318 0.261627 0.721804
1098 4 0.255922 0.266363 0.719044
1006 2 0.34396 0.260142 0.745275
1192 2 0.422052 0.277733 0.743712
1194 4 0.41975 0.259887 0.726351
1279 2 0.0597285 0.382142 0.703966
3275 4 0.0418418 0.383765 0.743739
1280 4 0.0439626 0.383971 0.723286
1281 4 0.0754943 0.380314 0.684646
893 4 0.131573 0.343991 0.697653
892 2 0.110545 0.357486 0.696732
894 4 0.0895161 0.370981 0.69581
940 2 0.161661 0.409927 0.740083
942 4 0.137121 0.413331 0.743457
1028 4 0.226254 0.372909 0.673686
941 4 0.1862 0.406523 0.736709
1068 4 0.225681 0.376314 0.693736
1067 4 0.203123 0.394557 0.734467
1066 2 0.214402 0.385436 0.714102
1027 2 0.249722 0.38101 0.670723
1029 4 0.273191 0.389111 0.667759
1139 4 0.280104 0.40574 0.677739
1230 4 0.384479 0.403871 0.749505
1228 2 0.367946 0.401714 0.730872
1229 4 0.351413 0.399558 0.712239
3183 4 0.498241 0.392618 0.670432
1138 2 0.288578 0.422036 0.694704
1140 4 0.297052 0.438332 0.711669
1989 4 0.293908 0.453634 0.724117
1987 2 0.307719 0.459629 0.744079
890 4 0.358775 0.486291 0.684427
1100 4 0.494726 0.482221 0.720869
1099 2 0.474801 0.496964 0.717584
1250 4 0.482546 0.472237 0.739932
1075 2 0.0423134 0.0463686 0.752699
1077 4 0.0519595 0.0291844 0.768088
1203 4 0.0699698 0.0321984 0.776189
1201 2 0.0940753 0.0265574 0.772685
2049 4 0.134591 0.0304351 0.762667
1202 4 0.118181 0.0209163 0.76918
2047 2 0.148439 0.00964699 0.763788
1148 4 0.173554 0.0536633 0.769081
1147 2 0.196792 0.0549907 0.778212
1149 4 0.220031 0.0563181 0.787344
1049 4 0.233664 0.0415438 0.786605
1048 2 0.25081 0.0339 0.770089
1050 4 0.267956 0.0262563 0.753574
818 4 0.371314 0.0844209 0.818398
844 2 0.5018 0.0218619 0.762945
846 4 0.478408 0.0130523 0.762351
35 3 0.0830893 0.145519 0.761437
3387 4 0.0118004 0.115674 0.758863
832 2 0.0460519 0.128975 0.796065
863 4 0.0193273 0.111137 0.820028
833 4 0.0279109 0.129127 0.813271
33 3 0.0803136 0.114457 0.782534
834 4 0.0641929 0.128823 0.778858
1106 4 0.0643332 0.146979 0.77036
31 1 0.0940537 0.126869 0.76855
32 3 0.099708 0.113997 0.750343
34 3 0.113439 0.132886 0.779793
1073 4 0.123703 0.144995 0.792032
1225 2 0.186753 0.111124 0.75441
1226 4 0.189376 0.11219 0.779253
840 4 0.191048 0.125277 0.793814
838 2 0.213614 0.128319 0.804143
839 4 0.23618 0.131362 0.814473
978 4 0.285544 0.155045 0.746658
960 4 0.283857 0.148505 0.851867
817 2 0.371611 0.0993249 0.798324
819 4 0.371908 0.114229 0.77825
1084 2 0.364753 0.151953 0.778258
1085 4 0.376257 0.13164 0.769301
3268 2 0.490735 0.151031 0.817908
3270 4 0.482922 0.165521 0.799089
1146 4 0.478201 0.156517 0.781767
778 2 0.0791101 0.218642 0.813659
779 4 0.0599873 0.232088 0.82253
1214 4 0.0496355 0.24876 0.821585
1074 4 0.112198 0.191081 0.807667
780 4 0.0982328 0.205195 0.804788
1277 4 0.181943 0.22063 0.755297
1072 2 0.11795 0.168038 0.799849
1131 4 0.192403 0.225273 0.772165
1130 4 0.201747 0.181022 0.793502
1129 2 0.197075 0.203147 0.782834
1086 4 0.353249 0.172266 0.787215
1299 4 0.34662 0.191488 0.785426
1297 2 0.366273 0.205932 0.790931
1298 4 0.385927 0.220375 0.796436
47 3 0.40247 0.21933 0.806981
49 3 0.41247 0.250331 0.825733
46 1 0.411175 0.227187 0.826771
1263 4 0.443071 0.204849 0.761314
1145 4 0.446059 0.184972 0.756116
1144 2 0.46213 0.170745 0.768941
48 3 0.432358 0.218193 0.829743
1215 4 0.00412271 0.265643 0.809573
1213 2 0.0268791 0.257201 0.815579
1044 4 0.372648 0.271209 0.774838
1007 4 0.363743 0.260239 0.760566
1043 4 0.40859 0.266665 0.809308
1042 2 0.390619 0.268937 0.792073
805 2 0.390743 0.319446 0.774632
1193 4 0.424354 0.29558 0.761072
1166 4 0.429249 0.260649 0.81346
806 4 0.405089 0.301671 0.764463
1167 4 0.478439 0.265124 0.805648
1165 2 0.453844 0.262886 0.809554
1307 4 0.491559 0.275829 0.818151
3274 2 0.056826 0.400169 0.755209
3276 4 0.0718102 0.416573 0.76668
847 2 0.0553296 0.410245 0.831764
849 4 0.0725097 0.422039 0.817946
816 4 0.0864263 0.428561 0.765442
814 2 0.111188 0.426476 0.762672