ITEM: TIMESTEP
3320000
ITEM: NUMBER OF ATOMS
4590
ITEM: BOX BOUNDS pp pp pp
-9.9985700000000008e+00 9.9985700000000008e+00
-9.9985700000000008e+00 9.9985700000000008e+00
-9.9985700000000008e+00 9.9985700000000008e+00
ITEM: ATOMS id type xs ys zs
1805 4 0.0604882 0.00482422 0.0780648
465 4 0.0814306 0.0924378 0.0356823
2576 4 0.0466698 0.995805 0.0670605
700 2 0.122042 0.0826179 0.0298211
702 4 0.141696 0.0726776 0.0179853
566 4 0.152009 0.0618144 0.00641148
701 4 0.102388 0.0925583 0.041657
2265 4 0.294203 0.996522 0.00945652
296 4 0.343852 0.0798293 0.0886317
746 4 0.48526 0.0467411 0.0456483
2469 4 0.493071 0.0354128 0.0603283
745 2 0.474431 0.0511736 0.0235517
747 4 0.463601 0.0556061 0.00145511
463 2 0.0616929 0.100492 0.0487486
464 4 0.0419551 0.108546 0.061815
590 4 0.0232898 0.103306 0.0559975
558 4 0.350738 0.128733 0.0531325
556 2 0.340584 0.111141 0.0677126
866 4 0.349764 0.136758 0.035229
865 2 0.352063 0.160615 0.0423499
827 4 0.366634 0.129344 0.0413443
826 2 0.383805 0.115765 0.0292642
986 4 0.40818 0.0833424 0.0102158
828 4 0.400976 0.102185 0.0171841
554 4 0.0285307 0.202769 0.0539914
553 2 0.0507803 0.199485 0.0430665
555 4 0.0730298 0.196201 0.0321417
835 2 0.109065 0.213206 0.0120956
836 4 0.088966 0.206102 0.0251627
666 4 0.328481 0.241315 0.0652966
664 2 0.341666 0.223009 0.0545165
665 4 0.354851 0.204703 0.0437363
867 4 0.354362 0.184473 0.0494707
2808 4 0.0486714 0.319306 0.046362
2806 2 0.0309617 0.302976 0.0530606
2807 4 0.013252 0.286646 0.0597591
573 4 0.315817 0.25472 0.0684022
356 4 0.299781 0.322047 0.0594923
572 4 0.300617 0.30231 0.0662052
355 2 0.297729 0.329203 0.0356225
571 2 0.308217 0.278515 0.0673037
357 4 0.295678 0.336358 0.0117526
1070 4 0.393861 0.268682 0.0703365
1069 2 0.418541 0.272512 0.0691487
1071 4 0.443221 0.276341 0.0679609
507 4 0.125775 0.336322 0.0725189
505 2 0.142627 0.354086 0.0674556
506 4 0.159479 0.37185 0.0623924
483 4 0.167973 0.378901 0.0463857
481 2 0.184825 0.395567 0.0384236
482 4 0.201678 0.412234 0.0304615
902 4 0.288349 0.355054 0.010108
608 4 0.264125 0.419354 0.0159015
741 4 0.404394 0.377879 0.0813937
671 4 0.499923 0.381421 0.0872227
280 2 0.49393 0.418691 0.0753815
281 4 0.506027 0.397026 0.0784545
552 4 0.0619868 0.474681 0.0769087
1787 4 0.0705511 0.491623 0.075279
609 4 0.217209 0.427937 0.0309341
244 2 0.234959 0.476745 0.0420053
245 4 0.223023 0.463777 0.0597396
627 4 0.21164 0.447408 0.0549927
625 2 0.204009 0.43336 0.074218
272 4 0.253012 0.487599 0.0058415
607 2 0.240667 0.423646 0.0234178
252 4 0.268823 0.438936 0.0204651
250 2 0.292241 0.446283 0.0252443
251 4 0.315658 0.453629 0.0300235
2289 4 0.317272 0.470879 0.0212187
2287 2 0.331215 0.486353 0.00738743
226 2 0.46927 0.474473 0.0690044
227 4 0.484183 0.456797 0.0594989
228 4 0.454358 0.492149 0.07851
282 4 0.481833 0.440357 0.0723085
563 4 0.444335 0.503884 0.0910984
525 4 0.4376 0.485973 0.0872932
16 1 0.0676206 0.054649 0.145222
20 3 0.0694603 0.0667537 0.12602
18 3 0.0564645 0.0347469 0.140997
19 3 0.056156 0.0669099 0.161242
1806 4 0.0606772 0.0256286 0.123538
1804 2 0.0605827 0.0152264 0.100802
17 3 0.0886566 0.0498359 0.153189
652 2 0.329338 0.0191643 0.146308
654 4 0.313424 0.0113542 0.163941
653 4 0.345251 0.0269743 0.128675
484 2 0.371466 0.014992 0.103864
297 4 0.336178 0.0384073 0.115577
485 4 0.352954 0.0301656 0.111092
295 2 0.340015 0.0591183 0.102104
579 4 0.109819 0.157227 0.0893135
237 4 0.156876 0.143398 0.134398
577 2 0.127933 0.156588 0.106537
578 4 0.146047 0.155949 0.12376
235 2 0.162219 0.122134 0.146417
476 4 0.156191 0.162124 0.139549
236 4 0.167563 0.10087 0.158437
691 2 0.207549 0.100009 0.157097
692 4 0.230336 0.0979577 0.147009
737 4 0.16579 0.156013 0.123624
693 4 0.184763 0.102061 0.167184
557 4 0.330429 0.093549 0.0822927
582 4 0.246856 0.0958242 0.136325
580 2 0.268338 0.108233 0.139441
581 4 0.28982 0.120642 0.142557
29 3 0.29879 0.16168 0.155453
26 1 0.306086 0.142761 0.166732
27 3 0.326901 0.136962 0.158839
771 4 0.431775 0.133723 0.096238
769 2 0.439732 0.157051 0.100439
475 2 0.145615 0.17752 0.156171
736 2 0.181305 0.166919 0.107329
738 4 0.19682 0.177825 0.0910338
285 4 0.309398 0.171408 0.139217
461 4 0.324823 0.244992 0.0838985
354 4 0.31377 0.235114 0.147483
462 4 0.322385 0.23289 0.132358
460 2 0.323604 0.238941 0.108128
352 2 0.295517 0.249463 0.156763
283 2 0.315357 0.195586 0.141473
284 4 0.321317 0.219764 0.143729
255 4 0.331066 0.233637 0.147562
253 2 0.349039 0.235925 0.164793
770 4 0.447689 0.18038 0.10464
1014 4 0.457637 0.193743 0.114887
1013 4 0.46586 0.242999 0.117516
1012 2 0.461749 0.218371 0.116202
455 4 0.072652 0.331105 0.174833
300 4 0.123219 0.321976 0.162682
610 2 0.239859 0.33349 0.112523
756 4 0.254704 0.297645 0.116722
612 4 0.257385 0.316293 0.107804
754 2 0.257641 0.284356 0.137697
755 4 0.260578 0.271067 0.158672
323 4 0.45693 0.333321 0.10099
322 2 0.450562 0.310745 0.0923343
324 4 0.444193 0.288168 0.0836786
519 4 0.469092 0.262084 0.11564
517 2 0.482305 0.267101 0.136266
518 4 0.495517 0.272118 0.156893
620 4 0.0165232 0.375801 0.0917854
647 4 0.0369206 0.377022 0.0883751
454 2 0.0732832 0.344527 0.153747
456 4 0.0739144 0.357949 0.13266
648 4 0.0767764 0.359683 0.113105
646 2 0.0568485 0.368353 0.10074
294 4 0.0832767 0.343793 0.12215
293 4 0.12299 0.338541 0.0922162
292 2 0.103133 0.341167 0.107183
626 4 0.196378 0.419312 0.0934432
536 4 0.210621 0.41066 0.104927
611 4 0.222333 0.350687 0.117243
535 2 0.214561 0.386066 0.102748
537 4 0.218502 0.361471 0.100569
739 2 0.394928 0.38554 0.103231
740 4 0.385462 0.393201 0.125069
385 2 0.349595 0.407074 0.123384
386 4 0.372075 0.40075 0.132318
495 4 0.388999 0.406767 0.137541
15 3 0.37466 0.381645 0.136219
11 1 0.385536 0.382231 0.15622
12 3 0.399412 0.363956 0.157836
14 3 0.39834 0.401525 0.157706
670 2 0.480317 0.36739 0.0938472
672 4 0.46071 0.353358 0.100472
550 2 0.0547463 0.451754 0.0837719
551 4 0.0475058 0.428827 0.090635
242 4 0.0794895 0.477489 0.0861155
241 2 0.0992645 0.480788 0.101057
243 4 0.11904 0.484086 0.115998
1440 4 0.135307 0.494505 0.118626
1438 2 0.155969 0.4858 0.10756
1439 4 0.176632 0.477094 0.0964939
639 4 0.193848 0.468101 0.101997
637 2 0.216104 0.47928 0.099794
638 4 0.238361 0.490459 0.0975913
767 4 0.252631 0.504125 0.100343
387 4 0.327114 0.413399 0.114451
303 4 0.298166 0.467028 0.082377
768 4 0.297335 0.482273 0.0953758
301 2 0.306773 0.445331 0.0913406
302 4 0.315381 0.423635 0.100304
766 2 0.274983 0.493199 0.0978595
493 2 0.396831 0.430472 0.136148
494 4 0.404662 0.454176 0.134755
524 4 0.418011 0.468607 0.129901
660 4 0.411321 0.466375 0.147562
523 2 0.427806 0.47729 0.108597
658 2 0.422703 0.480369 0.164878
675 4 0.0850148 0.0555738 0.171915
380 4 0.0717759 0.0698957 0.17337
379 2 0.0630618 0.0801827 0.194428
673 2 0.106422 0.0493376 0.18323
674 4 0.127829 0.0431014 0.194545
450 4 0.144721 0.0524285 0.193373
1505 4 0.140617 0.0429355 0.209952
1504 2 0.14697 0.0198513 0.217158
448 2 0.15882 0.069517 0.18178
1506 4 0.153324 0.996767 0.224365
689 4 0.169429 0.985742 0.218066
632 4 0.389826 0.0396041 0.24243
22 3 0.385841 0.00832058 0.21474
25 3 0.418965 0.00465009 0.231541
757 2 0.433958 0.0389741 0.21838
759 4 0.424424 0.0226022 0.234698
758 4 0.443491 0.0553459 0.202063
350 4 0.428786 0.00990381 0.247391
512 4 0.0495127 0.109586 0.217131
381 4 0.0543476 0.0904697 0.215485
511 2 0.0619146 0.131297 0.21709
513 4 0.0743164 0.153008 0.217049
449 4 0.172918 0.0866055 0.170187
30 3 0.291638 0.125525 0.163153
28 3 0.307648 0.147194 0.189454
339 4 0.0782589 0.162838 0.199021
477 4 0.135038 0.192917 0.172792
337 2 0.0973446 0.174842 0.188213
363 4 0.12093 0.205206 0.177416
338 4 0.11643 0.186846 0.177405
362 4 0.120513 0.243607 0.209446
361 2 0.120722 0.224407 0.193431
370 2 0.147796 0.247417 0.240395
723 4 0.2359 0.218481 0.242185
628 2 0.398482 0.216229 0.191214
630 4 0.378277 0.230408 0.1952
254 4 0.367012 0.238214 0.182023
765 4 0.368703 0.247311 0.198667
629 4 0.418687 0.202049 0.187227
311 4 0.475465 0.21282 0.175664
312 4 0.434578 0.19507 0.198334
310 2 0.455022 0.203945 0.186999
761 4 0.461472 0.193793 0.224624
760 2 0.459048 0.201276 0.248358
749 4 0.0546202 0.321911 0.176935
750 4 0.052082 0.290801 0.216004
395 4 0.0402591 0.293145 0.233289
748 2 0.0533511 0.306356 0.19647
372 4 0.137627 0.249257 0.217627
298 2 0.125887 0.329298 0.18644
733 2 0.129051 0.334954 0.248672
353 4 0.277265 0.263812 0.166043
278 4 0.262281 0.266346 0.177902
277 2 0.264214 0.27702 0.200431
279 4 0.266147 0.287693 0.222959
401 4 0.27972 0.301719 0.226797
496 2 0.308768 0.324823 0.206762
498 4 0.294946 0.3109 0.222264
763 2 0.38141 0.268716 0.196309
764 4 0.394117 0.29012 0.193952
623 4 0.412393 0.290053 0.185292
528 4 0.471427 0.294966 0.205654
624 4 0.453159 0.29801 0.21314
622 2 0.432776 0.294031 0.199216
526 2 0.488068 0.289682 0.187756
527 4 0.50471 0.284399 0.169859
262 2 0.0545942 0.395978 0.203565
263 4 0.0776904 0.389191 0.196806
264 4 0.0314979 0.402765 0.210324
2618 4 0.0280724 0.39539 0.227888
2617 2 0.0109703 0.408232 0.240841
299 4 0.128555 0.33662 0.210198
734 4 0.120711 0.343309 0.226631
602 4 0.0945016 0.39555 0.20377
601 2 0.108878 0.375473 0.207691
603 4 0.123254 0.355395 0.211612
290 4 0.169471 0.421587 0.234055
497 4 0.322591 0.338745 0.191261
308 4 0.316996 0.358062 0.18728
307 2 0.335928 0.367787 0.174159
309 4 0.35486 0.377513 0.161037
13 3 0.370183 0.381554 0.173604
289 2 0.180274 0.42646 0.212038
291 4 0.191076 0.431333 0.190021
416 4 0.203604 0.435735 0.173674
415 2 0.200286 0.460308 0.176888
1430 4 0.19798 0.49616 0.195871
417 4 0.196969 0.484881 0.180103
597 4 0.492925 0.476978 0.210899
659 4 0.434084 0.494363 0.182193
595 2 0.473035 0.483986 0.197466
645 4 0.500277 0.463455 0.198447
232 2 0.00921258 0.0559959 0.309771
1799 4 0.012513 0.0125659 0.309372
233 4 0.0149882 0.0317347 0.311564
1402 2 0.0542124 0.0138149 0.315864
1403 4 0.0301931 0.019906 0.312525
1404 4 0.0782317 0.00772373 0.319204
633 4 0.376412 0.0258704 0.288606
631 2 0.383119 0.0327373 0.265518
257 4 0.36239 0.0342526 0.299058
698 4 0.369913 0.0169869 0.304271
256 2 0.351649 0.0478737 0.317066
349 2 0.442518 0.00455914 0.267591
744 4 0.474716 0.999503 0.296916
742 2 0.489519 0.0124337 0.312372
399 4 0.0724378 0.11998 0.331557
393 4 0.0953189 0.176273 0.299745
398 4 0.0908669 0.162463 0.31268
397 2 0.0816524 0.141221 0.322118
390 4 0.0968764 0.179944 0.318721
249 4 0.199945 0.130377 0.324982
404 4 0.207446 0.144127 0.31317
444 4 0.0396127 0.250843 0.336025
389 4 0.07227 0.217108 0.341394
392 4 0.120245 0.176805 0.256396
391 2 0.107782 0.176539 0.278071
388 2 0.0845732 0.198526 0.330058
545 4 0.138776 0.180709 0.261806
544 2 0.163621 0.178428 0.260156
371 4 0.157964 0.245576 0.263164
403 2 0.204121 0.15855 0.293018
546 4 0.188465 0.176147 0.258505
721 2 0.218373 0.204467 0.253212
405 4 0.200795 0.172973 0.272867
722 4 0.200846 0.190452 0.264238
376 2 0.295861 0.239696 0.331374
377 4 0.298585 0.215145 0.327501
420 4 0.391251 0.211364 0.286851
717 4 0.391556 0.230409 0.284619
418 2 0.415448 0.206122 0.283355
331 2 0.468647 0.192388 0.308708
332 4 0.454784 0.202706 0.290637
419 4 0.439644 0.20088 0.279859
762 4 0.456625 0.208758 0.272092
333 4 0.482509 0.18207 0.326778
453 4 0.494124 0.196792 0.332531
394 2 0.0416358 0.289827 0.258033
442 2 0.0370332 0.268085 0.318101
364 2 0.0254975 0.322572 0.301083
396 4 0.0430125 0.286508 0.282777
443 4 0.0344538 0.285327 0.300178
365 4 0.0336117 0.301763 0.289845
735 4 0.137391 0.326599 0.270714
677 4 0.152046 0.316936 0.278671
508 2 0.230361 0.325727 0.292762
676 2 0.172327 0.327222 0.289067
678 4 0.192608 0.337507 0.299463
510 4 0.249148 0.310785 0.285763
400 2 0.267372 0.301107 0.248531
402 4 0.255024 0.300496 0.270264
345 4 0.267098 0.303051 0.285933
343 2 0.279758 0.288946 0.302241
344 4 0.292417 0.27484 0.318549
715 2 0.387748 0.251919 0.296785
716 4 0.38394 0.273429 0.30895
542 4 0.377909 0.29214 0.310589
541 2 0.388853 0.30152 0.33102
751 2 0.48502 0.31815 0.332005
753 4 0.475216 0.327696 0.311079
407 4 0.0217192 0.359532 0.32228
366 4 0.0173834 0.343382 0.312321
548 4 0.0139039 0.361443 0.304907
547 2 0.0189281 0.385227 0.299056
549 4 0.0239524 0.409012 0.293204
2493 4 0.00286222 0.354001 0.319058
777 4 0.042019 0.407466 0.301593
509 4 0.211574 0.340668 0.29976
435 4 0.20003 0.355549 0.29714
433 2 0.193222 0.372119 0.314584
728 4 0.378357 0.416155 0.30939
2536 2 0.500925 0.360591 0.29221
2538 4 0.489696 0.34077 0.302515
2463 4 0.990617 0.480204 0.314586
775 2 0.0609195 0.416958 0.314929
776 4 0.07982 0.42645 0.328266
1543 2 0.151489 0.484393 0.329053
1545 4 0.174822 0.482721 0.320224
1436 4 0.192978 0.487339 0.31468
727 2 0.366439 0.431906 0.324722
1771 2 0.997283 0.00343027 0.380225
1772 4 0.00794808 0.0194394 0.396198
2236 2 0.00875212 0.0464253 0.412266
606 4 0.154941 0.999278 0.364727
732 4 0.0851639 0.077582 0.384927
369 4 0.0985622 0.0624463 0.378614
367 2 0.0954575 0.0425445 0.393428
368 4 0.0923529 0.0226427 0.408242
604 2 0.167814 0.0179749 0.375211
1701 4 0.188268 0.0542708 0.395199
1699 2 0.20027 0.0617017 0.374561
605 4 0.180686 0.0366716 0.385695
1700 4 0.212271 0.0691326 0.353923
258 4 0.340909 0.0614949 0.335074
424 2 0.348543 0.0636991 0.370121
425 4 0.357393 0.0530159 0.390923
1580 4 0.371858 0.0441639 0.400765
426 4 0.339694 0.0743823 0.349319
1579 2 0.380266 0.0209715 0.404838
730 2 0.0803212 0.0927444 0.365644
317 4 0.0572572 0.112994 0.340018
731 4 0.0754784 0.107907 0.346361
316 2 0.0337434 0.119295 0.345726
318 4 0.0102296 0.125596 0.351433
458 4 0.00762755 0.135822 0.369341
457 2 0.0091561 0.158599 0.379541
247 2 0.201644 0.108282 0.336562
248 4 0.203344 0.0861866 0.348141
319 2 0.317758 0.146524 0.391173
321 4 0.324873 0.162026 0.37289
320 4 0.310643 0.131023 0.409456
2642 4 0.498151 0.130039 0.328296
516 4 0.463422 0.158826 0.379806
575 4 0.468136 0.142271 0.390483
574 2 0.462389 0.13037 0.411708
2654 4 0.018911 0.199509 0.388454
708 4 0.310966 0.175973 0.375253
707 4 0.313628 0.207958 0.336905
706 2 0.312297 0.191966 0.356079
600 4 0.263704 0.179034 0.426931
514 2 0.471433 0.174496 0.362046
515 4 0.479444 0.190166 0.344285
274 2 0.139492 0.314435 0.370683
276 4 0.155413 0.305441 0.387736
275 4 0.123572 0.323429 0.353629
375 4 0.164909 0.290016 0.378041
617 4 0.114569 0.340304 0.361371
373 2 0.187332 0.281675 0.385307
374 4 0.209755 0.273333 0.392574
473 4 0.214427 0.264927 0.409745
378 4 0.293137 0.264247 0.335247
267 4 0.330435 0.282974 0.40094
543 4 0.399797 0.3109 0.351451
467 4 0.390364 0.260564 0.378154
466 2 0.367237 0.265619 0.3862
468 4 0.344109 0.270674 0.394247
615 4 0.406682 0.319696 0.368465
613 2 0.418783 0.311047 0.388564
561 4 0.48786 0.321072 0.366588
752 4 0.494825 0.308604 0.352932
614 4 0.430883 0.302398 0.408662
406 2 0.035478 0.357245 0.343032
408 4 0.0492369 0.354958 0.363784
347 4 0.0600593 0.358676 0.380163
346 2 0.0517039 0.362603 0.4034
618 4 0.0652354 0.346006 0.367237
616 2 0.0899021 0.343155 0.364304
434 4 0.186414 0.388689 0.332027
504 4 0.294735 0.398628 0.405281
335 4 0.389511 0.408999 0.412633
334 2 0.366425 0.41833 0.410356
240 4 0.400176 0.407927 0.429059
414 4 0.0924444 0.434279 0.341315
1544 4 0.128156 0.486065 0.337882
413 4 0.113723 0.479056 0.347868
412 2 0.103084 0.456668 0.344591
500 4 0.122485 0.496256 0.353614
502 2 0.311551 0.415711 0.412391
729 4 0.354522 0.447656 0.340054
437 4 0.356072 0.458681 0.356704
336 4 0.34334 0.427661 0.408078
436 2 0.373205 0.475634 0.363357
438 4 0.390337 0.492587 0.37001
3990 4 0.498901 0.488138 0.380679
1126 2 0.0203612 0.0513288 0.470363
1127 4 0.0252659 0.0646336 0.449769
2237 4 0.0180171 0.0556021 0.4336
720 4 0.0227076 0.0749853 0.433978
1128 4 0.0154564 0.038024 0.490957
1782 4 0.0856054 0.00284922 0.409748
1780 2 0.083357 0.991593 0.431961
724 2 0.314178 0.0580771 0.480225
963 4 0.304274 0.0176104 0.489205
725 4 0.311274 0.03325 0.479625
432 4 0.323707 0.0219465 0.489681
430 2 0.346045 0.0140746 0.497695
642 4 0.435032 0.0529299 0.437977
2878 2 0.436574 0.0198134 0.438777
2880 4 0.442011 0.0405696 0.451615
640 2 0.44062 0.0772384 0.436233
469 2 0.00737632 0.143109 0.467923
470 4 0.0258255 0.135097 0.45307
718 2 0.0312021 0.0973503 0.441246
719 4 0.0396965 0.119715 0.448515
939 4 0.0966328 0.152288 0.482616
1033 2 0.128276 0.140412 0.458766
1035 4 0.15209 0.138808 0.451315
1034 4 0.104462 0.142015 0.466216
261 4 0.164416 0.143387 0.467924
259 2 0.176828 0.164864 0.471062
726 4 0.317082 0.0829043 0.480826
684 4 0.296906 0.136103 0.422281
682 2 0.279999 0.151411 0.432529
1181 4 0.310464 0.122535 0.426949
1182 4 0.325034 0.0966605 0.467185
1180 2 0.317749 0.109598 0.447067
576 4 0.456641 0.11847 0.432934
641 4 0.446209 0.101547 0.43449
306 4 0.437512 0.11869 0.438539
304 2 0.434249 0.129713 0.460743
305 4 0.430985 0.140736 0.482948
695 4 0.17669 0.200797 0.478773
260 4 0.189241 0.186341 0.474199
687 4 0.229876 0.223694 0.45186
686 4 0.186351 0.201367 0.462241
685 2 0.208114 0.212531 0.457051
474 4 0.238413 0.237856 0.444278
599 4 0.245956 0.221985 0.445395
411 4 0.243389 0.231455 0.459776
683 4 0.263092 0.166718 0.442776
598 2 0.25483 0.20051 0.436163
409 2 0.248728 0.233151 0.484144
488 4 0.255797 0.236573 0.448306
487 2 0.276458 0.249608 0.442975
472 2 0.22642 0.251391 0.427012
489 4 0.297118 0.262643 0.437643
266 4 0.337469 0.306183 0.444673
265 2 0.333952 0.294579 0.422806
348 4 0.0433486 0.36653 0.426637
2812 2 0.00297636 0.354171 0.431846
2813 4 0.0231518 0.367243 0.424974
326 4 0.0325608 0.37522 0.440193
325 2 0.0473817 0.387768 0.455942
327 4 0.0622026 0.400316 0.471692
7 3 0.0817891 0.396187 0.469779
6 1 0.0989609 0.38709 0.482088
10 3 0.109566 0.371261 0.469613
8 3 0.113845 0.403948 0.487803
709 2 0.143777 0.420698 0.492026
813 4 0.274017 0.353886 0.463475
811 2 0.261818 0.349973 0.484947
680 4 0.0497546 0.498619 0.499437
679 2 0.0502678 0.47376 0.496797
681 4 0.0507811 0.448901 0.494157
383 4 0.0677639 0.445286 0.505403
710 4 0.168039 0.422631 0.486299
774 4 0.186968 0.420508 0.481716
635 4 0.17377 0.424849 0.467948
636 4 0.176099 0.462526 0.435149
634 2 0.174935 0.443687 0.451548
668 4 0.331547 0.478286 0.45212
4 3 0.322484 0.494949 0.449728
503 4 0.328368 0.432794 0.419501
667 2 0.338145 0.461208 0.435091
669 4 0.344744 0.44413 0.418062
239 4 0.438203 0.437969 0.441393
238 2 0.41919 0.422948 0.435226
588 4 0.442512 0.450095 0.457571
586 2 0.441581 0.442035 0.481221
1184 4 0.0577857 0.022247 0.558867
3077 4 0.0533863 0.024039 0.539895
3076 2 0.0344933 0.0255558 0.523588
1183 2 0.0669364 0.00238809 0.570994
3078 4 0.0156003 0.0270725 0.50728
1152 4 0.147553 0.0491362 0.541635
1150 2 0.141297 0.0651582 0.559783
1151 4 0.135042 0.0811802 0.577931
342 4 0.154979 0.0358958 0.529387
340 2 0.172992 0.0224577 0.540347
2430 4 0.208605 0.0151149 0.54697
341 4 0.191005 0.00901965 0.551308
2428 2 0.22601 0.0198435 0.529652
2429 4 0.243414 0.0245722 0.512335
962 4 0.258968 0.0127024 0.509796
961 2 0.281621 0.0151564 0.4995
841 2 0.398663 0.0249535 0.529406
842 4 0.419707 0.0299977 0.541932
843 4 0.37762 0.0199094 0.516879
431 4 0.368383 0.00620269 0.505708
1217 4 0.438141 0.0217141 0.540189
1061 4 0.493676 0.073768 0.535957
877 2 0.0394191 0.14222 0.545069
878 4 0.0148206 0.141907 0.54954
938 4 0.0709403 0.151911 0.525516
1272 4 0.0762966 0.15793 0.542714
937 2 0.0837865 0.152099 0.504066
879 4 0.0640176 0.142534 0.540598
1199 4 0.00103271 0.156795 0.545675
1154 4 0.153812 0.136783 0.585174
1221 4 0.165037 0.153291 0.58882
3159 4 0.461399 0.133939 0.540358
3157 2 0.445724 0.13909 0.521571
1062 4 0.478619 0.121404 0.538163
1060 2 0.486148 0.0975858 0.53706
3158 4 0.430049 0.144242 0.502785
1270 2 0.0926315 0.169001 0.558069
1258 2 0.118145 0.239511 0.531804
1260 4 0.138704 0.22643 0.526202
1271 4 0.108966 0.180072 0.573424
1244 4 0.109627 0.189068 0.591226
696 4 0.157568 0.222306 0.519668
694 2 0.167129 0.211551 0.49922
898 2 0.289726 0.233895 0.526539
899 4 0.308672 0.224989 0.540211
857 4 0.322957 0.221169 0.553027
791 4 0.32425 0.235273 0.540432
856 2 0.316581 0.202995 0.568972
900 4 0.270781 0.242801 0.512867
410 4 0.254067 0.234848 0.508512
858 4 0.310206 0.184822 0.584918
790 2 0.340796 0.251159 0.550383
1259 4 0.0975859 0.252592 0.537406
651 4 0.292781 0.326129 0.54648
649 2 0.271234 0.330942 0.534744
650 4 0.249686 0.335755 0.523008
792 4 0.357342 0.267046 0.560334
872 4 0.37181 0.281133 0.56065
1238 4 0.360424 0.276977 0.575224
871 2 0.389035 0.286919 0.543475
1237 2 0.350449 0.295928 0.588129
873 4 0.406261 0.292706 0.526301
897 4 0.14045 0.374743 0.588174
9 3 0.0901543 0.377459 0.501274
711 4 0.119516 0.418765 0.497754
773 4 0.211098 0.410073 0.524255
1189 2 0.202294 0.412144 0.567493
1190 4 0.210756 0.410065 0.544057
803 4 0.222823 0.398591 0.53414
802 2 0.233119 0.376505 0.52854
804 4 0.243414 0.354418 0.522939
930 4 0.225737 0.418061 0.534188
772 2 0.199033 0.41529 0.502986
805 2 0.312613 0.336277 0.575181
806 4 0.298241 0.344216 0.556324
812 4 0.24962 0.34606 0.506419
925 2 0.417951 0.397235 0.499983
927 4 0.401566 0.379243 0.494239
2457 4 0.507513 0.347277 0.516105
1010 4 0.503298 0.352868 0.535031
384 4 0.113948 0.428095 0.513899
382 2 0.0908561 0.43669 0.509651
569 4 0.118069 0.442474 0.527094
568 2 0.13439 0.439766 0.545841
570 4 0.150712 0.437057 0.564588
538 2 0.126374 0.484969 0.51408
539 4 0.118536 0.461784 0.519198
928 2 0.248383 0.427967 0.537958
929 4 0.271029 0.437872 0.541727
1951 2 0.267569 0.480388 0.527312
1953 4 0.266888 0.455858 0.532108
1952 4 0.268251 0.504917 0.522516
1001 4 0.414058 0.47495 0.559119
662 4 0.428708 0.461433 0.55735
1000 2 0.394448 0.490054 0.555585
1330 2 0.449082 0.4967 0.547494
661 2 0.429505 0.444952 0.538564
663 4 0.430301 0.42847 0.519778
926 4 0.434336 0.415227 0.505726
1911 4 0.429284 0.474804 0.571612
1332 4 0.431042 0.480111 0.552451
587 4 0.440649 0.433975 0.504872
2374 2 0.136562 0.00167591 0.637037
2375 4 0.130509 0.0258325 0.634802
1057 2 0.125971 0.0618458 0.612363
1058 4 0.128422 0.0455079 0.631131
1059 4 0.123519 0.0781837 0.593595
950 4 0.243241 0.00109787 0.616801
949 2 0.24962 0.0195309 0.632445
2400 4 0.341556 0.0104842 0.629408
951 4 0.255999 0.0379638 0.648088
1031 4 0.267688 0.0521416 0.65368
1030 2 0.288564 0.0657489 0.651623
1032 4 0.309439 0.0793561 0.649566
43 3 0.448647 0.064388 0.631434
45 3 0.468249 0.0405337 0.652983
41 1 0.457196 0.0604429 0.652641
44 3 0.4716 0.0775989 0.658693
1163 4 0.485615 0.086566 0.668356
1155 4 0.138474 0.0902101 0.594996
1153 2 0.146143 0.113496 0.590085
810 4 0.477054 0.095286 0.65297
808 2 0.484876 0.103179 0.630572
809 4 0.492698 0.111072 0.608173
3252 4 0.49341 0.121587 0.592272
1245 4 0.0984972 0.187953 0.639966
1209 4 0.107381 0.170937 0.644985
1243 2 0.104062 0.188511 0.615596
1211 4 0.234577 0.177388 0.652888
1219 2 0.181918 0.171459 0.592002
1220 4 0.198799 0.189628 0.595183
1210 2 0.22321 0.182536 0.63122
1212 4 0.211844 0.187683 0.609553
796 2 0.206419 0.226772 0.599327
798 4 0.213061 0.202703 0.598006
888 4 0.25048 0.171691 0.664219
3121 2 0.497007 0.200438 0.611313
3123 4 0.482191 0.22057 0.611937
905 4 0.480823 0.235873 0.599615
982 2 0.0304992 0.33334 0.656846
983 4 0.0113529 0.319395 0.648838
797 4 0.199778 0.250841 0.600647
807 4 0.326985 0.328337 0.594038
1239 4 0.340474 0.314879 0.601034
906 4 0.464947 0.282622 0.591663
904 2 0.472885 0.259247 0.595639
953 4 0.457527 0.300031 0.593988
952 2 0.475806 0.316818 0.597031
984 4 0.0496456 0.347285 0.664854
1041 4 0.0647975 0.354423 0.65425
1039 2 0.0609199 0.377749 0.646123
1040 4 0.0570423 0.401075 0.637997
1137 4 0.125728 0.38761 0.586252
1135 2 0.108018 0.370142 0.588779
1136 4 0.0903073 0.352674 0.591305
895 2 0.158113 0.391839 0.592751
1028 4 0.195709 0.390693 0.651539
1027 2 0.192448 0.403837 0.63052
1029 4 0.189188 0.416982 0.609502
1191 4 0.193833 0.414223 0.59093
1068 4 0.180387 0.380914 0.66065
896 4 0.175776 0.408934 0.597327
1206 4 0.476879 0.409532 0.619692
3309 4 0.493223 0.399558 0.614244
954 4 0.494084 0.333605 0.600075
3307 2 0.496656 0.375627 0.607863
993 4 0.0615963 0.417472 0.627606
991 2 0.0438695 0.434924 0.62508
992 4 0.0261427 0.452375 0.622555
1172 4 0.180181 0.427569 0.595686
1160 4 0.190279 0.489046 0.596335
1171 2 0.182339 0.451595 0.602262
1173 4 0.184498 0.475622 0.608838
1187 4 0.184876 0.494308 0.614607
1186 2 0.174157 0.495585 0.637161
1909 2 0.428834 0.461834 0.592983
1268 4 0.449122 0.489559 0.661551
1267 2 0.441709 0.470351 0.647363
1204 2 0.455113 0.421486 0.622613
1910 4 0.428383 0.448863 0.614355
1269 4 0.434296 0.451143 0.633176
1205 4 0.433347 0.433439 0.625535
2168 4 0.468887 0.487261 0.664937
1284 4 0.0954308 0.0450389 0.728326
1282 2 0.111593 0.0637359 0.724533
1225 2 0.168194 0.0838281 0.711794
1283 4 0.127755 0.0824328 0.720741
1201 2 0.202698 0.0426317 0.727064
1203 4 0.206219 0.0646075 0.715669
1226 4 0.192588 0.0783693 0.712386
1148 4 0.210104 0.0804921 0.704259
1202 4 0.199177 0.0206559 0.738459
2049 4 0.18998 0.015736 0.755192
42 3 0.439787 0.0597036 0.667658
1075 2 0.00975467 0.12343 0.721575
1077 4 0.0324845 0.132376 0.726914
850 2 0.0604367 0.148725 0.716235
852 4 0.0380324 0.150757 0.727148
864 4 0.0411749 0.139473 0.742812
1207 2 0.10009 0.162015 0.667176
1227 4 0.143801 0.0892869 0.711202
909 4 0.0987226 0.137462 0.69867
907 2 0.112755 0.11728 0.70325
908 4 0.126788 0.0970991 0.70783
851 4 0.082841 0.146693 0.705322
1208 4 0.0928002 0.153093 0.689367
1107 4 0.100504 0.154526 0.707302
1147 2 0.222904 0.0935699 0.721298
1149 4 0.235704 0.106648 0.738336
829 2 0.319892 0.150978 0.699207
830 4 0.301359 0.167722 0.700353
831 4 0.338426 0.134234 0.69806
1142 4 0.354807 0.138593 0.709896
1141 2 0.374565 0.152996 0.715123
1026 4 0.411254 0.158616 0.724573
1143 4 0.394324 0.1674 0.72035
3426 4 0.466999 0.0935205 0.669338
1025 4 0.44459 0.121373 0.726119
3424 2 0.462077 0.105729 0.690597
3425 4 0.457156 0.117937 0.711855
3269 4 0.463533 0.123375 0.72932
1024 2 0.427922 0.139994 0.725346
3268 2 0.477887 0.136176 0.745297
845 4 0.455276 0.105498 0.72608
844 2 0.446433 0.086596 0.739853
1214 4 0.0232703 0.163516 0.725342
1213 2 0.0111226 0.184306 0.718604
1105 2 0.114513 0.170109 0.720944
1106 4 0.128523 0.185692 0.734585
1130 4 0.14784 0.186775 0.726372
1129 2 0.159484 0.200193 0.743966
887 4 0.283242 0.173323 0.701965
886 2 0.266861 0.172507 0.683092
978 4 0.298007 0.181379 0.713478
976 2 0.30382 0.196561 0.732475
916 2 0.333974 0.240985 0.734587
977 4 0.309633 0.211743 0.751472
1262 4 0.40645 0.176752 0.731958
1194 4 0.411471 0.174628 0.713538
1193 4 0.426841 0.208614 0.680229
1192 2 0.419156 0.191621 0.696884
1261 2 0.417121 0.185738 0.752708
3262 2 0.0746516 0.334286 0.691307
893 4 0.0705352 0.30947 0.721129
3264 4 0.0820667 0.318675 0.709376
892 2 0.06436 0.319683 0.7431
779 4 0.087796 0.302225 0.717535
778 2 0.10552 0.286588 0.725692
780 4 0.123245 0.270952 0.733848
1065 4 0.247087 0.304436 0.679909
1064 4 0.289436 0.316715 0.703499
1063 2 0.268261 0.310576 0.691704
946 2 0.319726 0.291601 0.712859
948 4 0.307705 0.310328 0.701458
947 4 0.331748 0.272874 0.724259
917 4 0.344107 0.257889 0.719201
1008 4 0.442834 0.284154 0.697948
1006 2 0.451827 0.274175 0.719037
1007 4 0.46082 0.264197 0.740126
3263 4 0.0672365 0.349898 0.673239
941 4 0.137373 0.38452 0.710614
1067 4 0.156269 0.381219 0.704455
940 2 0.129718 0.381741 0.734254
1066 2 0.168328 0.381066 0.682552
884 4 0.0651108 0.471151 0.743377
1139 4 0.298788 0.44073 0.685245
1138 2 0.310087 0.444811 0.707173
1140 4 0.321386 0.448892 0.729102
1989 4 0.317528 0.449782 0.747632
1229 4 0.336239 0.449897 0.741629
1230 4 0.381225 0.428318 0.745004
1100 4 0.40033 0.425466 0.744992
1228 2 0.358732 0.439108 0.743316
1099 2 0.419541 0.440675 0.74001
1101 4 0.438751 0.455884 0.735028
3330 4 0.457825 0.459919 0.733958
3328 2 0.463201 0.460771 0.709554
1251 4 0.44758 0.471231 0.745189
3329 4 0.468576 0.461624 0.68515
1249 2 0.450632 0.495574 0.750015
834 4 0.0332677 0.0745077 0.81738
785 4 0.0179421 0.0723022 0.828446
2048 4 0.142321 0.0121375 0.769904
2047 2 0.16615 0.0139367 0.762548
2254 2 0.226585 0.0215305 0.772091
2255 4 0.244133 0.023884 0.789746
2256 4 0.209038 0.019177 0.754435
1113 4 0.359557 0.0622436 0.802045
1111 2 0.370541 0.0814734 0.813652
1112 4 0.381525 0.100703 0.82526
2442 4 0.449097 0.0105221 0.813804
2321 4 0.447423 0.0217688 0.797851
2322 4 0.432903 0.0501181 0.759299
2320 2 0.440163 0.0359435 0.778575
846 4 0.43759 0.067694 0.753626
980 4 0.433482 0.021746 0.811319
979 2 0.413791 0.0178624 0.826231
832 2 0.0472553 0.0939927 0.810319
862 2 0.046147 0.128425 0.764684
863 4 0.0511191 0.117376 0.786557
833 4 0.0612429 0.113478 0.803258
1125 4 0.0604437 0.131762 0.796357
1123 2 0.0688667 0.150735 0.810295
1124 4 0.0772898 0.169708 0.824233
34 3 0.109149 0.180173 0.813344
1257 4 0.234066 0.107598 0.758341
1255 2 0.224666 0.117821 0.779132
921 4 0.20653 0.134706 0.816032
919 2 0.192771 0.154361 0.82307
840 4 0.225589 0.138101 0.813363
1256 4 0.215265 0.128044 0.799924
838 2 0.248598 0.141883 0.822389
839 4 0.271606 0.145665 0.831416
818 4 0.396742 0.108114 0.836457
817 2 0.390581 0.131863 0.841273
819 4 0.384419 0.155612 0.846088
3270 4 0.49224 0.148978 0.761275
1146 4 0.483703 0.164104 0.76933
33 3 0.103888 0.206436 0.840307
1131 4 0.171127 0.213612 0.76156
822 4 0.175373 0.231747 0.768063
1277 4 0.182076 0.216585 0.777645
1276 2 0.178031 0.20258 0.79796
920 4 0.179011 0.174015 0.830108
1278 4 0.173986 0.188575 0.818274
918 4 0.323841 0.224081 0.749974
1298 4 0.32673 0.207599 0.760875
1297 2 0.334369 0.193531 0.780083
1299 4 0.342008 0.179464 0.79929
1086 4 0.335603 0.175497 0.817886
50 3 0.403786 0.205259 0.809658
1084 2 0.356428 0.17512 0.83172
46 1 0.425797 0.202521 0.804492
49 3 0.433836 0.221478 0.793797
1043 4 0.438725 0.210401 0.777418
48 3 0.438026 0.198534 0.823804
47 3 0.428083 0.184493 0.790388
1263 4 0.427792 0.194723 0.773459
1145 4 0.444287 0.19228 0.781707
1144 2 0.463995 0.178192 0.775519
1042 2 0.44536 0.23127 0.765351
820 2 0.167888 0.25323 0.778438
821 4 0.160404 0.274714 0.788813
1236 4 0.232263 0.312188 0.772655
1234 2 0.238536 0.325307 0.792995
1044 4 0.451995 0.25214 0.753283
1166 4 0.46227 0.267883 0.758857
1165 2 0.483048 0.269574 0.772662
894 4 0.0581848 0.329897 0.765071
3275 4 0.00717642 0.352465 0.799476