ITEM: TIMESTEP
3280000
ITEM: NUMBER OF ATOMS
4590
ITEM: BOX BOUNDS pp pp pp
-9.9985700000000008e+00 9.9985700000000008e+00
-9.9985700000000008e+00 9.9985700000000008e+00
-9.9985700000000008e+00 9.9985700000000008e+00
ITEM: ATOMS id type xs ys zs
1805 4 0.0623935 0.00825557 0.0769892
700 2 0.118185 0.0791307 0.0341553
702 4 0.141214 0.0829299 0.0251864
566 4 0.151137 0.0681056 0.0135758
746 4 0.486054 0.0486094 0.0444556
2469 4 0.500081 0.0448343 0.0583653
745 2 0.473472 0.0532258 0.0233476
985 2 0.430212 0.0799341 0.997612
463 2 0.0546968 0.0864259 0.0454778
464 4 0.033665 0.0998008 0.0474673
590 4 0.0172447 0.107874 0.0556597
589 2 0.998951 0.101833 0.0715979
465 4 0.0757285 0.0730511 0.0434884
701 4 0.095157 0.0753316 0.0431243
579 4 0.117624 0.13817 0.084232
558 4 0.351696 0.119887 0.0505805
556 2 0.338204 0.107343 0.0674868
866 4 0.34619 0.135054 0.0402342
865 2 0.350976 0.159065 0.0453072
827 4 0.354711 0.11995 0.0317609
557 4 0.324713 0.0947993 0.0843932
826 2 0.373003 0.105631 0.0225107
986 4 0.409558 0.0925502 0.00388963
828 4 0.391295 0.0913125 0.0132605
554 4 0.0360761 0.205891 0.0249341
553 2 0.058352 0.20898 0.0358621
555 4 0.0806278 0.21207 0.04679
835 2 0.107019 0.215965 0.00883512
836 4 0.0915369 0.214526 0.0284157
837 4 0.122502 0.217403 0.989255
666 4 0.331397 0.240696 0.0698046
573 4 0.317416 0.25432 0.0712318
664 2 0.34213 0.221454 0.0579829
665 4 0.352863 0.202213 0.0461612
867 4 0.355761 0.183077 0.0503802
2808 4 0.0476668 0.298025 0.0421886
2806 2 0.0266503 0.292408 0.0545149
2807 4 0.00563375 0.286792 0.0668411
356 4 0.310278 0.317829 0.0653478
572 4 0.299463 0.300966 0.0696408
355 2 0.305564 0.325621 0.0420617
571 2 0.308439 0.277643 0.0704363
1070 4 0.393314 0.272179 0.0700069
1069 2 0.417489 0.268268 0.0750514
1071 4 0.441664 0.264357 0.080096
620 4 0.0152115 0.381789 0.0865908
647 4 0.0355532 0.38086 0.0852379
293 4 0.123326 0.336788 0.0877925
507 4 0.121981 0.346477 0.0707631
505 2 0.138797 0.356323 0.0550963
506 4 0.155613 0.366169 0.0394295
483 4 0.169454 0.379783 0.0419973
481 2 0.186037 0.396454 0.033498
609 4 0.219883 0.422846 0.0229421
482 4 0.20262 0.413126 0.0249987
357 4 0.30085 0.333413 0.0187755
902 4 0.29415 0.350442 0.00915218
741 4 0.408177 0.377901 0.0818264
671 4 0.496395 0.372686 0.0822439
280 2 0.498078 0.413367 0.0705103
281 4 0.500348 0.391434 0.0823
550 2 0.0654105 0.449134 0.0849126
552 4 0.0734454 0.472384 0.0804339
1787 4 0.0600946 0.487089 0.081099
551 4 0.0573755 0.425884 0.0893913
244 2 0.234703 0.486002 0.0437105
245 4 0.225269 0.471434 0.0617088
627 4 0.222755 0.451084 0.0630783
625 2 0.214455 0.430663 0.0748789
246 4 0.244138 0.50057 0.0257122
272 4 0.249428 0.490985 0.00964921
607 2 0.244316 0.419477 0.0188379
608 4 0.26875 0.416108 0.0147337
252 4 0.2704 0.434972 0.021395
250 2 0.292516 0.446411 0.0236718
251 4 0.314633 0.45785 0.0259486
2289 4 0.316671 0.47787 0.0308291
2287 2 0.330054 0.489758 0.0133715
226 2 0.464588 0.460034 0.0700303
227 4 0.479103 0.439776 0.0679999
228 4 0.450074 0.480292 0.0720606
282 4 0.495808 0.435299 0.0587206
563 4 0.44137 0.497075 0.0784195
16 1 0.0600466 0.0560762 0.139173
20 3 0.0550125 0.0718694 0.123556
18 3 0.0573695 0.0348724 0.130138
19 3 0.0462951 0.0585894 0.157693
1806 4 0.0735148 0.0263326 0.122269
1804 2 0.0679541 0.0172941 0.099629
17 3 0.0819362 0.0586428 0.145761
675 4 0.080455 0.0605561 0.166465
652 2 0.325549 0.017895 0.135045
654 4 0.308328 0.0153092 0.152988
296 4 0.336082 0.0786574 0.0830242
653 4 0.342771 0.0204808 0.117103
484 2 0.378737 0.00638419 0.101432
297 4 0.346727 0.0356061 0.106132
485 4 0.359732 0.0210547 0.108415
295 2 0.341404 0.0571317 0.0945781
486 4 0.397743 0.991714 0.0944497
237 4 0.157918 0.138456 0.132617
577 2 0.1332 0.144587 0.102708
578 4 0.148777 0.151004 0.121184
235 2 0.166535 0.122219 0.149567
476 4 0.154296 0.156979 0.138865
236 4 0.175151 0.105983 0.166518
691 2 0.209864 0.092243 0.154736
692 4 0.232706 0.0943434 0.144786
582 4 0.250252 0.0945654 0.136589
449 4 0.174534 0.09168 0.179652
737 4 0.167928 0.153444 0.125083
693 4 0.187022 0.0901425 0.164685
580 2 0.262008 0.112321 0.149693
581 4 0.273765 0.130076 0.162797
29 3 0.299342 0.157568 0.14672
771 4 0.41459 0.14029 0.101441
769 2 0.428159 0.161104 0.104238
475 2 0.146083 0.174837 0.154319
736 2 0.184604 0.169796 0.116154
738 4 0.201279 0.186148 0.107226
285 4 0.315083 0.169666 0.14662
461 4 0.320972 0.242183 0.0863817
354 4 0.31997 0.233571 0.152603
462 4 0.324766 0.234985 0.135722
460 2 0.322869 0.238584 0.111052
352 2 0.29927 0.243972 0.16201
283 2 0.317904 0.19443 0.144618
284 4 0.320725 0.219193 0.142616
255 4 0.33551 0.227064 0.146944
253 2 0.353076 0.232596 0.163856
770 4 0.441727 0.181919 0.107035
1014 4 0.459962 0.192273 0.104399
1013 4 0.465154 0.241986 0.105925
1012 2 0.462558 0.217129 0.105162
455 4 0.0680239 0.328557 0.166464
454 2 0.0661418 0.338841 0.143751
610 2 0.24086 0.330572 0.121219
756 4 0.246411 0.283921 0.122198
612 4 0.244425 0.305832 0.12185
754 2 0.258184 0.276773 0.143066
755 4 0.269958 0.269625 0.163934
323 4 0.454968 0.327585 0.105506
322 2 0.448874 0.305425 0.0956597
324 4 0.44278 0.283264 0.0858131
519 4 0.467019 0.262764 0.109323
517 2 0.482729 0.267636 0.128155
456 4 0.0642597 0.349125 0.121038
648 4 0.0641161 0.343556 0.102364
646 2 0.0498347 0.362208 0.093801
294 4 0.0806889 0.348114 0.11134
292 2 0.102008 0.342451 0.0995661
626 4 0.206156 0.410241 0.0866795
536 4 0.206298 0.404566 0.106196
611 4 0.237295 0.355312 0.120589
535 2 0.212986 0.380587 0.108537
537 4 0.219675 0.356609 0.110878
387 4 0.328435 0.418983 0.126632
739 2 0.399061 0.386326 0.103531
740 4 0.389945 0.39475 0.125236
385 2 0.35159 0.410489 0.130742
386 4 0.374745 0.401995 0.134852
495 4 0.392294 0.408907 0.138453
15 3 0.378295 0.382401 0.134509
11 1 0.389034 0.38317 0.154577
12 3 0.40414 0.365862 0.155756
14 3 0.400461 0.403256 0.156677
670 2 0.477849 0.359873 0.0930641
672 4 0.459304 0.34706 0.103884
242 4 0.0778039 0.490203 0.0876785
241 2 0.0983915 0.49218 0.101729
243 4 0.118979 0.494156 0.11578
1440 4 0.138615 0.489692 0.120498
1438 2 0.162489 0.494634 0.11495
1439 4 0.186363 0.499576 0.109401
639 4 0.190396 0.47996 0.110002
637 2 0.215082 0.476588 0.107907
638 4 0.239769 0.473215 0.105812
767 4 0.246629 0.492662 0.102754
303 4 0.298559 0.459247 0.0852613
768 4 0.293092 0.474924 0.0975274
301 2 0.312998 0.448662 0.102715
302 4 0.327437 0.438076 0.120169
766 2 0.26986 0.483793 0.100141
493 2 0.399322 0.432885 0.139392
660 4 0.421577 0.467869 0.145972
494 4 0.40635 0.456862 0.14033
524 4 0.418232 0.465059 0.127192
525 4 0.433736 0.480002 0.0820582
523 2 0.425984 0.472531 0.104625
658 2 0.4325 0.482897 0.162706
380 4 0.0608301 0.0656441 0.170005
379 2 0.0558772 0.0815048 0.188689
673 2 0.103049 0.0544803 0.175285
674 4 0.125642 0.0484045 0.184104
450 4 0.13851 0.059428 0.192412
1505 4 0.138685 0.0394406 0.194539
1504 2 0.146671 0.023414 0.21199
448 2 0.156522 0.075554 0.186032
1506 4 0.154657 0.00738729 0.229441
689 4 0.174844 0.0084432 0.225225
632 4 0.363968 0.0407854 0.247111
22 3 0.390992 0.0140219 0.209471
25 3 0.415799 0.00446698 0.235666
757 2 0.443361 0.0307691 0.217792
759 4 0.42768 0.0203655 0.234255
758 4 0.459043 0.0411726 0.201328
350 4 0.430479 0.00679684 0.248482
512 4 0.0535024 0.114691 0.215373
381 4 0.0509243 0.0973656 0.207372
511 2 0.060046 0.138632 0.212345
513 4 0.0665895 0.162574 0.209318
30 3 0.289999 0.132701 0.173403
26 1 0.306809 0.145696 0.165205
28 3 0.314183 0.160372 0.181596
27 3 0.324351 0.132254 0.158821
339 4 0.0747974 0.172777 0.193046
477 4 0.13787 0.192694 0.169773
337 2 0.0968208 0.17999 0.183659
363 4 0.123699 0.20568 0.171032
338 4 0.118844 0.187203 0.174272
362 4 0.13477 0.238349 0.207238
361 2 0.129235 0.222015 0.189135
370 2 0.147287 0.241033 0.237545
723 4 0.236922 0.194155 0.238986
628 2 0.399093 0.208623 0.186163
630 4 0.378856 0.2227 0.190343
254 4 0.370642 0.238128 0.180769
765 4 0.384979 0.240963 0.193862
629 4 0.41933 0.194546 0.181983
311 4 0.478036 0.211397 0.185123
312 4 0.432374 0.194302 0.196237
310 2 0.455205 0.20285 0.19068
761 4 0.459982 0.188889 0.22301
749 4 0.0567225 0.318327 0.178957
750 4 0.0480891 0.280797 0.210859
395 4 0.0411536 0.286866 0.228254
748 2 0.0524058 0.299562 0.194908
394 2 0.0378268 0.293125 0.252232
372 4 0.13872 0.253995 0.217955
300 4 0.119142 0.315684 0.161178
298 2 0.123704 0.329728 0.181356
299 4 0.128266 0.343772 0.201533
733 2 0.131569 0.332471 0.240021
353 4 0.278569 0.254373 0.171416
278 4 0.267602 0.266133 0.18254
277 2 0.265443 0.281748 0.201948
279 4 0.263283 0.297364 0.221356
401 4 0.280092 0.302646 0.230661
496 2 0.304428 0.319977 0.210906
498 4 0.293006 0.298576 0.216963
763 2 0.387795 0.265758 0.192295
764 4 0.390611 0.290553 0.190728
623 4 0.409904 0.297018 0.190188
528 4 0.477011 0.292336 0.207537
624 4 0.459454 0.29736 0.19692
622 2 0.434679 0.297189 0.193554
526 2 0.487547 0.283368 0.186711
262 2 0.0598709 0.395022 0.217131
263 4 0.076565 0.384045 0.202097
734 4 0.120366 0.336497 0.218033
602 4 0.0959857 0.391691 0.204574
601 2 0.111417 0.373162 0.211187
603 4 0.126849 0.354633 0.217799
290 4 0.164244 0.414119 0.239085
497 4 0.315851 0.341378 0.204848
308 4 0.317415 0.351247 0.188718
307 2 0.339119 0.359081 0.179088
309 4 0.360823 0.366916 0.169458
13 3 0.373703 0.380936 0.171851
264 4 0.0431768 0.405998 0.232164
2618 4 0.0287615 0.411107 0.21808
2617 2 0.0105883 0.412124 0.235223
289 2 0.174289 0.417307 0.216411
291 4 0.184334 0.420495 0.193737
416 4 0.182678 0.43928 0.185342
415 2 0.192689 0.461688 0.180561
1430 4 0.216769 0.490331 0.188268
417 4 0.2027 0.484095 0.175781
597 4 0.485383 0.471734 0.221121
659 4 0.443423 0.497924 0.179441
595 2 0.469895 0.486571 0.208269
232 2 0.00231343 0.0554746 0.308583
1799 4 0.0125639 0.0138897 0.307871
233 4 0.0137725 0.0333291 0.31044
1402 2 0.0545884 0.019567 0.308662
1403 4 0.0297804 0.0226883 0.308635
1404 4 0.0793964 0.0164457 0.308688
1798 2 0.00482157 0.999311 0.326651
633 4 0.375021 0.0264594 0.29373
631 2 0.369495 0.0336224 0.270421
257 4 0.359008 0.0341788 0.301086
698 4 0.366167 0.0168263 0.307758
256 2 0.350676 0.0500463 0.318521
349 2 0.443994 0.00165313 0.26888
744 4 0.472689 0.0122929 0.291003
742 2 0.488866 0.0148526 0.309896
351 4 0.457508 0.996509 0.289278
743 4 0.505044 0.0174123 0.328788
393 4 0.0998519 0.1605 0.299532
398 4 0.101771 0.1493 0.315261
392 4 0.119571 0.174228 0.255676
391 2 0.109712 0.167364 0.277604
397 2 0.0866085 0.13098 0.322984
249 4 0.200789 0.131555 0.325229
404 4 0.200036 0.150948 0.323213
444 4 0.0497056 0.250638 0.316927
388 2 0.0834011 0.188499 0.321264
390 4 0.0905126 0.165157 0.31581
545 4 0.13714 0.181868 0.254414
544 2 0.160889 0.182146 0.262228
371 4 0.155855 0.228071 0.257134
403 2 0.194682 0.168354 0.30608
546 4 0.184639 0.182425 0.270043
721 2 0.220171 0.189342 0.256915
405 4 0.189328 0.18576 0.288946
722 4 0.203421 0.184529 0.274843
376 2 0.296981 0.234215 0.329034
420 4 0.382412 0.22017 0.28085
717 4 0.370331 0.234047 0.288893
418 2 0.405703 0.211154 0.279667
715 2 0.370465 0.256017 0.30083
331 2 0.462133 0.189048 0.303044
332 4 0.443763 0.191607 0.286275
419 4 0.428994 0.202138 0.278484
760 2 0.453298 0.195073 0.246296
762 4 0.446613 0.201256 0.269583
333 4 0.480502 0.18649 0.319813
442 2 0.0408932 0.270788 0.305032
364 2 0.0300467 0.326365 0.304978
396 4 0.0344999 0.299385 0.27621
443 4 0.0320807 0.290938 0.293137
365 4 0.0408153 0.3083 0.291455
735 4 0.142772 0.328445 0.262009
677 4 0.148768 0.315869 0.274314
508 2 0.229744 0.329009 0.286351
509 4 0.207307 0.339791 0.284
676 2 0.171865 0.320862 0.282486
510 4 0.252181 0.318227 0.288702
400 2 0.269575 0.303972 0.253306
378 4 0.296766 0.258703 0.334082
402 4 0.259057 0.305297 0.275951
345 4 0.267107 0.306095 0.293692
343 2 0.279734 0.288618 0.306353
344 4 0.292362 0.271142 0.319014
716 4 0.3706 0.277987 0.312766
542 4 0.373293 0.297821 0.306555
541 2 0.388754 0.306427 0.32422
751 2 0.48193 0.316216 0.332373
753 4 0.479047 0.324857 0.309088
2538 4 0.493118 0.337224 0.302575
407 4 0.0234267 0.361337 0.327091
366 4 0.0192782 0.34443 0.318501
548 4 0.0165954 0.360279 0.308143
547 2 0.026971 0.379844 0.296536
549 4 0.0373466 0.399409 0.284929
2493 4 0.00490184 0.356975 0.322616
678 4 0.194962 0.325854 0.290658
435 4 0.195125 0.343907 0.297931
433 2 0.190663 0.358391 0.317817
728 4 0.355915 0.407041 0.308419
777 4 0.0414856 0.409322 0.302282
2463 4 0.00193521 0.490058 0.287776
775 2 0.0576696 0.421213 0.317177
1543 2 0.15313 0.483303 0.331401
1545 4 0.174684 0.478485 0.31968
1436 4 0.190522 0.49066 0.322617
727 2 0.358564 0.427934 0.321898
729 4 0.361214 0.448826 0.335377
2861 4 0.509947 0.439282 0.313872
1772 4 0.00450545 0.0211927 0.401813
732 4 0.0873996 0.0736708 0.382525
369 4 0.0948295 0.0590903 0.370311
367 2 0.0997348 0.041115 0.386985
368 4 0.10464 0.0231398 0.403659
604 2 0.168928 0.0206797 0.379018
1701 4 0.18798 0.0441374 0.384279
1699 2 0.203108 0.0623656 0.376275
605 4 0.170862 0.0393661 0.395518
1581 4 0.385912 0.993919 0.408001
258 4 0.342344 0.0659138 0.335956
424 2 0.350022 0.0657026 0.374527
425 4 0.356104 0.0552341 0.396403
1580 4 0.369919 0.0407881 0.401054
426 4 0.343939 0.0761711 0.35265
1579 2 0.377915 0.0173537 0.404528
480 4 0.502833 0.0654387 0.378078
399 4 0.071446 0.11266 0.330708
730 2 0.077245 0.0877854 0.364557
317 4 0.0527561 0.108954 0.336225
731 4 0.0670904 0.1019 0.346589
316 2 0.0307592 0.11428 0.346853
318 4 0.00876232 0.119606 0.357481
458 4 0.00549967 0.131453 0.375229
457 2 0.000634727 0.155946 0.376497
247 2 0.209391 0.114435 0.341294
248 4 0.217993 0.0973151 0.35736
1700 4 0.218236 0.0805937 0.368272
708 4 0.327856 0.173965 0.372712
683 4 0.265277 0.170818 0.431795
319 2 0.321668 0.146775 0.389111
321 4 0.331423 0.155427 0.367776
2642 4 0.489629 0.11815 0.340014
516 4 0.465677 0.161336 0.382076
575 4 0.457601 0.147764 0.393999
389 4 0.0762897 0.211842 0.326718
377 4 0.297196 0.209727 0.323986
707 4 0.310395 0.205665 0.338203
706 2 0.319125 0.189815 0.355458
600 4 0.262718 0.180533 0.414711
514 2 0.473264 0.170863 0.360239
453 4 0.493233 0.193787 0.331461
515 4 0.480851 0.180389 0.338402
274 2 0.137578 0.310028 0.375278
276 4 0.148024 0.292702 0.389971
275 4 0.127133 0.327354 0.360585
375 4 0.155571 0.27697 0.378594
373 2 0.178584 0.277118 0.38837
374 4 0.201597 0.277265 0.398146
473 4 0.21245 0.265366 0.409508
543 4 0.404215 0.315032 0.341886
467 4 0.378462 0.260429 0.366523
466 2 0.366036 0.267588 0.387005
615 4 0.421737 0.309116 0.349461
468 4 0.35361 0.274748 0.407487
267 4 0.333912 0.280252 0.407311
613 2 0.421277 0.300885 0.373067
561 4 0.492919 0.3221 0.364993
752 4 0.484813 0.307575 0.355658
614 4 0.420818 0.292653 0.396672
406 2 0.0367363 0.359727 0.348197
408 4 0.050046 0.358117 0.369302
347 4 0.0663543 0.354039 0.380077
346 2 0.0565478 0.357177 0.402862
618 4 0.0632204 0.345068 0.363277
617 4 0.108301 0.326087 0.352877
616 2 0.0857608 0.335578 0.358077
434 4 0.186201 0.372876 0.337703
504 4 0.283291 0.41075 0.403239
335 4 0.388736 0.39966 0.407589
334 2 0.365693 0.408852 0.410704
240 4 0.403947 0.414176 0.40779
776 4 0.0738536 0.433105 0.332072
414 4 0.0914535 0.435538 0.339517
1544 4 0.131576 0.488122 0.343122
413 4 0.116606 0.477643 0.349275
412 2 0.10403 0.456591 0.344396
500 4 0.118262 0.495322 0.355119
437 4 0.363714 0.445549 0.355225
336 4 0.34265 0.418043 0.41382
436 2 0.377244 0.464999 0.363213
438 4 0.390774 0.484449 0.3712
593 4 0.394263 0.504786 0.366592
3988 2 0.47596 0.50281 0.368518
3990 4 0.489022 0.481675 0.371328
1782 4 0.0966901 0.0112258 0.417031
2236 2 0.00563553 0.0552407 0.416205
1126 2 0.0168701 0.0552458 0.469575
1127 4 0.0254429 0.0672637 0.449394
2237 4 0.0163449 0.0712106 0.432188
720 4 0.0319166 0.0812006 0.439549
1780 2 0.0868936 0.00106366 0.437669
1128 4 0.00829726 0.0432279 0.489755
2429 4 0.242743 0.0184273 0.507935
724 2 0.311795 0.0644079 0.484726
963 4 0.302654 0.0230723 0.492828
725 4 0.308277 0.0396612 0.484089
726 4 0.315312 0.0891547 0.485362
432 4 0.321014 0.0257302 0.486787
642 4 0.437808 0.0522789 0.43997
2878 2 0.435132 0.0190044 0.446107
2880 4 0.42827 0.0415468 0.45447
640 2 0.446257 0.0758115 0.439857
470 4 0.0258849 0.141994 0.455354
718 2 0.0317508 0.106203 0.439655
719 4 0.031585 0.131206 0.439761
939 4 0.0931548 0.134364 0.482125
1033 2 0.133393 0.135432 0.462586
1035 4 0.157007 0.130699 0.455868
1034 4 0.109778 0.140166 0.469303
261 4 0.174021 0.140159 0.461041
259 2 0.182645 0.162053 0.469495
320 4 0.311913 0.138123 0.410445
684 4 0.29948 0.13496 0.425084
682 2 0.282378 0.152889 0.42844
1181 4 0.317441 0.127348 0.426188
1182 4 0.321703 0.099368 0.467415
1180 2 0.319572 0.113358 0.446802
574 2 0.458606 0.132272 0.413598
576 4 0.459611 0.116779 0.433198
641 4 0.454706 0.099344 0.439743
306 4 0.451043 0.114932 0.451164
304 2 0.442539 0.130079 0.469149
305 4 0.434036 0.145227 0.487133
694 2 0.172438 0.213696 0.499691
696 4 0.157087 0.225117 0.515786
695 4 0.187789 0.202275 0.483595
260 4 0.191268 0.183947 0.477949
687 4 0.232458 0.222875 0.449358
686 4 0.191638 0.198349 0.46462
685 2 0.212048 0.210612 0.456989
474 4 0.239212 0.236189 0.440057
599 4 0.247503 0.220868 0.440056
411 4 0.247168 0.230436 0.45461
598 2 0.255111 0.200701 0.427383
409 2 0.255777 0.232086 0.478026
488 4 0.256731 0.235631 0.440739
487 2 0.27748 0.247794 0.433902
472 2 0.225831 0.250777 0.424782
489 4 0.298228 0.259957 0.427066
266 4 0.340515 0.317425 0.440101
265 2 0.337214 0.298839 0.423706
348 4 0.0467414 0.360314 0.425648
2812 2 0.00846638 0.348515 0.435821
2813 4 0.0300057 0.361132 0.437256
326 4 0.041732 0.3765 0.434903
325 2 0.0573037 0.390111 0.448954
327 4 0.0728755 0.403723 0.463004
7 3 0.0815091 0.391707 0.47606
6 1 0.100108 0.379983 0.482826
10 3 0.107668 0.367267 0.465512
8 3 0.116512 0.395047 0.489338
9 3 0.0943044 0.366374 0.500701
711 4 0.120589 0.411256 0.498346
813 4 0.282 0.356306 0.465936
811 2 0.269642 0.349622 0.486619
925 2 0.414847 0.400552 0.503941
927 4 0.397284 0.382805 0.502607
1383 4 0.0567259 0.517168 0.500644
680 4 0.0525981 0.497376 0.500013
679 2 0.0526567 0.473351 0.493089
709 2 0.144644 0.415709 0.493176
774 4 0.187158 0.420246 0.495549
635 4 0.184455 0.427639 0.478306
636 4 0.182019 0.451153 0.434239
634 2 0.183237 0.439396 0.456273
710 4 0.168698 0.420161 0.488006
502 2 0.305152 0.418986 0.412152
503 4 0.327013 0.427221 0.421065
669 4 0.343759 0.435838 0.42355
4 3 0.32434 0.489275 0.455441
667 2 0.338416 0.458987 0.431346
668 4 0.333072 0.482136 0.439141
586 2 0.435935 0.443979 0.4779
588 4 0.441596 0.450954 0.454566
238 2 0.41839 0.425804 0.424564
239 4 0.432832 0.437432 0.441338
587 4 0.430273 0.437004 0.501234
1184 4 0.0423653 0.0237894 0.561371
3077 4 0.0415514 0.0179253 0.542272
3076 2 0.0255894 0.0258155 0.524718
1183 2 0.0541104 0.00398786 0.571125
1152 4 0.146078 0.0500697 0.538928
1150 2 0.140183 0.0605107 0.560869
1151 4 0.134288 0.0709517 0.58281
342 4 0.146383 0.0290076 0.540377
340 2 0.168543 0.0240477 0.529912
2430 4 0.201867 0.0224887 0.536455
341 4 0.190703 0.0190877 0.519447
2428 2 0.222305 0.020458 0.522195
962 4 0.259939 0.0143946 0.517341
961 2 0.281296 0.0187334 0.505084
430 2 0.341342 0.016479 0.498028
841 2 0.396247 0.0263351 0.529332
842 4 0.416714 0.0356296 0.540282
843 4 0.375781 0.0170405 0.518381
431 4 0.36167 0.00722776 0.509269
1217 4 0.427698 0.0181464 0.538644
1216 2 0.440145 0.996962 0.54328
1061 4 0.492738 0.081134 0.528921
877 2 0.0390946 0.155384 0.54086
878 4 0.0173314 0.144645 0.546878
938 4 0.067034 0.154276 0.519834
1272 4 0.0797249 0.162014 0.532104
937 2 0.0800944 0.14432 0.500979
1154 4 0.161441 0.133754 0.584584
1221 4 0.171928 0.150321 0.582586
3159 4 0.460191 0.135646 0.540486
3157 2 0.444847 0.14363 0.522431
1062 4 0.476839 0.12581 0.544796
1060 2 0.484789 0.103472 0.536859
3158 4 0.429504 0.151614 0.504375
879 4 0.0608577 0.166123 0.534843
1270 2 0.0902384 0.173976 0.55138
1258 2 0.12729 0.242614 0.530334
1259 4 0.115312 0.252601 0.549878
1260 4 0.139267 0.232626 0.51079
1271 4 0.100752 0.185938 0.570656
898 2 0.291464 0.238524 0.528548
899 4 0.310515 0.231246 0.543015
857 4 0.322084 0.220201 0.55303
791 4 0.329835 0.228806 0.537733
856 2 0.317406 0.200706 0.567971
900 4 0.272414 0.245802 0.514081
410 4 0.264385 0.233736 0.501443
790 2 0.343251 0.246663 0.548972
805 2 0.315489 0.333933 0.578785
792 4 0.356667 0.264521 0.560211
872 4 0.37434 0.267682 0.551851
1238 4 0.36793 0.278636 0.567157
871 2 0.3853 0.2853 0.537899
1237 2 0.351781 0.294138 0.578298
807 4 0.325695 0.323967 0.599321
873 4 0.396261 0.302917 0.523946
1137 4 0.120744 0.379467 0.589504
897 4 0.134624 0.379109 0.575861
1135 2 0.105438 0.35971 0.590248
1136 4 0.0901325 0.339952 0.590992
773 4 0.218284 0.409958 0.533311
1189 2 0.204087 0.405295 0.568413
1190 4 0.218792 0.398967 0.549207
803 4 0.22202 0.390952 0.532448
802 2 0.23361 0.369493 0.526936
804 4 0.2452 0.348034 0.521424
930 4 0.235351 0.403347 0.540375
651 4 0.288765 0.331339 0.561064
649 2 0.272183 0.33178 0.542355
806 4 0.305283 0.343899 0.55825
650 4 0.2556 0.33222 0.523646
812 4 0.257284 0.342938 0.507302
2457 4 0.493117 0.348152 0.516288
681 4 0.0527154 0.449325 0.486165
383 4 0.06576 0.437614 0.49659
384 4 0.114001 0.428 0.505597
382 2 0.0898803 0.432807 0.501093
569 4 0.119686 0.429492 0.524952
568 2 0.132755 0.445899 0.53856
570 4 0.145824 0.462307 0.552168
538 2 0.109841 0.491584 0.518361
539 4 0.0886512 0.481161 0.526579
772 2 0.202721 0.415102 0.51443
928 2 0.251997 0.420752 0.533655
929 4 0.268642 0.438158 0.526935
1951 2 0.263904 0.477562 0.525038
1953 4 0.256539 0.453712 0.526494
1952 4 0.27127 0.501412 0.523582
1001 4 0.410802 0.483655 0.558498
662 4 0.417313 0.469746 0.547768
661 2 0.422917 0.45006 0.533407
663 4 0.428521 0.430374 0.519046
926 4 0.43241 0.418298 0.505276
1911 4 0.424455 0.471433 0.565598
1332 4 0.428974 0.484913 0.551623
1909 2 0.427403 0.463392 0.589089
2374 2 0.131751 0.00351234 0.628666
2375 4 0.125897 0.0277185 0.630896
1057 2 0.13124 0.0624981 0.619653
1058 4 0.12712 0.0465346 0.638451
1059 4 0.13536 0.0784616 0.600855
950 4 0.235244 0.00452685 0.606894
949 2 0.248209 0.0201515 0.621488
2398 2 0.33168 0.995843 0.649949
2400 4 0.330885 0.0198069 0.642858
951 4 0.261173 0.0357761 0.636081
1031 4 0.26915 0.051062 0.647897
1030 2 0.29127 0.0610127 0.653968
1032 4 0.31339 0.0709634 0.66004
43 3 0.450506 0.0547776 0.633508
45 3 0.483914 0.0407251 0.643711
41 1 0.465537 0.0520472 0.650973
44 3 0.471797 0.0727613 0.659348
1155 4 0.14584 0.0862792 0.586448
1153 2 0.15364 0.110017 0.585516
1207 2 0.0969036 0.164682 0.665622
1211 4 0.240672 0.16922 0.643801
1219 2 0.186516 0.169607 0.588941
810 4 0.480316 0.0894089 0.654432
808 2 0.482817 0.0991898 0.631557
809 4 0.485318 0.108971 0.608683
3252 4 0.493256 0.124647 0.600818
1245 4 0.0940396 0.190066 0.629094
1209 4 0.092698 0.178704 0.645352
1244 4 0.112996 0.196212 0.583229
1243 2 0.103518 0.193139 0.606162
1220 4 0.201104 0.188894 0.595296
1210 2 0.229513 0.177631 0.623066
1212 4 0.218355 0.186042 0.602332
797 4 0.213069 0.25373 0.592428
796 2 0.211565 0.2292 0.597032
798 4 0.210062 0.20467 0.601636
858 4 0.312729 0.18121 0.582911
888 4 0.251514 0.171945 0.661458
3121 2 0.486106 0.199267 0.607415
3122 4 0.504277 0.182291 0.610025
3123 4 0.467935 0.216243 0.604804
905 4 0.469752 0.236279 0.60665
982 2 0.03443 0.331662 0.656734
983 4 0.011668 0.32434 0.649423
1239 4 0.335632 0.309639 0.589438
906 4 0.454772 0.283867 0.610077
904 2 0.462262 0.260073 0.608364
953 4 0.465838 0.298756 0.616437
952 2 0.480367 0.316912 0.607246
984 4 0.057192 0.338984 0.664045
1041 4 0.0632154 0.357351 0.662711
1039 2 0.06528 0.377746 0.648394
993 4 0.0629421 0.417199 0.636209
1040 4 0.0673445 0.39814 0.634077
895 2 0.153433 0.392574 0.58535
1028 4 0.193712 0.388543 0.651023
1027 2 0.19013 0.400054 0.629118
1029 4 0.186549 0.411565 0.607212
1191 4 0.189381 0.411622 0.58762
1068 4 0.180789 0.388227 0.666304
1206 4 0.481635 0.412296 0.618488
3309 4 0.490209 0.401771 0.604646
954 4 0.494895 0.335068 0.598056
991 2 0.0550722 0.436883 0.622951
992 4 0.0472023 0.456567 0.609693
1188 4 0.165521 0.500976 0.658891
896 4 0.172243 0.40604 0.59484
1172 4 0.177452 0.424673 0.595805
1160 4 0.194273 0.491094 0.600135
1171 2 0.181095 0.449306 0.598074
1173 4 0.184738 0.473938 0.600344
1187 4 0.18651 0.484463 0.616612
1186 2 0.176016 0.492719 0.637751
1268 4 0.446409 0.489085 0.659301
1267 2 0.442886 0.469417 0.64427
1204 2 0.460617 0.425546 0.615686
1910 4 0.430351 0.455351 0.61258
1269 4 0.439364 0.449749 0.629239
1205 4 0.439599 0.438797 0.612885
2168 4 0.463967 0.492269 0.65178
1284 4 0.0898868 0.0446639 0.717041
1282 2 0.106003 0.0637783 0.717325
1227 4 0.140638 0.0853433 0.710132
1225 2 0.165006 0.0797598 0.710617
1201 2 0.200216 0.0377616 0.723859
1203 4 0.198037 0.0572306 0.708322
1226 4 0.189373 0.0741762 0.711103
1148 4 0.209 0.0731439 0.710433
1202 4 0.202395 0.0182927 0.739396
42 3 0.455359 0.0400176 0.667732
1075 2 0.0139521 0.125927 0.713085
1077 4 0.0319774 0.135375 0.727611
850 2 0.0661216 0.148659 0.709848
852 4 0.0430271 0.149915 0.719347
1076 4 0.995927 0.116479 0.698559
1283 4 0.122119 0.0828928 0.71761
909 4 0.108491 0.142646 0.702223
907 2 0.119297 0.121245 0.709322
908 4 0.130103 0.0998436 0.716421
851 4 0.0892161 0.147403 0.700348
1208 4 0.101109 0.150661 0.685893
1107 4 0.103117 0.161397 0.701194
1147 2 0.218059 0.0925715 0.723305
1149 4 0.227118 0.111999 0.736177
1257 4 0.221789 0.119661 0.75492
829 2 0.318488 0.144908 0.702579
887 4 0.282145 0.168759 0.700857
830 4 0.297929 0.158697 0.706097
831 4 0.339047 0.131119 0.699061
1142 4 0.349047 0.141867 0.712324
1141 2 0.369856 0.154401 0.718243
1026 4 0.40592 0.154922 0.721964
1143 4 0.390666 0.166935 0.724162
3426 4 0.474115 0.0870821 0.672056
1025 4 0.441186 0.119517 0.720082
3424 2 0.464755 0.0976286 0.692704
3425 4 0.455395 0.108175 0.713352
3269 4 0.458412 0.117264 0.730442
1024 2 0.423553 0.137219 0.721023
3268 2 0.472403 0.133185 0.743707
845 4 0.445253 0.102849 0.729476
844 2 0.440994 0.0835565 0.744801
1214 4 0.0392471 0.169792 0.722307
1213 2 0.0183378 0.183459 0.721217
1105 2 0.111596 0.17575 0.719829
1106 4 0.120075 0.190103 0.738465
1130 4 0.139663 0.188518 0.734694
1129 2 0.157234 0.201284 0.747083
886 2 0.266829 0.170352 0.681157
978 4 0.292828 0.17366 0.717318
976 2 0.305694 0.190669 0.73037
916 2 0.32901 0.241915 0.734724
977 4 0.31856 0.207677 0.743422
1262 4 0.408973 0.173474 0.728476
1194 4 0.403487 0.17092 0.710666
1193 4 0.410737 0.206631 0.676419
1192 2 0.407112 0.188776 0.693542
1044 4 0.461031 0.249232 0.751125
3262 2 0.0729998 0.331357 0.69655
893 4 0.0658075 0.307848 0.730135
3264 4 0.0759269 0.315823 0.715923
779 4 0.0829871 0.29949 0.72301
778 2 0.101503 0.282795 0.721114
780 4 0.120019 0.266099 0.719217
1065 4 0.256375 0.305948 0.667925
1064 4 0.280254 0.318156 0.710133
1063 2 0.268315 0.312052 0.689029
946 2 0.3118 0.295401 0.719824
948 4 0.299283 0.316985 0.718197
917 4 0.337878 0.258401 0.718148
947 4 0.324317 0.273818 0.721452
1008 4 0.46747 0.293486 0.704008
1006 2 0.464354 0.280865 0.725366
1007 4 0.461237 0.268244 0.746724
3263 4 0.0700727 0.346892 0.677178
941 4 0.125898 0.382667 0.707691
1067 4 0.142064 0.380647 0.697023
940 2 0.121549 0.378589 0.731974
1066 2 0.161426 0.384437 0.681663
884 4 0.0631399 0.475839 0.743546
1139 4 0.302343 0.459135 0.688074
1138 2 0.317017 0.46105 0.708227
1140 4 0.331691 0.462965 0.728381
1989 4 0.323959 0.453613 0.743544
1229 4 0.338258 0.445112 0.732886
1230 4 0.386405 0.432182 0.736811
1100 4 0.403752 0.434723 0.74433
1228 2 0.362331 0.438647 0.734848
1099 2 0.420156 0.452936 0.739389
1101 4 0.43656 0.471148 0.734449
3330 4 0.454392 0.464227 0.729234
3328 2 0.46548 0.460472 0.70714
1251 4 0.451914 0.473037 0.745836
3329 4 0.476567 0.456717 0.685046
834 4 0.0295211 0.0759169 0.822211
785 4 0.00915412 0.072565 0.819192
832 2 0.0448826 0.0943133 0.815085
2048 4 0.141096 0.00952256 0.769545
2047 2 0.16397 0.0129991 0.760065
2254 2 0.218349 0.0139282 0.77101
2255 4 0.233274 0.0225397 0.789128
2049 4 0.186844 0.0164756 0.750584
2256 4 0.203423 0.00531667 0.752893
1113 4 0.345707 0.0712382 0.785752
1111 2 0.359132 0.0762385 0.806244
2321 4 0.452295 0.0105551 0.800352
2322 4 0.446065 0.0503881 0.770767
2320 2 0.44918 0.0304716 0.78556
846 4 0.436735 0.0642638 0.760125
980 4 0.440146 0.0134 0.815091
979 2 0.418937 0.00955084 0.827763
864 4 0.0423495 0.125136 0.742015
862 2 0.0501471 0.120093 0.76523
863 4 0.0579447 0.115051 0.788445
833 4 0.0602441 0.11271 0.807959
1125 4 0.0512127 0.12812 0.802018
1123 2 0.0614807 0.147154 0.814567
34 3 0.116455 0.160534 0.814339
1255 2 0.219738 0.130926 0.777148
921 4 0.211914 0.136267 0.817393
919 2 0.198292 0.156749 0.821879
840 4 0.228803 0.144988 0.815622
1256 4 0.217686 0.142191 0.799376
838 2 0.25212 0.14699 0.824425
1112 4 0.372558 0.0812389 0.826737
818 4 0.379102 0.0989704 0.83095
3270 4 0.486394 0.149106 0.756972
1146 4 0.487655 0.166807 0.766106
1131 4 0.174805 0.214049 0.759472
822 4 0.173148 0.231359 0.768566
31 1 0.1086 0.171416 0.833268
1277 4 0.181055 0.216803 0.777959
33 3 0.107775 0.194294 0.829484
1276 2 0.176992 0.204528 0.79936
920 4 0.18467 0.17723 0.826364
1278 4 0.172928 0.192254 0.82076
1241 4 0.179595 0.190742 0.839011
918 4 0.320142 0.22543 0.751301
1298 4 0.32781 0.209406 0.760231
1297 2 0.332736 0.193491 0.778876
1299 4 0.337662 0.177576 0.797521
1086 4 0.335623 0.184751 0.816027
50 3 0.403658 0.199499 0.804509
1084 2 0.356079 0.175047 0.826636
1261 2 0.419287 0.184801 0.748237
46 1 0.425947 0.201156 0.80014
49 3 0.43095 0.22248 0.792482
1043 4 0.438498 0.211746 0.775369
48 3 0.438141 0.196571 0.819341
47 3 0.431639 0.185896 0.783895
1263 4 0.429602 0.196129 0.767997
1145 4 0.44733 0.194474 0.776553
1144 2 0.467492 0.180641 0.771329
1042 2 0.449765 0.230489 0.763247
892 2 0.0588835 0.322302 0.749326
820 2 0.163102 0.252876 0.760739
821 4 0.153055 0.274393 0.752911
1236 4 0.239083 0.325792 0.773888
1234 2 0.235311 0.330101 0.798227
1235 4 0.231539 0.33441 0.822566
1166 4 0.468009 0.262746 0.763583
1165 2 0.490942 0.265611 0.773124
894 4 0.0519595 0.336756 0.768518
3275 4 0.00127955 0.349416 0.807237
3276 4 0.0448432 0.348385 0.782704
3274 2 0.0230614 0.348901 0.79497