ITEM: TIMESTEP
2240000
ITEM: NUMBER OF ATOMS
4590
ITEM: BOX BOUNDS pp pp pp
-9.9985700000000008e+00 9.9985700000000008e+00
-9.9985700000000008e+00 9.9985700000000008e+00
-9.9985700000000008e+00 9.9985700000000008e+00
ITEM: ATOMS id type xs ys zs
465 4 0.0729557 0.0701763 0.0216537
701 4 0.0858046 0.0550184 0.0183418
700 2 0.106905 0.0510871 0.0311667
702 4 0.128006 0.0471558 0.0439916
566 4 0.137712 0.064696 0.0401928
565 2 0.1571 0.0759318 0.0290997
2263 2 0.292306 0.00332565 0.0281641
746 4 0.488824 0.0565186 0.00814685
2469 4 0.495756 0.0447603 0.0212169
2467 2 0.500482 0.0243349 0.0348423
2468 4 0.505208 0.0039096 0.0484677
463 2 0.0654163 0.087574 0.0379527
464 4 0.0578769 0.104972 0.0542516
590 4 0.0395644 0.0962363 0.0578901
589 2 0.0164811 0.101433 0.0659733
567 4 0.176487 0.0871676 0.0180066
558 4 0.333118 0.13781 0.0598268
556 2 0.346092 0.122151 0.0743747
557 4 0.359066 0.106492 0.0889226
769 2 0.487699 0.15377 0.0656745
771 4 0.489524 0.131374 0.0547081
554 4 0.030499 0.220342 0.00503366
553 2 0.0526498 0.220909 0.0166181
555 4 0.0748006 0.221475 0.0282025
835 2 0.112434 0.224993 0.0173478
836 4 0.092231 0.23218 0.0302069
837 4 0.132638 0.217807 0.00448872
573 4 0.319259 0.248503 0.0522929
666 4 0.332186 0.236958 0.0598703
461 4 0.318936 0.245432 0.07151
664 2 0.335724 0.215718 0.0471609
665 4 0.339261 0.194478 0.0344516
865 2 0.359253 0.169692 0.00926183
867 4 0.351131 0.191274 0.0189286
770 4 0.485875 0.176167 0.0766409
1070 4 0.435184 0.216722 0.042534
1069 2 0.435701 0.24052 0.050187
1014 4 0.495285 0.191387 0.0855607
2808 4 0.0294147 0.313002 0.0112177
2806 2 0.0090265 0.301335 0.019783
294 4 0.109204 0.315766 0.0324667
292 2 0.132268 0.311228 0.0409899
293 4 0.155332 0.306691 0.0495131
507 4 0.168876 0.319526 0.0389554
356 4 0.300584 0.295678 0.0283445
572 4 0.2999 0.294516 0.0493444
571 2 0.30958 0.27151 0.0508187
355 2 0.294974 0.319681 0.0241529
1071 4 0.436218 0.264318 0.0578399
324 4 0.428458 0.281174 0.0609041
322 2 0.431717 0.305623 0.0650036
323 4 0.434976 0.330072 0.0691031
647 4 0.0269509 0.370514 0.0614043
646 2 0.0459732 0.366517 0.0771316
620 4 0.00810082 0.375034 0.0648286
648 4 0.0649955 0.362519 0.092859
505 2 0.185073 0.337637 0.0330552
506 4 0.201271 0.355748 0.027155
483 4 0.205583 0.366707 0.0105004
481 2 0.221928 0.383541 0.0191404
482 4 0.238272 0.400376 0.0277804
537 4 0.2154 0.344696 0.0815655
609 4 0.25585 0.400395 0.0371684
357 4 0.289364 0.343684 0.0199614
902 4 0.293205 0.363796 0.0193868
607 2 0.27247 0.417892 0.0306247
957 4 0.374245 0.394508 0.0262855
955 2 0.378342 0.378802 0.00726657
280 2 0.4705 0.411955 0.0706498
281 4 0.473363 0.392605 0.0862235
1465 2 0.00804508 0.480238 0.082547
1466 4 0.0244458 0.499064 0.0838837
1787 4 0.100525 0.476772 0.0674026
1786 2 0.110774 0.483755 0.0456914
1788 4 0.121024 0.490738 0.0239802
552 4 0.0877677 0.467883 0.0794128
242 4 0.0935694 0.486196 0.0825764
246 4 0.24418 0.473048 0.0430136
244 2 0.222419 0.469356 0.0547607
245 4 0.200657 0.465663 0.0665078
627 4 0.196856 0.449327 0.0781491
625 2 0.189247 0.426609 0.0853014
272 4 0.246608 0.481748 0.0251146
1778 4 0.256077 0.487598 0.0404981
608 4 0.28909 0.435389 0.0240811
252 4 0.296187 0.432177 0.00599244
250 2 0.318801 0.442722 0.00760447
271 2 0.248726 0.468495 0.00401828
251 4 0.341414 0.453268 0.00921651
525 4 0.382694 0.479202 0.0867331
523 2 0.379696 0.467028 0.0651004
524 4 0.376697 0.454853 0.0434678
282 4 0.467637 0.431306 0.0550761
226 2 0.483287 0.469442 0.0538845
227 4 0.477594 0.446156 0.0467764
228 4 0.488981 0.492728 0.0609926
16 1 0.0554037 0.0579791 0.140409
20 3 0.0443544 0.0637525 0.12135
1806 4 0.0655355 0.0190758 0.143188
18 3 0.0537385 0.0351008 0.143904
19 3 0.0464799 0.0694281 0.158511
17 3 0.0776132 0.06358 0.138283
1804 2 0.0616109 0.00434625 0.123368
673 2 0.115401 0.0626355 0.156582
675 4 0.0904408 0.0625406 0.155105
450 4 0.156493 0.0538058 0.152498
448 2 0.167159 0.0738425 0.142012
674 4 0.14036 0.0627304 0.158059
653 4 0.263951 0.0368886 0.151656
652 2 0.280896 0.0236816 0.164449
484 2 0.363665 0.0125002 0.130126
295 2 0.360869 0.0683415 0.106267
297 4 0.354911 0.0452909 0.113905
485 4 0.349815 0.0332425 0.128365
380 4 0.028371 0.0794455 0.155646
2625 4 0.995834 0.132065 0.136379
579 4 0.0973872 0.124952 0.0787511
237 4 0.145095 0.147415 0.120478
578 4 0.127312 0.141815 0.115095
577 2 0.11235 0.133384 0.0969229
476 4 0.128946 0.156694 0.127687
737 4 0.134547 0.159284 0.109299
235 2 0.160488 0.12975 0.129205
692 4 0.238064 0.100654 0.16022
236 4 0.175882 0.112085 0.137932
693 4 0.190436 0.10056 0.144978
449 4 0.177825 0.0938793 0.131526
691 2 0.21425 0.100607 0.152599
296 4 0.366827 0.0913921 0.0986281
738 4 0.164302 0.193479 0.0881798
475 2 0.115778 0.171509 0.142928
736 2 0.149425 0.176381 0.0987397
477 4 0.102609 0.186324 0.158169
283 2 0.321114 0.201937 0.142968
354 4 0.317389 0.239633 0.137006
285 4 0.316892 0.179141 0.152333
284 4 0.325336 0.224732 0.133603
462 4 0.322669 0.236224 0.12052
460 2 0.320803 0.240828 0.096015
255 4 0.335015 0.238991 0.132588
253 2 0.357983 0.243709 0.141269
628 2 0.39944 0.212288 0.162074
630 4 0.393361 0.23643 0.159754
1013 4 0.477263 0.235881 0.0995658
1012 2 0.486274 0.213634 0.0925632
455 4 0.110572 0.324554 0.0991771
352 2 0.301806 0.257506 0.144936
353 4 0.286223 0.27538 0.152867
754 2 0.279551 0.302762 0.126003
755 4 0.273191 0.284996 0.142406
278 4 0.267667 0.277186 0.159365
756 4 0.28591 0.320529 0.109599
254 4 0.380952 0.248427 0.14995
528 4 0.490533 0.312124 0.162113
624 4 0.473334 0.301581 0.162513
456 4 0.0858253 0.366569 0.0880849
454 2 0.0981986 0.345561 0.093631
611 4 0.220978 0.336812 0.0981589
610 2 0.245814 0.33479 0.100227
536 4 0.186041 0.384473 0.089087
626 4 0.181637 0.403891 0.0924537
535 2 0.20072 0.364585 0.0853262
612 4 0.27065 0.332768 0.102296
302 4 0.322046 0.413502 0.149816
387 4 0.340595 0.409204 0.158059
741 4 0.39588 0.362905 0.101366
739 2 0.396672 0.370424 0.1252
740 4 0.397464 0.377942 0.149033
15 3 0.388103 0.365713 0.161166
385 2 0.362348 0.397008 0.15986
386 4 0.384101 0.384812 0.161662
495 4 0.403322 0.389437 0.163937
493 2 0.413626 0.411667 0.158956
672 4 0.427779 0.343503 0.0819946
670 2 0.447533 0.35883 0.0821888
671 4 0.467287 0.374157 0.0823831
2651 4 0.48323 0.377491 0.0933359
551 4 0.0527887 0.433201 0.0880354
1791 4 0.0301237 0.502865 0.101149
550 2 0.0702782 0.450542 0.0837241
241 2 0.0976566 0.495462 0.105437
1438 2 0.140793 0.494178 0.147955
1439 4 0.16324 0.489789 0.158057
1440 4 0.118346 0.498567 0.137853
637 2 0.203018 0.486607 0.140723
638 4 0.22571 0.478104 0.134563
767 4 0.245091 0.483253 0.130709
639 4 0.180326 0.49511 0.146884
303 4 0.307488 0.456986 0.129867
766 2 0.267744 0.473379 0.126902
768 4 0.290398 0.463504 0.123095
301 2 0.314767 0.435244 0.139842
494 4 0.423929 0.433898 0.153974
660 4 0.427547 0.452409 0.160541
2480 4 0.00903039 0.99596 0.225455
1505 4 0.152351 0.0525602 0.170888
1504 2 0.162219 0.0327887 0.182588
1506 4 0.172086 0.0130172 0.194289
689 4 0.186561 0.00609225 0.206363
654 4 0.29784 0.0104747 0.177241
1661 4 0.312795 0.00261988 0.165326
21 1 0.407954 0.0141949 0.221398
23 3 0.390008 0.0227 0.209397
24 3 0.400996 0.0078057 0.242591
757 2 0.451783 0.0605107 0.209474
25 3 0.424365 0.0299024 0.223013
759 4 0.439101 0.0431807 0.222281
350 4 0.441845 0.0261781 0.230218
758 4 0.464464 0.0778406 0.196667
379 2 0.0291896 0.0934996 0.17631
512 4 0.0316098 0.116624 0.214954
381 4 0.0300082 0.107554 0.196974
511 2 0.0443719 0.138102 0.213952
513 4 0.057134 0.15958 0.212951
339 4 0.0729171 0.172697 0.214829
582 4 0.245663 0.0870384 0.172151
580 2 0.266966 0.0988897 0.177713
581 4 0.288268 0.110741 0.183275
30 3 0.29394 0.126163 0.194272
26 1 0.293476 0.148575 0.190252
27 3 0.2921 0.159835 0.210264
28 3 0.274948 0.153922 0.177347
29 3 0.312886 0.15506 0.179315
311 4 0.470508 0.163009 0.17188
521 4 0.471265 0.14102 0.228449
520 2 0.495717 0.146141 0.22741
363 4 0.113704 0.189054 0.173965
337 2 0.086467 0.17368 0.193838
338 4 0.100017 0.174663 0.172847
362 4 0.147262 0.219858 0.194597
361 2 0.130483 0.204456 0.184281
372 4 0.134822 0.229977 0.206218
723 4 0.211308 0.217758 0.237418
629 4 0.40552 0.188146 0.164394
312 4 0.424075 0.181021 0.167371
310 2 0.447292 0.172015 0.169626
761 4 0.484935 0.239362 0.247955
749 4 0.0658302 0.315388 0.17628
750 4 0.0573078 0.278994 0.2095
395 4 0.0518071 0.295469 0.221449
748 2 0.061569 0.297191 0.19289
394 2 0.0349717 0.295208 0.239933
370 2 0.124814 0.25164 0.21368
300 4 0.133435 0.325254 0.183096
371 4 0.114805 0.273304 0.221143
401 4 0.222423 0.278356 0.250107
279 4 0.225726 0.254374 0.174243
277 2 0.246697 0.26578 0.166804
307 2 0.320854 0.304824 0.209808
308 4 0.310137 0.317748 0.228335
497 4 0.3027 0.324332 0.24435
309 4 0.331572 0.291899 0.19128
765 4 0.390723 0.254371 0.165866
763 2 0.407391 0.267296 0.179293
764 4 0.424059 0.280222 0.19272
623 4 0.431963 0.299721 0.190544
622 2 0.452649 0.300651 0.176528
262 2 0.0423072 0.401275 0.232748
263 4 0.0491947 0.380715 0.245199
602 4 0.0523925 0.366821 0.232167
601 2 0.074151 0.354594 0.230672
298 2 0.124466 0.334717 0.204431
299 4 0.115498 0.344179 0.225766
603 4 0.0959095 0.342366 0.229176
734 4 0.10884 0.342921 0.243904
291 4 0.173716 0.398006 0.216666
290 4 0.189392 0.354667 0.197257
289 2 0.181554 0.376337 0.206962
14 3 0.41454 0.383734 0.181016
11 1 0.401551 0.364566 0.17951
13 3 0.388648 0.362217 0.198651
12 3 0.415422 0.346314 0.177607
264 4 0.0354197 0.421835 0.220297
2618 4 0.0191252 0.419951 0.230512
416 4 0.173714 0.41792 0.219672
415 2 0.183966 0.44001 0.214011
1430 4 0.207172 0.479778 0.211928
417 4 0.194219 0.462101 0.208349
658 2 0.434547 0.474613 0.169661
2861 4 0.460267 0.434964 0.237188
659 4 0.441547 0.496817 0.178781
595 2 0.478937 0.490536 0.200977
597 4 0.498276 0.482793 0.214806
232 2 0.00810353 0.0440667 0.298438
1799 4 0.0270355 0.0110002 0.306519
233 4 0.0243704 0.0256889 0.29366
1402 2 0.0630611 0.0257027 0.291779
1403 4 0.0406629 0.0148027 0.293945
1404 4 0.0854592 0.0366027 0.289613
633 4 0.38619 0.0553245 0.306773
631 2 0.384738 0.0631481 0.283069
257 4 0.376582 0.0605899 0.323747
698 4 0.376541 0.0423246 0.317338
697 2 0.366303 0.0213886 0.326395
632 4 0.383286 0.0709717 0.259365
349 2 0.456442 0.0198512 0.249507
744 4 0.480425 0.0128306 0.287075
742 2 0.49145 0.0241342 0.306462
351 4 0.471039 0.0135243 0.268796
399 4 0.0426224 0.111677 0.326546
397 2 0.0584996 0.12319 0.311037
390 4 0.0678719 0.151948 0.288818
398 4 0.0743768 0.134704 0.295528
393 4 0.081718 0.141992 0.279312
545 4 0.150028 0.143193 0.264395
392 4 0.129947 0.148106 0.267595
391 2 0.105833 0.145049 0.273454
544 2 0.170363 0.156701 0.2698
444 4 0.031831 0.239893 0.29442
388 2 0.0631431 0.175894 0.294238
389 4 0.0584143 0.199841 0.299659
404 4 0.207297 0.178977 0.332895
721 2 0.208878 0.196928 0.251035
403 2 0.206035 0.179622 0.307931
405 4 0.204773 0.180268 0.282968
546 4 0.190697 0.170209 0.275205
722 4 0.206449 0.176099 0.264652
378 4 0.294234 0.23696 0.323812
420 4 0.394733 0.216429 0.267654
717 4 0.403079 0.234742 0.271059
331 2 0.45578 0.189371 0.308898
332 4 0.449015 0.195254 0.285557
418 2 0.417446 0.205976 0.267864
419 4 0.440159 0.195523 0.268074
760 2 0.470119 0.223331 0.260148
762 4 0.455304 0.207299 0.272341
333 4 0.462545 0.183488 0.332239
364 2 0.00535375 0.321825 0.286279
442 2 0.02584 0.262154 0.284737
396 4 0.0181363 0.294947 0.258418
443 4 0.0198491 0.284414 0.275055
365 4 0.00788959 0.299851 0.274623
677 4 0.139083 0.305977 0.294797
676 2 0.157531 0.319127 0.305377
733 2 0.121673 0.330817 0.261624
735 4 0.134505 0.318713 0.279344
510 4 0.230678 0.296419 0.315093
508 2 0.208216 0.306438 0.319592
400 2 0.229129 0.284705 0.273343
402 4 0.235835 0.291053 0.296579
509 4 0.185755 0.316458 0.324091
345 4 0.241855 0.280651 0.311871
678 4 0.175978 0.332278 0.315957
343 2 0.260483 0.265671 0.319207
344 4 0.27911 0.250691 0.326542
715 2 0.392044 0.254099 0.282405
716 4 0.38101 0.273456 0.29375
542 4 0.374249 0.286691 0.281519
541 2 0.377287 0.306642 0.296281
543 4 0.380325 0.326593 0.311043
615 4 0.39846 0.338081 0.312293
366 4 0.00281791 0.343799 0.297936
548 4 0.011235 0.358394 0.307319
547 2 0.0245879 0.379404 0.304979
549 4 0.0379408 0.400413 0.302639
777 4 0.057428 0.401916 0.307716
407 4 0.00934138 0.341917 0.316639
496 2 0.28161 0.330744 0.256152
498 4 0.26052 0.337156 0.267954
728 4 0.390277 0.395564 0.286745
727 2 0.372714 0.41237 0.2926
2860 2 0.472472 0.416308 0.24851
2862 4 0.484677 0.397652 0.259831
2538 4 0.481183 0.354244 0.297047
2536 2 0.489871 0.369051 0.278869
753 4 0.480696 0.348755 0.315846
751 2 0.494652 0.330186 0.325097
775 2 0.0713502 0.4198 0.318275
776 4 0.0852725 0.437684 0.328835
412 2 0.115187 0.471034 0.333523
413 4 0.131009 0.490281 0.335625
1545 4 0.188684 0.483604 0.322081
1436 4 0.193552 0.484382 0.303251
1543 2 0.167559 0.490649 0.333451
729 4 0.355151 0.429176 0.298454
436 2 0.37414 0.456029 0.326013
437 4 0.356016 0.4419 0.316161
438 4 0.392264 0.470159 0.335864
1771 2 0.0177433 0.997375 0.37914
1772 4 0.025368 0.0125425 0.397497
2238 4 0.0259273 0.0314318 0.391024
2236 2 0.0276498 0.0431141 0.413064
732 4 0.0754213 0.0761776 0.372345
367 2 0.0862123 0.0486458 0.399214
369 4 0.0810971 0.0573639 0.376345
606 4 0.113183 0.0719442 0.387136
256 2 0.388501 0.0709398 0.343138
258 4 0.400419 0.0812897 0.362529
426 4 0.389212 0.0781081 0.378939
424 2 0.38762 0.0616578 0.397701
699 4 0.356064 0.000452566 0.335452
479 4 0.500191 0.0504693 0.338873
478 2 0.49593 0.0749878 0.336452
458 4 0.0140433 0.152187 0.365795
317 4 0.0352 0.106572 0.344057
731 4 0.0481345 0.0949888 0.334898
730 2 0.0617779 0.0855832 0.353622
318 4 0.00576002 0.136191 0.371565
316 2 0.02048 0.121382 0.357811
604 2 0.135035 0.0834371 0.391081
605 4 0.156888 0.0949299 0.395025
1701 4 0.176162 0.0875163 0.396022
247 2 0.208369 0.146047 0.352637
248 4 0.204163 0.121521 0.355083
1699 2 0.188924 0.0945909 0.375717
1700 4 0.201686 0.101665 0.355413
319 2 0.315442 0.114336 0.404411
320 4 0.29454 0.10184 0.410078
706 2 0.324614 0.161304 0.371347
684 4 0.278682 0.112885 0.414555
321 4 0.336345 0.126832 0.398744
708 4 0.331678 0.142096 0.385711
480 4 0.491669 0.0995062 0.33403
516 4 0.441289 0.130042 0.354004
575 4 0.443107 0.116495 0.36999
574 2 0.457757 0.112216 0.389795
514 2 0.445955 0.154385 0.350719
576 4 0.472408 0.107937 0.409599
2654 4 0.0193945 0.219655 0.359539
459 4 0.0179196 0.202018 0.367383
457 2 0.0159814 0.177103 0.366589
249 4 0.212575 0.170572 0.350191
376 2 0.303752 0.216049 0.333678
377 4 0.31327 0.195138 0.343544
707 4 0.317551 0.180512 0.356983
474 4 0.263278 0.233706 0.409034
488 4 0.283026 0.231117 0.41543
267 4 0.364389 0.243994 0.406899
452 4 0.496196 0.219628 0.376234
515 4 0.45062 0.178729 0.347433
453 4 0.464261 0.19199 0.349457
451 2 0.480228 0.205809 0.362845
406 2 0.0199318 0.331289 0.336641
408 4 0.0305223 0.320661 0.356642
618 4 0.0801943 0.328706 0.36344
275 4 0.138905 0.302285 0.350468
617 4 0.121029 0.308477 0.342847
616 2 0.100612 0.318591 0.353143
274 2 0.154393 0.302271 0.370097
435 4 0.184369 0.333752 0.333091
473 4 0.249512 0.270287 0.37784
374 4 0.228716 0.273294 0.375287
276 4 0.169882 0.302258 0.389725
373 2 0.205636 0.282831 0.376525
375 4 0.182556 0.292367 0.377764
472 2 0.256395 0.251996 0.393437
265 2 0.361115 0.267763 0.413935
752 4 0.508609 0.311617 0.334349
347 4 0.0716481 0.33076 0.381205
346 2 0.0636043 0.339682 0.403134
433 2 0.187501 0.358045 0.338113
434 4 0.190632 0.382338 0.343136
502 2 0.298833 0.391081 0.409469
503 4 0.314106 0.408413 0.399902
336 4 0.326873 0.410008 0.385515
613 2 0.410823 0.3465 0.332329
238 2 0.399639 0.418958 0.414757
334 2 0.351813 0.40822 0.38546
335 4 0.376752 0.406433 0.385405
240 4 0.394304 0.403068 0.396203
614 4 0.423186 0.35492 0.352365
414 4 0.0993656 0.451788 0.331422
1544 4 0.146433 0.497695 0.34482
669 4 0.322926 0.425717 0.395462
667 2 0.319506 0.445752 0.410026
594 4 0.454622 0.466236 0.366477
592 2 0.443297 0.486464 0.375846
3990 4 0.491234 0.49823 0.352453
1126 2 0.000518143 0.0557334 0.458458
368 4 0.0913276 0.0399276 0.422084
1127 4 0.0185948 0.0674553 0.445769
2237 4 0.0293723 0.0547964 0.435103
720 4 0.0353686 0.0732095 0.438223
1780 2 0.0877583 0.00154566 0.444215
1782 4 0.0948557 0.0227325 0.432993
961 2 0.259269 0.996785 0.497421
724 2 0.29827 0.0394423 0.486454
726 4 0.300235 0.0631307 0.478697
725 4 0.296305 0.0157539 0.494212
1182 4 0.287258 0.0730833 0.468395
963 4 0.28326 0.00149035 0.492179
425 4 0.386028 0.0452076 0.416464
1579 2 0.373007 0.0194312 0.432206
1580 4 0.374622 0.0443293 0.433835
642 4 0.455319 0.0564254 0.446637
2878 2 0.453448 0.0443125 0.48991
2880 4 0.454862 0.0498374 0.465566
640 2 0.461523 0.0787115 0.437149
470 4 0.00268576 0.161122 0.501148
718 2 0.0474471 0.0887549 0.453638
719 4 0.0595255 0.1043 0.469054
1033 2 0.125656 0.140376 0.476055
1035 4 0.139544 0.13924 0.455294
261 4 0.1469 0.147175 0.437779
1034 4 0.111768 0.141512 0.496816
600 4 0.25773 0.165461 0.415412
683 4 0.249161 0.151477 0.426384
682 2 0.263921 0.132181 0.42047
1180 2 0.284739 0.0851188 0.446624
1181 4 0.282219 0.0971544 0.424853
641 4 0.467726 0.100998 0.427661
306 4 0.466298 0.120427 0.423499
304 2 0.468747 0.134338 0.44413
3158 4 0.478064 0.155669 0.482453
305 4 0.471197 0.14825 0.464761
259 2 0.155937 0.170481 0.438357
694 2 0.14812 0.213723 0.475014
695 4 0.159085 0.202311 0.455657
260 4 0.164975 0.193787 0.438936
696 4 0.137155 0.225134 0.494372
598 2 0.246728 0.184609 0.427138
599 4 0.235727 0.203757 0.438864
687 4 0.22216 0.215188 0.447016
686 4 0.177071 0.194951 0.45464
685 2 0.199616 0.20507 0.450828
411 4 0.238323 0.211361 0.456981
409 2 0.249117 0.215321 0.479184
489 4 0.298972 0.208627 0.457151
487 2 0.290999 0.219872 0.436291
468 4 0.375584 0.231506 0.418464
466 2 0.375782 0.207558 0.425649
467 4 0.375981 0.18361 0.432835
813 4 0.238684 0.292863 0.492941
266 4 0.357841 0.291531 0.420971
583 2 0.50054 0.262604 0.493033
348 4 0.0555605 0.348605 0.425063
2812 2 0.0150095 0.33777 0.433323
2813 4 0.0391489 0.344112 0.434823
326 4 0.0552215 0.347603 0.444856
325 2 0.0684422 0.366953 0.453571
327 4 0.0816628 0.386304 0.462285
10 3 0.130719 0.366734 0.464112
7 3 0.100584 0.388486 0.467523
6 1 0.119015 0.380055 0.478402
711 4 0.148937 0.410345 0.488435
8 3 0.132308 0.397726 0.485435
9 3 0.111916 0.367705 0.496718
709 2 0.173631 0.407785 0.48546
774 4 0.216866 0.399876 0.487312
635 4 0.212273 0.406277 0.46912
710 4 0.198325 0.405225 0.482485
634 2 0.216887 0.419362 0.448319
504 4 0.283559 0.373749 0.419035
587 4 0.401674 0.414335 0.49847
679 2 0.0759064 0.4733 0.494808
680 4 0.0638756 0.493543 0.486401
1383 4 0.0544848 0.490285 0.468957
384 4 0.142913 0.42867 0.490682
569 4 0.150487 0.446154 0.497087
568 2 0.160572 0.468955 0.498983
681 4 0.0879372 0.453058 0.503216
636 4 0.221502 0.432448 0.427519
570 4 0.170656 0.491756 0.500879
668 4 0.316087 0.465787 0.424589
4 3 0.325228 0.480604 0.435655
588 4 0.403219 0.420427 0.44886
239 4 0.404975 0.434847 0.43331
586 2 0.402447 0.417381 0.473665
1184 4 0.00445472 0.0234536 0.551833
1183 2 0.0161523 0.00716225 0.566764
1150 2 0.144959 0.0698812 0.550226
342 4 0.146183 0.0411316 0.533405
1152 4 0.133295 0.0567263 0.532448
340 2 0.156248 0.0213791 0.521841
1151 4 0.156624 0.0830361 0.568004
1059 4 0.172415 0.0728126 0.574511
2430 4 0.183731 0.999408 0.51829
341 4 0.166312 0.00162666 0.510277
432 4 0.3013 0.996969 0.497801
841 2 0.342186 0.00733004 0.558524
842 4 0.348211 0.0185169 0.580059
843 4 0.336162 0.996143 0.53699
2879 4 0.452034 0.0387877 0.514255
879 4 0.057558 0.164143 0.539325
877 2 0.0351347 0.153927 0.543568
1199 4 0.00173303 0.136711 0.562467
878 4 0.0127115 0.14371 0.547811
938 4 0.0762293 0.163924 0.535063
937 2 0.0936427 0.148781 0.525437
939 4 0.111056 0.133638 0.515812
3157 2 0.49218 0.153495 0.502976
1272 4 0.0713108 0.170666 0.552453
1270 2 0.0813058 0.184439 0.570772
1258 2 0.116491 0.230614 0.524559
1260 4 0.127581 0.214939 0.508543
1259 4 0.105401 0.246288 0.540575
898 2 0.279278 0.212215 0.535997
899 4 0.299808 0.208784 0.549851
900 4 0.258748 0.215646 0.522143
791 4 0.315692 0.211543 0.560522
857 4 0.299772 0.202189 0.568222
856 2 0.295659 0.18376 0.584612
790 2 0.332208 0.230267 0.559181
410 4 0.259911 0.219281 0.501388
792 4 0.348725 0.24899 0.55784
585 4 0.493054 0.239278 0.498036
811 2 0.24888 0.306538 0.511222
812 4 0.259075 0.320214 0.529504
650 4 0.260106 0.329177 0.546846
649 2 0.26242 0.315608 0.56772
871 2 0.367335 0.281107 0.534869
872 4 0.356468 0.266301 0.551836
1238 4 0.359981 0.259462 0.56933
873 4 0.378202 0.295913 0.517902
992 4 0.0509706 0.383694 0.572416
1136 4 0.109239 0.418595 0.551158
1135 2 0.127119 0.401436 0.554478
897 4 0.161719 0.386188 0.567669
1137 4 0.144999 0.384276 0.557799
773 4 0.243845 0.401305 0.529393
1189 2 0.234712 0.406194 0.563485
772 2 0.230356 0.400591 0.508352
895 2 0.180243 0.401705 0.574093
1190 4 0.251191 0.396913 0.547131
804 4 0.268956 0.336806 0.531729
803 4 0.252242 0.383909 0.533354
802 2 0.260599 0.360358 0.532542
930 4 0.263143 0.400505 0.532832
928 2 0.285117 0.412417 0.53347
926 4 0.41029 0.412202 0.515372
925 2 0.421454 0.390152 0.51916
927 4 0.432618 0.368102 0.522948
382 2 0.119972 0.432647 0.499796
383 4 0.0970306 0.436625 0.50891
896 4 0.198766 0.417222 0.580518
1191 4 0.218233 0.415476 0.57984
1160 4 0.195184 0.493388 0.580379
929 4 0.307092 0.42433 0.534109
891 4 0.299823 0.497391 0.532202
1952 4 0.30333 0.481389 0.522577
881 4 0.306422 0.497738 0.513426
1951 2 0.311706 0.459463 0.531196
1953 4 0.320081 0.437537 0.539816
663 4 0.410652 0.429971 0.506456
661 2 0.417658 0.448013 0.522287
1001 4 0.425798 0.484879 0.542778
662 4 0.424664 0.466054 0.538117
1911 4 0.426358 0.472045 0.556811
1332 4 0.441667 0.472973 0.54449
1330 2 0.459217 0.489651 0.538245
1909 2 0.426602 0.455992 0.57598
1284 4 0.122422 0.0616879 0.657099
1058 4 0.184717 0.0322625 0.601063
1057 2 0.178566 0.0525376 0.587787
2375 4 0.195959 0.0164704 0.602345
950 4 0.252368 0.0224848 0.664302
949 2 0.26724 0.0371659 0.650574
951 4 0.282112 0.0518471 0.636845
1031 4 0.291932 0.0692437 0.637962
1030 2 0.307359 0.0818314 0.653086
1216 2 0.390495 0.016878 0.582735
1218 4 0.414963 0.012682 0.579754
1217 4 0.366027 0.0210741 0.585715
43 3 0.450201 0.042226 0.656934
808 2 0.493234 0.0833036 0.646273
41 1 0.44268 0.0636418 0.661751
42 3 0.431375 0.0718405 0.643472
810 4 0.477233 0.0865244 0.665214
1083 4 0.995884 0.1421 0.651113
3179 4 0.998687 0.15892 0.663065
1081 2 0.992691 0.122421 0.666204
1155 4 0.166883 0.088842 0.583775
1221 4 0.16386 0.140772 0.614753
1153 2 0.161923 0.105593 0.601663
1154 4 0.156963 0.122343 0.619552
1219 2 0.177525 0.158547 0.62582
858 4 0.291545 0.16533 0.601001
1209 4 0.0966754 0.204492 0.655641
1245 4 0.0971362 0.220983 0.643214
1271 4 0.0913008 0.198213 0.58909
1243 2 0.0882273 0.216825 0.620225
1244 4 0.0793185 0.212667 0.597235
1211 4 0.246091 0.167757 0.661361
1210 2 0.225843 0.177788 0.650656
1212 4 0.205595 0.187818 0.639951
1220 4 0.19119 0.176322 0.636888
797 4 0.17569 0.239544 0.624627
796 2 0.184103 0.216005 0.625175
798 4 0.192516 0.192465 0.625723
1193 4 0.404493 0.213388 0.655576
3121 2 0.479685 0.226998 0.62655
3122 4 0.481656 0.205456 0.63909
3357 4 0.494131 0.190207 0.64627
983 4 0.0567905 0.284061 0.608763
982 2 0.0576515 0.303489 0.624479
984 4 0.0585124 0.322918 0.640195
3263 4 0.0469943 0.316306 0.654914
651 4 0.264734 0.302039 0.588594
805 2 0.301076 0.290116 0.611849
806 4 0.278614 0.295897 0.602512
807 4 0.323539 0.284335 0.621187
1239 4 0.33899 0.282407 0.608492
1237 2 0.349485 0.270935 0.588911
906 4 0.464755 0.297349 0.585859
905 4 0.470713 0.248729 0.595923
3123 4 0.477714 0.248539 0.61401
904 2 0.467734 0.273039 0.590891
952 2 0.49155 0.326857 0.594447
953 4 0.470497 0.313474 0.596146
1041 4 0.0490174 0.335818 0.651654
1039 2 0.050999 0.357882 0.64006
1040 4 0.0529805 0.379946 0.628466
993 4 0.0635032 0.394564 0.619591
991 2 0.0572369 0.389129 0.596003
1068 4 0.193798 0.392689 0.666149
1028 4 0.196967 0.409978 0.656022
3309 4 0.498874 0.39907 0.623261
1206 4 0.481138 0.406441 0.620202
1176 4 0.158496 0.446457 0.666915
1172 4 0.210171 0.427749 0.592878
1027 2 0.211357 0.428701 0.647803
1171 2 0.203285 0.451693 0.590766
1029 4 0.225747 0.447424 0.639585
1173 4 0.196399 0.475636 0.588654
1187 4 0.203435 0.490969 0.598316
1186 2 0.200918 0.495795 0.62272
1175 4 0.185573 0.485162 0.650497
1174 2 0.172034 0.465809 0.658706
1268 4 0.404893 0.470757 0.64783
2168 4 0.412819 0.487056 0.658382
1267 2 0.418405 0.459384 0.630131
1204 2 0.460449 0.419045 0.614015
1910 4 0.426846 0.43994 0.595148
1269 4 0.431917 0.44801 0.612433
1205 4 0.43976 0.431649 0.607827
3182 4 0.497108 0.418233 0.622919
1282 2 0.124483 0.0765669 0.677088
825 4 0.099108 0.995552 0.683122
1201 2 0.174393 0.0427705 0.731829
2256 4 0.191875 0.00731508 0.740753
2049 4 0.172479 0.00685709 0.743266
1202 4 0.180916 0.0187345 0.729616
1203 4 0.167869 0.0668065 0.734041
1005 4 0.333657 0.0464343 0.680596
1003 2 0.335206 0.0215469 0.678754
1164 4 0.494722 0.0452233 0.715379
45 3 0.428607 0.0630931 0.679648
1162 2 0.484597 0.0596062 0.697608
1163 4 0.474472 0.073989 0.679837
44 3 0.460704 0.0775364 0.666276
1077 4 0.0356297 0.101962 0.732176
1075 2 0.0173711 0.102939 0.715121
850 2 0.0637094 0.163174 0.719352
1076 4 0.999112 0.103917 0.698067
1226 4 0.160211 0.0794875 0.745301
851 4 0.0842296 0.162796 0.705071
909 4 0.102194 0.155648 0.703606
907 2 0.112822 0.133159 0.701069
908 4 0.12345 0.110669 0.698532
1283 4 0.126543 0.091446 0.697076
1227 4 0.126388 0.100229 0.714862
1225 2 0.143299 0.0898584 0.730082
1148 4 0.178636 0.0809917 0.74373
1147 2 0.198395 0.0951684 0.74954
1032 4 0.322787 0.0944192 0.668209
829 2 0.319815 0.150412 0.711481
830 4 0.297869 0.157675 0.721012
887 4 0.283461 0.164367 0.709492
831 4 0.34176 0.143149 0.701951
1142 4 0.358179 0.144552 0.713075
1141 2 0.377839 0.159686 0.709972
1025 4 0.461604 0.152606 0.697042
3424 2 0.469316 0.113643 0.687766
3426 4 0.464844 0.0902537 0.680142
3425 4 0.473789 0.137032 0.695391
3269 4 0.47551 0.148828 0.710758
3268 2 0.485221 0.160529 0.730607
1024 2 0.438448 0.161056 0.701238
845 4 0.427678 0.0942409 0.741154
852 4 0.0431892 0.163552 0.733634
1213 2 0.020702 0.191781 0.741412
1214 4 0.0436235 0.181799 0.741027
1215 4 0.997781 0.201763 0.741797
1208 4 0.0954382 0.168239 0.690064
1207 2 0.0960568 0.186365 0.672852
1107 4 0.0992508 0.174323 0.708113
1105 2 0.113877 0.183717 0.726085
1106 4 0.128503 0.19311 0.744058
1130 4 0.131032 0.21195 0.74956
888 4 0.256192 0.181892 0.671413
886 2 0.269827 0.17313 0.690453
978 4 0.283003 0.168073 0.728753
976 2 0.287421 0.186762 0.744764
1194 4 0.409827 0.185983 0.697064
1192 2 0.40716 0.199686 0.67632
1143 4 0.397499 0.17482 0.70687
1262 4 0.41072 0.1854 0.716462
1026 4 0.415293 0.169506 0.705434
1261 2 0.418071 0.19566 0.738047
3270 4 0.494932 0.17223 0.750455
3262 2 0.0473839 0.310056 0.679121
3264 4 0.0477735 0.303806 0.703327
779 4 0.0567283 0.289627 0.714158
893 4 0.0638865 0.306936 0.714027
892 2 0.0654293 0.323151 0.732997
778 2 0.0692697 0.268849 0.708144
780 4 0.0818111 0.248071 0.702131
1065 4 0.225406 0.314336 0.703491
1063 2 0.246983 0.302918 0.698087
947 4 0.301599 0.252488 0.720843
946 2 0.294524 0.270474 0.70498
948 4 0.28745 0.28846 0.689117
1064 4 0.268561 0.291499 0.692683
917 4 0.299539 0.256862 0.740204
1008 4 0.419694 0.273457 0.717484
1006 2 0.429476 0.277562 0.740125
894 4 0.0669722 0.339367 0.751967
1067 4 0.149498 0.389394 0.689115
940 2 0.124305 0.388363 0.724135
941 4 0.134932 0.3921 0.701813
942 4 0.113678 0.384626 0.746457
1066 2 0.171648 0.391041 0.677632
1139 4 0.298238 0.468525 0.703237
1138 2 0.312232 0.46207 0.722926
1140 4 0.326226 0.455614 0.742616
1100 4 0.397718 0.43217 0.744599
1228 2 0.365777 0.454431 0.753037
1229 4 0.342577 0.46334 0.750288
1101 4 0.444504 0.446461 0.734228
1099 2 0.421111 0.439315 0.739414
3330 4 0.464251 0.442718 0.733347
3328 2 0.4798 0.43161 0.717222
3329 4 0.495349 0.420502 0.701097
1113 4 0.373156 0.0641689 0.819904
2321 4 0.4542 0.00729078 0.811685
2322 4 0.454187 0.0504087 0.786356
2320 2 0.454194 0.0288497 0.799021
846 4 0.438451 0.0602782 0.776243
844 2 0.433064 0.0772596 0.758698
864 4 0.0353392 0.10068 0.752288
862 2 0.0416498 0.112618 0.773331
863 4 0.0479603 0.124556 0.794375
833 4 0.0523733 0.119282 0.812942
1125 4 0.0564308 0.137127 0.806864
1123 2 0.0684188 0.151089 0.823791
832 2 0.044023 0.100692 0.827429
911 4 0.102026 0.0971688 0.824885
1149 4 0.218155 0.109345 0.75535
1257 4 0.236596 0.112603 0.753391
1255 2 0.243142 0.121301 0.775901
921 4 0.242213 0.147503 0.802953
919 2 0.221079 0.158796 0.810093
920 4 0.199944 0.17009 0.817233
1256 4 0.249688 0.129998 0.798411
840 4 0.258675 0.140198 0.811483
838 2 0.274691 0.142862 0.830498
1111 2 0.369912 0.0869453 0.829696
34 3 0.121381 0.181561 0.822873
1129 2 0.147856 0.219313 0.766528
822 4 0.16087 0.236756 0.800288
1131 4 0.16468 0.226675 0.783496
1277 4 0.173687 0.222274 0.800671
1276 2 0.181288 0.202236 0.81355
1278 4 0.188888 0.182197 0.826429
916 2 0.296606 0.238536 0.756959
977 4 0.29184 0.205452 0.760776
918 4 0.293673 0.220209 0.773714
1298 4 0.289916 0.201554 0.779582
1297 2 0.299173 0.200909 0.8028
1299 4 0.30843 0.200263 0.826018
1086 4 0.328117 0.203819 0.822432
50 3 0.389461 0.204986 0.780121
46 1 0.408164 0.209469 0.792317
49 3 0.404793 0.228392 0.805314
48 3 0.413303 0.191356 0.805879
47 3 0.425784 0.2133 0.778034
1263 4 0.425421 0.20592 0.759631
1146 4 0.48616 0.183743 0.764196
1145 4 0.441787 0.206068 0.769974
1144 2 0.463974 0.194905 0.767085
1022 4 0.428931 0.181752 0.81395
1043 4 0.414004 0.246394 0.809241
1021 2 0.448891 0.185074 0.828639
3188 4 0.0101225 0.250502 0.79665
3187 2 0.0336085 0.24961 0.788119
3189 4 0.0570945 0.248718 0.779587
821 4 0.170042 0.285324 0.79269
820 2 0.165456 0.26104 0.796489
1098 4 0.228405 0.326689 0.818351
1096 2 0.244481 0.311107 0.829482
1235 4 0.215355 0.32777 0.80366
1306 2 0.504839 0.252869 0.821049
1042 2 0.42885 0.259652 0.794108
1044 4 0.443696 0.27291 0.778975
1007 4 0.439259 0.281666 0.762766
1165 2 0.479673 0.276774 0.77737
1166 4 0.456793 0.28454 0.770936
3276 4 0.0538918 0.340397 0.766076