ITEM: TIMESTEP
1880000
ITEM: NUMBER OF ATOMS
4590
ITEM: BOX BOUNDS pp pp pp
-9.9985700000000008e+00 9.9985700000000008e+00
-9.9985700000000008e+00 9.9985700000000008e+00
-9.9985700000000008e+00 9.9985700000000008e+00
ITEM: ATOMS id type xs ys zs
701 4 0.0795352 0.0700093 0.0241035
465 4 0.0653728 0.0591346 0.0149053
463 2 0.047916 0.0766304 0.0186913
2575 2 0.0169002 0.995966 0.0871764
700 2 0.102762 0.0608235 0.0252408
702 4 0.12599 0.0516376 0.0263782
566 4 0.137161 0.0606331 0.0402137
565 2 0.157462 0.0734167 0.0331704
567 4 0.177764 0.0862003 0.026127
491 4 0.274228 0.997898 0.0423352
2264 4 0.261651 0.0117407 0.0418995
2263 2 0.260002 0.0319327 0.0272454
2265 4 0.258354 0.0521248 0.0125914
746 4 0.467742 0.0598682 0.0231074
2469 4 0.464553 0.043263 0.0345387
2467 2 0.474875 0.0212298 0.0402988
464 4 0.0304592 0.0941262 0.0224773
590 4 0.0295753 0.100227 0.0416642
589 2 0.0137301 0.101271 0.0609779
558 4 0.317004 0.119636 0.0460345
556 2 0.322021 0.11535 0.0701517
865 2 0.368393 0.164414 0.0170926
867 4 0.368458 0.171615 0.0410369
771 4 0.469021 0.125536 0.06618
769 2 0.479706 0.147047 0.0731288
554 4 0.0426423 0.219986 0.0490114
553 2 0.0560208 0.233682 0.0329299
555 4 0.0693992 0.247378 0.0168483
837 4 0.131389 0.220782 0.00623758
835 2 0.110377 0.233008 0.0120871
836 4 0.0893661 0.245235 0.0179367
738 4 0.163711 0.182446 0.0824606
573 4 0.333977 0.248472 0.0565968
666 4 0.333615 0.228859 0.0548313
461 4 0.333871 0.23772 0.0719823
664 2 0.343984 0.206541 0.0504106
665 4 0.354354 0.184223 0.0459898
1070 4 0.40929 0.218349 0.0239542
1069 2 0.403866 0.236005 0.0408063
294 4 0.0848725 0.308036 0.0523667
292 2 0.105827 0.320685 0.0472593
507 4 0.136993 0.33683 0.0580922
293 4 0.126782 0.333334 0.042152
356 4 0.314616 0.306191 0.0436213
572 4 0.314309 0.288344 0.0337028
355 2 0.311053 0.32118 0.0239282
571 2 0.324143 0.268408 0.0451498
1071 4 0.398441 0.253662 0.0576585
324 4 0.405303 0.272447 0.0532096
322 2 0.415947 0.294632 0.057648
672 4 0.440161 0.330999 0.061911
323 4 0.426592 0.316817 0.0620864
620 4 0.00607955 0.378434 0.0643432
647 4 0.018006 0.368544 0.0777173
505 2 0.161786 0.339485 0.0599345
483 4 0.182185 0.361955 0.0553092
506 4 0.18658 0.342141 0.0617768
481 2 0.20251 0.371065 0.0439477
609 4 0.226418 0.398569 0.0398858
482 4 0.222835 0.380174 0.0325862
607 2 0.250072 0.406363 0.0376622
357 4 0.307491 0.336169 0.00423515
957 4 0.394176 0.397465 0.00392821
670 2 0.450838 0.353342 0.0653724
280 2 0.474632 0.417577 0.0741571
281 4 0.468385 0.393367 0.0742803
671 4 0.461515 0.375684 0.0688338
551 4 0.0844125 0.436153 0.0787445
552 4 0.0996203 0.482693 0.0685732
1787 4 0.108636 0.496063 0.0573626
550 2 0.0920164 0.459423 0.0736588
1788 4 0.113788 0.496854 0.00762783
1786 2 0.111212 0.496459 0.0324952
625 2 0.225469 0.423112 0.0843576
626 4 0.211742 0.403723 0.0921557
608 4 0.273726 0.414156 0.0354385
246 4 0.242945 0.489785 0.0328489
252 4 0.279976 0.432405 0.0260891
244 2 0.241348 0.47558 0.0533632
245 4 0.23975 0.461374 0.0738776
250 2 0.295154 0.446257 0.0118432
251 4 0.310331 0.460108 0.997597
272 4 0.244253 0.486759 0.0135537
282 4 0.48088 0.441787 0.0740339
226 2 0.474731 0.474912 0.0487979
228 4 0.47936 0.494787 0.0343505
227 4 0.470102 0.455036 0.0632453
2576 4 0.037762 0.996809 0.100933
16 1 0.0678186 0.0562984 0.135638
20 3 0.0642352 0.0650603 0.114925
1806 4 0.0593517 0.0184786 0.144699
18 3 0.0556763 0.0366853 0.138147
1804 2 0.0565903 0.00293872 0.125306
19 3 0.0615691 0.0716195 0.151905
17 3 0.0901939 0.0515576 0.138092
450 4 0.154092 0.0488285 0.161687
673 2 0.118979 0.0377996 0.161343
675 4 0.0967935 0.0359227 0.149964
448 2 0.167534 0.0667027 0.150507
1661 4 0.314001 0.0015007 0.166477
652 2 0.321872 0.0392202 0.150466
654 4 0.309967 0.0175852 0.154389
653 4 0.333776 0.0608552 0.146542
486 4 0.390297 0.995598 0.126423
484 2 0.376808 0.0143522 0.116857
295 2 0.343344 0.0706065 0.104764
297 4 0.349184 0.0475834 0.112574
485 4 0.363319 0.0331064 0.107292
2625 4 0.993307 0.125598 0.142861
579 4 0.0884162 0.106203 0.101622
237 4 0.141845 0.135817 0.125539
578 4 0.126531 0.136317 0.113503
577 2 0.107473 0.12126 0.107563
476 4 0.127584 0.149379 0.127288
737 4 0.139661 0.150146 0.112109
736 2 0.151686 0.166296 0.0972847
235 2 0.159473 0.118168 0.127254
236 4 0.1771 0.100518 0.128969
693 4 0.194409 0.0929869 0.126752
449 4 0.180976 0.0845769 0.139327
691 2 0.217193 0.0898622 0.136564
692 4 0.239978 0.0867376 0.146376
582 4 0.259161 0.0916087 0.153912
557 4 0.327038 0.111065 0.0942689
580 2 0.278755 0.100397 0.16672
296 4 0.337504 0.0936296 0.0969529
770 4 0.490391 0.168558 0.0800775
311 4 0.431185 0.147723 0.128969
310 2 0.436978 0.166156 0.144839
339 4 0.0462674 0.191043 0.159899
337 2 0.0709452 0.194008 0.162618
475 2 0.114707 0.166839 0.139718
477 4 0.101829 0.184299 0.152148
338 4 0.0956231 0.196972 0.165338
283 2 0.321902 0.202973 0.141265
354 4 0.32452 0.240494 0.13006
285 4 0.312991 0.179936 0.145145
284 4 0.330812 0.226011 0.137384
460 2 0.335144 0.234356 0.0967259
462 4 0.336418 0.230993 0.121469
255 4 0.341373 0.23959 0.135903
254 4 0.384482 0.240407 0.161235
253 2 0.362927 0.239999 0.148569
629 4 0.428865 0.188932 0.175312
1012 2 0.493682 0.195827 0.105954
1013 4 0.48514 0.216082 0.117866
1014 4 0.502225 0.175571 0.094041
312 4 0.442771 0.184588 0.160709
456 4 0.0749369 0.335078 0.0958995
454 2 0.0981874 0.343974 0.0982343
352 2 0.305859 0.254846 0.138484
353 4 0.287199 0.269199 0.146908
754 2 0.282903 0.309715 0.144371
755 4 0.285308 0.28732 0.155227
278 4 0.281988 0.27167 0.164743
756 4 0.280497 0.33211 0.133515
763 2 0.408033 0.261896 0.183772
764 4 0.419728 0.282897 0.190656
646 2 0.0393172 0.355997 0.0814024
648 4 0.0606284 0.34345 0.0850875
455 4 0.121438 0.35287 0.100569
612 4 0.268922 0.345732 0.123614
537 4 0.20004 0.345591 0.113039
535 2 0.19799 0.367619 0.101388
611 4 0.219101 0.344078 0.119636
610 2 0.244011 0.344905 0.121625
536 4 0.195939 0.389647 0.0897376
741 4 0.391871 0.359239 0.100895
739 2 0.393326 0.368959 0.123886
740 4 0.39478 0.378679 0.146877
15 3 0.381422 0.374856 0.161175
385 2 0.358772 0.400081 0.152719
386 4 0.382274 0.391686 0.151184
495 4 0.400997 0.396032 0.153277
11 1 0.399203 0.374261 0.175391
12 3 0.409954 0.354039 0.173236
14 3 0.414095 0.391269 0.170159
387 4 0.33527 0.408477 0.154253
2651 4 0.479932 0.377495 0.0762145
1467 4 0.00213453 0.441546 0.0821262
1465 2 0.0144288 0.458195 0.0961558
1466 4 0.026723 0.474845 0.110185
1791 4 0.0252102 0.492561 0.116924
1789 2 0.0355913 0.501035 0.138033
242 4 0.107887 0.498831 0.0765507
637 2 0.216567 0.486268 0.154884
638 4 0.237112 0.472755 0.150354
627 4 0.239196 0.442501 0.0765594
767 4 0.24768 0.464388 0.165461
639 4 0.196023 0.49978 0.159413
303 4 0.297769 0.446345 0.13021
766 2 0.269646 0.462886 0.153611
768 4 0.291612 0.461383 0.141762
301 2 0.318419 0.437052 0.140812
302 4 0.339069 0.427759 0.151414
493 2 0.4075 0.418526 0.144506
494 4 0.414004 0.441019 0.135736
660 4 0.418958 0.460269 0.134712
658 2 0.430799 0.47106 0.153909
2480 4 0.0126028 0.00712948 0.221387
1422 4 0.0227287 0.994144 0.207276
380 4 0.0521689 0.0632685 0.167903
1505 4 0.15892 0.0451555 0.179407
674 4 0.141164 0.0396765 0.172721
1504 2 0.164556 0.0376977 0.202597
689 4 0.189084 0.0213534 0.227729
1506 4 0.170192 0.0302399 0.225787
22 3 0.392851 0.0121861 0.205632
21 1 0.401591 0.00830195 0.226553
758 4 0.424258 0.079436 0.211681
757 2 0.42916 0.0572426 0.222102
25 3 0.418948 0.0225877 0.230201
759 4 0.434062 0.0350491 0.232523
350 4 0.437711 0.0176192 0.227411
349 2 0.456241 0.0153373 0.244042
379 2 0.0547221 0.0816168 0.184696
512 4 0.0468095 0.116545 0.207629
381 4 0.0572753 0.0999651 0.201489
511 2 0.049979 0.140126 0.199943
513 4 0.0531484 0.163706 0.192257
545 4 0.130612 0.156143 0.247213
723 4 0.234577 0.193336 0.236499
581 4 0.298349 0.109185 0.179527
30 3 0.295664 0.126454 0.188045
26 1 0.313943 0.13799 0.195217
29 3 0.332656 0.124279 0.194717
27 3 0.310457 0.145029 0.216837
28 3 0.317371 0.156565 0.181741
521 4 0.482739 0.138614 0.198084
520 2 0.497078 0.157104 0.206898
363 4 0.109116 0.184177 0.170998
362 4 0.128968 0.208845 0.209703
361 2 0.119042 0.196511 0.190351
372 4 0.140298 0.224056 0.203083
370 2 0.148255 0.245565 0.213044
721 2 0.214865 0.182518 0.247434
279 4 0.235225 0.254195 0.167674
628 2 0.41183 0.206716 0.170987
630 4 0.394795 0.2245 0.166662
394 2 0.0422824 0.311856 0.24789
750 4 0.0765044 0.318243 0.224563
395 4 0.0603223 0.32336 0.234951
748 2 0.0791409 0.304813 0.203638
749 4 0.0817775 0.291384 0.182712
300 4 0.14797 0.322807 0.213811
371 4 0.156211 0.267074 0.223005
277 2 0.258607 0.262933 0.166209
307 2 0.309415 0.296985 0.20147
309 4 0.308862 0.279613 0.183495
308 4 0.309969 0.314357 0.219444
497 4 0.30277 0.32727 0.234505
765 4 0.396338 0.240896 0.176888
623 4 0.434727 0.295141 0.18355
528 4 0.500588 0.307917 0.197155
622 2 0.45912 0.296399 0.188897
624 4 0.483513 0.297657 0.194244
2618 4 0.018607 0.403091 0.232179
262 2 0.0436255 0.400877 0.210009
263 4 0.0643888 0.38769 0.205518
602 4 0.0685047 0.378845 0.223077
264 4 0.0228622 0.414064 0.2145
298 2 0.133434 0.336615 0.228752
299 4 0.118898 0.350423 0.243693
603 4 0.107618 0.364506 0.250741
601 2 0.0880615 0.371676 0.236909
290 4 0.195949 0.366445 0.210946
289 2 0.182808 0.387006 0.216401
291 4 0.169668 0.407567 0.221855
13 3 0.391908 0.376581 0.197295
2861 4 0.450914 0.414753 0.24578
2860 2 0.470287 0.399371 0.249418
416 4 0.174995 0.420145 0.207218
415 2 0.184865 0.442626 0.211947
1430 4 0.192834 0.482176 0.226215
417 4 0.194735 0.465108 0.216676
713 4 0.352574 0.493171 0.225925
712 2 0.374496 0.504986 0.228166
659 4 0.44264 0.481851 0.173106
597 4 0.486427 0.446501 0.201905
595 2 0.472739 0.465206 0.192527
596 4 0.45905 0.483911 0.183149
231 4 0.443098 0.493001 0.188476
1568 4 0.452316 0.498344 0.171786
1799 4 0.0232186 0.0335159 0.310324
233 4 0.0188273 0.0457574 0.295991
1402 2 0.0526361 0.0378861 0.289972
1403 4 0.035485 0.0483103 0.304884
1798 2 0.0122679 0.015826 0.324193
1404 4 0.0697872 0.0274619 0.27506
23 3 0.384994 0.0118029 0.242385
633 4 0.390083 0.0438377 0.316925
631 2 0.393102 0.0577027 0.296338
257 4 0.384392 0.0520712 0.333653
351 4 0.474771 0.0130555 0.260673
743 4 0.5006 0.0356638 0.315312
744 4 0.490441 0.0195777 0.269066
742 2 0.495521 0.0276207 0.292189
399 4 0.0479982 0.10631 0.323208
397 2 0.0616077 0.125878 0.315656
398 4 0.0752172 0.145447 0.308104
392 4 0.114542 0.155491 0.259032
393 4 0.0840199 0.159369 0.298454
390 4 0.0847211 0.160393 0.317534
391 2 0.0992811 0.15743 0.278743
544 2 0.153177 0.16383 0.254755
404 4 0.212025 0.163463 0.32006
249 4 0.214645 0.142939 0.314921
247 2 0.217235 0.125557 0.332707
632 4 0.396121 0.0715677 0.27575
444 4 0.0270631 0.238042 0.263354
403 2 0.200453 0.165952 0.298036
546 4 0.175743 0.171516 0.262297
722 4 0.195153 0.1717 0.258369
405 4 0.18888 0.168441 0.276012
420 4 0.409319 0.232345 0.24841
331 2 0.457424 0.191224 0.304828
332 4 0.455486 0.206633 0.285232
418 2 0.428146 0.218895 0.257888
419 4 0.446972 0.205445 0.267367
760 2 0.488783 0.20933 0.260103
762 4 0.46536 0.209735 0.268843
333 4 0.459362 0.175815 0.324424
396 4 0.0242426 0.300353 0.260829
443 4 0.0205693 0.286552 0.273618
365 4 0.0101472 0.302409 0.274869
442 2 0.0238162 0.262297 0.268486
510 4 0.237136 0.299999 0.309372
508 2 0.220529 0.315924 0.319158
400 2 0.235403 0.281751 0.269862
402 4 0.239888 0.294139 0.291113
401 4 0.230918 0.269362 0.248612
509 4 0.203922 0.331849 0.328944
345 4 0.251359 0.287555 0.305246
496 2 0.286644 0.327418 0.253614
498 4 0.270519 0.327567 0.272722
343 2 0.263472 0.270791 0.319298
344 4 0.275584 0.254027 0.333349
715 2 0.398501 0.268048 0.272392
716 4 0.396473 0.289548 0.284993
717 4 0.400529 0.246547 0.259791
542 4 0.405825 0.290181 0.303089
541 2 0.407341 0.310543 0.317521
543 4 0.408858 0.330905 0.331953
547 2 0.0338935 0.381281 0.314019
548 4 0.0211077 0.360165 0.317994
549 4 0.0466792 0.402397 0.310043
734 4 0.118119 0.353988 0.263352
733 2 0.120886 0.356961 0.288024
735 4 0.123653 0.359934 0.312695
677 4 0.138724 0.348707 0.318445
676 2 0.163285 0.344097 0.319274
435 4 0.204669 0.349824 0.321059
678 4 0.187846 0.339486 0.320104
433 2 0.210843 0.369607 0.335049
728 4 0.370581 0.398549 0.267852
727 2 0.359557 0.410445 0.286881
615 4 0.419536 0.346336 0.325809
2538 4 0.483554 0.372339 0.317082
2536 2 0.490717 0.374136 0.293194
2862 4 0.48966 0.383989 0.253055
753 4 0.481726 0.352421 0.314318
751 2 0.481496 0.342038 0.337063
777 4 0.0484917 0.407805 0.329646
775 2 0.0641336 0.426801 0.325211
776 4 0.0797755 0.445797 0.320776
414 4 0.0905307 0.45875 0.310753
412 2 0.107183 0.476753 0.31563
413 4 0.123835 0.494756 0.320507
1545 4 0.19243 0.493412 0.326197
438 4 0.328831 0.485769 0.319038
436 2 0.332755 0.461883 0.312773
729 4 0.348532 0.422342 0.305911
437 4 0.33668 0.437997 0.306509
1771 2 0.0105962 0.00806196 0.379116
1772 4 0.0157408 0.0177041 0.401605
732 4 0.0731489 0.0704038 0.361734
2238 4 0.0300352 0.0336205 0.4033
369 4 0.069032 0.0599482 0.378888
1800 4 0.00131709 0.998136 0.338061
367 2 0.0825418 0.0505076 0.397691
368 4 0.0960515 0.0410671 0.416494
1701 4 0.165721 0.0803784 0.375507
697 2 0.364203 0.0195063 0.337177
698 4 0.372794 0.0395338 0.324918
256 2 0.393908 0.060677 0.355113
258 4 0.403425 0.0692828 0.376574
426 4 0.393458 0.0626708 0.392522
424 2 0.387433 0.0548905 0.415508
479 4 0.501595 0.044499 0.332698
478 2 0.482644 0.0595946 0.338875
480 4 0.463693 0.0746902 0.345052
318 4 0.00448526 0.139057 0.36335
730 2 0.0556973 0.0833506 0.349365
317 4 0.0302699 0.11229 0.329893
458 4 0.988211 0.147891 0.370006
731 4 0.0382457 0.0962975 0.336996
316 2 0.0173776 0.125673 0.346621
457 2 0.996458 0.171336 0.372752
388 2 0.0955182 0.169879 0.337994
604 2 0.133201 0.0905712 0.400674
606 4 0.117992 0.091932 0.420473
605 4 0.148411 0.0892104 0.380875
1699 2 0.182807 0.0924672 0.361829
1700 4 0.199893 0.104556 0.34815
248 4 0.219825 0.108176 0.350493
600 4 0.235717 0.142473 0.407928
683 4 0.241345 0.12414 0.402106
682 2 0.265139 0.120506 0.408875
319 2 0.322624 0.122797 0.388521
320 4 0.306131 0.117846 0.40665
684 4 0.288933 0.116871 0.415644
708 4 0.33604 0.148083 0.365147
321 4 0.339116 0.127749 0.370392
516 4 0.447416 0.126338 0.361693
575 4 0.438897 0.117549 0.376745
574 2 0.442702 0.115741 0.401391
514 2 0.454399 0.148273 0.351932
515 4 0.461382 0.170208 0.342171
389 4 0.106315 0.179365 0.358454
598 2 0.23045 0.16646 0.412626
473 4 0.229589 0.251507 0.36907
599 4 0.225183 0.190446 0.417325
378 4 0.288625 0.239347 0.3341
376 2 0.306623 0.224374 0.342879
377 4 0.324621 0.209402 0.351658
707 4 0.329962 0.197668 0.367405
474 4 0.268935 0.239729 0.3976
488 4 0.269234 0.223872 0.410492
487 2 0.282203 0.20278 0.413974
489 4 0.295172 0.181689 0.417457
472 2 0.249262 0.245618 0.383335
706 2 0.333001 0.172875 0.366276
453 4 0.469164 0.187342 0.336122
451 2 0.489189 0.195045 0.348961
347 4 0.0639291 0.318826 0.387063
618 4 0.08108 0.318634 0.396906
346 2 0.053723 0.336702 0.401257
275 4 0.142291 0.320806 0.366494
617 4 0.126149 0.311498 0.376448
616 2 0.103615 0.315066 0.386677
274 2 0.157886 0.304219 0.376832
374 4 0.213775 0.253275 0.381483
276 4 0.17348 0.287632 0.387169
373 2 0.192856 0.262806 0.391318
375 4 0.171936 0.272336 0.401153
266 4 0.349865 0.292924 0.419181
265 2 0.352936 0.268162 0.417556
561 4 0.500109 0.324437 0.363257
752 4 0.481266 0.331655 0.359807
408 4 0.0255917 0.340241 0.38034
406 2 0.021215 0.342729 0.355848
407 4 0.0168382 0.345216 0.331357
434 4 0.217017 0.389389 0.349038
334 2 0.338388 0.405013 0.388235
502 2 0.276684 0.393311 0.392608
503 4 0.29903 0.399182 0.402167
336 4 0.314524 0.407816 0.395152
504 4 0.254338 0.387439 0.383049
613 2 0.421512 0.354017 0.349521
335 4 0.362252 0.40221 0.381318
240 4 0.378863 0.397764 0.393214
614 4 0.423488 0.361698 0.373233
238 2 0.38653 0.407175 0.415073
668 4 0.305897 0.466614 0.409148
669 4 0.298281 0.418247 0.398985
667 2 0.302089 0.44243 0.404067
3990 4 0.485199 0.495061 0.357735
2237 4 0.00985995 0.0545687 0.443979
2236 2 0.0199476 0.0440946 0.42364
720 4 0.0104381 0.0722548 0.451849
1782 4 0.105095 0.0224016 0.419946
1780 2 0.0981619 0.0131082 0.442099
961 2 0.262196 0.00951226 0.498056
724 2 0.303617 0.0477462 0.477027
963 4 0.284873 0.0189515 0.493383
726 4 0.304432 0.0698938 0.465451
725 4 0.302802 0.0255986 0.488602
1182 4 0.318789 0.0746996 0.453956
1579 2 0.356356 0.0107216 0.433128
1580 4 0.373513 0.0288877 0.434018
425 4 0.381409 0.0471102 0.438494
2880 4 0.455121 0.084716 0.492194
642 4 0.447395 0.0713557 0.477774
718 2 0.0263291 0.08331 0.467675
719 4 0.0422201 0.0943652 0.4835
1033 2 0.123176 0.147333 0.4667
1035 4 0.136341 0.148798 0.445494
1034 4 0.11001 0.145867 0.487906
261 4 0.148875 0.158656 0.43544
1180 2 0.312158 0.094087 0.439626
1181 4 0.305528 0.113474 0.425296
640 2 0.4431 0.0876939 0.459341
3157 2 0.48658 0.16132 0.487546
641 4 0.438805 0.104032 0.440907
576 4 0.446506 0.113932 0.426037
306 4 0.441388 0.123348 0.442044
304 2 0.451291 0.145751 0.447069
305 4 0.461193 0.168153 0.452095
259 2 0.16117 0.178703 0.443935
694 2 0.151513 0.225688 0.478864
260 4 0.173464 0.198749 0.45243
695 4 0.165731 0.213476 0.462313
696 4 0.137296 0.237899 0.495415
687 4 0.224484 0.206936 0.429305
686 4 0.180441 0.217404 0.450551
685 2 0.202463 0.21217 0.439928
411 4 0.247147 0.213422 0.474677
409 2 0.265381 0.204281 0.489139
267 4 0.356007 0.243401 0.415932
467 4 0.358024 0.179813 0.411346
466 2 0.35731 0.203516 0.419273
468 4 0.356596 0.227219 0.4272
3158 4 0.473913 0.171454 0.468519
585 4 0.481931 0.240683 0.484223
813 4 0.219038 0.290912 0.500487
584 4 0.472716 0.289465 0.478208
583 2 0.477324 0.265074 0.481216
2456 4 0.463413 0.301719 0.490891
2812 2 0.0143713 0.346834 0.438219
2813 4 0.0386181 0.351816 0.43469
348 4 0.0435169 0.354577 0.415451
326 4 0.0527679 0.364219 0.429577
325 2 0.0696063 0.369087 0.447408
935 4 0.0146604 0.343511 0.507719
10 3 0.132695 0.350814 0.469331
327 4 0.0864448 0.373955 0.46524
7 3 0.105097 0.375936 0.469061
6 1 0.124261 0.369174 0.479839
711 4 0.144605 0.405761 0.480612
8 3 0.139724 0.386463 0.4792
774 4 0.208342 0.401791 0.475826
635 4 0.210379 0.409013 0.458198
709 2 0.168592 0.40705 0.473675
772 2 0.22434 0.394644 0.493664
710 4 0.19258 0.408338 0.466737
586 2 0.384691 0.421798 0.475443
239 4 0.394197 0.416587 0.436932
588 4 0.381498 0.414805 0.451651
1383 4 0.0497625 0.471709 0.438199
1381 2 0.0632684 0.49147 0.430969
680 4 0.0571812 0.453344 0.438307
679 2 0.0734689 0.440438 0.452212
568 2 0.161017 0.46019 0.490101
569 4 0.149612 0.439002 0.496894
382 2 0.117051 0.427187 0.487187
681 4 0.0897566 0.427532 0.466116
384 4 0.141434 0.422106 0.489386
383 4 0.0926682 0.432268 0.484988
636 4 0.231772 0.438596 0.424024
570 4 0.172422 0.481379 0.483307
634 2 0.221075 0.423805 0.441111
1 1 0.308445 0.48781 0.437286
5 3 0.297438 0.472901 0.450523
880 2 0.330567 0.49489 0.486803
4 3 0.31899 0.476664 0.419879
1184 4 0.0103252 0.023148 0.554053
1150 2 0.149059 0.0697589 0.545345
1151 4 0.151471 0.0767609 0.569227
342 4 0.163428 0.0523907 0.517274
1152 4 0.146646 0.062757 0.521464
340 2 0.173839 0.0323055 0.506626
2430 4 0.186116 0.996615 0.508741
341 4 0.18425 0.0122203 0.495979
430 2 0.321993 0.0111633 0.515147
432 4 0.300987 0.0116878 0.501594
431 4 0.342998 0.0106387 0.528699
843 4 0.348973 0.0296596 0.53221
842 4 0.380794 0.0451863 0.567524
841 2 0.364883 0.037423 0.549867
1217 4 0.396545 0.0462909 0.581398
1216 2 0.411242 0.0262579 0.584199
2879 4 0.469201 0.0438867 0.517402
2878 2 0.462161 0.0643013 0.504798
1218 4 0.42594 0.00622489 0.587
879 4 0.0814325 0.149663 0.55286
877 2 0.0600627 0.156118 0.541598
1199 4 0.0207826 0.158019 0.537407
878 4 0.0386928 0.162573 0.530336
938 4 0.0967078 0.144362 0.543568
937 2 0.108452 0.139883 0.521954
939 4 0.120197 0.135405 0.500339
1272 4 0.0978268 0.149647 0.563057
3009 4 0.481767 0.0665885 0.57242
1259 4 0.0874335 0.221525 0.526386
1270 2 0.102476 0.171451 0.574377
1260 4 0.118115 0.23762 0.490326
1258 2 0.102774 0.229573 0.508356
1271 4 0.107125 0.193256 0.585697
898 2 0.294987 0.204337 0.544161
899 4 0.296089 0.208907 0.568719
900 4 0.293885 0.199768 0.519604
410 4 0.283616 0.195141 0.5036
791 4 0.306704 0.222642 0.578762
790 2 0.325395 0.239111 0.576614
811 2 0.238946 0.302885 0.509736
812 4 0.258853 0.314858 0.518984
650 4 0.271371 0.319269 0.53249
649 2 0.269315 0.31705 0.55731
651 4 0.267258 0.31483 0.58213
871 2 0.367095 0.267773 0.545681
872 4 0.355897 0.270032 0.567922
792 4 0.344085 0.25558 0.574466
1238 4 0.342736 0.272752 0.581663
873 4 0.378293 0.265513 0.52344
2455 2 0.478107 0.315821 0.505396
2457 4 0.492801 0.329923 0.519901
1136 4 0.114949 0.374602 0.556637
1135 2 0.137743 0.37721 0.566578
9 3 0.119061 0.364007 0.501854
773 4 0.240337 0.387497 0.511501
1190 4 0.24059 0.393077 0.530357
1189 2 0.232617 0.401493 0.552511
1191 4 0.224644 0.409908 0.574664
804 4 0.263012 0.333442 0.52218
802 2 0.259153 0.358142 0.522606
803 4 0.255293 0.382842 0.523033
930 4 0.252724 0.40114 0.51717
926 4 0.391561 0.419546 0.516308
927 4 0.412956 0.377364 0.532546
925 2 0.402258 0.398455 0.524427
1010 4 0.499239 0.34821 0.526585
1009 2 0.503277 0.345605 0.551122
1161 4 0.155749 0.4949 0.569226
1172 4 0.222788 0.429542 0.577952
1159 2 0.177531 0.489668 0.580334
928 2 0.273044 0.415707 0.517445
929 4 0.293364 0.430274 0.517719
891 4 0.321576 0.490385 0.525091
1952 4 0.314553 0.47411 0.517899
881 4 0.328998 0.48263 0.508538
1951 2 0.325167 0.45148 0.518543
1953 4 0.335781 0.42885 0.519187
587 4 0.387883 0.428791 0.499236
1001 4 0.405496 0.484186 0.554563
662 4 0.416257 0.470212 0.546181
661 2 0.406944 0.45404 0.52954
1911 4 0.420164 0.475874 0.564427
663 4 0.397631 0.437868 0.5129
1909 2 0.427788 0.460687 0.582768
1332 4 0.424264 0.487994 0.549603
1330 2 0.445548 0.498387 0.541596
4085 4 0.48397 0.515664 0.541165
945 4 0.0558295 0.00150144 0.642055
1057 2 0.160471 0.0522177 0.597044
1058 4 0.156103 0.0314536 0.610271
2375 4 0.146175 0.0153135 0.616191
1284 4 0.126973 0.0780354 0.65604
1059 4 0.164839 0.0729819 0.583817
950 4 0.234105 0.0311851 0.600024
949 2 0.254699 0.0366022 0.613128
951 4 0.275293 0.0420192 0.626233
1031 4 0.266631 0.0539842 0.63968
1030 2 0.274922 0.076359 0.647151
3007 2 0.494292 0.0765591 0.591626
3008 4 0.506817 0.0865296 0.610833
808 2 0.48899 0.0772454 0.649062
1083 4 0.0444617 0.139854 0.656578
3179 4 0.0335199 0.156536 0.656354
1081 2 0.0405038 0.12022 0.671545
1155 4 0.158208 0.0909681 0.580539
1153 2 0.159833 0.114309 0.589355
1154 4 0.161458 0.13765 0.598171
1221 4 0.155499 0.145238 0.614676
1219 2 0.17272 0.158408 0.627134
1210 2 0.221454 0.174606 0.655712
1212 4 0.201372 0.18621 0.646374
1032 4 0.283212 0.0987338 0.654622
3178 2 0.0138993 0.169277 0.64753
1245 4 0.0702361 0.201273 0.643967
3180 4 0.994279 0.182019 0.638706
1243 2 0.0856145 0.198925 0.624393
1244 4 0.100993 0.196576 0.604818
1209 4 0.083484 0.203379 0.658926
1220 4 0.18994 0.171577 0.639592
797 4 0.204633 0.235124 0.616261
796 2 0.197188 0.212533 0.623969
798 4 0.189744 0.189942 0.631677
857 4 0.29431 0.210705 0.587815
856 2 0.288622 0.213548 0.611996
858 4 0.282933 0.216391 0.636178
905 4 0.449993 0.246372 0.6356
3123 4 0.463697 0.23764 0.64624
3121 2 0.475779 0.217099 0.638673
3122 4 0.487862 0.196558 0.631106
983 4 0.0275607 0.2962 0.597589
982 2 0.0393266 0.314536 0.609859
984 4 0.0510925 0.332871 0.622129
3263 4 0.0575404 0.330914 0.64065
3262 2 0.0560764 0.325426 0.665
805 2 0.305528 0.310861 0.641905
806 4 0.287039 0.322175 0.654368
947 4 0.3207 0.266244 0.668602
807 4 0.324017 0.299548 0.629442
1239 4 0.342331 0.297957 0.624852
1237 2 0.342533 0.285354 0.603258
906 4 0.452069 0.28497 0.603873
904 2 0.451031 0.265671 0.619737
952 2 0.485853 0.314597 0.594915
953 4 0.466441 0.299884 0.600564
1041 4 0.0529036 0.348224 0.6332
1039 2 0.0486777 0.372051 0.626911
1040 4 0.0444519 0.395879 0.620621
993 4 0.0469201 0.400323 0.600179
1137 4 0.160538 0.379818 0.576518
897 4 0.163217 0.396769 0.588806
895 2 0.185386 0.407272 0.583968
896 4 0.207555 0.417775 0.57913
1029 4 0.214537 0.415123 0.634416
954 4 0.505264 0.32931 0.589266
1206 4 0.483433 0.411819 0.606381
3309 4 0.491584 0.39406 0.609496
3307 2 0.497708 0.371012 0.601981
991 2 0.0385991 0.422179 0.609026
992 4 0.0302781 0.444034 0.617874
1171 2 0.21965 0.453048 0.585876
1160 4 0.199312 0.484437 0.591442
1173 4 0.216512 0.476554 0.593801
1188 4 0.188653 0.473878 0.656401
1187 4 0.204875 0.480642 0.609584
1186 2 0.196764 0.47726 0.632992
1175 4 0.179683 0.490931 0.659923
1204 2 0.465122 0.427967 0.611775
1910 4 0.435411 0.4455 0.60111
1269 4 0.427754 0.440376 0.618004
1267 2 0.422828 0.455868 0.637001
1205 4 0.446811 0.444116 0.617169
1268 4 0.417903 0.471361 0.655998
2168 4 0.412881 0.486662 0.667875
1226 4 0.167232 0.078449 0.739737
1148 4 0.18621 0.0741569 0.736158
1203 4 0.174491 0.0601456 0.739801
1003 2 0.327669 0.0292415 0.699424
1005 4 0.312346 0.048964 0.700612
1004 4 0.342992 0.00951896 0.698236
45 3 0.439888 0.0491386 0.690393
1162 2 0.496886 0.0625487 0.702736
42 3 0.435907 0.0803441 0.710475
41 1 0.441261 0.0718626 0.689773
1163 4 0.480781 0.0737064 0.687202
44 3 0.462877 0.0783434 0.684373
810 4 0.475083 0.0771065 0.66984
1075 2 0.034209 0.0944652 0.721224
1076 4 0.0222643 0.101331 0.700358
1082 4 0.0365459 0.100585 0.686512
1077 4 0.0461538 0.0875991 0.742089
1214 4 0.0301229 0.168957 0.749978
1282 2 0.128786 0.092126 0.676615
909 4 0.107188 0.161929 0.705547
907 2 0.111926 0.13741 0.706805
908 4 0.116664 0.112892 0.708063
1283 4 0.130598 0.106217 0.697191
1227 4 0.132512 0.106397 0.717062
1225 2 0.149872 0.092423 0.728399
1211 4 0.241537 0.163002 0.66505
888 4 0.255741 0.154018 0.675382
886 2 0.272111 0.150331 0.693919
829 2 0.328749 0.153731 0.697913
830 4 0.304188 0.15225 0.702352
887 4 0.28848 0.146644 0.712456
978 4 0.299281 0.161814 0.718758
831 4 0.353311 0.155212 0.693474
1142 4 0.369869 0.146329 0.700137
1141 2 0.385799 0.165337 0.703318
43 3 0.426329 0.0802728 0.67413
1025 4 0.463719 0.153962 0.696827
3424 2 0.476478 0.115406 0.689912
3426 4 0.476799 0.0918296 0.681592
3425 4 0.476158 0.138983 0.698232
3269 4 0.475923 0.153651 0.71123
3268 2 0.483487 0.160498 0.734058
850 2 0.0677469 0.167464 0.725208
852 4 0.0466261 0.169648 0.738412
1213 2 0.0116955 0.185031 0.744758
851 4 0.0888677 0.16528 0.712005
1208 4 0.0979475 0.177748 0.699356
1207 2 0.0907158 0.190563 0.679141
1107 4 0.1036 0.176409 0.717976
1105 2 0.122249 0.187032 0.730803
1106 4 0.140898 0.197654 0.743631
1130 4 0.150128 0.206822 0.728328
1129 2 0.164076 0.220558 0.743884
976 2 0.296646 0.18124 0.734278
1193 4 0.366965 0.234758 0.701219
1194 4 0.405125 0.203289 0.708582
1192 2 0.386045 0.219024 0.704901
1143 4 0.401729 0.184345 0.706499
1262 4 0.416223 0.19031 0.718106
1261 2 0.425567 0.201042 0.738665
1024 2 0.441974 0.165834 0.700199
1026 4 0.420229 0.177707 0.70357
3264 4 0.0546124 0.319937 0.689349
779 4 0.0519843 0.301229 0.685311
778 2 0.0604775 0.27879 0.692349
780 4 0.0689706 0.25635 0.699386
893 4 0.0439991 0.309223 0.701812
892 2 0.038458 0.325322 0.720123
1065 4 0.238008 0.31796 0.674307
1063 2 0.250205 0.300163 0.686945
946 2 0.300992 0.273069 0.682392
948 4 0.281283 0.279895 0.696182
1064 4 0.262401 0.282367 0.699582
917 4 0.276514 0.259217 0.729008
1008 4 0.438101 0.279828 0.717339
1006 2 0.440667 0.285213 0.74162
894 4 0.0329169 0.341421 0.738435
816 4 0.0385392 0.354733 0.751475
814 2 0.0579899 0.370101 0.754741
3276 4 0.0190022 0.350673 0.748322
815 4 0.0774407 0.385469 0.758008
942 4 0.0829967 0.394139 0.740636
1067 4 0.144019 0.395928 0.706667
940 2 0.105085 0.393458 0.728938
941 4 0.127173 0.392777 0.71724
1066 2 0.153463 0.408276 0.687084
1027 2 0.197781 0.414695 0.652969
1019 4 0.387746 0.408915 0.738303
1176 4 0.168069 0.473269 0.705243
1174 2 0.173876 0.4821 0.682583
1068 4 0.162907 0.420625 0.6675
1028 4 0.181025 0.414267 0.671522
1140 4 0.369648 0.462372 0.72288
1230 4 0.381809 0.427278 0.738351
1100 4 0.399266 0.423041 0.730843
1138 2 0.362803 0.468114 0.699528
1139 4 0.355957 0.473855 0.676175
3329 4 0.510279 0.459946 0.729621
1101 4 0.444047 0.445212 0.728891
1099 2 0.421656 0.434127 0.729867
3330 4 0.460522 0.454965 0.729203
1251 4 0.446182 0.460223 0.741231
3328 2 0.4854 0.457456 0.729412
1296 4 0.0131599 0.0481427 0.772888
1294 2 0.00704106 0.0242645 0.768696
864 4 0.0505285 0.0824479 0.761255
2049 4 0.183574 0.996275 0.763295
1201 2 0.175683 0.0360984 0.746546
1202 4 0.176876 0.0120512 0.75329
2256 4 0.194556 0.00555553 0.749439
975 4 0.342015 0.039378 0.82264
2322 4 0.469071 0.0478988 0.786281
2320 2 0.468457 0.0229706 0.784441
846 4 0.463261 0.061405 0.772077
844 2 0.476123 0.081888 0.778417
862 2 0.0544552 0.103295 0.77449
863 4 0.058382 0.124142 0.787724
833 4 0.0528047 0.12559 0.805706
1125 4 0.0615181 0.141041 0.796658
1123 2 0.0737101 0.162823 0.795221
832 2 0.046654 0.119275 0.829104
34 3 0.139045 0.138244 0.831675
1149 4 0.229767 0.0948014 0.749476
1147 2 0.207988 0.0844792 0.742817
1257 4 0.23258 0.102676 0.768616
919 2 0.204365 0.171999 0.832398
1255 2 0.246252 0.11516 0.785421
1256 4 0.259924 0.127644 0.802226
840 4 0.269612 0.128486 0.819991
845 4 0.488985 0.102371 0.784757
1072 2 0.0782472 0.212486 0.828177
1074 4 0.0723755 0.227957 0.846922
1124 4 0.085902 0.184606 0.793784
1073 4 0.084119 0.197016 0.809433
1131 4 0.178023 0.234293 0.75944
1277 4 0.183811 0.227892 0.777599
1276 2 0.187872 0.212754 0.79708
1278 4 0.191934 0.197616 0.816561
920 4 0.202925 0.196958 0.832771
977 4 0.294011 0.200666 0.749798
918 4 0.290507 0.218747 0.754837
916 2 0.28351 0.238982 0.741922
1298 4 0.30498 0.208423 0.763686
1297 2 0.31568 0.204825 0.785996
1086 4 0.346244 0.204401 0.812864
1299 4 0.32638 0.201228 0.808306
50 3 0.393333 0.2099 0.789536
49 3 0.416418 0.239176 0.79479
46 1 0.414881 0.216055 0.793592
48 3 0.422211 0.206588 0.813467
47 3 0.428251 0.208593 0.776425
1263 4 0.434911 0.211775 0.759224
1146 4 0.48719 0.178867 0.772089
1145 4 0.447769 0.209617 0.773152
1144 2 0.46748 0.194242 0.772621
1022 4 0.426668 0.187288 0.819257
3188 4 0.0091137 0.274679 0.778892
3187 2 0.0181541 0.282082 0.800997
821 4 0.156168 0.290818 0.774289
820 2 0.167684 0.268624 0.774371