ITEM: TIMESTEP
480000
ITEM: NUMBER OF ATOMS
4590
ITEM: BOX BOUNDS pp pp pp
-9.9985700000000008e+00 9.9985700000000008e+00
-9.9985700000000008e+00 9.9985700000000008e+00
-9.9985700000000008e+00 9.9985700000000008e+00
ITEM: ATOMS id type xs ys zs
463 2 0.0356279 0.0627014 0.0470014
464 4 0.0172691 0.0468406 0.0530484
1667 4 0.0754283 0.00784439 0.0751379
701 4 0.0706278 0.0833485 0.0320861
534 4 0.169171 0.0823975 0.00588468
492 4 0.255327 0.0159193 0.0601598
490 2 0.275219 0.0279078 0.0509005
491 4 0.295112 0.0398964 0.0416412
296 4 0.368548 0.0471058 0.0702473
557 4 0.372284 0.0613316 0.0575563
295 2 0.367911 0.0287263 0.0871874
1608 4 0.397489 0.0099081 0.0306586
745 2 0.460019 0.0727521 0.0198664
747 4 0.448373 0.0570067 0.00432173
746 4 0.471665 0.0884975 0.0354111
465 4 0.0539867 0.0785623 0.0409543
589 2 0.0334357 0.142699 0.0638193
591 4 0.0379889 0.124438 0.0473582
700 2 0.09305 0.0942344 0.0301059
702 4 0.115472 0.10512 0.0281257
566 4 0.134143 0.101591 0.0341883
565 2 0.148649 0.121667 0.0307665
567 4 0.163155 0.141743 0.0273447
423 4 0.0950488 0.153689 0.0092956
358 2 0.276435 0.114278 0.00160645
360 4 0.256081 0.128033 0.00626493
556 2 0.350516 0.0730017 0.0614487
558 4 0.328748 0.0846717 0.0653412
770 4 0.462923 0.1479 0.0464181
553 2 0.0506082 0.206098 0.017183
554 4 0.0441254 0.186774 0.0316654
836 4 0.0744466 0.231236 0.0105732
555 4 0.057091 0.225422 0.00270069
738 4 0.188581 0.217997 0.0881292
571 2 0.328243 0.252048 0.0329313
461 4 0.325109 0.223124 0.0629306
573 4 0.329922 0.230338 0.0452199
666 4 0.341068 0.215858 0.0356057
664 2 0.342336 0.200296 0.0160762
1071 4 0.409506 0.25651 0.0347296
665 4 0.343605 0.184735 0.996547
460 2 0.335242 0.222412 0.0857777
771 4 0.444667 0.187511 0.0708804
769 2 0.453795 0.167706 0.0586493
2808 4 0.998584 0.294595 0.0065769
292 2 0.135251 0.312901 0.0285667
293 4 0.152173 0.311686 0.0469336
294 4 0.118329 0.314116 0.0101997
507 4 0.161208 0.294299 0.0486222
506 4 0.189452 0.293042 0.0898706
505 2 0.17533 0.293671 0.0692464
355 2 0.248757 0.260166 0.0142456
357 4 0.246916 0.276641 0.0329633
572 4 0.326565 0.273759 0.0206427
1069 2 0.40225 0.273048 0.0174378
1070 4 0.394995 0.289587 0.000146054
324 4 0.393085 0.268798 0.0710393
322 2 0.414053 0.259534 0.081024
328 2 0.00979478 0.409203 0.0472533
330 4 0.0290998 0.424884 0.0498222
286 2 0.15695 0.394338 0.00716499
288 4 0.156043 0.415072 0.99322
287 4 0.157857 0.373604 0.0211098
251 4 0.250734 0.401506 0.0268071
252 4 0.283142 0.384457 0.0608625
250 2 0.266938 0.392982 0.0438348
608 4 0.294303 0.374925 0.0734951
607 2 0.285485 0.351819 0.077171
482 4 0.2602 0.333633 0.0913155
281 4 0.480417 0.357569 0.0488769
671 4 0.47404 0.342866 0.0599559
280 2 0.476203 0.369929 0.0275546
282 4 0.47199 0.38229 0.00623229
670 2 0.45261 0.338425 0.0720479
550 2 0.0787335 0.429893 0.0397388
551 4 0.0783904 0.42523 0.0151763
552 4 0.0790766 0.434556 0.0643013
245 4 0.250126 0.457532 0.0728596
244 2 0.25797 0.473667 0.0554445
627 4 0.23402 0.444983 0.0720587
625 2 0.21279 0.433348 0.078309
246 4 0.265814 0.489803 0.0380293
272 4 0.271844 0.488153 0.0197879
271 2 0.291156 0.477763 0.00777714
524 4 0.314455 0.49472 0.0782514
523 2 0.330639 0.476039 0.0820315
227 4 0.481938 0.479335 0.0674518
226 2 0.482846 0.46875 0.0448177
563 4 0.432551 0.464418 0.000161433
228 4 0.483755 0.458165 0.0221836
20 3 0.0557269 0.0681373 0.159417
19 3 0.0190364 0.0601766 0.162261
1422 4 0.996336 0.00660866 0.150419
450 4 0.157741 0.0612133 0.166606
1806 4 0.0996316 0.0101251 0.127261
448 2 0.169707 0.0831666 0.166381
652 2 0.290259 0.0101998 0.162492
653 4 0.284401 0.0265645 0.144518
297 4 0.367273 0.0103469 0.104128
758 4 0.412995 0.0672171 0.165553
590 4 0.0288824 0.160961 0.0802804
380 4 0.998265 0.0982377 0.147943
235 2 0.173433 0.143709 0.16525
236 4 0.186614 0.122749 0.161773
237 4 0.160252 0.16467 0.168727
449 4 0.181673 0.10512 0.166156
2625 4 0.999787 0.177754 0.10865
337 2 0.0658843 0.233555 0.141547
338 4 0.0823003 0.216304 0.14917
476 4 0.141433 0.233619 0.127499
475 2 0.118323 0.2245 0.130321
477 4 0.0952133 0.215382 0.133143
737 4 0.161785 0.233524 0.127393
736 2 0.175183 0.22576 0.107761
354 4 0.274353 0.233831 0.11803
285 4 0.258809 0.190714 0.139247
283 2 0.270579 0.20448 0.156486
630 4 0.410452 0.183477 0.111823
254 4 0.39073 0.178807 0.112642
255 4 0.358261 0.215316 0.123303
462 4 0.345375 0.2217 0.108625
253 2 0.374495 0.197061 0.117973
629 4 0.458496 0.18014 0.125292
628 2 0.434474 0.181809 0.118557
339 4 0.0494684 0.250805 0.133925
619 2 0.010016 0.330673 0.120914
621 4 0.986113 0.323562 0.119104
620 4 0.0339187 0.337784 0.122723
483 4 0.230707 0.296592 0.0752286
481 2 0.245454 0.315113 0.083272
277 2 0.251721 0.288562 0.164099
352 2 0.276543 0.257087 0.126948
353 4 0.278733 0.280344 0.135865
754 2 0.294509 0.31544 0.142244
755 4 0.290466 0.291141 0.146537
756 4 0.298552 0.339738 0.137952
278 4 0.274561 0.28426 0.154878
609 4 0.276668 0.328712 0.080847
741 4 0.3396 0.319349 0.0876507
323 4 0.435021 0.25027 0.0910086
647 4 0.0439508 0.353855 0.117716
646 2 0.0584811 0.352953 0.138044
455 4 0.0969071 0.383697 0.106178
454 2 0.102147 0.359714 0.10143
456 4 0.107386 0.335731 0.0966829
537 4 0.173993 0.370709 0.144801
535 2 0.197079 0.364627 0.15223
626 4 0.19156 0.421712 0.0845593
536 4 0.220166 0.358545 0.15966
612 4 0.286683 0.345081 0.153546
610 2 0.270583 0.35579 0.169398
739 2 0.351511 0.338781 0.0979315
740 4 0.363422 0.358213 0.108212
15 3 0.376386 0.363621 0.120891
385 2 0.352192 0.375586 0.146749
386 4 0.358366 0.36221 0.126547
11 1 0.398507 0.368557 0.118663
13 3 0.411383 0.35092 0.126508
14 3 0.403531 0.387895 0.130461
12 3 0.40331 0.371954 0.0964244
672 4 0.43118 0.333985 0.0841399
495 4 0.400829 0.398376 0.146984
645 4 0.464633 0.39916 0.15661
597 4 0.475284 0.414025 0.15068
637 2 0.257636 0.496355 0.132061
638 4 0.268728 0.494721 0.15441
767 4 0.260969 0.476769 0.159063
525 4 0.346822 0.457357 0.0858117
658 2 0.37969 0.472204 0.141368
493 2 0.400776 0.422909 0.142156
660 4 0.381412 0.447351 0.139238
494 4 0.400723 0.447441 0.137328
16 1 0.03832 0.0657405 0.173905
18 3 0.0432003 0.0492535 0.189486
673 2 0.115367 0.0602233 0.225796
674 4 0.132614 0.0783169 0.225205
675 4 0.0981204 0.0421298 0.226386
1505 4 0.234421 0.0483826 0.181543
1506 4 0.215491 0.00457238 0.16661
1504 2 0.224956 0.0264775 0.174076
654 4 0.296118 0.993835 0.180466
21 1 0.364571 0.0328142 0.224466
24 3 0.34234 0.0345498 0.218049
25 3 0.377611 0.0286591 0.206263
759 4 0.381272 0.0470228 0.198516
757 2 0.397133 0.05712 0.182035
22 3 0.371103 0.0526581 0.234094
23 3 0.36702 0.0157675 0.240016
742 2 0.480552 0.0338154 0.246631
744 4 0.463406 0.0516068 0.250462
17 3 0.0348627 0.0856205 0.18495
379 2 0.00871752 0.114956 0.163319
381 4 0.01917 0.131674 0.178695
511 2 0.0337472 0.151883 0.2155
512 4 0.0273434 0.145639 0.192151
579 4 0.0798564 0.106546 0.171866
577 2 0.0842384 0.129941 0.179524
578 4 0.0886204 0.153336 0.187181
693 4 0.199462 0.108998 0.158892
692 4 0.247407 0.114203 0.172118
723 4 0.184616 0.150298 0.208106
691 2 0.223434 0.1116 0.165505
721 2 0.18293 0.155223 0.232561
582 4 0.266321 0.108765 0.172653
580 2 0.274117 0.108439 0.196407
581 4 0.281914 0.108112 0.220162
30 3 0.301191 0.105408 0.222786
26 1 0.316847 0.0963476 0.236622
27 3 0.337231 0.106161 0.232454
28 3 0.318575 0.0735334 0.232757
312 4 0.430098 0.150674 0.176682
310 2 0.43028 0.130155 0.19097
311 4 0.430462 0.109636 0.205257
363 4 0.089571 0.217608 0.169406
362 4 0.12469 0.234933 0.200505
361 2 0.107131 0.22627 0.184955
372 4 0.131259 0.234408 0.220481
284 4 0.282348 0.218245 0.173725
764 4 0.366919 0.255914 0.186553
763 2 0.373256 0.231821 0.188684
765 4 0.379592 0.207728 0.190815
308 4 0.332942 0.239466 0.219461
395 4 0.0547179 0.287977 0.223349
394 2 0.0366776 0.277183 0.236885
750 4 0.0748526 0.29042 0.219097
370 2 0.150167 0.250295 0.224386
748 2 0.0945171 0.280667 0.231071
371 4 0.169075 0.266183 0.22829
279 4 0.228882 0.292865 0.173319
307 2 0.320945 0.261299 0.221595
309 4 0.308948 0.283132 0.22373
623 4 0.376628 0.272892 0.191514
622 2 0.387462 0.291111 0.17825
624 4 0.398295 0.309329 0.164987
528 4 0.49882 0.248589 0.215071
527 4 0.47818 0.271215 0.175539
526 2 0.4885 0.259902 0.195305
648 4 0.0730114 0.352052 0.158372
300 4 0.135053 0.343305 0.214926
298 2 0.132502 0.354585 0.237094
290 4 0.239001 0.407388 0.237313
611 4 0.254484 0.366499 0.185251
387 4 0.346018 0.388962 0.166952
302 4 0.352277 0.375845 0.181453
303 4 0.3636 0.393067 0.227015
301 2 0.357938 0.384456 0.204234
643 2 0.458762 0.379231 0.170523
644 4 0.45289 0.359303 0.184435
447 4 0.461441 0.361208 0.202624
445 2 0.479907 0.36721 0.218377
446 4 0.498373 0.373213 0.234129
262 2 0.0580066 0.428467 0.234974
264 4 0.0356611 0.439135 0.238445
263 4 0.080352 0.417799 0.231503
417 4 0.161637 0.482555 0.210668
415 2 0.17452 0.461195 0.212378
291 4 0.204545 0.442163 0.227103
416 4 0.187404 0.439834 0.214088
289 2 0.221773 0.424775 0.232208
768 4 0.250184 0.46527 0.20652
766 2 0.255576 0.47102 0.182792
714 4 0.427395 0.477873 0.23223
595 2 0.48808 0.427102 0.167723
1799 4 0.0208738 0.00867168 0.290586
232 2 0.0148539 0.0430949 0.274908
233 4 0.0262599 0.0274354 0.290715
1402 2 0.0574506 0.00584901 0.268998
1403 4 0.0367795 0.0144386 0.280138
234 4 0.00344793 0.0587544 0.259101
318 4 0.0190231 0.0659994 0.327719
689 4 0.220891 0.0142542 0.253954
1699 2 0.240567 0.0617284 0.3141
1701 4 0.247427 0.0398147 0.323996
697 2 0.370501 0.0464179 0.323495
699 4 0.360764 0.0255828 0.313683
1518 4 0.343718 0.0203455 0.306076
478 2 0.463441 0.0338965 0.313638
351 4 0.459632 0.0505758 0.270394
349 2 0.447177 0.0715859 0.275745
479 4 0.485197 0.0428689 0.305193
480 4 0.441684 0.0249242 0.322083
350 4 0.434722 0.0925959 0.281095
513 4 0.040151 0.158127 0.238849
398 4 0.071788 0.125721 0.281596
397 2 0.0820053 0.113225 0.300691
731 4 0.0994248 0.0826133 0.319471
399 4 0.0922227 0.100729 0.319787
1700 4 0.233708 0.083642 0.304205
248 4 0.21434 0.0836168 0.304036
249 4 0.220538 0.133058 0.299811
247 2 0.217439 0.108338 0.301924
404 4 0.216122 0.151051 0.290605
546 4 0.176855 0.162709 0.276339
29 3 0.311045 0.100216 0.258752
632 4 0.388665 0.122745 0.309864
631 2 0.389759 0.102723 0.3248
333 4 0.4211 0.172657 0.262192
331 2 0.440278 0.164299 0.275885
332 4 0.459457 0.155941 0.289579
762 4 0.476709 0.166361 0.290475
389 4 0.0661919 0.229742 0.328902
393 4 0.0898208 0.218426 0.290277
392 4 0.13141 0.198074 0.271387
391 2 0.110615 0.20825 0.280832
545 4 0.131301 0.182111 0.283347
544 2 0.154078 0.17241 0.279843
722 4 0.181243 0.160149 0.257017
403 2 0.21871 0.172169 0.277471
405 4 0.221297 0.193287 0.264336
706 2 0.340384 0.192865 0.337541
707 4 0.322246 0.197571 0.320986
377 4 0.310078 0.230542 0.315134
420 4 0.408418 0.203535 0.296641
717 4 0.389416 0.242885 0.334019
2682 4 0.507726 0.206806 0.255277
522 4 0.497195 0.222459 0.263896
520 2 0.475059 0.233802 0.261347
521 4 0.452923 0.245146 0.258799
418 2 0.424027 0.20007 0.315865
419 4 0.439635 0.196605 0.335089
760 2 0.488041 0.181113 0.307182
761 4 0.499374 0.195864 0.32389
444 4 0.00392466 0.25205 0.303557
396 4 0.0186373 0.26639 0.250421
443 4 0.00733851 0.279321 0.26178
442 2 0.00563158 0.265685 0.282669
364 2 0.0230442 0.328069 0.299079
365 4 0.0424017 0.322096 0.284423
749 4 0.114181 0.270913 0.243044
401 4 0.205683 0.260126 0.281153
345 4 0.243466 0.307493 0.305895
400 2 0.216345 0.278697 0.294061
402 4 0.227008 0.297268 0.306968
510 4 0.227311 0.315082 0.314131
344 4 0.276498 0.313624 0.268854
343 2 0.259982 0.310559 0.287374
498 4 0.324896 0.32002 0.281174
378 4 0.265847 0.25133 0.304542
376 2 0.287962 0.240936 0.309838
496 2 0.339281 0.300671 0.274552
497 4 0.353667 0.281322 0.267929
715 2 0.366688 0.247144 0.343532
542 4 0.445162 0.314213 0.309553
541 2 0.429966 0.333713 0.313296
366 4 0.00368667 0.334041 0.313735
299 4 0.129952 0.365864 0.259263
601 2 0.105211 0.398887 0.257894
603 4 0.121118 0.381845 0.266934
734 4 0.137086 0.373524 0.275483
733 2 0.153064 0.390016 0.285377
508 2 0.217238 0.335769 0.323916
735 4 0.169043 0.406508 0.29527
677 4 0.185376 0.407473 0.306626
676 2 0.200846 0.390129 0.31585
678 4 0.216316 0.372786 0.325073
729 4 0.330761 0.378882 0.262537
435 4 0.281814 0.372288 0.300844
433 2 0.283983 0.378154 0.325053
727 2 0.339294 0.398586 0.275347
615 4 0.396233 0.354774 0.323643
613 2 0.373948 0.364422 0.329598
728 4 0.347827 0.418291 0.288158
543 4 0.41477 0.353214 0.31704
614 4 0.351662 0.37407 0.335553
2538 4 0.480277 0.352987 0.30191
2537 4 0.490012 0.401173 0.292744
2536 2 0.485144 0.37708 0.297327
1757 4 0.0907991 0.491199 0.270649
549 4 0.0315738 0.42882 0.322442
777 4 0.0827333 0.473028 0.309633
2463 4 0.0220889 0.50391 0.327871
602 4 0.0893039 0.415929 0.248855
775 2 0.106052 0.473747 0.300639
776 4 0.129371 0.474467 0.291644
414 4 0.146518 0.47371 0.302769
412 2 0.165104 0.47494 0.319449
413 4 0.183689 0.47617 0.33613
436 2 0.287067 0.447285 0.276871
437 4 0.276198 0.454158 0.255428
438 4 0.297937 0.440412 0.298314
712 2 0.425678 0.49188 0.25287
2860 2 0.505762 0.46328 0.261821
2861 4 0.484932 0.475692 0.267923
316 2 0.0306744 0.0724542 0.34888
606 4 0.196518 0.0966181 0.39694
604 2 0.209109 0.0812344 0.381774
605 4 0.221699 0.0658508 0.366608
683 4 0.276685 0.0731676 0.372276
441 4 0.298106 0.00339356 0.384371
698 4 0.380237 0.067253 0.333307
633 4 0.390853 0.0827012 0.339737
257 4 0.399706 0.0662708 0.335061
256 2 0.41281 0.0617092 0.355861
424 2 0.40629 0.0411368 0.409823
426 4 0.415394 0.0580128 0.393776
258 4 0.425914 0.0571477 0.376662
317 4 0.0423256 0.0789091 0.37004
459 4 0.998414 0.161376 0.398077
457 2 0.0203837 0.156657 0.409042
730 2 0.122785 0.0828954 0.328383
732 4 0.146145 0.0831776 0.337294
600 4 0.180571 0.130336 0.354168
598 2 0.173456 0.153872 0.358714
682 2 0.289411 0.0917528 0.383131
684 4 0.302137 0.110338 0.393985
473 4 0.264843 0.157968 0.359682
320 4 0.297848 0.124292 0.408323
451 2 0.487508 0.160854 0.378462
515 4 0.454534 0.14652 0.387863
514 2 0.432111 0.148311 0.398781
453 4 0.464092 0.164307 0.386521
2655 4 1 0.225178 0.381351
2653 2 0.997634 0.200366 0.383341
2654 4 0.995268 0.175555 0.385332
687 4 0.169547 0.171284 0.402063
599 4 0.166342 0.177407 0.36326
685 2 0.176136 0.193291 0.411935
474 4 0.280748 0.20536 0.358349
472 2 0.272795 0.181664 0.359015
488 4 0.284127 0.218049 0.372344
487 2 0.287371 0.228467 0.394841
708 4 0.358521 0.188159 0.354096
468 4 0.363984 0.212481 0.412847
305 4 0.467167 0.194121 0.411653
388 2 0.0652472 0.245042 0.348655
390 4 0.0643025 0.260343 0.368408
616 2 0.070042 0.315762 0.378299
618 4 0.0529542 0.311781 0.396113
347 4 0.0398468 0.298768 0.402915
617 4 0.0871298 0.319743 0.360485
275 4 0.150174 0.293078 0.391124
276 4 0.179697 0.252794 0.388603
274 2 0.164935 0.272936 0.389863
373 2 0.197951 0.323365 0.389247
374 4 0.212953 0.321841 0.369302
375 4 0.18295 0.324889 0.409192
716 4 0.343961 0.251403 0.353045
268 2 0.499364 0.247279 0.414141
2814 4 0.0123484 0.403455 0.417008
408 4 0.0723839 0.389899 0.404526
406 2 0.0763294 0.399116 0.381621
407 4 0.080275 0.408332 0.358715
509 4 0.207164 0.356456 0.333702
434 4 0.286152 0.38402 0.349262
503 4 0.250294 0.405274 0.402941
336 4 0.320411 0.392154 0.397277
334 2 0.332859 0.384586 0.417599
561 4 0.457202 0.358626 0.376839
752 4 0.440782 0.368721 0.37049
559 2 0.472454 0.368279 0.394141
751 2 0.438498 0.390766 0.358914
753 4 0.436214 0.41281 0.347338
547 2 0.046601 0.415965 0.337742
548 4 0.0616282 0.403109 0.353042
500 4 0.122119 0.49051 0.352803
499 2 0.118052 0.483763 0.376534
501 4 0.113986 0.477017 0.400264
1557 4 0.230869 0.495475 0.391634
5 3 0.309963 0.468891 0.383269
1 1 0.317973 0.454374 0.398882
2 3 0.318734 0.464894 0.419325
4 3 0.303986 0.435927 0.400454
3 3 0.339406 0.447597 0.393131
594 4 0.402619 0.457015 0.339333
592 2 0.408962 0.481107 0.341456
119 3 0.496706 0.423107 0.355177
1772 4 0.0279791 0.0114434 0.41702
718 2 0.037023 0.0606096 0.464687
720 4 0.0456401 0.0521126 0.486567
2237 4 0.0411631 0.0346377 0.491135
2236 2 0.0304095 0.0124378 0.487048
368 4 0.100675 0.0161674 0.43241
367 2 0.116715 0.0240517 0.449894
369 4 0.132756 0.0319359 0.467379
341 4 0.192943 0.0345041 0.495234
1181 4 0.221433 0.0735685 0.450426
1180 2 0.233454 0.0732413 0.472348
726 4 0.309571 0.0295623 0.447121
724 2 0.31456 0.0540033 0.448833
432 4 0.31091 0.0526737 0.488639
425 4 0.397186 0.0242609 0.42587
2878 2 0.488532 0.0692282 0.447165
719 4 0.0284059 0.0691065 0.442807
458 4 0.0423538 0.151939 0.420007
725 4 0.319548 0.0784444 0.450545
1182 4 0.245475 0.0729142 0.49427
321 4 0.278627 0.124377 0.454489
319 2 0.288237 0.124335 0.431406
574 2 0.396145 0.142873 0.451358
575 4 0.40206 0.143521 0.427073
516 4 0.409689 0.150103 0.409699
576 4 0.39023 0.142225 0.475644
642 4 0.477404 0.0986155 0.474108
2880 4 0.481664 0.0919468 0.455031
640 2 0.462048 0.117383 0.480203
641 4 0.446693 0.136151 0.486298
471 4 0.997792 0.182881 0.4578
469 2 0.0175534 0.191595 0.470399
470 4 0.0373148 0.200309 0.482997
260 4 0.0909123 0.238079 0.468395
261 4 0.113187 0.193338 0.470061
259 2 0.10205 0.215709 0.469228
1035 4 0.106634 0.190368 0.489228
686 4 0.182724 0.215298 0.421807
411 4 0.273649 0.1752 0.427396
409 2 0.283944 0.179957 0.44968
410 4 0.294239 0.184713 0.471963
900 4 0.301216 0.18414 0.491235
489 4 0.290615 0.238884 0.417338
466 2 0.386292 0.206866 0.422644
467 4 0.408601 0.201251 0.432441
304 2 0.467939 0.202382 0.43524
306 4 0.468712 0.210642 0.458827
346 2 0.0413291 0.304615 0.42718
348 4 0.0428114 0.310462 0.451445
695 4 0.101379 0.255691 0.461092
694 2 0.100951 0.270504 0.481231
696 4 0.100523 0.285317 0.50137
327 4 0.11211 0.352946 0.448147
7 3 0.141893 0.330197 0.501905
10 3 0.170453 0.311869 0.486371
651 4 0.233571 0.282716 0.462546
650 4 0.272216 0.305322 0.484822
649 2 0.252894 0.294019 0.473684
266 4 0.330211 0.258956 0.433174
267 4 0.367054 0.276329 0.462182
265 2 0.348633 0.267642 0.447678
269 4 0.483416 0.265663 0.40841
583 2 0.483931 0.295049 0.471418
585 4 0.45903 0.293226 0.470075
326 4 0.0655194 0.3354 0.452853
325 2 0.0888148 0.344173 0.4505
6 1 0.163279 0.332212 0.493677
8 3 0.163154 0.347347 0.476089
504 4 0.215431 0.390212 0.435474
711 4 0.172328 0.364551 0.477514
709 2 0.188717 0.383353 0.47926
710 4 0.205106 0.402155 0.481006
774 4 0.222845 0.408769 0.486976
502 2 0.232862 0.397743 0.419207
238 2 0.385775 0.386854 0.452252
240 4 0.364337 0.37889 0.442144
335 4 0.345306 0.377018 0.43792
239 4 0.407213 0.394819 0.46236
560 4 0.487707 0.377932 0.411443
926 4 0.438364 0.411083 0.475716
934 2 0.0101129 0.45559 0.502343
935 4 0.0103899 0.434134 0.489508
679 2 0.0506584 0.456766 0.456906
1383 4 0.0195242 0.47504 0.432883
681 4 0.0726374 0.45184 0.467762
383 4 0.0816313 0.433387 0.466701
680 4 0.0286793 0.461691 0.446051
384 4 0.129128 0.435885 0.451257
568 2 0.151491 0.465419 0.438789
570 4 0.173018 0.477108 0.433774
539 4 0.0845754 0.47377 0.487207
382 2 0.10538 0.434636 0.458979
569 4 0.129964 0.45373 0.443804
635 4 0.208686 0.421316 0.485352
634 2 0.220568 0.442253 0.478595
636 4 0.23245 0.463189 0.471838
667 2 0.299352 0.426917 0.443007
668 4 0.300051 0.43769 0.420454
669 4 0.298652 0.416143 0.465559
588 4 0.391704 0.447211 0.450057
586 2 0.408072 0.43542 0.46483
587 4 0.42444 0.42363 0.479603
1126 2 0.024119 0.049687 0.52455
1127 4 0.0321373 0.0494287 0.500869
1128 4 0.0161007 0.0499452 0.548232
1058 4 0.142657 0.0542173 0.558393
1057 2 0.147467 0.0698191 0.57733
2428 2 0.204549 0.00657699 0.523589
342 4 0.187507 0.0810542 0.512677
2430 4 0.190083 0.0159802 0.505492
340 2 0.190225 0.0577792 0.503956
1031 4 0.254032 0.0659305 0.545885
951 4 0.260327 0.0498975 0.559475
961 2 0.277155 0.0386645 0.506067
962 4 0.256753 0.0247016 0.509804
430 2 0.330218 0.0604977 0.502466
1030 2 0.250232 0.08819 0.55662
949 2 0.254637 0.0377765 0.580591
963 4 0.297558 0.0526274 0.50233
1217 4 0.395355 0.0505871 0.565103
1216 2 0.396167 0.0259189 0.569103
841 2 0.384223 0.0690867 0.535552
842 4 0.402805 0.0601291 0.549681
431 4 0.349526 0.0683216 0.516293
843 4 0.36564 0.0780444 0.521424
1218 4 0.39698 0.00125076 0.573103
938 4 0.0748291 0.116328 0.552968
937 2 0.0866589 0.129929 0.535641
939 4 0.0984887 0.14353 0.518314
1152 4 0.172926 0.0876581 0.52362
1151 4 0.158189 0.126786 0.551053
1150 2 0.165558 0.107222 0.537336
1032 4 0.246431 0.110449 0.567356
878 4 0.0405996 0.204052 0.552823
1199 4 0.0265365 0.216139 0.544095
1198 2 0.00220237 0.220316 0.548043
877 2 0.0596046 0.202459 0.568993
1034 4 0.0997372 0.160929 0.529059
1033 2 0.103186 0.175649 0.509144
857 4 0.257241 0.205769 0.525267
856 2 0.256287 0.181474 0.531101
898 2 0.320672 0.184581 0.506934
858 4 0.255333 0.157179 0.536935
899 4 0.340128 0.185022 0.522633
871 2 0.389716 0.223283 0.525811
873 4 0.370399 0.222888 0.541682
872 4 0.409032 0.223679 0.50994
904 2 0.44747 0.239278 0.586019
906 4 0.42708 0.251835 0.578826
983 4 0.0675165 0.321292 0.577416
1258 2 0.131876 0.284939 0.528153
1260 4 0.112325 0.278785 0.513833
1259 4 0.151427 0.291093 0.542473
791 4 0.287339 0.249343 0.543992
790 2 0.294017 0.250968 0.568033
811 2 0.301746 0.312661 0.50716
804 4 0.267623 0.325735 0.509529
813 4 0.322512 0.30598 0.51938
812 4 0.28098 0.319341 0.49494
954 4 0.477449 0.314631 0.560553
1011 4 0.491556 0.325835 0.549402
952 2 0.464289 0.308968 0.581045
1136 4 0.0926018 0.374551 0.563047
897 4 0.143762 0.398168 0.578391
1137 4 0.13011 0.392531 0.590807
1135 2 0.111356 0.383541 0.576927
9 3 0.177147 0.339879 0.510627
895 2 0.166609 0.38827 0.580674
1189 2 0.218335 0.370978 0.558048
773 4 0.24471 0.384866 0.525072
1190 4 0.233983 0.377486 0.539665
1191 4 0.202687 0.36447 0.576432
772 2 0.233778 0.396817 0.506024
896 4 0.189456 0.378372 0.582957
802 2 0.257098 0.345931 0.519849
803 4 0.246572 0.366128 0.530168
930 4 0.307962 0.397121 0.572861
928 2 0.313421 0.380891 0.554641
929 4 0.31888 0.364661 0.536421
925 2 0.437735 0.395087 0.494923
927 4 0.437106 0.37909 0.514129
3309 4 0.48635 0.394631 0.54512
3307 2 0.502451 0.384938 0.561612
936 4 0.00983597 0.477045 0.515179
538 2 0.0919291 0.490906 0.503865
1161 4 0.165325 0.48426 0.546342
2243 4 0.155051 0.501391 0.550781
1159 2 0.172853 0.477212 0.56912
1172 4 0.219502 0.419696 0.58385
882 4 0.304498 0.452597 0.517732
891 4 0.31843 0.441335 0.575081
880 2 0.324443 0.465314 0.525835
881 4 0.344387 0.478032 0.533939
1952 4 0.362002 0.479855 0.543458
1951 2 0.368795 0.502261 0.552235
1002 4 0.42517 0.423069 0.56238
1000 2 0.428772 0.447801 0.561666
1001 4 0.432374 0.472534 0.560952
662 4 0.483106 0.490355 0.52388
663 4 0.477835 0.450589 0.494022
661 2 0.48047 0.470472 0.508951
1911 4 0.419795 0.507135 0.533043
943 2 0.0727361 0.0230214 0.655259
944 4 0.0862179 0.0440695 0.65589
1184 4 0.0108711 0.987268 0.60068
825 4 0.100948 0.0197012 0.619418
823 2 0.119808 0.00343959 0.621666
1059 4 0.152278 0.0854209 0.596268
950 4 0.248948 0.0256556 0.601707
1283 4 0.172392 0.0932918 0.654323
1092 4 0.323004 0.00687417 0.643267
1090 2 0.317426 0.0202855 0.663619
45 3 0.44023 0.0709923 0.654319
1083 4 0.0421662 0.124218 0.624713
1081 2 0.0328561 0.11788 0.647036
1082 4 0.0235461 0.111542 0.669359
1153 2 0.156944 0.129624 0.589833
1155 4 0.157868 0.104647 0.590519
909 4 0.1248 0.136252 0.653054
1154 4 0.156019 0.154601 0.589146
1221 4 0.172202 0.162304 0.597064
1284 4 0.206364 0.100679 0.618378
1282 2 0.189378 0.0969855 0.63635
810 4 0.482971 0.0746931 0.654353
808 2 0.494413 0.0794255 0.63263
879 4 0.0786096 0.200865 0.585162
1243 2 0.0637849 0.239182 0.628163
1245 4 0.0708228 0.243023 0.651846
1209 4 0.0880538 0.237642 0.65982
1272 4 0.0938729 0.212517 0.579538
1270 2 0.116806 0.217378 0.588233
1271 4 0.13974 0.22224 0.596929
797 4 0.198177 0.24521 0.596831
1210 2 0.231001 0.194334 0.646978
1212 4 0.214698 0.199033 0.628612
1219 2 0.191905 0.175764 0.604533
1220 4 0.211608 0.189225 0.612002
796 2 0.212112 0.230308 0.611285
798 4 0.226048 0.215406 0.625738
888 4 0.267153 0.194801 0.665011
905 4 0.46786 0.226721 0.593212
1244 4 0.0567471 0.235342 0.60448
947 4 0.161351 0.275128 0.638369
946 2 0.181195 0.264613 0.649362
948 4 0.201039 0.254099 0.660354
1064 4 0.20786 0.270186 0.668591
792 4 0.300695 0.252593 0.592073
1238 4 0.313234 0.263997 0.600667
1237 2 0.307416 0.286731 0.609299
1239 4 0.301598 0.309464 0.617932
953 4 0.451129 0.303305 0.601537
3123 4 0.471295 0.270119 0.657756
982 2 0.0572337 0.339378 0.591285
984 4 0.0469509 0.357464 0.605153
1039 2 0.0797375 0.379017 0.624797
1041 4 0.0604385 0.365146 0.617029
3263 4 0.043718 0.358921 0.624601
3262 2 0.0207554 0.360694 0.634336
1040 4 0.0990365 0.392887 0.632565
991 2 0.122495 0.406276 0.652128
993 4 0.104906 0.411921 0.635277
1029 4 0.243298 0.423972 0.645607
1188 4 0.226367 0.490484 0.649479
1173 4 0.190722 0.456547 0.601582
1171 2 0.205112 0.438122 0.592716
1187 4 0.204678 0.466884 0.611095
1160 4 0.180381 0.470164 0.591898
1186 2 0.215523 0.478684 0.630287
889 2 0.330422 0.452207 0.594138
890 4 0.342413 0.46308 0.613195
1205 4 0.441513 0.430439 0.64052
1204 2 0.421439 0.424511 0.654197
1269 4 0.442815 0.459577 0.659635
1091 4 0.311849 0.0336967 0.683972
1004 4 0.340112 0.0726413 0.729724
44 3 0.473209 0.0844014 0.666577
2321 4 0.500401 0.000765657 0.756081
1163 4 0.489306 0.074787 0.672685
42 3 0.449528 0.0673735 0.690283
41 1 0.450858 0.0810017 0.671799
1076 4 0.0366307 0.108444 0.683812
864 4 0.0586169 0.131028 0.744436
1075 2 0.0433859 0.120655 0.704559
1077 4 0.0501412 0.132866 0.725306
907 2 0.136339 0.128386 0.673794
908 4 0.147879 0.120519 0.694533
1148 4 0.207069 0.0823397 0.738986
1227 4 0.162855 0.12642 0.705978
1225 2 0.177265 0.110913 0.719285
1226 4 0.191675 0.0954068 0.732592
1005 4 0.320132 0.107337 0.699763
830 4 0.314851 0.169442 0.701793
1003 2 0.330122 0.0899893 0.714743
1142 4 0.397907 0.155833 0.73763
831 4 0.363908 0.161999 0.69557
829 2 0.33938 0.16572 0.698682
845 4 0.469814 0.0929787 0.73009
43 3 0.440691 0.101279 0.676683
851 4 0.0663789 0.169485 0.750816
852 4 0.0423399 0.185729 0.710086
850 2 0.0543594 0.177607 0.730451
1105 2 0.110141 0.167364 0.746638
1107 4 0.0862827 0.16894 0.753951
1207 2 0.100339 0.225888 0.678153
1208 4 0.112623 0.214135 0.696487
1073 4 0.106518 0.215261 0.737358
1072 2 0.0871546 0.226727 0.748256
1211 4 0.247304 0.189635 0.665344
1130 4 0.180884 0.198708 0.722818
1129 2 0.180121 0.221169 0.733775
1131 4 0.179359 0.243631 0.744733
886 2 0.286785 0.19003 0.679742
887 4 0.306418 0.185259 0.694472
976 2 0.305208 0.19145 0.733699
978 4 0.301712 0.179446 0.712046
1192 2 0.367744 0.23077 0.683365
1194 4 0.377764 0.208506 0.68876
1141 2 0.408836 0.173743 0.724029
1025 4 0.471105 0.168979 0.678257
1024 2 0.454641 0.181943 0.691897
1143 4 0.419765 0.191652 0.710428
1026 4 0.438176 0.194907 0.705536
1261 2 0.439849 0.222501 0.726975
1262 4 0.425816 0.209695 0.710719
1263 4 0.453882 0.235307 0.743231
3121 2 0.477851 0.252314 0.67404
3122 4 0.484407 0.234509 0.690324
820 2 0.162092 0.27792 0.737101
821 4 0.149603 0.294243 0.722861
1065 4 0.249477 0.280911 0.69416
1063 2 0.228669 0.275548 0.681375
1193 4 0.357724 0.253034 0.677971
3274 2 0.0155632 0.397018 0.734833
892 2 0.048559 0.357229 0.702187
893 4 0.0597957 0.347583 0.682041
894 4 0.0373223 0.366875 0.722333
3276 4 0.0357106 0.386047 0.724887
816 4 0.0504917 0.376733 0.733199
814 2 0.0719855 0.384846 0.743067
940 2 0.128092 0.395042 0.743472
941 4 0.147618 0.387394 0.729855
1067 4 0.152141 0.395466 0.713409
1027 2 0.224284 0.420573 0.661484
1066 2 0.173471 0.400349 0.70131
1068 4 0.194801 0.405232 0.689212
806 4 0.298868 0.373675 0.674872
805 2 0.3154 0.359916 0.687622
1139 4 0.291589 0.415138 0.709493
807 4 0.331932 0.346157 0.700371
1019 4 0.387506 0.387099 0.742018
1281 4 0.0411006 0.491422 0.715537
1280 4 0.0729201 0.455596 0.70123
1279 2 0.0570103 0.473509 0.708384
992 4 0.140083 0.40063 0.668979
1028 4 0.20527 0.417175 0.677362
1176 4 0.24854 0.49683 0.703828
1174 2 0.234016 0.500225 0.68376
1138 2 0.275053 0.433883 0.708888
1140 4 0.258517 0.452627 0.708282
1206 4 0.401364 0.418583 0.667873
1987 2 0.359035 0.485998 0.748842
1228 2 0.388279 0.46609 0.699388
1229 4 0.370502 0.471615 0.71608
1230 4 0.406057 0.460566 0.682697
1989 4 0.376522 0.484546 0.73103
1100 4 0.416535 0.450805 0.697422
1267 2 0.447131 0.477604 0.676416
1101 4 0.450906 0.427913 0.725624
1099 2 0.433721 0.439359 0.711523
1268 4 0.451448 0.495631 0.693196
1294 2 0.0487426 0.0207189 0.778525
1295 4 0.0476223 0.0456535 0.777045
1203 4 0.117739 0.0604654 0.797725
1201 2 0.104046 0.0401571 0.792699
1202 4 0.0903538 0.0198488 0.787672
2049 4 0.0935373 0.00557922 0.775072
1147 2 0.209022 0.0593393 0.748596
1149 4 0.210974 0.036339 0.758206
1257 4 0.2606 0.0389613 0.804594
1255 2 0.260653 0.0637986 0.807473
1111 2 0.393902 0.0491436 0.821433
1113 4 0.4128 0.0361168 0.811515
911 4 0.0704165 0.0920002 0.813574
862 2 0.0482741 0.124457 0.766232
863 4 0.0379313 0.117887 0.788027
832 2 0.0162728 0.102591 0.816236
833 4 0.0192157 0.1108 0.792803
834 4 0.0133299 0.0943815 0.83967
910 2 0.0808609 0.0768542 0.830506
1106 4 0.133999 0.165789 0.739325
34 3 0.0957822 0.137899 0.822067
31 1 0.111523 0.154912 0.823155
35 3 0.132381 0.146065 0.825463
838 2 0.235589 0.116042 0.830069
1256 4 0.260706 0.0886359 0.810351
840 4 0.250698 0.0971491 0.823748
1086 4 0.334416 0.160907 0.788758
1084 2 0.354177 0.148894 0.798264
1085 4 0.373938 0.136881 0.807769
819 4 0.367547 0.120515 0.816673
844 2 0.481867 0.0930016 0.751996
3268 2 0.503671 0.171163 0.760545
3269 4 0.491175 0.152702 0.74922
846 4 0.49392 0.0930245 0.773903
3468 4 0.488234 0.178301 0.819468
1213 2 0.00940238 0.227162 0.740067
1214 4 0.0294075 0.212947 0.744853
1074 4 0.0677909 0.238193 0.759153
32 3 0.110596 0.167155 0.803702
1298 4 0.323667 0.200077 0.76686
918 4 0.315387 0.217958 0.766974
977 4 0.308705 0.203453 0.755352
916 2 0.309647 0.242029 0.763395
1299 4 0.372954 0.204089 0.774305
1297 2 0.34831 0.202083 0.770583
1042 2 0.408978 0.235691 0.789487
50 3 0.410776 0.165395 0.778769
1043 4 0.402273 0.211749 0.786837
1145 4 0.470199 0.238621 0.755322
49 3 0.417591 0.202374 0.776829
46 1 0.421001 0.182952 0.789058
47 3 0.443599 0.178856 0.790361
48 3 0.412596 0.185533 0.810531
1144 2 0.489006 0.22313 0.760935