ITEM: TIMESTEP
1020000
ITEM: NUMBER OF ATOMS
4590
ITEM: BOX BOUNDS pp pp pp
-9.9985700000000008e+00 9.9985700000000008e+00
-9.9985700000000008e+00 9.9985700000000008e+00
-9.9985700000000008e+00 9.9985700000000008e+00
ITEM: ATOMS id type xs ys zs
464 4 0.0173329 0.0598155 0.0333034
701 4 0.0687597 0.0789884 0.0439549
463 2 0.0395014 0.0703835 0.0286073
567 4 0.161821 0.0690356 0.0826783
565 2 0.138994 0.0773519 0.0767671
566 4 0.116167 0.0856681 0.0708559
700 2 0.0856979 0.077119 0.0622519
491 4 0.29727 0.0267376 0.0389733
2264 4 0.292453 0.0400976 0.0236298
558 4 0.357947 0.073323 0.0401987
556 2 0.36378 0.0634705 0.0624266
557 4 0.369613 0.0536179 0.0846545
745 2 0.474643 0.0495002 0.00659481
746 4 0.480816 0.0529396 0.030579
2467 2 0.50547 0.019223 0.0456247
2469 4 0.495273 0.0404896 0.0373219
465 4 0.06167 0.0809515 0.0239112
589 2 0.0171638 0.131069 0.0788678
590 4 0.0379944 0.134799 0.0655504
554 4 0.0704193 0.166098 0.0285354
421 2 0.11397 0.136331 0.99697
702 4 0.102636 0.0752495 0.0805489
422 4 0.129122 0.141249 0.0162423
359 4 0.262834 0.129332 0.999728
770 4 0.453461 0.161011 0.0687895
553 2 0.0648576 0.190196 0.0248541
836 4 0.071886 0.22871 0.0199336
555 4 0.059296 0.214293 0.0211729
835 2 0.0948287 0.236103 0.0132889
837 4 0.117771 0.243497 0.00664417
666 4 0.318317 0.213162 0.0277496
664 2 0.316928 0.212377 0.00279701
573 4 0.309685 0.228042 0.0367564
461 4 0.320566 0.21685 0.0472127
460 2 0.327277 0.210613 0.0704771
1070 4 0.414836 0.235087 0.0181672
769 2 0.433114 0.173957 0.0753905
1012 2 0.487166 0.200267 0.056631
771 4 0.412767 0.186904 0.0819916
1014 4 0.473938 0.193253 0.0766558
1013 4 0.500394 0.207282 0.0366062
1069 2 0.423135 0.240718 0.0410711
1071 4 0.431435 0.246349 0.0639751
915 4 0.134349 0.252004 0.0144383
292 2 0.114313 0.290284 0.0651259
294 4 0.0938219 0.299528 0.054178
507 4 0.152926 0.286173 0.0726838
293 4 0.134803 0.28104 0.0760738
505 2 0.176607 0.289535 0.0653983
481 2 0.222224 0.327106 0.0755095
506 4 0.200288 0.292898 0.0581129
483 4 0.213203 0.306013 0.0655651
355 2 0.289805 0.308657 0.0129432
571 2 0.309136 0.252914 0.03926
356 4 0.301613 0.293919 0.0293315
572 4 0.308586 0.277785 0.0417636
357 4 0.277997 0.323394 0.996555
957 4 0.367468 0.318943 0.026647
324 4 0.428941 0.265721 0.0687331
322 2 0.433048 0.29032 0.0705224
672 4 0.447012 0.319095 0.0555906
323 4 0.437155 0.314919 0.0723118
620 4 0.0208869 0.357467 0.0736809
482 4 0.231246 0.348199 0.085454
609 4 0.236654 0.355878 0.068522
252 4 0.285863 0.390351 0.0346314
608 4 0.2682 0.38465 0.0424896
607 2 0.252427 0.370264 0.0555058
670 2 0.460229 0.338711 0.0636983
671 4 0.473445 0.358326 0.0718061
281 4 0.482321 0.371239 0.0840538
280 2 0.477599 0.392095 0.0710958
2651 4 0.488701 0.35266 0.0824151
282 4 0.472878 0.412951 0.0581378
551 4 0.0572828 0.447895 0.0704966
550 2 0.0749677 0.465394 0.072988
552 4 0.0926526 0.482893 0.0754793
1787 4 0.102689 0.494675 0.0632508
242 4 0.112612 0.481937 0.0747275
241 2 0.135758 0.489934 0.0797769
250 2 0.289136 0.41455 0.0400018
244 2 0.255124 0.476734 0.0600739
251 4 0.292409 0.43875 0.0453722
271 2 0.266274 0.475922 0.00443619
246 4 0.267324 0.490156 0.042863
272 4 0.266401 0.492034 0.0235562
245 4 0.242925 0.463312 0.0772848
523 2 0.352567 0.492747 0.0659753
524 4 0.340426 0.471096 0.0629791
226 2 0.474049 0.469911 0.0557329
228 4 0.451629 0.458849 0.0560932
563 4 0.447069 0.475317 0.0197429
562 2 0.450208 0.49496 0.00459395
2576 4 0.00145254 0.0494824 0.0759919
16 1 0.0587659 0.0652841 0.16163
17 3 0.0701972 0.0785119 0.14668
1804 2 0.0730578 0.020652 0.125046
20 3 0.0371985 0.0630182 0.154676
1806 4 0.0710183 0.0313684 0.147544
1805 4 0.0750974 0.00993565 0.102547
1667 4 0.0799612 0.0189916 0.0861072
448 2 0.178684 0.0769148 0.144063
450 4 0.174971 0.0522008 0.144838
1505 4 0.185609 0.0389978 0.156333
652 2 0.310331 0.0146413 0.133823
653 4 0.301905 0.0351038 0.122184
296 4 0.356402 0.0530863 0.099984
295 2 0.376536 0.0403634 0.107594
297 4 0.396671 0.0276405 0.115204
485 4 0.39808 0.00784201 0.114688
235 2 0.157083 0.134082 0.157099
236 4 0.173244 0.115271 0.153914
693 4 0.190047 0.109018 0.160187
449 4 0.182398 0.101629 0.143287
284 4 0.278791 0.161074 0.149851
312 4 0.452627 0.149457 0.15475
337 2 0.0557487 0.209235 0.14673
339 4 0.0315802 0.208997 0.140327
338 4 0.0799173 0.209473 0.153134
476 4 0.14268 0.201274 0.131419
475 2 0.120952 0.204337 0.143406
477 4 0.0992242 0.2074 0.155393
737 4 0.15448 0.216274 0.124846
363 4 0.0878197 0.210432 0.17098
738 4 0.189942 0.241286 0.0999952
736 2 0.172211 0.22878 0.112421
283 2 0.289454 0.183216 0.145244
285 4 0.300116 0.205358 0.140638
462 4 0.333988 0.204376 0.0937414
255 4 0.343442 0.199573 0.110652
254 4 0.377282 0.206427 0.146827
253 2 0.360362 0.203 0.12874
630 4 0.394241 0.209984 0.156867
628 2 0.414166 0.207541 0.14196
629 4 0.434091 0.205098 0.127054
352 2 0.315933 0.279842 0.139663
353 4 0.293739 0.283335 0.150634
754 2 0.286313 0.324143 0.153256
755 4 0.296025 0.30135 0.156619
278 4 0.289227 0.288187 0.168589
354 4 0.338128 0.276348 0.128691
518 4 0.493992 0.252219 0.135745
2895 4 0.500668 0.259665 0.152605
519 4 0.479327 0.282123 0.0984438
517 2 0.48666 0.267171 0.117095
647 4 0.0265186 0.337796 0.0767284
646 2 0.0473125 0.342735 0.0897052
648 4 0.0681065 0.347674 0.102682
456 4 0.0881943 0.352093 0.107157
455 4 0.110299 0.381031 0.0728833
454 2 0.0992467 0.366562 0.0900202
537 4 0.216596 0.356252 0.146871
535 2 0.199915 0.367893 0.132331
536 4 0.183235 0.379535 0.11779
611 4 0.225054 0.369941 0.161432
756 4 0.276601 0.346937 0.149893
612 4 0.274546 0.366618 0.155097
610 2 0.2498 0.36828 0.158265
387 4 0.32949 0.396034 0.159193
302 4 0.312359 0.38621 0.164029
741 4 0.383103 0.342987 0.0809232
739 2 0.377156 0.356578 0.10105
740 4 0.371208 0.370169 0.121177
15 3 0.388105 0.371447 0.130797
385 2 0.349759 0.385976 0.148555
386 4 0.370029 0.375919 0.137916
11 1 0.401454 0.366421 0.148551
14 3 0.418569 0.381996 0.150247
495 4 0.415214 0.39671 0.138192
12 3 0.410656 0.345568 0.145447
1467 4 0.0111456 0.461864 0.129868
1465 2 0.0237175 0.476203 0.146039
1466 4 0.0362895 0.490542 0.162211
243 4 0.158905 0.49793 0.0848263
625 2 0.219881 0.460814 0.103785
626 4 0.215047 0.466368 0.12768
627 4 0.224716 0.45526 0.0798902
638 4 0.251174 0.50232 0.15643
767 4 0.262369 0.487674 0.14975
766 2 0.268209 0.465949 0.160663
493 2 0.410898 0.421222 0.140588
660 4 0.420555 0.461823 0.146993
494 4 0.406581 0.445733 0.142985
658 2 0.426077 0.479891 0.163371
1673 4 0.444117 0.495994 0.111758
18 3 0.069001 0.0444822 0.162593
2480 4 0.0287342 0.0152249 0.184422
19 3 0.0593302 0.075364 0.182522
380 4 0.0524448 0.0849499 0.198564
2479 2 0.0089626 0.0294058 0.190181
1422 4 0.0312485 0.994721 0.188177
673 2 0.137235 0.0667732 0.188451
674 4 0.13493 0.0848375 0.205584
675 4 0.13954 0.0487089 0.171318
1506 4 0.167672 0.00597881 0.189329
1504 2 0.17664 0.0224883 0.172831
689 4 0.169039 0.00024858 0.207889
21 1 0.398155 0.0205061 0.236895
25 3 0.411543 0.0298088 0.220993
759 4 0.408324 0.0485458 0.216904
757 2 0.395019 0.0693133 0.2128
22 3 0.376132 0.0236296 0.231032
744 4 0.46836 0.0191141 0.24675
351 4 0.471331 0.0254934 0.227906
349 2 0.448647 0.0331237 0.220669
350 4 0.425963 0.040754 0.213432
512 4 0.0418787 0.146805 0.190155
379 2 0.0429181 0.107001 0.191625
381 4 0.0333914 0.129053 0.184685
511 2 0.0588189 0.157207 0.205322
579 4 0.0907227 0.0943978 0.163938
237 4 0.140923 0.152893 0.160284
578 4 0.105693 0.141851 0.16892
577 2 0.0982076 0.118124 0.166429
691 2 0.205683 0.112437 0.179396
692 4 0.221318 0.115857 0.198606
723 4 0.20411 0.150205 0.194784
721 2 0.192161 0.155766 0.216033
582 4 0.241874 0.115046 0.196873
722 4 0.180212 0.161327 0.237281
580 2 0.256168 0.102076 0.212767
581 4 0.270463 0.0891049 0.228661
30 3 0.287675 0.0887562 0.237753
26 1 0.302894 0.104102 0.244933
28 3 0.323727 0.099443 0.235841
27 3 0.296319 0.125061 0.238105
758 4 0.381713 0.0900809 0.208695
310 2 0.444858 0.13829 0.175729
311 4 0.43709 0.127123 0.196708
513 4 0.075759 0.167608 0.220488
362 4 0.10688 0.227351 0.214005
361 2 0.0973498 0.218892 0.192492
372 4 0.126268 0.224708 0.214658
370 2 0.151243 0.225905 0.214723
371 4 0.176218 0.227101 0.214788
765 4 0.38762 0.219282 0.174133
763 2 0.391409 0.242807 0.181708
308 4 0.355526 0.240516 0.22398
520 2 0.501097 0.203845 0.234616
521 4 0.485904 0.216011 0.250311
395 4 0.0461323 0.284375 0.212563
750 4 0.0653606 0.279367 0.214918
748 2 0.0733737 0.288345 0.193001
749 4 0.0813868 0.297324 0.171084
394 2 0.034644 0.287262 0.234583
300 4 0.14083 0.339929 0.21877
279 4 0.292764 0.262347 0.211256
277 2 0.290995 0.275267 0.189923
309 4 0.323069 0.271505 0.201913
307 2 0.339297 0.25601 0.212946
764 4 0.395198 0.266333 0.189283
623 4 0.399549 0.284559 0.193587
622 2 0.421937 0.293223 0.186594
624 4 0.444325 0.301886 0.179602
528 4 0.453051 0.282996 0.179215
527 4 0.498985 0.264789 0.171516
526 2 0.476018 0.273892 0.175365
262 2 0.0561043 0.403066 0.215097
264 4 0.0447794 0.401961 0.192832
263 4 0.0674292 0.404171 0.237361
298 2 0.138301 0.358932 0.234822
299 4 0.135772 0.377934 0.250875
602 4 0.0848036 0.404648 0.248975
601 2 0.108113 0.398784 0.255866
290 4 0.217145 0.387521 0.236654
289 2 0.204577 0.408094 0.230021
301 2 0.300568 0.407918 0.167892
13 3 0.388925 0.36626 0.16808
645 4 0.47738 0.402797 0.180924
643 2 0.473639 0.384383 0.19742
644 4 0.469898 0.36597 0.213917
447 4 0.469506 0.357816 0.231128
445 2 0.490222 0.358831 0.245091
417 4 0.182084 0.490176 0.199086
415 2 0.180759 0.467399 0.209314
291 4 0.19201 0.428666 0.223389
416 4 0.179434 0.444622 0.219543
303 4 0.288777 0.429626 0.171755
768 4 0.274048 0.444223 0.171576
713 4 0.340469 0.491051 0.234922
597 4 0.479352 0.421027 0.171241
595 2 0.475509 0.445637 0.173417
596 4 0.471667 0.470248 0.175593
1568 4 0.469892 0.489819 0.170537
2861 4 0.451799 0.452532 0.258537
1799 4 0.0198008 0.0217572 0.318692
233 4 0.0228367 0.018279 0.298872
1402 2 0.061024 0.0190782 0.304415
1403 4 0.0372422 0.0179276 0.312049
232 2 0.00433926 0.0323985 0.289725
1404 4 0.0848057 0.0202288 0.29678
1699 2 0.204213 0.0559365 0.29451
1701 4 0.198967 0.0352958 0.28141
1700 4 0.20946 0.0765772 0.307611
23 3 0.401974 0.0306766 0.257398
1516 2 0.36143 0.0070389 0.291276
697 2 0.385113 0.0492274 0.318947
699 4 0.390236 0.0389774 0.296724
1518 4 0.373266 0.0281632 0.297507
742 2 0.486791 0.0167088 0.263473
478 2 0.46769 0.045647 0.314344
479 4 0.487929 0.0330606 0.306784
480 4 0.447451 0.0582335 0.321903
398 4 0.0673116 0.131047 0.325221
546 4 0.163131 0.169142 0.24181
545 4 0.11532 0.160284 0.253487
544 2 0.139225 0.164713 0.247648
248 4 0.221535 0.0904298 0.299186
249 4 0.201001 0.135955 0.296631
247 2 0.211268 0.113192 0.297909
404 4 0.196597 0.155197 0.300284
403 2 0.185834 0.158935 0.278027
29 3 0.304115 0.1038 0.268102
632 4 0.335692 0.109085 0.340276
333 4 0.44276 0.124671 0.303912
331 2 0.449473 0.148747 0.303254
393 4 0.094225 0.208346 0.300599
392 4 0.106796 0.172302 0.268295
391 2 0.100511 0.190324 0.284447
390 4 0.103273 0.213507 0.318557
405 4 0.175071 0.162673 0.255771
378 4 0.280796 0.192166 0.314341
376 2 0.305031 0.192356 0.320489
377 4 0.329266 0.192546 0.326638
707 4 0.335772 0.186611 0.344903
761 4 0.496703 0.225854 0.311831
332 4 0.456185 0.172824 0.302595
420 4 0.405172 0.211328 0.31974
418 2 0.42608 0.200631 0.311162
419 4 0.446989 0.189934 0.302584
760 2 0.481704 0.206942 0.305306
762 4 0.466704 0.188031 0.298781
444 4 0.0318747 0.2593 0.310781
396 4 0.0231558 0.290149 0.256603
442 2 0.0333255 0.27467 0.291113
443 4 0.0347762 0.290041 0.271445
365 4 0.0203022 0.303007 0.271029
401 4 0.19223 0.268849 0.272502
345 4 0.243138 0.303827 0.303736
400 2 0.210709 0.281036 0.284128
402 4 0.229188 0.293224 0.295755
510 4 0.224205 0.307213 0.308558
508 2 0.22679 0.328435 0.321524
343 2 0.26736 0.298835 0.300053
344 4 0.291582 0.293843 0.296371
498 4 0.381929 0.289885 0.293321
496 2 0.364744 0.28681 0.275421
497 4 0.34756 0.283734 0.257521
541 2 0.417598 0.317786 0.309847
542 4 0.427498 0.296798 0.319158
603 4 0.131422 0.392921 0.262756
734 4 0.13892 0.376494 0.26988
733 2 0.151122 0.378989 0.291561
735 4 0.163324 0.381484 0.313242
677 4 0.177695 0.389235 0.323344
676 2 0.199138 0.376383 0.323848
678 4 0.22058 0.363532 0.324352
728 4 0.315337 0.374934 0.299854
438 4 0.273286 0.423729 0.270277
727 2 0.335347 0.384868 0.288624
729 4 0.355356 0.394802 0.277394
615 4 0.40409 0.356575 0.308089
613 2 0.399411 0.36486 0.331212
2538 4 0.485369 0.390652 0.318086
543 4 0.407698 0.338773 0.300537
2536 2 0.492825 0.4027 0.297485
2537 4 0.500282 0.414749 0.276884
549 4 0.0381511 0.435532 0.335281
777 4 0.0719244 0.44962 0.307279
775 2 0.0951556 0.452906 0.315921
414 4 0.128134 0.474548 0.321085
437 4 0.262977 0.437002 0.317376
436 2 0.268132 0.430365 0.293827
2862 4 0.496053 0.429409 0.261304
2860 2 0.473926 0.440971 0.25992
593 4 0.424321 0.450371 0.303453
592 2 0.421482 0.469103 0.319769
594 4 0.418644 0.487836 0.336085
1377 4 0.00146172 0.995283 0.379293
1798 2 0.0147097 0.0102086 0.340277
369 4 0.0670857 0.0565276 0.40256
1800 4 0.00961852 0.99866 0.361861
1782 4 0.11156 0.00336445 0.396321
367 2 0.0828131 0.0370989 0.401965
368 4 0.0985405 0.0176703 0.40137
605 4 0.136278 0.0492525 0.367588
604 2 0.158954 0.0501838 0.378081
606 4 0.18163 0.0511151 0.388574
698 4 0.37999 0.0594775 0.34117
256 2 0.389239 0.0614839 0.371912
257 4 0.384583 0.0752684 0.351578
258 4 0.393896 0.0476993 0.392246
426 4 0.408326 0.0587021 0.401168
424 2 0.416267 0.0376572 0.412087
318 4 0.0161537 0.136309 0.385324
316 2 0.0318074 0.126814 0.368295
317 4 0.047461 0.117319 0.351266
397 2 0.0859835 0.128609 0.341671
457 2 0.00499807 0.170474 0.400447
730 2 0.0982662 0.101278 0.388465
399 4 0.104655 0.126171 0.358121
731 4 0.10185 0.123387 0.377351
732 4 0.094682 0.0791684 0.399578
600 4 0.198253 0.15009 0.386054
683 4 0.282738 0.112255 0.373456
682 2 0.280405 0.108611 0.398082
684 4 0.278073 0.104967 0.422709
631 2 0.354824 0.0931546 0.337952
633 4 0.373955 0.0772245 0.335628
516 4 0.420216 0.140057 0.372482
575 4 0.402992 0.143312 0.384477
574 2 0.411885 0.145656 0.407728
451 2 0.495767 0.154342 0.359698
514 2 0.441555 0.137524 0.3597
453 4 0.471186 0.150862 0.356722
515 4 0.462895 0.134991 0.346918
459 4 0.991364 0.191427 0.399957
2654 4 0.00489801 0.203473 0.39031
388 2 0.102619 0.215602 0.343464
389 4 0.101966 0.217697 0.368371
685 2 0.159342 0.224443 0.412245
686 4 0.1446 0.244362 0.415572
598 2 0.194504 0.17264 0.396184
687 4 0.174084 0.204524 0.408917
599 4 0.190756 0.19519 0.406314
473 4 0.23563 0.198666 0.383366
472 2 0.260564 0.200528 0.383298
474 4 0.285498 0.202389 0.383231
488 4 0.301582 0.205702 0.395032
487 2 0.308872 0.225148 0.408957
489 4 0.316163 0.244593 0.422882
706 2 0.35845 0.196461 0.348622
708 4 0.381129 0.206311 0.352341
715 2 0.396257 0.244338 0.344157
717 4 0.408481 0.2246 0.334874
347 4 0.0654709 0.329671 0.42035
275 4 0.143836 0.333567 0.397449
274 2 0.161553 0.318636 0.388049
276 4 0.179269 0.303704 0.378649
373 2 0.210834 0.277645 0.386707
374 4 0.229321 0.260895 0.385015
375 4 0.192347 0.294394 0.388398
716 4 0.384032 0.264076 0.35344
618 4 0.0839353 0.336923 0.416992
406 2 0.0493069 0.388722 0.401599
407 4 0.0432599 0.410424 0.390753
408 4 0.0553538 0.36702 0.412444
616 2 0.100883 0.336574 0.398612
617 4 0.117831 0.336226 0.380232
509 4 0.229375 0.349657 0.33449
435 4 0.23005 0.367608 0.341557
434 4 0.276366 0.384169 0.350573
433 2 0.253208 0.375888 0.346065
503 4 0.282019 0.403307 0.414282
614 4 0.394732 0.373145 0.354334
753 4 0.467608 0.386773 0.330966
561 4 0.4586 0.361968 0.395835
752 4 0.461134 0.366378 0.376164
559 2 0.478175 0.358767 0.411058
751 2 0.464371 0.376576 0.353565
548 4 0.0547711 0.410093 0.374997
547 2 0.0464611 0.422812 0.355139
776 4 0.118387 0.456191 0.324564
412 2 0.145884 0.48854 0.331776
499 2 0.16923 0.503726 0.38404
501 4 0.164531 0.50489 0.40857
413 4 0.163635 0.502533 0.342468
1544 4 0.182614 0.500306 0.342306
668 4 0.295737 0.465263 0.397655
1 1 0.314204 0.492825 0.408912
3 3 0.330155 0.499914 0.393625
667 2 0.295544 0.440826 0.402944
718 2 0.0331793 0.0809303 0.445422
720 4 0.0245935 0.0609202 0.457713
2237 4 0.0220005 0.0429479 0.465191
2236 2 0.0340869 0.0259417 0.451411
1127 4 0.0203531 0.0575162 0.476478
340 2 0.187748 0.0577886 0.488168
2430 4 0.204338 0.0165794 0.489883
341 4 0.194143 0.0336212 0.48769
1182 4 0.248465 0.0877274 0.47914
342 4 0.181354 0.0819559 0.488647
726 4 0.309706 0.0510993 0.436801
724 2 0.306417 0.0491615 0.461511
725 4 0.303128 0.0472236 0.486222
963 4 0.295845 0.0297262 0.494153
1580 4 0.406882 0.00983411 0.427317
425 4 0.424207 0.0166123 0.423007
2878 2 0.457036 0.0736277 0.474413
2879 4 0.459994 0.050337 0.483013
719 4 0.0417651 0.10094 0.433131
1033 2 0.126726 0.145863 0.479938
1035 4 0.131606 0.152847 0.456431
1152 4 0.177273 0.0955302 0.504921
320 4 0.286432 0.115296 0.437265
1180 2 0.258035 0.0986548 0.458789
1181 4 0.267605 0.109582 0.438437
321 4 0.32435 0.14741 0.44289
319 2 0.305391 0.131353 0.440077
2880 4 0.454077 0.0969184 0.465812
642 4 0.467034 0.108326 0.455699
640 2 0.453187 0.125039 0.443285
641 4 0.439341 0.141753 0.430871
306 4 0.435847 0.160589 0.429734
471 4 0.0146295 0.219818 0.477479
469 2 0.0215667 0.198135 0.467139
470 4 0.0285038 0.176453 0.456799
260 4 0.11101 0.209155 0.439875
261 4 0.134175 0.171705 0.463573
259 2 0.122593 0.19043 0.451724
695 4 0.114489 0.228585 0.444567
694 2 0.116225 0.246694 0.46172
411 4 0.245397 0.188121 0.467043
409 2 0.269306 0.193061 0.472443
410 4 0.293214 0.198001 0.477843
900 4 0.291592 0.214343 0.488559
468 4 0.372127 0.222236 0.438349
466 2 0.384752 0.200906 0.44164
467 4 0.397377 0.179576 0.444932
267 4 0.353556 0.249971 0.440676
576 4 0.420778 0.148 0.430978
305 4 0.465148 0.200141 0.420913
304 2 0.450498 0.180365 0.425324
346 2 0.0661316 0.328557 0.44532
326 4 0.0741412 0.342645 0.480184
348 4 0.0667923 0.327442 0.47029
1260 4 0.116194 0.282048 0.489686
696 4 0.11796 0.264803 0.478873
265 2 0.333427 0.261748 0.449691
266 4 0.313297 0.273525 0.458706
811 2 0.26829 0.310057 0.479794
813 4 0.281793 0.312202 0.45886
2456 4 0.49844 0.281337 0.476485
584 4 0.477675 0.279359 0.478898
583 2 0.455527 0.280743 0.467379
585 4 0.433378 0.282126 0.455859
2812 2 0.997244 0.367093 0.449819
2813 4 0.0215709 0.36609 0.45551
325 2 0.0928404 0.358713 0.484349
327 4 0.11154 0.374781 0.488513
10 3 0.152329 0.335507 0.491732
7 3 0.123831 0.359597 0.492406
6 1 0.146293 0.356923 0.496587
8 3 0.158214 0.37172 0.483271
711 4 0.164254 0.381975 0.467004
635 4 0.211253 0.420613 0.477308
504 4 0.234372 0.388448 0.411167
709 2 0.181415 0.396446 0.478017
710 4 0.198575 0.410918 0.489029
774 4 0.216694 0.403312 0.485428
336 4 0.296412 0.408475 0.426435
502 2 0.258195 0.395877 0.412724
334 2 0.314478 0.391227 0.427567
335 4 0.332544 0.373978 0.4287
239 4 0.400254 0.389382 0.431159
238 2 0.376197 0.382624 0.43202
240 4 0.352139 0.375866 0.43288
588 4 0.401219 0.403392 0.444971
587 4 0.421341 0.405877 0.490683
560 4 0.497751 0.355566 0.426281
586 2 0.41128 0.404634 0.467827
681 4 0.0808021 0.410813 0.458052
1382 4 0.046681 0.503026 0.420499
680 4 0.0494713 0.438179 0.430299
1383 4 0.0412999 0.453328 0.419137
1381 2 0.0439905 0.478177 0.419818
679 2 0.0651367 0.424496 0.444176
383 4 0.095081 0.424384 0.454012
568 2 0.161449 0.473282 0.454387
382 2 0.118794 0.432249 0.453004
384 4 0.142507 0.440115 0.451996
569 4 0.156636 0.449612 0.460847
636 4 0.240099 0.458144 0.461181
570 4 0.166261 0.496953 0.447927
634 2 0.225676 0.439379 0.469245
669 4 0.29535 0.416389 0.408233
4 3 0.312155 0.469727 0.408087
882 4 0.348232 0.499837 0.472083
1057 2 0.155897 0.0697212 0.581626
2428 2 0.221849 0.00290697 0.501356
430 2 0.312254 0.0576221 0.517505
431 4 0.329666 0.0687784 0.531559
961 2 0.275988 0.0155976 0.499742
432 4 0.294841 0.0464659 0.503451
843 4 0.341093 0.0681146 0.548065
1217 4 0.396145 0.0299773 0.532844
1216 2 0.40845 0.00828684 0.534658
842 4 0.384994 0.0456407 0.539796
841 2 0.363043 0.0568776 0.543931
937 2 0.093195 0.159854 0.530201
1151 4 0.162767 0.100193 0.55255
1059 4 0.15523 0.0915326 0.569419
1155 4 0.149825 0.109047 0.563772
939 4 0.109219 0.152619 0.512423
1153 2 0.165045 0.123112 0.57776
1034 4 0.121845 0.138879 0.503445
1150 2 0.17002 0.0978615 0.528735
938 4 0.077171 0.167088 0.547979
878 4 0.023438 0.203635 0.559381
1199 4 0.0175833 0.222648 0.553826
877 2 0.0432695 0.188427 0.560148
879 4 0.063101 0.173218 0.560915
1272 4 0.0821725 0.174547 0.564974
858 4 0.264754 0.197499 0.57517
857 4 0.308115 0.21121 0.554372
856 2 0.286434 0.204355 0.564771
898 2 0.300526 0.213922 0.511908
791 4 0.318258 0.22641 0.545743
899 4 0.30946 0.213501 0.535257
790 2 0.319565 0.248767 0.556861
3353 4 0.0159244 0.274602 0.523692
1258 2 0.112461 0.285343 0.514189
1259 4 0.108728 0.288637 0.538692
649 2 0.230245 0.290106 0.520321
651 4 0.20888 0.27715 0.521253
650 4 0.25161 0.303062 0.519389
804 4 0.256788 0.321529 0.513975
792 4 0.320872 0.271125 0.567978
812 4 0.254787 0.307912 0.500728
1239 4 0.330623 0.331637 0.554462
1237 2 0.332042 0.30855 0.563957
1238 4 0.33346 0.285463 0.573452
873 4 0.417551 0.268297 0.549091
871 2 0.399864 0.267896 0.531422
872 4 0.382177 0.267496 0.513753
954 4 0.489796 0.311553 0.576382
1011 4 0.486996 0.323794 0.561427
935 4 0.0111543 0.394806 0.501333
1137 4 0.14267 0.386157 0.583668
1135 2 0.130712 0.406098 0.574472
9 3 0.150338 0.361403 0.518991
1189 2 0.23148 0.384802 0.563852
773 4 0.240666 0.386779 0.526081
1190 4 0.244627 0.37937 0.54329
772 2 0.22868 0.395046 0.505755
803 4 0.250577 0.369131 0.527981
802 2 0.253682 0.34533 0.520978
930 4 0.28583 0.347053 0.55811
928 2 0.288206 0.371412 0.552994
929 4 0.290582 0.395771 0.547878
927 4 0.421686 0.369686 0.536583
925 2 0.428725 0.387795 0.520845
926 4 0.435765 0.405903 0.505106
3309 4 0.50253 0.400109 0.568972
1161 4 0.160168 0.486041 0.557314
1136 4 0.118754 0.426038 0.565276
1159 2 0.178844 0.476799 0.571134
889 2 0.307298 0.474476 0.548696
890 4 0.30208 0.495176 0.535679
891 4 0.312517 0.453776 0.561713
1953 4 0.371974 0.467556 0.572922
1951 2 0.362392 0.483482 0.556197
1000 2 0.414524 0.498044 0.523925
1001 4 0.433856 0.484572 0.532289
662 4 0.442681 0.467684 0.535555
661 2 0.439376 0.444527 0.526723
1911 4 0.442787 0.481287 0.549189
1909 2 0.441595 0.474187 0.573133
1332 4 0.45344 0.484276 0.532744
663 4 0.436071 0.42137 0.517891
2319 4 0.0482802 0.00202894 0.643197
945 4 0.0586067 0.0190541 0.646112
1058 4 0.156564 0.0479098 0.593832
2375 4 0.110755 0.0287765 0.609672
943 2 0.0824996 0.0184566 0.653458
944 4 0.106392 0.0178591 0.660803
825 4 0.125647 0.0205197 0.65837
823 2 0.139882 0.0038607 0.646328
824 4 0.154118 0.987202 0.634285
1030 2 0.268307 0.0884507 0.612723
950 4 0.312654 0.022499 0.622585
949 2 0.293059 0.0371966 0.617566
951 4 0.273464 0.0518943 0.612547
1031 4 0.281834 0.068759 0.605344
1081 2 0.0304301 0.110551 0.660059
3179 4 0.031501 0.150015 0.645254
1083 4 0.0300096 0.130657 0.645202
3178 2 0.0108168 0.163618 0.641749
1282 2 0.153411 0.0935928 0.665059
1154 4 0.180266 0.137178 0.591748
1032 4 0.25478 0.108142 0.620101
1284 4 0.159083 0.0861992 0.641857
1221 4 0.188554 0.142697 0.609936
1219 2 0.201303 0.161174 0.620948
43 3 0.431609 0.0908182 0.66383
808 2 0.482265 0.0917575 0.644634
809 4 0.493616 0.0963592 0.622836
1243 2 0.0708545 0.228235 0.632214
1244 4 0.054305 0.213006 0.621288
1270 2 0.0901299 0.181793 0.587542
1271 4 0.0980873 0.189039 0.610111
1209 4 0.0838487 0.241916 0.662763
1245 4 0.0874039 0.243463 0.643141
1210 2 0.232752 0.195016 0.653883
1212 4 0.210262 0.195934 0.642997
1220 4 0.214052 0.17965 0.63196
796 2 0.192927 0.216725 0.623065
798 4 0.204861 0.194814 0.624685
797 4 0.180992 0.238637 0.621445
1194 4 0.346982 0.233508 0.658471
906 4 0.482256 0.253014 0.58452
904 2 0.476465 0.250876 0.60875
905 4 0.470674 0.248738 0.63298
3123 4 0.467718 0.240277 0.651693
3121 2 0.488087 0.235642 0.665433
983 4 0.0366528 0.32722 0.592931
982 2 0.0449016 0.330665 0.616282
3263 4 0.0537898 0.32326 0.655274
947 4 0.183506 0.274628 0.633271
946 2 0.192358 0.265786 0.654919
805 2 0.324458 0.315301 0.663678
807 4 0.32499 0.312893 0.638796
952 2 0.48505 0.325472 0.596603
953 4 0.480303 0.339391 0.616825
984 4 0.0531504 0.334109 0.639633
1041 4 0.0618594 0.341016 0.655457
1039 2 0.0762051 0.361221 0.652122
1040 4 0.0905507 0.381427 0.648787
993 4 0.0893308 0.394997 0.634227
897 4 0.153242 0.370092 0.586112
896 4 0.201505 0.382474 0.590371
895 2 0.177374 0.376283 0.588241
1191 4 0.218333 0.390235 0.584415
1172 4 0.208189 0.400237 0.596325
1206 4 0.466949 0.404903 0.66389
991 2 0.0832269 0.419243 0.63446
992 4 0.077123 0.443489 0.634694
1160 4 0.19752 0.467558 0.584953
1175 4 0.212238 0.495022 0.652582
1173 4 0.200513 0.449276 0.590245
1171 2 0.204351 0.424757 0.593285
1188 4 0.218773 0.476768 0.648979
1187 4 0.202872 0.463015 0.603606
1186 2 0.210823 0.469892 0.626293
1268 4 0.424156 0.501798 0.648944
1910 4 0.440403 0.467086 0.597078
1204 2 0.468758 0.427158 0.652637
1205 4 0.470568 0.449413 0.641384
1269 4 0.458175 0.465621 0.643062
1267 2 0.441165 0.48371 0.646003
2254 2 0.214003 0.00413487 0.745024
2256 4 0.193538 0.0183626 0.743034
1003 2 0.316617 0.0560012 0.725257
1005 4 0.292929 0.0638681 0.726727
1004 4 0.340306 0.0481343 0.723787
810 4 0.470915 0.0871558 0.666433
45 3 0.437114 0.0547133 0.672983
42 3 0.429824 0.0797332 0.699699
41 1 0.440436 0.0762533 0.679589
1163 4 0.476034 0.0694293 0.672382
44 3 0.463125 0.0802988 0.682282
1162 2 0.492027 0.0519117 0.680291
1082 4 0.0308505 0.0904449 0.674917
1076 4 0.0256745 0.0966614 0.692821
1075 2 0.0267786 0.0917477 0.717312
1077 4 0.0278827 0.086834 0.741803
850 2 0.0672813 0.158608 0.724845
864 4 0.0437839 0.0985244 0.745166
909 4 0.101207 0.149168 0.700898
907 2 0.116787 0.129934 0.697364
908 4 0.132368 0.110701 0.693829
1283 4 0.147738 0.100986 0.688262
1227 4 0.149944 0.116028 0.700775
851 4 0.0901902 0.155338 0.715376
1225 2 0.161974 0.108785 0.721463
1107 4 0.108561 0.159364 0.715424
1203 4 0.167295 0.0830499 0.741557
1226 4 0.174005 0.101541 0.74215
1148 4 0.186394 0.086669 0.740159
1147 2 0.211373 0.0872824 0.739239
1149 4 0.236352 0.0878959 0.73832
887 4 0.297583 0.162287 0.710327
830 4 0.315299 0.1542 0.70654
978 4 0.308065 0.154611 0.725016
831 4 0.362928 0.142138 0.697229
1141 2 0.393487 0.155614 0.717822
829 2 0.339113 0.148169 0.701884
1142 4 0.369357 0.149668 0.71507
1025 4 0.470891 0.143831 0.684318
3424 2 0.489939 0.101829 0.699015
3426 4 0.481592 0.0847468 0.682776
1024 2 0.452424 0.154321 0.697513
1143 4 0.417617 0.161561 0.720575
1026 4 0.433957 0.16481 0.710709
852 4 0.0443723 0.161878 0.734315
1215 4 0.00488642 0.2105 0.729224
1213 2 0.0241776 0.195923 0.735591
1214 4 0.0434688 0.181346 0.741958
1074 4 0.0724071 0.236662 0.740532
1177 2 0.987585 0.236119 0.745063
1207 2 0.0980134 0.241062 0.68335
1208 4 0.112178 0.240207 0.703936
1106 4 0.13755 0.187972 0.74444
1105 2 0.123056 0.173668 0.729932
1064 4 0.218115 0.253321 0.687626
888 4 0.271915 0.182145 0.672281
1211 4 0.255243 0.194099 0.664769
886 2 0.284749 0.172216 0.691304
976 2 0.305798 0.172905 0.741908
1193 4 0.343949 0.227935 0.708074
1192 2 0.345465 0.230722 0.683273
1261 2 0.444401 0.192126 0.73384
1262 4 0.426353 0.178711 0.722908
3262 2 0.0405569 0.320362 0.67629
3264 4 0.0273241 0.317464 0.697306
893 4 0.0196542 0.324129 0.713357
1179 4 0.987267 0.253294 0.763232
948 4 0.201211 0.256944 0.676567
821 4 0.164755 0.267366 0.721184
820 2 0.17023 0.257984 0.743705
1065 4 0.224518 0.252252 0.73721
1063 2 0.221316 0.252786 0.712418
806 4 0.323927 0.317709 0.68856
917 4 0.297445 0.254137 0.740451
892 2 0.0255923 0.345641 0.724634
894 4 0.0315304 0.367153 0.73591
3276 4 0.0217635 0.384426 0.736779
814 2 0.0630507 0.387399 0.724146
816 4 0.0387221 0.382264 0.726778
815 4 0.0873794 0.392534 0.721514
940 2 0.111513 0.409438 0.736175
942 4 0.0948065 0.3911 0.739303
1029 4 0.228958 0.422098 0.673495
1019 4 0.378004 0.409183 0.721427
1018 2 0.359229 0.397685 0.733279
1020 4 0.340454 0.386187 0.74513
1280 4 0.0508003 0.488225 0.696736
1279 2 0.0298344 0.497024 0.707137
941 4 0.128219 0.427776 0.733046
1066 2 0.155837 0.420884 0.706712
1067 4 0.148933 0.422024 0.730716
1068 4 0.162742 0.419744 0.682708
1027 2 0.205046 0.425965 0.679695
1028 4 0.181134 0.429832 0.685895
1140 4 0.284574 0.492382 0.724104
1138 2 0.274351 0.471271 0.732765
1230 4 0.411132 0.453936 0.735245
3328 2 0.498902 0.45016 0.698692
1100 4 0.414646 0.445665 0.718174
1101 4 0.463391 0.456201 0.721869
1099 2 0.439018 0.450933 0.720021
1251 4 0.473593 0.47287 0.723315
3330 4 0.479342 0.459253 0.711338
1296 4 0.0152701 0.0200909 0.817167
2047 2 0.156983 0.000771818 0.783455
1201 2 0.161485 0.0605213 0.750716
1202 4 0.155675 0.0379927 0.759875
2049 4 0.151248 0.0201764 0.768767
2321 4 0.458027 0.00971124 0.786992
2322 4 0.471161 0.056572 0.775491
2320 2 0.464594 0.0331416 0.781241
846 4 0.482125 0.0687146 0.765225
862 2 0.0426549 0.107184 0.768595
863 4 0.0415259 0.115844 0.792024
832 2 0.0104207 0.104642 0.818157
833 4 0.0322234 0.107403 0.806232
1125 4 0.0432348 0.122068 0.810952
1123 2 0.0481885 0.145322 0.818692
31 1 0.13425 0.150668 0.812391
35 3 0.141117 0.131017 0.803156
33 3 0.116365 0.15925 0.800354
32 3 0.127509 0.146909 0.834061
34 3 0.151752 0.165901 0.812516
1257 4 0.254933 0.0892952 0.745467
1255 2 0.263454 0.0906521 0.768934
1256 4 0.271975 0.0920089 0.792402
840 4 0.283487 0.0908209 0.808828
838 2 0.29335 0.108752 0.823194
1112 4 0.373031 0.0914885 0.837133
844 2 0.475836 0.0892947 0.777955
845 4 0.469546 0.109875 0.790686
1072 2 0.0625604 0.245426 0.761779
1124 4 0.0531423 0.168576 0.826431
1130 4 0.141864 0.192311 0.762988
1129 2 0.157031 0.211641 0.767626
822 4 0.175706 0.248603 0.766226
1131 4 0.172199 0.23097 0.772264
920 4 0.224039 0.19701 0.81606
1277 4 0.187707 0.238898 0.77844
1276 2 0.201208 0.243209 0.799039
1278 4 0.214709 0.24752 0.819639
977 4 0.303531 0.1912 0.758801
918 4 0.29397 0.208604 0.760831
1298 4 0.297861 0.197856 0.776349
916 2 0.295708 0.23137 0.750641
1297 2 0.317997 0.200689 0.790899
1084 2 0.371395 0.190041 0.829253
50 3 0.403824 0.19915 0.772493
1086 4 0.355594 0.205672 0.817799