ITEM: TIMESTEP
1230000
ITEM: NUMBER OF ATOMS
4590
ITEM: BOX BOUNDS pp pp pp
-9.9985700000000008e+00 9.9985700000000008e+00
-9.9985700000000008e+00 9.9985700000000008e+00
-9.9985700000000008e+00 9.9985700000000008e+00
ITEM: ATOMS id type xs ys zs
463 2 0.0463973 0.0807713 0.0258481
465 4 0.0582931 0.0601416 0.0334694
701 4 0.0771298 0.0629012 0.0398649
700 2 0.0970595 0.0720479 0.0518782
702 4 0.116989 0.0811947 0.0638915
566 4 0.134966 0.0774212 0.056095
565 2 0.146878 0.0806929 0.0778339
491 4 0.281983 0.0216868 0.0458448
2264 4 0.277215 0.0239191 0.0271677
490 2 0.287121 0.9982 0.0527126
2263 2 0.287978 0.0289552 0.00516855
745 2 0.461657 0.0488885 0.00613386
746 4 0.463417 0.0428275 0.0303278
2469 4 0.471635 0.0302267 0.0439332
2467 2 0.487148 0.0108976 0.0472369
464 4 0.0345015 0.101401 0.0182268
589 2 0.00433043 0.120747 0.0805478
590 4 0.0179975 0.12479 0.0600042
827 4 0.391256 0.123354 0.00956052
866 4 0.387164 0.13897 0.998262
865 2 0.367516 0.150461 0.00861147
867 4 0.347869 0.161953 0.0189606
771 4 0.444567 0.141156 0.0652692
554 4 0.0501535 0.187148 0.0246378
553 2 0.0561869 0.206258 0.0096845
555 4 0.0622203 0.225367 0.994731
835 2 0.102291 0.234532 0.00874107
837 4 0.12614 0.241255 0.0120932
666 4 0.312481 0.213859 0.0359469
664 2 0.321812 0.19294 0.0259215
573 4 0.301288 0.228191 0.0298674
461 4 0.311671 0.231152 0.0457156
460 2 0.321381 0.231505 0.0687545
665 4 0.331143 0.172021 0.0158962
1070 4 0.401069 0.226317 0.0325455
1071 4 0.429238 0.240958 0.0711825
1012 2 0.491372 0.204456 0.0757601
1069 2 0.415153 0.233637 0.051864
769 2 0.449181 0.16554 0.068325
770 4 0.453795 0.189923 0.0713808
1014 4 0.466383 0.204151 0.0749369
294 4 0.0637594 0.294964 0.0351253
292 2 0.0870364 0.296894 0.0440493
507 4 0.12348 0.311351 0.0460116
293 4 0.110313 0.298824 0.0529732
505 2 0.148118 0.307145 0.04669
506 4 0.172756 0.302939 0.0473685
483 4 0.192102 0.307089 0.0431465
481 2 0.197556 0.331399 0.0452518
355 2 0.298841 0.319179 0.00956474
571 2 0.30446 0.251629 0.0217593
356 4 0.305788 0.29516 0.00943909
572 4 0.307632 0.275068 0.0136511
324 4 0.43721 0.258864 0.0758034
322 2 0.444149 0.278928 0.0625939
672 4 0.440247 0.316568 0.0502166
323 4 0.451087 0.298991 0.0493844
620 4 0.0155996 0.348529 0.0746799
647 4 0.0272985 0.358557 0.0883347
287 4 0.138259 0.3548 0.00287623
609 4 0.207624 0.371768 0.0590515
607 2 0.227941 0.386341 0.0589668
482 4 0.203009 0.35571 0.0473572
357 4 0.291894 0.343198 0.00969039
252 4 0.263347 0.396759 0.0460642
608 4 0.248258 0.400915 0.0588821
250 2 0.275599 0.407059 0.0268553
251 4 0.287851 0.417358 0.00764639
957 4 0.382225 0.324163 0.0122954
741 4 0.397005 0.359542 0.0756312
670 2 0.456497 0.334515 0.0564641
671 4 0.472748 0.352461 0.0627117
281 4 0.47907 0.365614 0.0763341
280 2 0.470846 0.388514 0.0705765
282 4 0.462622 0.411413 0.0648189
551 4 0.103892 0.442117 0.0513321
550 2 0.100461 0.462545 0.0653355
552 4 0.0970297 0.482973 0.0793389
244 2 0.251135 0.479552 0.0661061
246 4 0.259722 0.498245 0.0518924
272 4 0.255729 0.490697 0.0343323
271 2 0.265432 0.481856 0.0130515
523 2 0.347287 0.49371 0.0487467
524 4 0.337174 0.485293 0.0274848
525 4 0.357399 0.502127 0.0700087
226 2 0.454856 0.460883 0.0305217
228 4 0.453575 0.470683 0.00755457
227 4 0.456138 0.451082 0.0534888
16 1 0.0572796 0.064796 0.148833
20 3 0.0375691 0.0545403 0.143837
1806 4 0.0846759 0.0345819 0.151584
18 3 0.0749917 0.0504459 0.144501
2576 4 0.0211026 0.0359274 0.103387
1804 2 0.0873723 0.0216185 0.130374
567 4 0.15879 0.0839645 0.0995729
450 4 0.169378 0.0528989 0.127184
1505 4 0.169095 0.0484229 0.147041
448 2 0.181301 0.0747625 0.129419
1504 2 0.173568 0.0385775 0.169585
652 2 0.298835 0.021945 0.114597
653 4 0.305455 0.0300093 0.0918743
654 4 0.292215 0.0138807 0.13732
557 4 0.355546 0.069572 0.108567
296 4 0.365477 0.0651757 0.091602
295 2 0.383626 0.049891 0.0994884
297 4 0.401774 0.0346063 0.107375
485 4 0.397942 0.0148287 0.109621
17 3 0.0595678 0.083589 0.135767
2625 4 0.999901 0.143229 0.157553
237 4 0.149685 0.143551 0.131075
578 4 0.134926 0.150289 0.144513
577 2 0.11939 0.132308 0.152293
579 4 0.103854 0.114328 0.160072
235 2 0.170432 0.129597 0.131216
236 4 0.191179 0.115643 0.131358
693 4 0.203499 0.107591 0.144016
449 4 0.193224 0.0966262 0.131654
691 2 0.217414 0.105919 0.164723
558 4 0.337611 0.116237 0.10737
556 2 0.346578 0.0929044 0.107969
337 2 0.0596245 0.191431 0.145244
339 4 0.044039 0.175699 0.133635
338 4 0.0752099 0.207163 0.156854
476 4 0.137749 0.196437 0.132785
475 2 0.115864 0.200599 0.14414
477 4 0.0939804 0.204762 0.155495
737 4 0.149834 0.202465 0.118059
736 2 0.16272 0.223149 0.112463
738 4 0.175605 0.243834 0.106868
462 4 0.33109 0.231858 0.0917933
255 4 0.335736 0.218721 0.105718
254 4 0.361976 0.220739 0.14824
253 2 0.348856 0.21973 0.126979
630 4 0.378665 0.212512 0.154796
628 2 0.396338 0.197251 0.145855
765 4 0.376997 0.231585 0.152964
629 4 0.414011 0.18199 0.136913
749 4 0.109443 0.316333 0.161223
352 2 0.328963 0.283298 0.135435
353 4 0.306001 0.2883 0.143972
754 2 0.289587 0.325207 0.157921
755 4 0.300521 0.302844 0.155566
278 4 0.295317 0.284166 0.16001
354 4 0.351925 0.278295 0.126897
646 2 0.0509583 0.35108 0.0914141
648 4 0.0746181 0.343603 0.0944934
456 4 0.086871 0.357629 0.100738
455 4 0.129367 0.383596 0.0962116
454 2 0.108119 0.370612 0.0984746
537 4 0.220436 0.382085 0.122463
535 2 0.197811 0.38518 0.112279
536 4 0.175187 0.388275 0.102096
611 4 0.228284 0.37464 0.139571
610 2 0.250527 0.370625 0.150262
612 4 0.27277 0.36661 0.160953
756 4 0.278652 0.347569 0.160276
387 4 0.33562 0.397366 0.149825
302 4 0.338392 0.416327 0.153126
739 2 0.392563 0.367405 0.0989469
740 4 0.38812 0.375267 0.122263
15 3 0.394606 0.364122 0.135812
385 2 0.357481 0.386249 0.144957
386 4 0.379342 0.375132 0.140089
11 1 0.410998 0.36128 0.151364
12 3 0.416777 0.339035 0.152302
2651 4 0.487093 0.348388 0.0744706
14 3 0.429724 0.373654 0.145481
495 4 0.426942 0.393961 0.144456
1465 2 0.0211795 0.469094 0.133796
1466 4 0.0449341 0.476566 0.136047
1791 4 0.0405714 0.495339 0.139852
242 4 0.11483 0.488271 0.0843236
241 2 0.135487 0.498177 0.0943402
627 4 0.2296 0.455991 0.0947632
625 2 0.208874 0.443859 0.0878042
626 4 0.188148 0.431727 0.0808451
637 2 0.225977 0.500039 0.150453
767 4 0.25096 0.476529 0.150162
1439 4 0.185777 0.505614 0.150944
638 4 0.247954 0.493322 0.140599
245 4 0.242549 0.46086 0.0803198
766 2 0.266127 0.457499 0.155908
768 4 0.281294 0.438469 0.161655
301 2 0.31898 0.431177 0.158403
303 4 0.299568 0.446026 0.163681
660 4 0.415725 0.462068 0.139987
494 4 0.42682 0.44396 0.143585
493 2 0.426881 0.418961 0.144021
658 2 0.430535 0.47524 0.15523
2480 4 0.0191983 0.0200755 0.19534
19 3 0.0574809 0.0711131 0.171159
1422 4 0.00568684 0.00556779 0.192697
2479 2 0.999213 0.0337377 0.201594
673 2 0.143781 0.0664598 0.208295
675 4 0.139448 0.0592847 0.184738
674 4 0.148113 0.0736348 0.231852
689 4 0.19557 0.02433 0.198359
1506 4 0.178041 0.0287321 0.192129
688 2 0.199537 0.00370421 0.211924
21 1 0.397898 0.0135959 0.234633
25 3 0.406273 0.0326894 0.225471
759 4 0.413488 0.0506434 0.226287
757 2 0.401709 0.0725365 0.228958
22 3 0.375592 0.0166184 0.239374
351 4 0.473503 0.0342765 0.239507
349 2 0.449692 0.0352327 0.231937
350 4 0.425881 0.0361888 0.224368
380 4 0.0531555 0.0910122 0.173216
2483 4 0.0121165 0.15208 0.171186
512 4 0.0405601 0.13405 0.200715
379 2 0.0405415 0.105109 0.189567
381 4 0.0279276 0.119205 0.205918
511 2 0.0474334 0.155162 0.212214
692 4 0.231328 0.104246 0.18543
582 4 0.241742 0.119167 0.194229
722 4 0.183419 0.160126 0.243449
721 2 0.191405 0.162902 0.219918
580 2 0.265474 0.120225 0.202028
581 4 0.289207 0.121282 0.209827
30 3 0.309411 0.121249 0.21689
26 1 0.329602 0.124584 0.226883
29 3 0.330544 0.112916 0.246917
27 3 0.332303 0.147015 0.231207
28 3 0.346658 0.117551 0.21281
758 4 0.389931 0.0944296 0.231629
312 4 0.468568 0.172007 0.175815
310 2 0.454927 0.152867 0.184344
311 4 0.441286 0.133727 0.192874
513 4 0.0543067 0.176273 0.223714
363 4 0.0869551 0.213176 0.171542
362 4 0.100837 0.226626 0.217662
361 2 0.0938962 0.219901 0.194602
372 4 0.113809 0.242784 0.214724
370 2 0.134336 0.24548 0.228744
392 4 0.101912 0.173688 0.248144
723 4 0.199391 0.165677 0.196387
284 4 0.288003 0.192281 0.1677
283 2 0.310647 0.182759 0.172364
285 4 0.333291 0.173237 0.177027
521 4 0.472261 0.1863 0.243754
520 2 0.490027 0.177163 0.228718
395 4 0.0700378 0.293614 0.207738
394 2 0.0522115 0.289373 0.22475
396 4 0.0343853 0.285132 0.241762
750 4 0.089588 0.296317 0.202525
748 2 0.0995155 0.306325 0.181874
371 4 0.154863 0.248176 0.242763
300 4 0.129287 0.323112 0.214844
279 4 0.270401 0.266734 0.199709
277 2 0.282859 0.27545 0.17986
308 4 0.323864 0.292021 0.239003
307 2 0.330937 0.291062 0.21504
763 2 0.386183 0.249969 0.167207
309 4 0.33801 0.290103 0.191077
764 4 0.395368 0.268352 0.18145
623 4 0.409496 0.284018 0.18452
526 2 0.49084 0.282868 0.167818
528 4 0.478084 0.288028 0.188695
622 2 0.433899 0.286252 0.189487
624 4 0.458303 0.288486 0.194453
262 2 0.059781 0.394125 0.232648
264 4 0.0407811 0.390148 0.216889
263 4 0.0787809 0.398101 0.248408
298 2 0.132451 0.344634 0.227171
299 4 0.135615 0.366157 0.239498
601 2 0.113014 0.396002 0.250292
603 4 0.1328 0.380895 0.252634
290 4 0.217237 0.410215 0.20675
13 3 0.403347 0.367929 0.172237
447 4 0.505401 0.36207 0.198132
643 2 0.489648 0.403891 0.193642
644 4 0.499356 0.380981 0.191175
289 2 0.19806 0.425053 0.212854
417 4 0.170346 0.501953 0.221579
415 2 0.170319 0.477903 0.214742
291 4 0.178883 0.439891 0.218958
416 4 0.170292 0.453852 0.207905
645 4 0.479941 0.4268 0.19611
597 4 0.481084 0.444819 0.203572
595 2 0.465525 0.462644 0.195488
596 4 0.449966 0.48047 0.187404
659 4 0.445345 0.488411 0.170473
231 4 0.434604 0.492844 0.186484
234 4 0.999426 0.0456086 0.262722
1799 4 0.0314168 0.0332344 0.320809
233 4 0.028528 0.0321415 0.301095
1402 2 0.0706489 0.0298897 0.303214
1403 4 0.0463913 0.0311943 0.309134
232 2 0.0139769 0.0388751 0.281908
1404 4 0.0949065 0.028585 0.297294
1699 2 0.18718 0.0584967 0.303141
1701 4 0.168896 0.0464424 0.291076
1700 4 0.205464 0.070551 0.315206
23 3 0.409148 0.00866248 0.254317
697 2 0.375205 0.0320553 0.310386
699 4 0.362927 0.0214917 0.291338
1518 4 0.354476 0.0103355 0.278378
633 4 0.389948 0.0619192 0.330985
698 4 0.387484 0.042619 0.329434
743 4 0.495498 0.0532798 0.29147
744 4 0.475195 0.0233079 0.25697
742 2 0.485347 0.0382939 0.27422
478 2 0.474887 0.0547486 0.3297
479 4 0.48929 0.0589078 0.30969
398 4 0.0821056 0.153077 0.306896
390 4 0.0896854 0.170478 0.314499
546 4 0.169984 0.164425 0.256357
248 4 0.201776 0.0867919 0.326071
249 4 0.220531 0.129301 0.307579
247 2 0.211154 0.108046 0.316825
404 4 0.22418 0.134889 0.288544
403 2 0.205621 0.145021 0.275198
405 4 0.187062 0.155152 0.261853
632 4 0.36847 0.106399 0.323176
631 2 0.379209 0.0841589 0.327081
333 4 0.467864 0.143923 0.278379
393 4 0.0872213 0.177785 0.295769
544 2 0.145706 0.166367 0.250701
545 4 0.121428 0.168308 0.245044
391 2 0.0945665 0.175737 0.271956
388 2 0.107781 0.18451 0.32454
717 4 0.403471 0.233766 0.310731
331 2 0.460628 0.167468 0.282678
420 4 0.41352 0.216923 0.312359
332 4 0.453392 0.191012 0.286977
418 2 0.431684 0.212684 0.295707
419 4 0.449848 0.208446 0.279056
760 2 0.487119 0.213676 0.285755
762 4 0.464216 0.206357 0.292614
444 4 0.0415819 0.254586 0.300709
364 2 0.00528312 0.312303 0.261664
442 2 0.0351088 0.268002 0.280627
443 4 0.0286358 0.281419 0.260545
365 4 0.0224472 0.297435 0.251198
401 4 0.220502 0.275397 0.265047
400 2 0.230805 0.281175 0.287084
402 4 0.241108 0.286954 0.309121
510 4 0.237819 0.299569 0.32261
508 2 0.228561 0.322639 0.325304
345 4 0.245463 0.28238 0.327977
343 2 0.25466 0.259632 0.332787
715 2 0.409868 0.255974 0.320272
497 4 0.317506 0.291302 0.258482
498 4 0.358937 0.30994 0.279382
496 2 0.338222 0.300621 0.268932
543 4 0.422108 0.327075 0.28402
716 4 0.416265 0.278183 0.329814
541 2 0.422889 0.306585 0.298327
542 4 0.423669 0.286094 0.312635
602 4 0.0932275 0.411108 0.247951
734 4 0.147346 0.36804 0.254958
733 2 0.150632 0.364115 0.279432
735 4 0.153919 0.36019 0.303906
677 4 0.166243 0.363534 0.320048
676 2 0.188563 0.360349 0.330859
509 4 0.219303 0.345708 0.327998
728 4 0.341063 0.377271 0.319612
727 2 0.345519 0.392732 0.300474
729 4 0.349975 0.408193 0.281335
615 4 0.431737 0.338649 0.299279
613 2 0.425198 0.362011 0.305329
2538 4 0.460634 0.385031 0.322154
2536 2 0.469743 0.394937 0.30108
614 4 0.418658 0.385374 0.31138
777 4 0.068807 0.43827 0.315707
549 4 0.0641257 0.432217 0.334096
775 2 0.0924386 0.443748 0.309648
414 4 0.124295 0.460169 0.318391
776 4 0.11607 0.449226 0.303588
412 2 0.144098 0.469892 0.330158
438 4 0.286339 0.436602 0.286013
437 4 0.335848 0.433893 0.292509
436 2 0.311093 0.435248 0.289261
2537 4 0.478851 0.404843 0.280007
2861 4 0.453377 0.458574 0.260593
2862 4 0.481339 0.417263 0.264083
2860 2 0.467358 0.437919 0.262338
1798 2 0.0196826 0.0158304 0.334396
369 4 0.0785831 0.0509801 0.363329
1800 4 0.0079485 0.998426 0.347982
367 2 0.0835275 0.0286299 0.373389
732 4 0.0963544 0.0591304 0.370396
368 4 0.0884719 0.00627981 0.383449
605 4 0.15979 0.0441594 0.35825
604 2 0.151449 0.0637469 0.371362
606 4 0.143107 0.0833344 0.384474
256 2 0.391241 0.0491657 0.367846
257 4 0.380622 0.0518716 0.345372
258 4 0.401861 0.0464599 0.39032
424 2 0.407588 0.0398082 0.420334
426 4 0.413947 0.0577867 0.404163
480 4 0.460483 0.0505894 0.349711
458 4 0.0232689 0.140391 0.379013
318 4 0.0334212 0.129048 0.366329
316 2 0.0447768 0.110347 0.378433
317 4 0.0561323 0.0916458 0.390536
457 2 0.0241931 0.161846 0.39182
397 2 0.0824838 0.137804 0.326689
730 2 0.0931222 0.0829788 0.363615
399 4 0.082862 0.122532 0.346483
731 4 0.0898901 0.106827 0.356834
600 4 0.215498 0.144422 0.381943
598 2 0.200852 0.164675 0.382656
683 4 0.258885 0.11412 0.368631
682 2 0.268745 0.108327 0.390866
684 4 0.278605 0.102534 0.413102
575 4 0.3965 0.135498 0.391555
516 4 0.40918 0.136357 0.375283
708 4 0.371918 0.16419 0.37612
321 4 0.335131 0.137914 0.415538
574 2 0.413833 0.139939 0.40902
451 2 0.483836 0.147692 0.351967
514 2 0.425605 0.140746 0.356949
453 4 0.46016 0.143957 0.34485
515 4 0.442029 0.145135 0.338614
2654 4 0.012013 0.198295 0.39737
459 4 0.0251174 0.183301 0.404626
389 4 0.125877 0.198543 0.334581
685 2 0.165715 0.200927 0.419128
687 4 0.18034 0.190864 0.40152
599 4 0.186206 0.184928 0.383369
473 4 0.2334 0.202592 0.387946
344 4 0.263857 0.236884 0.337596
378 4 0.274907 0.219641 0.341856
376 2 0.298145 0.211425 0.346057
377 4 0.321384 0.20321 0.350258
472 2 0.25578 0.208471 0.39742
474 4 0.27816 0.21435 0.406894
707 4 0.337224 0.192306 0.353614
706 2 0.354571 0.178248 0.364867
467 4 0.376235 0.198944 0.417863
305 4 0.471108 0.18533 0.415666
275 4 0.152726 0.320376 0.407734
274 2 0.168583 0.308017 0.392868
616 2 0.119506 0.327194 0.414812
374 4 0.232967 0.254017 0.392332
276 4 0.18444 0.295658 0.378003
373 2 0.21132 0.265798 0.388113
375 4 0.189674 0.27758 0.383895
561 4 0.486604 0.332167 0.387117
406 2 0.0286163 0.385468 0.383721
407 4 0.0445748 0.395418 0.367244
548 4 0.0304805 0.402342 0.355917
408 4 0.0126579 0.375517 0.400199
347 4 0.0827838 0.333354 0.41505
617 4 0.142708 0.336392 0.413326
678 4 0.210882 0.357163 0.34167
435 4 0.220495 0.364773 0.326679
504 4 0.248681 0.390799 0.39751
434 4 0.262934 0.389981 0.334694
433 2 0.241714 0.377377 0.330687
503 4 0.292579 0.414617 0.400034
334 2 0.324628 0.402132 0.40915
502 2 0.27063 0.402708 0.398772
335 4 0.343218 0.38621 0.404045
240 4 0.358933 0.389246 0.41603
753 4 0.461676 0.36685 0.33238
752 4 0.480809 0.34382 0.372432
751 2 0.471242 0.355335 0.352406
547 2 0.0473031 0.41728 0.345007
413 4 0.163902 0.479614 0.341925
500 4 0.16829 0.488949 0.357765
1545 4 0.22641 0.483308 0.347438
1543 2 0.202192 0.477895 0.350496
1544 4 0.177974 0.472482 0.353555
1436 4 0.225843 0.501888 0.339265
336 4 0.306037 0.418055 0.414255
669 4 0.304226 0.430324 0.399502
594 4 0.394356 0.450908 0.342629
592 2 0.416594 0.458693 0.334259
593 4 0.438831 0.466478 0.325889
1524 4 0.0495693 0.00176666 0.462411
1126 2 0.0060228 0.0545024 0.489828
720 4 0.0307246 0.071672 0.458593
2237 4 0.0262807 0.0537626 0.452178
2236 2 0.0282415 0.0313946 0.441178
1127 4 0.018191 0.0610598 0.468992
2238 4 0.0302023 0.00902671 0.430178
1522 2 0.0586156 0.00615281 0.485304
2428 2 0.228064 0.00785959 0.490026
2430 4 0.210393 0.0247956 0.484917
726 4 0.315847 0.0508318 0.44341
724 2 0.309615 0.0366599 0.463044
725 4 0.303384 0.022488 0.482679
963 4 0.305801 0.00659013 0.493119
425 4 0.401229 0.0218297 0.436506
1580 4 0.393668 0.0147052 0.418141
2878 2 0.47755 0.0661626 0.481354
718 2 0.0274177 0.095054 0.450376
719 4 0.0241109 0.118436 0.442159
1033 2 0.108026 0.138512 0.480784
1035 4 0.102774 0.155657 0.463358
1182 4 0.26856 0.112158 0.475516
320 4 0.294957 0.108847 0.42201
1180 2 0.275652 0.10407 0.452945
1181 4 0.282743 0.0959816 0.430374
319 2 0.315044 0.123381 0.418774
411 4 0.266474 0.154068 0.469371
3157 2 0.486493 0.1549 0.477775
2880 4 0.481027 0.0884372 0.47054
642 4 0.470282 0.103554 0.465741
640 2 0.457315 0.119042 0.451005
641 4 0.444347 0.13453 0.436269
306 4 0.440761 0.153831 0.439905
576 4 0.431166 0.14438 0.426485
3159 4 0.492498 0.130944 0.48168
471 4 0.051017 0.22673 0.505247
469 2 0.0413783 0.20691 0.493438
470 4 0.0317396 0.187089 0.48163
686 4 0.151089 0.21099 0.436735
260 4 0.132087 0.206432 0.439868
261 4 0.119186 0.168249 0.469471
259 2 0.125636 0.187341 0.45467
695 4 0.13909 0.222974 0.446614
694 2 0.133085 0.242315 0.46128
488 4 0.279916 0.216344 0.426963
487 2 0.295296 0.219162 0.446474
489 4 0.310677 0.221979 0.465985
409 2 0.277523 0.175073 0.477239
410 4 0.288572 0.196077 0.485108
900 4 0.285148 0.215627 0.491969
468 4 0.373624 0.247083 0.43115
466 2 0.374929 0.223013 0.424506
3158 4 0.480489 0.178856 0.47387
304 2 0.455935 0.16958 0.427786
585 4 0.442493 0.23871 0.476534
348 4 0.0536621 0.331119 0.455642
326 4 0.0562969 0.345967 0.467899
618 4 0.0963036 0.317995 0.416298
1260 4 0.11291 0.270924 0.487444
696 4 0.127081 0.261655 0.475945
811 2 0.25215 0.286913 0.489786
813 4 0.251395 0.268678 0.472695
266 4 0.31217 0.259757 0.434723
265 2 0.336783 0.258395 0.438907
267 4 0.361396 0.257032 0.443091
2455 2 0.488883 0.300746 0.486818
2456 4 0.48051 0.295256 0.463906
584 4 0.468708 0.279806 0.46537
583 2 0.455601 0.259258 0.470952
2813 4 0.994759 0.399189 0.438506
346 2 0.0682229 0.332237 0.435346
325 2 0.073995 0.353451 0.483897
681 4 0.0687654 0.41825 0.443139
10 3 0.137257 0.361969 0.472552
7 3 0.10659 0.371129 0.491751
6 1 0.12937 0.368181 0.492994
8 3 0.139175 0.388172 0.499522
711 4 0.145612 0.406085 0.48965
327 4 0.0916931 0.360935 0.499895
709 2 0.169854 0.412092 0.490838
710 4 0.194096 0.4181 0.492026
774 4 0.213195 0.417774 0.48861
239 4 0.400154 0.39965 0.442361
238 2 0.379544 0.394448 0.429196
588 4 0.389581 0.404318 0.458672
586 2 0.391062 0.410482 0.482858
1383 4 0.0346653 0.4742 0.431085
679 2 0.0524057 0.437036 0.440988
1381 2 0.0517503 0.491723 0.436209
680 4 0.036046 0.455822 0.438838
539 4 0.100024 0.469188 0.488459
384 4 0.133556 0.42962 0.448869
382 2 0.110299 0.422698 0.442837
568 2 0.144431 0.467912 0.462781
569 4 0.145297 0.4453 0.452145
570 4 0.143564 0.490524 0.473417
383 4 0.0870426 0.415775 0.436805
636 4 0.210672 0.455875 0.439514
635 4 0.200587 0.420756 0.473656
634 2 0.20563 0.438315 0.456585
667 2 0.300851 0.451847 0.411772
668 4 0.297476 0.47337 0.424042
4 3 0.314201 0.48339 0.428567
5 3 0.282922 0.502804 0.436463
880 2 0.346239 0.499786 0.482501
1523 4 0.0676619 0.0105389 0.508197
1057 2 0.125835 0.0678363 0.578078
2374 2 0.111185 0.0111111 0.57978
1058 4 0.115217 0.0475453 0.588113
340 2 0.195799 0.0525022 0.507451
342 4 0.188308 0.0758258 0.512457
1152 4 0.169275 0.0756971 0.515697
341 4 0.203291 0.0291785 0.502445
430 2 0.32184 0.0328229 0.515737
431 4 0.340784 0.0426289 0.528781
432 4 0.302895 0.0230168 0.502694
843 4 0.34997 0.0609099 0.531771
1217 4 0.406171 0.0411347 0.529632
1216 2 0.412961 0.0170727 0.529938
842 4 0.399384 0.0577079 0.538747
841 2 0.374677 0.0593089 0.535259
3009 4 0.49906 0.0801017 0.564162
2879 4 0.474072 0.043888 0.492167
879 4 0.0643833 0.148611 0.554663
1272 4 0.0789818 0.158972 0.563059
938 4 0.0830827 0.142675 0.553114
937 2 0.0922199 0.130381 0.533351
1151 4 0.137248 0.0937909 0.549573
1059 4 0.136453 0.0881273 0.568042
1155 4 0.152377 0.096678 0.561337
939 4 0.101357 0.118088 0.513589
1150 2 0.153262 0.084744 0.532635
1153 2 0.159982 0.113694 0.578004
1034 4 0.113279 0.121368 0.498209
878 4 0.0394474 0.187662 0.535849
1199 4 0.0195707 0.194632 0.538889
877 2 0.0519153 0.168136 0.545256
857 4 0.294925 0.214649 0.558451
856 2 0.277142 0.209292 0.575191
898 2 0.29262 0.216698 0.515805
791 4 0.307069 0.229399 0.553878
899 4 0.300093 0.217769 0.539642
871 2 0.383737 0.235811 0.551396
872 4 0.368316 0.233435 0.531859
873 4 0.399158 0.238187 0.570934
3353 4 0.00368852 0.252459 0.535686
3352 2 0.00164643 0.272994 0.521569
1259 4 0.124181 0.301787 0.525142
1258 2 0.118545 0.286355 0.506293
649 2 0.233344 0.295448 0.54099
651 4 0.220714 0.281331 0.557311
650 4 0.245974 0.309565 0.524669
804 4 0.250619 0.323985 0.512874
790 2 0.317009 0.251028 0.56153
812 4 0.252906 0.305148 0.506877
792 4 0.326949 0.272657 0.569182
1238 4 0.328186 0.291724 0.571363
1237 2 0.336512 0.315057 0.574744
1239 4 0.344839 0.33839 0.578126
1009 2 0.50724 0.310053 0.548525
1010 4 0.503952 0.297783 0.526989
935 4 0.00326802 0.395058 0.548891
1135 2 0.132578 0.40576 0.556906
9 3 0.133952 0.351641 0.508608
897 4 0.155334 0.381563 0.577391
1137 4 0.137166 0.388362 0.574268
1189 2 0.229574 0.385743 0.556032
773 4 0.242684 0.389966 0.517899
1190 4 0.244411 0.382537 0.536163
772 2 0.22794 0.40387 0.503254
1191 4 0.214737 0.388949 0.575901
802 2 0.251306 0.348563 0.517415
803 4 0.251994 0.373142 0.521956
930 4 0.260241 0.390043 0.527047
928 2 0.281278 0.400084 0.536092
929 4 0.302315 0.410125 0.545137
927 4 0.377336 0.376235 0.550005
925 2 0.38868 0.394757 0.537616
926 4 0.400024 0.413278 0.525228
1136 4 0.12799 0.423158 0.539544
538 2 0.103408 0.490478 0.501127
1161 4 0.160582 0.484732 0.563297
2243 4 0.150091 0.502713 0.562716
1159 2 0.176471 0.47371 0.579147
889 2 0.297239 0.461973 0.563246
890 4 0.313237 0.473058 0.578942
891 4 0.281241 0.450888 0.54755
1953 4 0.348716 0.462819 0.552915
1951 2 0.351049 0.468068 0.528581
881 4 0.360168 0.492752 0.502038
1000 2 0.407998 0.495976 0.534524
1952 4 0.353383 0.473316 0.504246
663 4 0.41023 0.421835 0.510998
587 4 0.392544 0.416646 0.507045
1001 4 0.42805 0.481165 0.532589
662 4 0.432822 0.461929 0.530564
661 2 0.421526 0.441882 0.520781
1911 4 0.437472 0.47157 0.546608
1909 2 0.436674 0.46555 0.570863
1332 4 0.446801 0.475826 0.529909
1330 2 0.464912 0.492985 0.531567
2319 4 0.0440473 0.99943 0.626781
943 2 0.0767664 0.00348631 0.656095
2375 4 0.100602 0.0332565 0.584553
825 4 0.10806 0.008661 0.649164
950 4 0.31461 0.0269063 0.614257
949 2 0.295951 0.0427909 0.609285
951 4 0.277293 0.0586754 0.604314
1031 4 0.284246 0.0761415 0.613437
1092 4 0.324137 0.993767 0.66272
45 3 0.441057 0.0766291 0.645976
41 1 0.43877 0.0833246 0.667623
3179 4 0.0307706 0.144636 0.661524
1083 4 0.0165638 0.129899 0.662846
3178 2 0.0146142 0.161792 0.653168
1284 4 0.162245 0.0794595 0.647274
1270 2 0.0873631 0.159615 0.586608
1154 4 0.167588 0.130709 0.594672
1032 4 0.25222 0.104305 0.63955
1221 4 0.186554 0.135723 0.599329
1219 2 0.196592 0.154771 0.612041
1030 2 0.268233 0.0902233 0.626493
808 2 0.487005 0.0844379 0.644067
43 3 0.428292 0.104011 0.668447
810 4 0.474683 0.0812863 0.665594
1243 2 0.05239 0.210616 0.637843
1244 4 0.0593587 0.194667 0.619892
1245 4 0.0454213 0.226566 0.655794
1271 4 0.0957444 0.160257 0.610156
1212 4 0.221106 0.174352 0.638507
1220 4 0.206631 0.173818 0.624753
796 2 0.2016 0.210096 0.621905
798 4 0.212888 0.190785 0.633079
797 4 0.190312 0.229407 0.610731
1210 2 0.246085 0.173417 0.6391
858 4 0.259359 0.203935 0.591932
1211 4 0.271064 0.172482 0.639693
888 4 0.285002 0.170466 0.652842
3121 2 0.491801 0.230874 0.655684
905 4 0.45987 0.238746 0.627939
3123 4 0.476638 0.241129 0.638653
983 4 0.0313293 0.301453 0.601629
982 2 0.0378027 0.317192 0.619948
3263 4 0.0475145 0.329119 0.656387
947 4 0.233971 0.292447 0.634607
946 2 0.242356 0.289136 0.657929
906 4 0.434078 0.271999 0.600925
904 2 0.446974 0.255372 0.614432
952 2 0.481507 0.318591 0.596918
953 4 0.46202 0.307808 0.608283
984 4 0.0442761 0.33293 0.638266
1041 4 0.0458887 0.347743 0.65152
1039 2 0.060888 0.364384 0.640417
1040 4 0.0758873 0.381025 0.629314
993 4 0.0612151 0.394138 0.623408
895 2 0.178633 0.389077 0.582477
896 4 0.201933 0.396591 0.587562
1172 4 0.220105 0.404732 0.585648
807 4 0.317996 0.337764 0.64207
1206 4 0.450122 0.404221 0.65923
992 4 0.0561718 0.443479 0.617024
991 2 0.0586934 0.418809 0.620216
1160 4 0.19236 0.462689 0.594998
1173 4 0.20921 0.452463 0.595832
1171 2 0.214658 0.428597 0.59074
1188 4 0.20744 0.488928 0.65349
1187 4 0.205768 0.466859 0.608647
1186 2 0.206604 0.477894 0.631069
1204 2 0.450691 0.428255 0.652358
1910 4 0.435875 0.45953 0.595118
1269 4 0.457068 0.469591 0.635841
1267 2 0.441012 0.488722 0.637022
1205 4 0.451259 0.452289 0.645487
1077 4 0.0421701 0.0784821 0.749998
944 4 0.099432 0.00543617 0.66647
2255 4 0.220289 0.0269492 0.728837
2254 2 0.203166 0.0213254 0.746169
1147 2 0.208743 0.0810168 0.749896
1149 4 0.233084 0.0754133 0.751038
1004 4 0.333172 0.0154229 0.72804
1003 2 0.345777 0.0353799 0.736287
1005 4 0.358382 0.0553369 0.744534
1163 4 0.475545 0.0750689 0.683823
1162 2 0.492093 0.0582931 0.692184
42 3 0.425894 0.0680088 0.678971
1081 2 0.0256713 0.110716 0.676046
1082 4 0.0347789 0.0915326 0.689245
1076 4 0.0340788 0.101276 0.706229
1075 2 0.0381244 0.0898789 0.728114
850 2 0.0669098 0.145036 0.731273
852 4 0.0431617 0.139508 0.736809
1282 2 0.149514 0.0931355 0.663889
909 4 0.0982053 0.146854 0.708405
907 2 0.113373 0.127661 0.703233
908 4 0.128541 0.108468 0.698061
1283 4 0.136784 0.106811 0.680505
1227 4 0.147725 0.108268 0.697
851 4 0.0906579 0.150564 0.725737
1225 2 0.15777 0.0997058 0.718236
1107 4 0.107627 0.158475 0.720709
1105 2 0.120011 0.162485 0.742057
1226 4 0.167816 0.0911436 0.739472
830 4 0.319758 0.151724 0.70992
978 4 0.301435 0.155554 0.715287
887 4 0.305924 0.159004 0.696792
831 4 0.366376 0.134353 0.714986
1141 2 0.403025 0.15384 0.715102
829 2 0.343067 0.143039 0.712453
1142 4 0.384612 0.137778 0.709794
44 3 0.459603 0.0845884 0.677761
1025 4 0.480831 0.155956 0.701108
3424 2 0.482606 0.117208 0.68797
3426 4 0.475286 0.0944722 0.680576
1024 2 0.457539 0.16468 0.703667
3425 4 0.489927 0.139944 0.695364
3269 4 0.49661 0.148855 0.711105
1209 4 0.0623635 0.227427 0.667949
1215 4 0.00424746 0.197299 0.746636
1213 2 0.0189706 0.177209 0.744447
1207 2 0.0831105 0.237731 0.67736
1208 4 0.103858 0.248035 0.68677
886 2 0.295463 0.164735 0.674817
976 2 0.302799 0.174003 0.732108
1194 4 0.387099 0.217292 0.719386
1193 4 0.358563 0.253823 0.700628
1192 2 0.372831 0.235557 0.710007
1143 4 0.421437 0.169901 0.72041
1026 4 0.434246 0.173403 0.706226
1261 2 0.441828 0.199617 0.740607
1262 4 0.433462 0.185613 0.721658
1179 4 0.00991477 0.261057 0.747028
3262 2 0.0426864 0.321251 0.679624
3264 4 0.0378584 0.313382 0.702861
779 4 0.0482861 0.312662 0.719276
893 4 0.0357841 0.327835 0.716166
778 2 0.0675476 0.313166 0.73521
780 4 0.0868091 0.313669 0.751145
821 4 0.119066 0.279042 0.750438
1064 4 0.238264 0.273276 0.689937
948 4 0.250741 0.285825 0.681251
1065 4 0.232432 0.272334 0.739594
1063 2 0.235348 0.272805 0.714766
805 2 0.325349 0.323348 0.66113
917 4 0.278816 0.256534 0.75078
806 4 0.332702 0.308932 0.68019
892 2 0.025739 0.349684 0.723014
894 4 0.0156939 0.371533 0.729862
3276 4 0.00497735 0.384189 0.73925
814 2 0.0446154 0.398244 0.744326
816 4 0.0243371 0.387604 0.734288
1066 2 0.156457 0.413149 0.704733
1068 4 0.170429 0.401337 0.687691
942 4 0.0841636 0.411062 0.7495
1029 4 0.230624 0.423866 0.666457
1027 2 0.211185 0.41097 0.675458
1028 4 0.191747 0.398074 0.684459
1019 4 0.400095 0.394103 0.728625
1018 2 0.390439 0.398488 0.751268
1008 4 0.417494 0.328721 0.72561
1279 2 0.0365601 0.496132 0.691238
1280 4 0.0614304 0.495002 0.693556
1281 4 0.0116898 0.497262 0.688921
1067 4 0.142486 0.42496 0.721776
940 2 0.106599 0.420343 0.743524
941 4 0.129034 0.429624 0.737549
1174 2 0.183319 0.497231 0.676104
1176 4 0.169841 0.490064 0.695907
1140 4 0.305633 0.479816 0.694032
1138 2 0.295932 0.458498 0.702785
1139 4 0.286231 0.43718 0.711537
1230 4 0.395723 0.473577 0.722604
1228 2 0.381888 0.463078 0.740592
1100 4 0.410506 0.469328 0.709314
1101 4 0.459603 0.471394 0.718585
1099 2 0.435054 0.470361 0.71395
1251 4 0.460015 0.460408 0.734495
3330 4 0.47204 0.456185 0.720299
3328 2 0.490983 0.445045 0.708373
1201 2 0.161523 0.0567316 0.76323
2047 2 0.155516 0.998772 0.770078
1202 4 0.155061 0.0338145 0.770861
1203 4 0.167985 0.0796486 0.755599
1148 4 0.184402 0.0866203 0.748755
2049 4 0.165987 0.0201972 0.762562
2256 4 0.186044 0.0157016 0.7635
2321 4 0.471299 0.011614 0.781552
2322 4 0.473024 0.0561741 0.804182
2320 2 0.472162 0.0338941 0.792867
846 4 0.468175 0.0757953 0.801839
980 4 0.449246 0.015181 0.820559
1214 4 0.0336937 0.157118 0.742258
864 4 0.0493044 0.0891476 0.765982
862 2 0.0448152 0.108695 0.780912
863 4 0.0403259 0.128243 0.795843
832 2 0.0114342 0.119867 0.823871
833 4 0.0252443 0.131354 0.806478
1125 4 0.0424976 0.139983 0.811731
1123 2 0.0489508 0.163813 0.807771
31 1 0.117411 0.142 0.829264
35 3 0.132836 0.130781 0.816818
33 3 0.100491 0.150013 0.815557
1257 4 0.23815 0.0894077 0.765075
1255 2 0.258719 0.0971947 0.776969
1256 4 0.279288 0.104982 0.788863
840 4 0.2758 0.110785 0.808607
838 2 0.291228 0.121435 0.825152
1112 4 0.381351 0.0966146 0.831688
844 2 0.482355 0.0961407 0.805028
845 4 0.496535 0.116486 0.808216
1177 2 0.00241847 0.237241 0.748378
1124 4 0.0554041 0.187643 0.803811
1072 2 0.0576152 0.23549 0.768219
1073 4 0.0340799 0.233804 0.759947
1106 4 0.132396 0.166495 0.763405
1130 4 0.140761 0.183213 0.756163
1129 2 0.147113 0.205806 0.764787
1131 4 0.153466 0.228399 0.773412