ITEM: TIMESTEP
2810000
ITEM: NUMBER OF ATOMS
4590
ITEM: BOX BOUNDS pp pp pp
-9.9985700000000008e+00 9.9985700000000008e+00
-9.9985700000000008e+00 9.9985700000000008e+00
-9.9985700000000008e+00 9.9985700000000008e+00
ITEM: ATOMS id type xs ys zs
463 2 0.0572269 0.0864546 0.021347
464 4 0.0323766 0.0891355 0.0206711
701 4 0.0996373 0.0755275 0.0261565
700 2 0.120231 0.0653673 0.0162652
702 4 0.140825 0.0552072 0.0063739
566 4 0.161125 0.0492276 0.00850497
565 2 0.174983 0.0680938 0.999718
746 4 0.492052 0.0596166 0.0268209
2469 4 0.491178 0.0493403 0.0439321
745 2 0.476996 0.0592369 0.00686191
590 4 0.0279512 0.0866518 0.0387965
589 2 0.009565 0.0902402 0.055357
465 4 0.0820771 0.0837737 0.0220228
558 4 0.369322 0.126343 0.0335056
556 2 0.361214 0.111587 0.0519903
865 2 0.367431 0.172615 0.000831899
771 4 0.454264 0.143545 0.0529252
769 2 0.462739 0.149862 0.0755848
554 4 0.0496926 0.207152 0.0106575
553 2 0.0696082 0.204347 0.0255128
555 4 0.0895237 0.201541 0.0403682
835 2 0.125344 0.204808 0.0179312
836 4 0.107428 0.210241 0.0345047
837 4 0.14326 0.199375 0.00135768
573 4 0.32457 0.242517 0.0663534
461 4 0.32873 0.233583 0.0825225
666 4 0.325668 0.22305 0.0664884
664 2 0.337836 0.20721 0.051447
665 4 0.350003 0.191371 0.0364056
867 4 0.353464 0.185161 0.0173453
1070 4 0.405641 0.24035 0.0655266
2808 4 0.0418947 0.306016 0.023602
2806 2 0.018696 0.301327 0.0316649
2807 4 0.995497 0.296637 0.0397278
294 4 0.121517 0.311636 0.0868972
292 2 0.127498 0.320563 0.0643203
293 4 0.133479 0.329489 0.0417433
356 4 0.312991 0.30567 0.0459895
572 4 0.320319 0.291773 0.0588412
355 2 0.297464 0.31633 0.0295442
571 2 0.322444 0.267145 0.0625973
1069 2 0.417236 0.259331 0.0769488
322 2 0.441007 0.317572 0.0848161
1071 4 0.428832 0.278311 0.088371
647 4 0.0187416 0.356864 0.0611621
646 2 0.0359534 0.342651 0.0724282
620 4 0.0105574 0.367387 0.0774509
507 4 0.148814 0.333201 0.0295981
505 2 0.169807 0.34638 0.0328809
481 2 0.213929 0.394427 0.0250318
482 4 0.231815 0.411434 0.0210234
483 4 0.196044 0.377421 0.0290402
506 4 0.1908 0.35956 0.0361636
609 4 0.24599 0.414407 0.0369232
357 4 0.281937 0.32699 0.013099
902 4 0.276869 0.345374 0.00650924
957 4 0.351891 0.396157 0.998631
323 4 0.455838 0.337562 0.0824457
671 4 0.494992 0.375928 0.0662354
670 2 0.472972 0.365951 0.072621
280 2 0.494477 0.410635 0.0403702
551 4 0.037679 0.440873 0.0842471
550 2 0.0587668 0.453507 0.0796794
552 4 0.0798545 0.466141 0.0751118
1787 4 0.0970812 0.466508 0.0658236
1786 2 0.100299 0.464091 0.041146
1788 4 0.103516 0.461673 0.0164684
242 4 0.0962233 0.465182 0.085664
246 4 0.232615 0.487456 0.0349127
244 2 0.22228 0.470075 0.0496193
245 4 0.211946 0.452694 0.0643259
272 4 0.239695 0.482683 0.0172924
1778 4 0.235291 0.501135 0.0205341
627 4 0.198134 0.448541 0.0787337
607 2 0.266294 0.425724 0.0277122
608 4 0.286598 0.437041 0.0185013
252 4 0.288878 0.453208 0.0300924
250 2 0.309768 0.46606 0.0252313
251 4 0.330658 0.478912 0.0203703
2289 4 0.342897 0.492532 0.0307622
525 4 0.438587 0.474507 0.0697524
282 4 0.490074 0.43123 0.0268921
226 2 0.461862 0.46199 0.0439706
227 4 0.478191 0.444799 0.0360338
228 4 0.445532 0.479182 0.0519074
563 4 0.441055 0.493084 0.0647234
16 1 0.0631197 0.0392649 0.146847
20 3 0.0591748 0.0425026 0.124652
1806 4 0.0526149 0.00390594 0.138852
18 3 0.0585726 0.0172417 0.152566
1804 2 0.0451321 0.994911 0.116755
450 4 0.149724 0.0668074 0.176406
17 3 0.0852408 0.0436982 0.151336
448 2 0.166743 0.0837771 0.169508
1661 4 0.291545 0.000295003 0.16918
654 4 0.300297 0.0134273 0.180509
652 2 0.313438 0.0294727 0.166543
653 4 0.326579 0.0455181 0.152578
484 2 0.37151 0.0172789 0.106468
297 4 0.355639 0.0565435 0.118472
485 4 0.363375 0.0392143 0.11529
295 2 0.357171 0.0771219 0.104353
579 4 0.101199 0.138589 0.099854
237 4 0.149769 0.152837 0.133098
578 4 0.142621 0.160853 0.11686
577 2 0.12191 0.149721 0.108357
235 2 0.162842 0.13383 0.142742
236 4 0.175914 0.114823 0.152387
693 4 0.19531 0.112756 0.152924
449 4 0.183761 0.100747 0.162609
691 2 0.220048 0.109527 0.154584
692 4 0.244787 0.106298 0.156243
582 4 0.253309 0.115038 0.138915
580 2 0.276937 0.118173 0.146469
581 4 0.300566 0.121307 0.154023
30 3 0.31382 0.135862 0.161887
29 3 0.320172 0.170939 0.174008
557 4 0.353106 0.0968303 0.070475
296 4 0.358704 0.0977003 0.0902332
770 4 0.471213 0.15618 0.0982444
1014 4 0.463559 0.174601 0.0988282
476 4 0.138825 0.169011 0.133936
737 4 0.156585 0.170483 0.126434
475 2 0.136112 0.180819 0.155808
736 2 0.166891 0.182458 0.107055
738 4 0.177196 0.194433 0.0876751
354 4 0.314419 0.243533 0.145602
283 2 0.316443 0.202418 0.151917
285 4 0.313758 0.177848 0.155696
284 4 0.319128 0.226988 0.148138
462 4 0.32079 0.233212 0.131894
460 2 0.32476 0.233398 0.107208
255 4 0.331396 0.239138 0.144659
253 2 0.353655 0.249019 0.150325
1013 4 0.48932 0.214225 0.115169
1012 2 0.476439 0.194413 0.106998
456 4 0.0635496 0.32517 0.100301
455 4 0.0370687 0.314008 0.141226
454 2 0.0503091 0.319589 0.120764
648 4 0.0531652 0.328438 0.0836943
610 2 0.235261 0.328731 0.110531
612 4 0.243429 0.305099 0.110398
756 4 0.237032 0.303468 0.129493
754 2 0.246587 0.286689 0.145379
352 2 0.293116 0.251622 0.155895
353 4 0.271813 0.259711 0.166188
755 4 0.256142 0.269911 0.161265
278 4 0.255178 0.256373 0.175451
254 4 0.375914 0.2589 0.15599
324 4 0.426177 0.297581 0.0871865
626 4 0.174507 0.404528 0.0764267
611 4 0.227094 0.352362 0.110663
536 4 0.176288 0.390187 0.0913762
535 2 0.195747 0.379232 0.102624
537 4 0.215206 0.368277 0.113872
387 4 0.336226 0.405584 0.134465
739 2 0.409376 0.379387 0.12738
740 4 0.397616 0.385144 0.148681
385 2 0.358328 0.398527 0.143787
386 4 0.380429 0.391471 0.153109
495 4 0.396908 0.400891 0.159798
15 3 0.385897 0.372835 0.157368
672 4 0.450952 0.355975 0.0790067
741 4 0.421136 0.37363 0.106079
241 2 0.113286 0.456154 0.101556
1438 2 0.170116 0.464814 0.121544
243 4 0.130348 0.447125 0.117447
1440 4 0.145576 0.460068 0.120899
625 2 0.18632 0.426535 0.0775802
1439 4 0.194657 0.46956 0.122188
637 2 0.220205 0.489674 0.113302
638 4 0.237357 0.505655 0.121996
639 4 0.203053 0.473692 0.104607
303 4 0.301997 0.459003 0.109423
766 2 0.274077 0.486317 0.125591
768 4 0.29266 0.469853 0.122624
301 2 0.316527 0.44148 0.119766
302 4 0.331058 0.423957 0.130109
524 4 0.398709 0.472707 0.0998718
493 2 0.404903 0.424421 0.157038
494 4 0.412898 0.44795 0.154277
660 4 0.419956 0.463751 0.144555
523 2 0.418648 0.473607 0.0848121
658 2 0.427697 0.481789 0.160043
19 3 0.0498955 0.0536044 0.159413
380 4 0.0459841 0.0487362 0.178429
675 4 0.0853622 0.0453482 0.171034
673 2 0.109751 0.0508476 0.171368
1505 4 0.148721 0.0469421 0.180118
674 4 0.13414 0.0563469 0.171702
1504 2 0.161799 0.0375352 0.19924
689 4 0.177447 0.0095276 0.213716
1506 4 0.174876 0.0281283 0.218363
23 3 0.407979 0.00102051 0.236465
22 3 0.412782 0.0205124 0.20469
21 1 0.42362 0.00850538 0.221046
757 2 0.477579 0.0204359 0.217515
25 3 0.438873 0.0219236 0.231339
759 4 0.458178 0.0256361 0.232405
350 4 0.445504 0.0360389 0.242169
758 4 0.496981 0.0152357 0.202626
379 2 0.039942 0.0723189 0.184133
512 4 0.0396328 0.114664 0.18652
381 4 0.0338999 0.0959016 0.189836
511 2 0.0545346 0.133337 0.193899
513 4 0.0694364 0.152009 0.201277
339 4 0.0817244 0.167611 0.201451
26 1 0.321142 0.1484 0.179433
28 3 0.308101 0.144191 0.198158
27 3 0.342953 0.142819 0.184153
311 4 0.440321 0.166791 0.197865
337 2 0.103134 0.180235 0.198715
477 4 0.1334 0.192628 0.17768
363 4 0.137683 0.206234 0.190756
338 4 0.124543 0.192858 0.19598
362 4 0.130462 0.249134 0.215417
361 2 0.134072 0.227684 0.203087
628 2 0.395874 0.231566 0.182573
629 4 0.406647 0.211999 0.193809
630 4 0.385102 0.251133 0.171336
312 4 0.420171 0.21142 0.208012
717 4 0.375779 0.238706 0.258444
310 2 0.430246 0.189105 0.202939
761 4 0.486061 0.218048 0.239578
749 4 0.0340846 0.311071 0.160322
750 4 0.0170983 0.294324 0.204273
395 4 0.0121075 0.284694 0.223837
748 2 0.0255914 0.302698 0.182297
394 2 0.0217862 0.27891 0.246154
372 4 0.133827 0.254556 0.235561
370 2 0.147496 0.275221 0.238922
300 4 0.119554 0.296329 0.182444
298 2 0.115553 0.311883 0.201608
299 4 0.111551 0.327436 0.220772
734 4 0.111818 0.328597 0.239844
279 4 0.222226 0.258389 0.213013
277 2 0.238702 0.257381 0.194232
401 4 0.280026 0.305104 0.239317
498 4 0.287161 0.310055 0.222404
496 2 0.292936 0.320264 0.200322
764 4 0.416298 0.30747 0.180267
765 4 0.391526 0.267574 0.163079
763 2 0.403912 0.287522 0.171673
624 4 0.476721 0.307931 0.171464
622 2 0.453512 0.314203 0.178335
528 4 0.494855 0.302857 0.178512
623 4 0.430304 0.320474 0.185207
262 2 0.039343 0.385649 0.208909
263 4 0.0549039 0.371 0.221888
602 4 0.0730088 0.380445 0.221549
264 4 0.023782 0.400297 0.19593
601 2 0.0853399 0.359117 0.225818
603 4 0.0976709 0.337789 0.230088
290 4 0.185077 0.396232 0.226215
289 2 0.179965 0.418182 0.215387
308 4 0.317544 0.337168 0.177412
497 4 0.298711 0.330473 0.17824
307 2 0.337527 0.351345 0.182397
309 4 0.35751 0.365523 0.187383
14 3 0.401416 0.398487 0.180145
11 1 0.392759 0.377009 0.178678
13 3 0.374935 0.374633 0.193343
12 3 0.409181 0.361963 0.184433
2618 4 0.0165823 0.414292 0.20869
2617 2 0.00678902 0.431475 0.223988
291 4 0.174854 0.440132 0.204559
416 4 0.171547 0.455208 0.217251
415 2 0.189392 0.472013 0.212317
1430 4 0.226205 0.48819 0.201783
417 4 0.207237 0.488818 0.207384
597 4 0.485897 0.464431 0.208412
596 4 0.450884 0.489738 0.183227
659 4 0.435438 0.499827 0.175532
595 2 0.46839 0.477084 0.19582
645 4 0.493961 0.455467 0.191932
1799 4 0.0144712 0.0201681 0.296815
233 4 0.00584488 0.037567 0.292964
1402 2 0.0456496 0.0477581 0.302005
1403 4 0.025491 0.0357509 0.293366
1404 4 0.0658082 0.0597653 0.310645
1798 2 0.00609715 0.00567919 0.315392
633 4 0.379461 0.0450925 0.29646
631 2 0.376393 0.0443253 0.271657
257 4 0.364772 0.0543772 0.304574
698 4 0.368404 0.0353707 0.3089
697 2 0.36278 0.0112677 0.312449
632 4 0.373325 0.0435581 0.246854
256 2 0.370543 0.0678635 0.324822
349 2 0.445381 0.0397244 0.266899
744 4 0.444397 0.0326312 0.307345
742 2 0.462861 0.0314089 0.324161
351 4 0.445257 0.04341 0.291629
398 4 0.0655849 0.15001 0.311946
397 2 0.0585613 0.12948 0.324371
393 4 0.0820313 0.156735 0.303685
399 4 0.0515377 0.108951 0.336796
545 4 0.124008 0.171721 0.2522
392 4 0.108204 0.161886 0.261386
391 2 0.0951174 0.15931 0.282535
404 4 0.200706 0.152146 0.3287
521 4 0.488725 0.138916 0.259221
390 4 0.0780049 0.159626 0.322602
444 4 0.0312576 0.224771 0.31163
442 2 0.027327 0.245534 0.298266
388 2 0.0694205 0.183071 0.323953
389 4 0.0608361 0.206516 0.325305
544 2 0.14457 0.175901 0.265798
723 4 0.202194 0.227454 0.260347
403 2 0.191405 0.164925 0.309325
721 2 0.19237 0.205116 0.265794
546 4 0.165133 0.18008 0.279395
405 4 0.182105 0.177704 0.289951
722 4 0.182545 0.182778 0.27124
378 4 0.296388 0.24765 0.328982
376 2 0.304698 0.224299 0.332275
377 4 0.313008 0.200948 0.335567
420 4 0.384405 0.222213 0.248769
418 2 0.405657 0.217442 0.261048
331 2 0.451767 0.209728 0.308032
332 4 0.441381 0.20846 0.285322
419 4 0.426908 0.212671 0.273328
760 2 0.465063 0.214729 0.252741
762 4 0.444066 0.21141 0.265903
333 4 0.462152 0.210997 0.330741
453 4 0.480237 0.214205 0.325302
515 4 0.476218 0.198639 0.335799
364 2 0.0186596 0.304571 0.296838
396 4 0.0314649 0.273126 0.268471
443 4 0.0233965 0.266298 0.284902
365 4 0.0253125 0.285433 0.282187
366 4 0.0120067 0.323709 0.31149
407 4 0.0113023 0.328436 0.33007
371 4 0.161165 0.295887 0.242282
735 4 0.141066 0.320319 0.279552
733 2 0.126442 0.324458 0.259698
676 2 0.18198 0.329064 0.291621
508 2 0.238404 0.311752 0.30555
509 4 0.215886 0.32196 0.309283
678 4 0.202884 0.334543 0.304198
510 4 0.260922 0.301545 0.301817
400 2 0.277373 0.3005 0.263749
402 4 0.27472 0.295895 0.288181
345 4 0.278903 0.29762 0.306543
343 2 0.293795 0.278341 0.31218
344 4 0.308686 0.259062 0.317816
715 2 0.372863 0.262028 0.266974
716 4 0.369948 0.28535 0.275504
542 4 0.38221 0.296763 0.286653
541 2 0.394809 0.305756 0.306289
543 4 0.407408 0.314749 0.325924
2493 4 0.997664 0.335787 0.317663
548 4 0.0164991 0.342269 0.317161
547 2 0.0256286 0.365442 0.31936
549 4 0.0347581 0.388615 0.321559
677 4 0.161075 0.323585 0.279044
435 4 0.211202 0.337093 0.320876
728 4 0.36079 0.401124 0.282369
727 2 0.371029 0.407549 0.304257
2538 4 0.473459 0.33856 0.287142
753 4 0.466104 0.328438 0.304529
2536 2 0.487539 0.357066 0.277951
1543 2 0.143743 0.475134 0.32445
1545 4 0.165495 0.470432 0.313052
1544 4 0.121991 0.479837 0.335849
1436 4 0.172056 0.487521 0.306987
729 4 0.381268 0.413974 0.326144
437 4 0.373647 0.432604 0.325546
730 2 0.0666784 0.0707879 0.345252
1772 4 0.0131187 0.0290172 0.389452
1771 2 0.00634532 0.0149097 0.369952
2238 4 0.99884 0.0430857 0.389856
732 4 0.08132 0.0505208 0.345034
369 4 0.0817919 0.0370215 0.359562
367 2 0.0899248 0.0289698 0.381793
606 4 0.164068 0.0144608 0.413545
368 4 0.0980577 0.020918 0.404024
1782 4 0.10939 0.0056187 0.409384
605 4 0.202901 0.045641 0.418072
604 2 0.183485 0.0300509 0.415809
1701 4 0.196252 0.0570517 0.403078
424 2 0.387697 0.0639643 0.384531
425 4 0.39096 0.0536379 0.407067
1580 4 0.399932 0.0357185 0.405663
2664 4 0.497563 0.0206449 0.34778
743 4 0.481325 0.0301867 0.340977
479 4 0.491268 0.0355842 0.356491
478 2 0.487425 0.0572366 0.36839
480 4 0.483582 0.0788891 0.380289
458 4 0.00591046 0.141598 0.389787
318 4 0.0121916 0.123013 0.38939
317 4 0.0411085 0.106237 0.3522
731 4 0.0520368 0.091055 0.34547
316 2 0.0266501 0.114625 0.370795
249 4 0.199972 0.133945 0.337036
1699 2 0.205821 0.0795781 0.397962
247 2 0.201015 0.123349 0.35966
248 4 0.202057 0.112754 0.382284
1700 4 0.21539 0.102105 0.392845
319 2 0.330476 0.134828 0.394669
320 4 0.311437 0.124954 0.407521
682 2 0.276155 0.139193 0.401761
683 4 0.258546 0.156919 0.400814
684 4 0.293764 0.121468 0.402707
426 4 0.384434 0.0742907 0.361994
258 4 0.376315 0.0813498 0.34507
321 4 0.349516 0.144702 0.381817
708 4 0.349216 0.160979 0.369017
516 4 0.467934 0.171561 0.377016
575 4 0.46584 0.152205 0.384158
574 2 0.467434 0.138576 0.40506
459 4 0.0145651 0.189242 0.3773
457 2 0.0102378 0.16542 0.383544
600 4 0.267552 0.166352 0.415241
707 4 0.325013 0.201289 0.351987
706 2 0.337114 0.181134 0.360502
466 2 0.3655 0.233472 0.399931
467 4 0.372917 0.210798 0.407419
514 2 0.472076 0.1851 0.356407
406 2 0.0163072 0.314834 0.350444
408 4 0.0213121 0.301233 0.370819
347 4 0.0680112 0.328104 0.380627
275 4 0.13801 0.322118 0.355944
617 4 0.126963 0.340315 0.35926
274 2 0.162141 0.317495 0.360578
276 4 0.186273 0.312872 0.365212
373 2 0.20356 0.28442 0.388674
375 4 0.191223 0.294174 0.369235
374 4 0.215896 0.274666 0.408112
615 4 0.405727 0.331055 0.337957
267 4 0.359323 0.274854 0.400887
468 4 0.358082 0.256145 0.392442
265 2 0.340033 0.286101 0.412139
751 2 0.478342 0.328958 0.326326
752 4 0.49058 0.329479 0.348124
777 4 0.0313811 0.40419 0.332476
346 2 0.0595154 0.334054 0.403378
775 2 0.047932 0.421435 0.339814
616 2 0.105904 0.338635 0.372634
618 4 0.084845 0.336956 0.386008
433 2 0.203817 0.347966 0.342146
434 4 0.196432 0.358839 0.363417
502 2 0.308988 0.411846 0.41088
613 2 0.427226 0.340744 0.346268
614 4 0.448726 0.350432 0.354578
776 4 0.0644829 0.438681 0.347152
414 4 0.064663 0.457986 0.341847
413 4 0.104388 0.48693 0.332635
412 2 0.0845256 0.472458 0.337241
503 4 0.322957 0.431358 0.403854
594 4 0.386937 0.503878 0.39866
436 2 0.372362 0.455337 0.335877
438 4 0.371078 0.47807 0.346209
669 4 0.325075 0.449602 0.396993
240 4 0.407155 0.428311 0.397011
335 4 0.387897 0.428225 0.401033
336 4 0.338998 0.43649 0.394609
334 2 0.363448 0.432357 0.397821
3990 4 0.497105 0.48694 0.379728
2236 2 0.00651237 0.050117 0.412591
1127 4 0.0103763 0.0518502 0.453429
2237 4 0.0141848 0.0571482 0.435326
720 4 0.0240506 0.0657936 0.449643
2429 4 0.242479 0.998027 0.492607
961 2 0.273145 0.00656699 0.481654
724 2 0.291228 0.0589321 0.474601
726 4 0.281227 0.0779611 0.461831
725 4 0.301228 0.039903 0.48737
963 4 0.292127 0.0223572 0.485596
432 4 0.311533 0.0238799 0.49007
1579 2 0.387318 0.0163581 0.415214
2879 4 0.419043 0.0314718 0.477917
642 4 0.461243 0.0673063 0.452538
2878 2 0.432713 0.0516359 0.472284
2880 4 0.446383 0.0717999 0.466652
718 2 0.0344677 0.0884533 0.447853
719 4 0.0448847 0.111113 0.446062
939 4 0.0929291 0.142009 0.485333
1033 2 0.117108 0.142019 0.462838
1035 4 0.142062 0.142807 0.461481
261 4 0.162021 0.142011 0.46451
1034 4 0.0921533 0.141232 0.464196
259 2 0.170776 0.16429 0.457287
1181 4 0.299198 0.120308 0.420769
1182 4 0.295476 0.0921702 0.461941
1180 2 0.297337 0.106239 0.441355
576 4 0.469028 0.124947 0.425962
640 2 0.468722 0.0903349 0.446299
641 4 0.476201 0.113363 0.440061
306 4 0.479239 0.133026 0.440724
304 2 0.47152 0.146825 0.460094
3158 4 0.461027 0.154526 0.498486
305 4 0.463801 0.160623 0.479464
694 2 0.16208 0.21743 0.471541
696 4 0.145343 0.234156 0.479621
695 4 0.178818 0.200705 0.463461
260 4 0.179532 0.186569 0.450065
472 2 0.240217 0.24621 0.42945
687 4 0.241408 0.213074 0.444735
686 4 0.19601 0.195532 0.456226
685 2 0.218709 0.204303 0.450481
489 4 0.314004 0.240048 0.428679
599 4 0.257454 0.209305 0.438773
474 4 0.251781 0.225864 0.438253
411 4 0.256154 0.218874 0.453366
598 2 0.262503 0.187828 0.427007
409 2 0.262394 0.221197 0.477467
488 4 0.269171 0.222142 0.441719
487 2 0.291588 0.231095 0.435199
2812 2 0.0185306 0.335276 0.442583
473 4 0.228652 0.266556 0.420647
813 4 0.24884 0.333943 0.4663
811 2 0.256905 0.337645 0.489676
266 4 0.320744 0.297347 0.423392
348 4 0.0510197 0.340004 0.426129
2813 4 0.0417077 0.344654 0.442324
326 4 0.0569039 0.354705 0.438451
325 2 0.0696026 0.374436 0.447088
327 4 0.0823014 0.394167 0.455726
7 3 0.0914354 0.390802 0.472689
6 1 0.111926 0.38476 0.481221
711 4 0.138804 0.413417 0.491755
8 3 0.125937 0.403252 0.480891
709 2 0.161874 0.414831 0.482218
10 3 0.12075 0.368096 0.46845
504 4 0.29502 0.392334 0.417905
1383 4 0.0690233 0.478108 0.47116
680 4 0.0527273 0.467931 0.477819
1381 2 0.0704014 0.496558 0.45434
679 2 0.0621755 0.450992 0.493599
384 4 0.137359 0.423437 0.507168
634 2 0.190667 0.453191 0.454162
636 4 0.186662 0.474638 0.441949
635 4 0.194671 0.431744 0.466375
710 4 0.184944 0.416245 0.472681
774 4 0.20023 0.421698 0.482942
4 3 0.310717 0.491012 0.443237
668 4 0.325928 0.481485 0.435509
667 2 0.325501 0.465544 0.416251
587 4 0.409534 0.429423 0.498366
586 2 0.409597 0.438613 0.475112
588 4 0.409659 0.447802 0.451858
238 2 0.415451 0.432939 0.420139
239 4 0.423747 0.437567 0.443268
1184 4 0.0138734 0.0300752 0.562269
342 4 0.146086 0.0419338 0.522254
1152 4 0.141478 0.0600799 0.530674
1150 2 0.151967 0.0686849 0.551677
1151 4 0.162455 0.0772898 0.57268
340 2 0.166806 0.0355716 0.509789
341 4 0.187526 0.0292094 0.497323
2430 4 0.202632 0.0225088 0.510314
2428 2 0.222555 0.010268 0.501461
430 2 0.323427 0.0109467 0.507859
841 2 0.35849 0.0229976 0.548881
842 4 0.375106 0.0402362 0.556088
1216 2 0.412049 0.0150044 0.5638
1217 4 0.394239 0.0311302 0.556876
843 4 0.341875 0.00575891 0.541673
3009 4 0.477389 0.0414642 0.578589
1061 4 0.496863 0.0728509 0.525252
1218 4 0.429859 0.998879 0.570724
879 4 0.0552089 0.15145 0.533351
877 2 0.030725 0.146383 0.533145
878 4 0.00624114 0.141316 0.532939
938 4 0.0646328 0.163384 0.520591
937 2 0.0787809 0.152696 0.502962
1199 4 0.992718 0.148547 0.54541
3159 4 0.454996 0.11599 0.529781
3157 2 0.458012 0.135258 0.514133
1062 4 0.456991 0.0994613 0.539494
1060 2 0.476927 0.0861561 0.532373
1272 4 0.0580581 0.170224 0.53766
1270 2 0.0625732 0.184842 0.557436
1271 4 0.0670884 0.19946 0.577213
1258 2 0.145905 0.225124 0.523083
1259 4 0.145601 0.219619 0.547471
1260 4 0.146209 0.23063 0.498695
898 2 0.295103 0.214263 0.533546
899 4 0.313839 0.20751 0.548664
857 4 0.308951 0.198041 0.563892
856 2 0.309903 0.188054 0.586795
791 4 0.327355 0.206263 0.562784
900 4 0.276367 0.221016 0.518428
410 4 0.268633 0.223521 0.501567
790 2 0.346428 0.22243 0.563026
792 4 0.3655 0.238597 0.563268
872 4 0.378923 0.250507 0.555929
651 4 0.296635 0.336806 0.565109
806 4 0.314252 0.334128 0.575337
649 2 0.278541 0.33652 0.547854
650 4 0.260448 0.336234 0.530599
812 4 0.264971 0.341347 0.513051
1238 4 0.371649 0.253114 0.574173
871 2 0.377818 0.262688 0.534121
873 4 0.376714 0.274869 0.512313
1135 2 0.126512 0.366255 0.578734
1136 4 0.108872 0.352001 0.589259
897 4 0.150813 0.381166 0.588444
9 3 0.109085 0.377362 0.50303
1137 4 0.144153 0.38051 0.568208
773 4 0.228919 0.41356 0.523084
1189 2 0.215354 0.412908 0.563236
1190 4 0.22986 0.412673 0.542871
803 4 0.232726 0.39664 0.532984
802 2 0.242282 0.374072 0.528028
804 4 0.251838 0.351505 0.523072
772 2 0.214574 0.417629 0.503013
1191 4 0.200848 0.413144 0.5836
930 4 0.245661 0.411594 0.532266
925 2 0.412322 0.391715 0.520759
927 4 0.413039 0.368217 0.529273
539 4 0.0730726 0.505495 0.522279
681 4 0.0716237 0.434054 0.509378
1161 4 0.162792 0.510882 0.582484
383 4 0.0901827 0.439721 0.510331
382 2 0.113771 0.431579 0.508749
569 4 0.153392 0.436536 0.508202
2243 4 0.150313 0.500464 0.571109
568 2 0.162584 0.449805 0.527296
570 4 0.171777 0.463074 0.546391
928 2 0.267373 0.423879 0.530579
929 4 0.289086 0.436164 0.528892
1951 2 0.30511 0.47549 0.532442
1953 4 0.302155 0.450812 0.52971
1952 4 0.308065 0.500167 0.535173
926 4 0.411605 0.415214 0.512245
663 4 0.401806 0.431987 0.515673
1000 2 0.396147 0.499733 0.554452
661 2 0.40876 0.451686 0.529413
1001 4 0.41677 0.485617 0.555227
662 4 0.415715 0.471384 0.543152
1911 4 0.426157 0.46821 0.559371
1332 4 0.43332 0.480989 0.546964
1330 2 0.45301 0.495579 0.542002
2375 4 0.158585 0.0119161 0.612741
1155 4 0.156935 0.0872723 0.587713
1059 4 0.166185 0.0709737 0.590547
1057 2 0.169015 0.0489425 0.602028
1058 4 0.171845 0.0269114 0.613508
949 2 0.28835 0.022831 0.613486
951 4 0.288223 0.0414492 0.630175
1031 4 0.291477 0.0364805 0.650062
950 4 0.288477 0.00421287 0.596797
3007 2 0.487688 0.0599701 0.591879
43 3 0.443552 0.0523975 0.660128
1154 4 0.156015 0.134814 0.603194
1153 2 0.156475 0.111043 0.595453
1221 4 0.159621 0.147236 0.619137
888 4 0.253159 0.170256 0.667539
808 2 0.486269 0.086041 0.643705
809 4 0.491972 0.0907054 0.619812
3008 4 0.497988 0.0784761 0.605169
1244 4 0.085681 0.191097 0.580611
1245 4 0.106931 0.193526 0.625814
1243 2 0.0963057 0.192311 0.603213
1209 4 0.107172 0.176985 0.638167
1207 2 0.104205 0.17015 0.662035
1219 2 0.179262 0.159928 0.610287
1210 2 0.225633 0.176908 0.632722
1212 4 0.211419 0.183178 0.61313
1220 4 0.198903 0.17262 0.601438
797 4 0.193688 0.241009 0.607207
796 2 0.194671 0.21605 0.606094
798 4 0.195654 0.19109 0.604982
1211 4 0.239847 0.170639 0.652313
858 4 0.310856 0.178068 0.609697
3121 2 0.47533 0.220192 0.622928
3122 4 0.483531 0.196595 0.623984
3357 4 0.483048 0.191625 0.642373
3355 2 0.496053 0.172502 0.651878
3123 4 0.467128 0.243788 0.621872
982 2 0.0273019 0.317765 0.628811
984 4 0.0442589 0.327917 0.644127
805 2 0.321178 0.311228 0.582603
1237 2 0.357907 0.269732 0.586828
807 4 0.328105 0.288329 0.58987
1239 4 0.344164 0.286351 0.599483
906 4 0.447527 0.300821 0.618927
905 4 0.469091 0.258669 0.635017
904 2 0.458309 0.279745 0.626972
953 4 0.461887 0.314427 0.611026
952 2 0.479732 0.330121 0.603252
1041 4 0.0618271 0.335849 0.644727
1039 2 0.0701395 0.356676 0.633668
1040 4 0.0784518 0.377503 0.622609
993 4 0.0668438 0.391169 0.615956
991 2 0.0465456 0.405656 0.617775
895 2 0.172727 0.392069 0.593551
896 4 0.194641 0.402971 0.598658
1028 4 0.197313 0.396441 0.664599
1027 2 0.19906 0.402783 0.640477
1029 4 0.200806 0.409125 0.616354
954 4 0.497577 0.345815 0.595479
992 4 0.0262473 0.420142 0.619593
1172 4 0.20078 0.421053 0.601565
1159 2 0.17728 0.49655 0.59697
1160 4 0.191769 0.482218 0.611456
1171 2 0.203595 0.445629 0.605209
1173 4 0.206409 0.470205 0.608853
1187 4 0.202529 0.476458 0.626695
1186 2 0.19042 0.476347 0.64857
1909 2 0.429921 0.455692 0.580685
1206 4 0.497105 0.422839 0.61249
1268 4 0.444492 0.49241 0.649383
1267 2 0.441153 0.473036 0.633934
1204 2 0.473948 0.43217 0.611129
1910 4 0.433686 0.443174 0.602
1269 4 0.437814 0.453661 0.618485
1205 4 0.45079 0.441501 0.609768
1284 4 0.113153 0.0429618 0.710288
1282 2 0.119958 0.0662399 0.704205
2047 2 0.14483 0.0106735 0.740204
2048 4 0.120215 0.00655118 0.738697
2256 4 0.18563 0.00426175 0.744365
2049 4 0.169445 0.0147958 0.741712
1201 2 0.190761 0.045525 0.728364
1202 4 0.18716 0.0232951 0.739229
1203 4 0.194361 0.0677549 0.717499
1226 4 0.192962 0.0799721 0.701634
1030 2 0.293436 0.0475505 0.672395
1032 4 0.295395 0.0586205 0.694729
1005 4 0.320995 0.0146026 0.702769
1003 2 0.330193 0.996971 0.687613
810 4 0.480567 0.0813765 0.667599
45 3 0.452278 0.0400118 0.694597
41 1 0.450503 0.0584942 0.68141
1163 4 0.490168 0.0720826 0.681469
44 3 0.470959 0.0693838 0.680246
42 3 0.43496 0.0728164 0.69049
1077 4 0.0300056 0.106031 0.739855
1075 2 0.0095608 0.099488 0.727034
864 4 0.0486697 0.110795 0.744879
909 4 0.112149 0.153693 0.698714
907 2 0.121709 0.130685 0.700817
908 4 0.131269 0.107677 0.70292
1283 4 0.126763 0.089518 0.698123
1227 4 0.145593 0.0955751 0.697972
1225 2 0.169278 0.0877736 0.699803
851 4 0.0980836 0.165278 0.705279
1148 4 0.208371 0.0805751 0.713438
1147 2 0.21757 0.1002 0.725905
1149 4 0.22677 0.119825 0.738371
829 2 0.324588 0.152983 0.70373
830 4 0.301398 0.157403 0.711967
831 4 0.347779 0.148563 0.695493
1142 4 0.364352 0.142297 0.706053
1141 2 0.384071 0.156678 0.711489
1143 4 0.403789 0.171059 0.716925
1025 4 0.461702 0.13308 0.713899
3424 2 0.477959 0.109866 0.694344
3426 4 0.478202 0.0863135 0.685953
3425 4 0.477717 0.133418 0.702736
3269 4 0.480402 0.131856 0.7216
1024 2 0.441667 0.148035 0.714232
3268 2 0.486698 0.139238 0.744644
1026 4 0.421632 0.162991 0.714566
845 4 0.443639 0.107354 0.735907
852 4 0.0532577 0.174986 0.725206
1214 4 0.0337438 0.172191 0.720807
850 2 0.0756707 0.170132 0.715242
1213 2 0.0107764 0.179792 0.727124
1208 4 0.101238 0.163314 0.685902
1107 4 0.113817 0.173482 0.696763
1105 2 0.128222 0.184908 0.713707
1106 4 0.142627 0.196335 0.730651
1130 4 0.162166 0.193212 0.733401
887 4 0.289268 0.169537 0.702128
978 4 0.29219 0.171445 0.721173
886 2 0.271213 0.169896 0.684833
976 2 0.29327 0.186972 0.740741
916 2 0.293214 0.240897 0.745229
1192 2 0.415699 0.198575 0.688696
1194 4 0.416733 0.179984 0.705384
1262 4 0.419577 0.179013 0.724705
1193 4 0.414666 0.217166 0.672008
1261 2 0.425516 0.188053 0.747247
3263 4 0.0555073 0.326704 0.659961
3262 2 0.0664961 0.327477 0.682408
3264 4 0.0774848 0.328249 0.704854
893 4 0.0769446 0.323802 0.723738
779 4 0.0898976 0.314499 0.711858
778 2 0.110797 0.30339 0.719919
780 4 0.131696 0.292281 0.727981
1065 4 0.232485 0.32816 0.680971
1063 2 0.2438 0.305994 0.683386
1064 4 0.255116 0.283829 0.685802
947 4 0.301921 0.279363 0.728242
946 2 0.287816 0.284419 0.708226
948 4 0.27371 0.289474 0.688209
917 4 0.297055 0.260263 0.729887
1008 4 0.470127 0.284829 0.701317
1006 2 0.466532 0.275251 0.724132
1007 4 0.462938 0.265672 0.746947
892 2 0.0690469 0.336096 0.744028
941 4 0.163528 0.380912 0.735775
940 2 0.146351 0.384235 0.753638
1067 4 0.163063 0.390425 0.718086
1066 2 0.170885 0.393952 0.694601
1068 4 0.178707 0.397479 0.671116
1019 4 0.384374 0.411159 0.742517
1176 4 0.137207 0.462534 0.719225
1174 2 0.154359 0.462054 0.701039
1188 4 0.178311 0.476236 0.670446
1175 4 0.171511 0.461573 0.682852
1139 4 0.304675 0.485109 0.687132
1138 2 0.308428 0.464251 0.7004
1140 4 0.312182 0.443392 0.713667
1989 4 0.320634 0.444211 0.731142
1229 4 0.328529 0.433409 0.71592
1100 4 0.394104 0.415963 0.72653
1228 2 0.351491 0.424972 0.721088
1230 4 0.374454 0.416535 0.726256
1099 2 0.406261 0.437729 0.724623
2168 4 0.464809 0.493502 0.65148
1101 4 0.418418 0.459495 0.722716
3330 4 0.431768 0.454644 0.708805
3328 2 0.452648 0.450318 0.695747
1251 4 0.434405 0.4707 0.719737
3329 4 0.473528 0.445993 0.682689
1249 2 0.437371 0.481247 0.742212
785 4 0.0266168 0.0616351 0.830544
834 4 0.0461745 0.0677264 0.829386
1113 4 0.382636 0.0744386 0.78222
974 4 0.345536 0.038082 0.840263
979 2 0.41421 0.00386862 0.822676
980 4 0.42839 0.00396115 0.802082
2321 4 0.446146 0.0115376 0.803669
2322 4 0.452895 0.049072 0.771322
2320 2 0.44952 0.0303048 0.787495
846 4 0.445724 0.0682336 0.766987
862 2 0.0548267 0.115543 0.768643
863 4 0.0609836 0.120292 0.792407
833 4 0.0473974 0.107547 0.799162
1125 4 0.0559671 0.120233 0.810857
1123 2 0.068744 0.138264 0.822555
832 2 0.046786 0.0876369 0.814274
1257 4 0.223098 0.112665 0.756676
1255 2 0.219416 0.113737 0.781384
921 4 0.212553 0.128517 0.819579
919 2 0.196763 0.146805 0.826014
840 4 0.230514 0.120816 0.81709
1256 4 0.215734 0.114808 0.806092
838 2 0.251317 0.123194 0.830757
1111 2 0.374772 0.0933079 0.796617
1112 4 0.366907 0.112177 0.811014
818 4 0.3675 0.110948 0.831323
844 2 0.444682 0.0877938 0.751447
3270 4 0.492995 0.146619 0.767688
1146 4 0.489169 0.163996 0.774208
1129 2 0.167509 0.204713 0.754949
34 3 0.13085 0.176119 0.825554
1131 4 0.172853 0.216215 0.776498
1277 4 0.1648 0.211333 0.792739
1276 2 0.16739 0.196227 0.812495
822 4 0.180795 0.223041 0.79288
977 4 0.294349 0.202499 0.76031
918 4 0.289373 0.221532 0.760572
1298 4 0.303091 0.214768 0.771816
1297 2 0.316955 0.21016 0.792107
1299 4 0.330819 0.205552 0.812398
1086 4 0.347505 0.207993 0.822743
50 3 0.401568 0.205024 0.797023
46 1 0.42398 0.201749 0.799394
49 3 0.435424 0.221259 0.794219
1043 4 0.443064 0.210867 0.777354
48 3 0.428778 0.195286 0.821157
47 3 0.430768 0.185113 0.785029
1263 4 0.431456 0.197094 0.76979
1145 4 0.447994 0.191901 0.779372
1144 2 0.468582 0.177949 0.77679
1042 2 0.455324 0.229698 0.766386
3275 4 0.0167088 0.337319 0.799435
3188 4 0.989597 0.266887 0.754245
3187 2 0.988665 0.275487 0.777705
1236 4 0.243385 0.324829 0.758905
821 4 0.183025 0.272918 0.795706
820 2 0.18191 0.24798 0.794293
1044 4 0.467584 0.248528 0.755418
1165 2 0.496208 0.269016 0.772174
1166 4 0.480454 0.262923 0.753739
894 4 0.0611492 0.348389 0.764317
3276 4 0.0483742 0.361781 0.769441
3274 2 0.0325415 0.34955 0.784438
816 4 0.0666716 0.364169 0.774983
814 2 0.0885186 0.376256 0.77633
942 4 0.129175 0.387558 0.771502
815 4 0.110366 0.388342 0.777677
1080 4 0.12491 0.390162 0.790124
1078 2 0.137422 0.390375 0.811771