ITEM: TIMESTEP
3200000
ITEM: NUMBER OF ATOMS
4590
ITEM: BOX BOUNDS pp pp pp
-9.9985700000000008e+00 9.9985700000000008e+00
-9.9985700000000008e+00 9.9985700000000008e+00
-9.9985700000000008e+00 9.9985700000000008e+00
ITEM: ATOMS id type xs ys zs
465 4 0.0888053 0.0921651 0.0290726
1805 4 0.0610845 0.000354323 0.072408
701 4 0.0943364 0.0770904 0.0401533
700 2 0.117197 0.0709952 0.0320649
702 4 0.140058 0.0649 0.0239764
566 4 0.148641 0.0632984 0.00483716
746 4 0.485218 0.0422357 0.0393298
2469 4 0.492019 0.0393634 0.0570417
745 2 0.475393 0.0496325 0.01756
747 4 0.465567 0.0570292 0.99579
463 2 0.064808 0.0964197 0.0346589
464 4 0.0408107 0.100674 0.0402452
590 4 0.0231279 0.104308 0.0477372
589 2 0.00805347 0.101183 0.0674394
579 4 0.121192 0.153122 0.080971
558 4 0.35785 0.128159 0.0438531
556 2 0.350749 0.110921 0.0605144
866 4 0.358389 0.144029 0.0326576
865 2 0.359498 0.168959 0.0342256
827 4 0.37035 0.128562 0.0286195
557 4 0.343647 0.093683 0.0771757
826 2 0.383527 0.113853 0.0132836
554 4 0.0352614 0.231958 0.039682
553 2 0.0599135 0.227862 0.0388625
555 4 0.0845656 0.223765 0.038043
835 2 0.114808 0.220301 0.0124386
836 4 0.0983633 0.212399 0.0295355
666 4 0.337069 0.244595 0.0733818
573 4 0.318444 0.24736 0.0705471
664 2 0.349145 0.225757 0.062226
665 4 0.361221 0.206918 0.0510702
867 4 0.360608 0.193888 0.0357935
1070 4 0.400383 0.237587 0.0556454
2808 4 0.0450988 0.286452 0.0526167
2806 2 0.0211846 0.286755 0.0599105
2807 4 0.99727 0.287058 0.0672043
293 4 0.117364 0.326479 0.0706161
356 4 0.321489 0.312546 0.054337
572 4 0.314712 0.296966 0.0654458
355 2 0.308282 0.327411 0.0391789
571 2 0.316578 0.272163 0.0679964
1069 2 0.415093 0.252841 0.0689166
1071 4 0.429802 0.268095 0.0821877
620 4 0.0134927 0.378107 0.0783051
647 4 0.0325525 0.369513 0.0777706
507 4 0.127612 0.340685 0.0624008
505 2 0.145011 0.356995 0.054885
483 4 0.174625 0.375397 0.0314032
506 4 0.162409 0.373304 0.0473692
481 2 0.193565 0.391593 0.0293645
609 4 0.231421 0.403027 0.0330753
482 4 0.212505 0.407788 0.0273259
357 4 0.295074 0.342277 0.0240208
902 4 0.296448 0.358634 0.0136501
607 2 0.253302 0.412783 0.0259189
957 4 0.403846 0.410748 0.0202232
741 4 0.398252 0.378823 0.0765669
671 4 0.490306 0.373317 0.0811019
280 2 0.497868 0.413633 0.0683674
550 2 0.0697998 0.446498 0.0688427
552 4 0.0781062 0.470054 0.0699743
1787 4 0.0802451 0.486801 0.059948
1786 2 0.0628377 0.500832 0.0487549
551 4 0.0614934 0.422941 0.067711
242 4 0.0782023 0.487618 0.0787808
244 2 0.249499 0.478386 0.0454802
245 4 0.244118 0.461362 0.0629845
627 4 0.232334 0.446265 0.0707894
625 2 0.221854 0.424166 0.0759835
608 4 0.275184 0.422538 0.0187625
246 4 0.254879 0.495411 0.0279759
272 4 0.262083 0.484816 0.0136845
252 4 0.272479 0.441761 0.0235637
250 2 0.294893 0.45248 0.0263674
251 4 0.317308 0.4632 0.0291711
2289 4 0.335475 0.466787 0.0235872
2287 2 0.340087 0.488883 0.0128319
226 2 0.471657 0.467692 0.0697256
227 4 0.486765 0.454529 0.0547712
228 4 0.456548 0.480856 0.08468
282 4 0.49646 0.436355 0.058029
525 4 0.437892 0.48158 0.0830425
16 1 0.0657854 0.0494948 0.133423
20 3 0.0530293 0.0616554 0.119
18 3 0.0693917 0.0282484 0.124822
19 3 0.0552112 0.0480107 0.154024
1806 4 0.0778487 0.032673 0.106689
380 4 0.0669312 0.0614461 0.164778
1804 2 0.0694666 0.0165136 0.0895485
17 3 0.0860937 0.0599296 0.136223
675 4 0.0857737 0.0622371 0.156189
673 2 0.106989 0.0559466 0.167831
652 2 0.326926 0.0236354 0.142485
654 4 0.305457 0.0109568 0.144363
296 4 0.344144 0.0761425 0.0865634
653 4 0.348395 0.036314 0.140607
484 2 0.374898 0.0111489 0.116015
297 4 0.353306 0.0419718 0.121907
485 4 0.360987 0.0262506 0.130284
295 2 0.348725 0.0590571 0.104235
237 4 0.153029 0.154696 0.134804
577 2 0.135131 0.160258 0.100464
578 4 0.14907 0.167393 0.119956
235 2 0.161313 0.133161 0.144439
236 4 0.169597 0.111627 0.154074
691 2 0.206336 0.0965107 0.151691
692 4 0.226761 0.0882345 0.139881
582 4 0.241313 0.102721 0.145078
449 4 0.167918 0.100318 0.169094
580 2 0.265384 0.108028 0.149275
581 4 0.289455 0.113336 0.153472
30 3 0.308021 0.114505 0.155605
285 4 0.313536 0.164532 0.150425
29 3 0.313723 0.15065 0.164476
26 1 0.319093 0.128663 0.16959
771 4 0.414346 0.144935 0.10153
27 3 0.341756 0.125737 0.166949
737 4 0.167241 0.165968 0.127611
476 4 0.152307 0.174297 0.137549
475 2 0.136212 0.186917 0.151932
736 2 0.185198 0.181282 0.119352
738 4 0.203156 0.196596 0.111094
461 4 0.323555 0.238994 0.0871108
354 4 0.310894 0.228488 0.149166
462 4 0.319042 0.223698 0.134507
460 2 0.321299 0.231346 0.110809
352 2 0.290935 0.235145 0.162674
283 2 0.31709 0.189273 0.149791
284 4 0.320645 0.214015 0.149157
255 4 0.328496 0.229683 0.148103
253 2 0.346479 0.236073 0.164257
769 2 0.430819 0.163147 0.106234
770 4 0.447291 0.18136 0.110939
1014 4 0.463183 0.191403 0.103547
1013 4 0.474523 0.238165 0.117166
1012 2 0.468853 0.214784 0.110356
311 4 0.472343 0.209957 0.195657
455 4 0.0510397 0.318402 0.154789
454 2 0.0648685 0.329572 0.137205
749 4 0.0335961 0.311081 0.159605
610 2 0.235 0.330063 0.119949
612 4 0.244042 0.307175 0.12437
756 4 0.242808 0.29078 0.136888
754 2 0.253126 0.27439 0.152703
323 4 0.446022 0.328252 0.107902
322 2 0.436896 0.308241 0.0960075
324 4 0.427771 0.28823 0.0841134
519 4 0.480235 0.255538 0.110353
517 2 0.489473 0.264964 0.13159
456 4 0.0786972 0.340741 0.119621
648 4 0.063943 0.343825 0.107019
646 2 0.0482478 0.356669 0.0923948
294 4 0.0826101 0.345315 0.101244
292 2 0.0999872 0.335897 0.0859302
626 4 0.211374 0.402067 0.0811777
536 4 0.199752 0.401144 0.0985919
611 4 0.225958 0.352951 0.115529
535 2 0.20293 0.378783 0.109317
537 4 0.206107 0.356421 0.120043
387 4 0.328898 0.413545 0.131319
739 2 0.395265 0.386224 0.100263
740 4 0.392278 0.393625 0.123958
385 2 0.353184 0.407651 0.132106
386 4 0.37747 0.401756 0.132893
495 4 0.394928 0.406436 0.139481
15 3 0.380366 0.382151 0.134593
11 1 0.393641 0.381067 0.153066
12 3 0.407858 0.363087 0.151135
14 3 0.406266 0.40045 0.15489
670 2 0.471771 0.35788 0.087685
672 4 0.453236 0.342443 0.094268
241 2 0.0943442 0.491439 0.0974896
243 4 0.110486 0.49526 0.116198
1440 4 0.123697 0.483442 0.105534
1438 2 0.148418 0.48104 0.10266
1439 4 0.17314 0.478637 0.0997867
639 4 0.191835 0.47155 0.0995345
637 2 0.216355 0.476274 0.100815
638 4 0.240875 0.480998 0.102096
303 4 0.31456 0.47492 0.102011
768 4 0.298202 0.47511 0.0914646
301 2 0.320811 0.452334 0.110728
302 4 0.327061 0.429748 0.119445
766 2 0.275804 0.485668 0.0949381
767 4 0.253407 0.496226 0.0984117
493 2 0.404972 0.42872 0.134216
660 4 0.413814 0.462653 0.144135
494 4 0.415016 0.451004 0.12895
524 4 0.415146 0.470579 0.126197
523 2 0.426519 0.476079 0.10462
658 2 0.427328 0.473671 0.162055
379 2 0.0570928 0.0819085 0.175251
674 4 0.128204 0.0496561 0.179473
450 4 0.145259 0.0570197 0.179704
1505 4 0.137729 0.0487041 0.196588
1504 2 0.145325 0.0316077 0.213176
448 2 0.156588 0.0786688 0.174399
1506 4 0.152921 0.0145112 0.229765
689 4 0.168814 0.0015566 0.232072
632 4 0.381144 0.0484824 0.245402
22 3 0.396283 0.0132836 0.201309
21 1 0.405344 0.00112567 0.218607
757 2 0.453421 0.028645 0.216459
25 3 0.418872 0.0146299 0.230987
759 4 0.434596 0.0258112 0.23267
758 4 0.472245 0.0314787 0.200249
350 4 0.432983 0.01083 0.244631
512 4 0.0589643 0.117849 0.192502
381 4 0.0472543 0.102371 0.185723
511 2 0.0589784 0.142851 0.192775
513 4 0.0589925 0.167853 0.193049
693 4 0.18591 0.104787 0.163502
28 3 0.313451 0.124049 0.191619
339 4 0.0626025 0.186735 0.185153
477 4 0.120117 0.199536 0.166316
337 2 0.0874081 0.189665 0.184022
363 4 0.113858 0.211606 0.180958
338 4 0.112214 0.192595 0.18289
362 4 0.138683 0.246221 0.207154
361 2 0.126271 0.228914 0.194056
370 2 0.145416 0.245574 0.245185
353 4 0.270975 0.241802 0.176182
628 2 0.392773 0.211556 0.195478
630 4 0.37613 0.229364 0.189905
254 4 0.364462 0.242464 0.180411
765 4 0.383671 0.245811 0.183473
629 4 0.409416 0.193747 0.201051
312 4 0.427239 0.188493 0.193268
310 2 0.449791 0.199225 0.194462
761 4 0.451642 0.192717 0.228474
750 4 0.033714 0.297056 0.207605
395 4 0.0386586 0.281396 0.218593
748 2 0.0336551 0.304069 0.183605
394 2 0.0336995 0.283793 0.242982
372 4 0.139894 0.258041 0.224227
300 4 0.146527 0.315791 0.169832
298 2 0.139065 0.32134 0.193042
299 4 0.131602 0.326889 0.216252
755 4 0.263444 0.258001 0.168518
278 4 0.271945 0.257842 0.186068
277 2 0.272665 0.273666 0.205414
279 4 0.273386 0.28949 0.22476
401 4 0.263607 0.307105 0.222932
496 2 0.301266 0.323613 0.203722
498 4 0.27974 0.315326 0.213373
763 2 0.397222 0.265331 0.191252
764 4 0.410774 0.284851 0.199031
528 4 0.496001 0.310983 0.194083
624 4 0.477391 0.303382 0.190037
622 2 0.453523 0.29637 0.192558
623 4 0.429656 0.289358 0.195078
262 2 0.0553972 0.406825 0.222099
264 4 0.0334488 0.418799 0.222389
263 4 0.0773457 0.394852 0.221809
2618 4 0.0160895 0.410848 0.217668
734 4 0.124924 0.334178 0.232134
602 4 0.0831926 0.373628 0.219728
601 2 0.10394 0.35974 0.218363
603 4 0.124687 0.345853 0.216999
290 4 0.176203 0.40346 0.239703
289 2 0.175269 0.418641 0.219857
497 4 0.322793 0.331899 0.194071
308 4 0.331101 0.347496 0.187035
307 2 0.346947 0.366289 0.182462
309 4 0.362793 0.385082 0.17789
13 3 0.380585 0.378302 0.172047
291 4 0.174336 0.433822 0.200011
416 4 0.192216 0.434407 0.190229
415 2 0.197034 0.458753 0.187189
1430 4 0.218904 0.481519 0.193049
417 4 0.201852 0.483099 0.184149
231 4 0.437255 0.499502 0.191852
597 4 0.488994 0.45964 0.206511
596 4 0.456029 0.493127 0.189405
659 4 0.440843 0.48469 0.179975
595 2 0.472511 0.476383 0.197958
1799 4 0.00535968 0.01217 0.302542
233 4 0.0106536 0.030718 0.30175
1402 2 0.0456077 0.0267162 0.307061
1403 4 0.0228375 0.0166038 0.309167
1404 4 0.0683779 0.0368286 0.304954
633 4 0.387928 0.0328656 0.292421
631 2 0.384536 0.040674 0.268911
257 4 0.369867 0.0324279 0.300425
698 4 0.378732 0.0159215 0.295524
256 2 0.360779 0.0469384 0.318647
349 2 0.443849 0.0115269 0.267139
744 4 0.469459 0.000704806 0.295345
742 2 0.484394 0.0145976 0.309806
351 4 0.454715 0.0122238 0.289647
743 4 0.499329 0.0284905 0.324266
399 4 0.0747616 0.115575 0.341815
393 4 0.0912277 0.157481 0.302098
398 4 0.101859 0.148661 0.315896
392 4 0.118569 0.162286 0.260504
391 2 0.104898 0.159883 0.281301
397 2 0.0883101 0.132118 0.328856
390 4 0.0900056 0.16344 0.321085
403 2 0.182626 0.162607 0.310253
2642 4 0.50813 0.140303 0.324949
444 4 0.0281892 0.248005 0.312233
388 2 0.0788346 0.185519 0.32468
545 4 0.1356 0.165489 0.250128
544 2 0.154085 0.17672 0.262672
371 4 0.150938 0.233106 0.266144
546 4 0.172569 0.187952 0.275217
723 4 0.227862 0.18548 0.251574
721 2 0.208454 0.188171 0.267106
405 4 0.178427 0.175708 0.289375
722 4 0.189045 0.190863 0.282638
420 4 0.384883 0.230944 0.282099
717 4 0.365203 0.22736 0.287041
418 2 0.407304 0.219885 0.282504
331 2 0.459657 0.203657 0.314773
332 4 0.444744 0.207133 0.295006
419 4 0.429725 0.208826 0.282909
760 2 0.44954 0.199181 0.252536
762 4 0.447439 0.205644 0.276598
333 4 0.474569 0.200181 0.334539
442 2 0.0217092 0.265942 0.296064
364 2 0.024125 0.320282 0.295917
396 4 0.0287404 0.28619 0.267372
443 4 0.0152292 0.28388 0.279895
365 4 0.0267257 0.299506 0.282249
735 4 0.150038 0.322464 0.273761
733 2 0.137481 0.328321 0.252948
508 2 0.235347 0.321036 0.302878
509 4 0.21525 0.325634 0.317025
510 4 0.255445 0.316439 0.288731
400 2 0.262254 0.307171 0.247899
378 4 0.304388 0.25611 0.319931
402 4 0.260901 0.307238 0.272866
345 4 0.266589 0.301306 0.29221
343 2 0.278073 0.28024 0.299246
344 4 0.289557 0.259173 0.306282
715 2 0.359915 0.249347 0.297708
716 4 0.354628 0.271334 0.308375
542 4 0.365733 0.288303 0.314217
541 2 0.379959 0.306186 0.324367
543 4 0.394185 0.324068 0.334517
751 2 0.490296 0.312974 0.322118
407 4 0.016985 0.345296 0.328329
366 4 0.0215242 0.341057 0.309585
548 4 0.0265718 0.357838 0.316695
547 2 0.0298943 0.380576 0.30684
549 4 0.0332167 0.403314 0.296985
777 4 0.0478992 0.412065 0.307743
2493 4 0.00803516 0.35387 0.313628
677 4 0.16655 0.332128 0.268138
676 2 0.182601 0.330484 0.287239
678 4 0.198653 0.328841 0.306339
435 4 0.208029 0.343424 0.313707
728 4 0.361896 0.39874 0.299114
727 2 0.363113 0.41794 0.315085
753 4 0.488733 0.324986 0.300245
2538 4 0.478351 0.341203 0.296932
2536 2 0.495184 0.357668 0.28852
2463 4 0.0100331 0.48774 0.309957
775 2 0.0542119 0.430613 0.323276
1543 2 0.140698 0.48383 0.323273
1545 4 0.159832 0.477597 0.308433
1544 4 0.121564 0.490064 0.338113
1436 4 0.170088 0.494983 0.31234
2861 4 0.49977 0.427561 0.31809
1772 4 0.00197095 0.0322663 0.387911
730 2 0.0833772 0.082469 0.352579
732 4 0.0965544 0.067168 0.367324
369 4 0.0833149 0.0538981 0.37277
367 2 0.0921291 0.0332498 0.383776
368 4 0.100943 0.0126015 0.394782
1782 4 0.0849001 0.00961061 0.405159
604 2 0.177094 0.00909562 0.377969
1701 4 0.187506 0.0477227 0.380346
1699 2 0.196465 0.0701875 0.374001
605 4 0.189298 0.0289262 0.38708
258 4 0.35169 0.0614488 0.336869
424 2 0.363533 0.0616623 0.373116
425 4 0.363646 0.0527142 0.396463
1580 4 0.37869 0.041066 0.402928
426 4 0.363421 0.0706103 0.349768
1579 2 0.386744 0.0175966 0.406011
478 2 0.496508 0.0483973 0.362444
480 4 0.490572 0.058998 0.384297
317 4 0.0563412 0.110408 0.336314
731 4 0.0702 0.09777 0.337834
316 2 0.0337224 0.116299 0.345195
318 4 0.0111036 0.12219 0.354075
458 4 0.00641034 0.138506 0.364295
457 2 0.00130517 0.162971 0.363546
249 4 0.18281 0.129125 0.332337
404 4 0.186825 0.149507 0.331132
247 2 0.200575 0.11613 0.3442
248 4 0.21834 0.103136 0.356062
1700 4 0.205423 0.0926522 0.367656
319 2 0.333254 0.14271 0.404592
708 4 0.331479 0.161325 0.378981
321 4 0.347826 0.15504 0.388443
516 4 0.465338 0.151112 0.377333
575 4 0.47057 0.146636 0.396468
574 2 0.460679 0.130313 0.412621
514 2 0.472963 0.167042 0.359634
459 4 0.9962 0.187436 0.362797
389 4 0.0676636 0.207597 0.328275
376 2 0.304256 0.234189 0.331959
377 4 0.304124 0.212269 0.343987
707 4 0.305346 0.192255 0.349635
706 2 0.318412 0.17679 0.364308
467 4 0.34609 0.243575 0.363444
466 2 0.346157 0.259734 0.382524
453 4 0.485935 0.199574 0.350869
515 4 0.480589 0.182973 0.341936
274 2 0.140708 0.302829 0.364276
276 4 0.157891 0.29209 0.378924
275 4 0.123524 0.313569 0.349628
375 4 0.173267 0.301044 0.385651
373 2 0.183804 0.286888 0.403365
374 4 0.194342 0.272733 0.421078
489 4 0.297685 0.252504 0.419487
615 4 0.405555 0.311813 0.34598
468 4 0.346225 0.275892 0.401605
267 4 0.352927 0.290921 0.414112
613 2 0.419025 0.307772 0.366654
752 4 0.491859 0.300963 0.343992
614 4 0.432494 0.30373 0.387328
406 2 0.0345625 0.341944 0.345792
408 4 0.05214 0.338592 0.363256
347 4 0.0597821 0.337488 0.381166
346 2 0.0518079 0.349868 0.401373
618 4 0.071338 0.335186 0.364593
617 4 0.118097 0.333789 0.34692
616 2 0.0947177 0.334488 0.355757
433 2 0.20159 0.356294 0.334155
434 4 0.195151 0.369163 0.354602
504 4 0.282747 0.399062 0.426675
502 2 0.304367 0.410906 0.422494
335 4 0.390947 0.406097 0.402072
334 2 0.367681 0.411605 0.409387
776 4 0.0605247 0.449161 0.33881
414 4 0.0782589 0.445374 0.34969
413 4 0.103181 0.487946 0.341493
412 2 0.09072 0.46666 0.345592
503 4 0.325987 0.422749 0.418314
729 4 0.36433 0.437139 0.331056
437 4 0.373961 0.432738 0.348175
336 4 0.344414 0.417114 0.416702
240 4 0.404563 0.418079 0.409934
436 2 0.382949 0.454814 0.355726
438 4 0.391938 0.476891 0.363277
593 4 0.399097 0.496205 0.363772
3988 2 0.475539 0.499594 0.359627
3990 4 0.489299 0.478726 0.360229
2236 2 0.00345715 0.0439748 0.422154
1126 2 0.010819 0.0437955 0.480395
1127 4 0.015964 0.0573876 0.460049
2237 4 0.0165858 0.0541845 0.440825
720 4 0.0283099 0.0674371 0.44851
1780 2 0.0847196 0.000923276 0.428604
1128 4 0.00567395 0.0302035 0.500741
2429 4 0.242862 0.0255533 0.496412
2428 2 0.22301 0.0178483 0.509515
962 4 0.259288 0.0140733 0.499848
961 2 0.282529 0.0216751 0.494625
724 2 0.321886 0.0565112 0.478038
963 4 0.305769 0.029277 0.489402
725 4 0.323399 0.0317381 0.481068
726 4 0.320373 0.0812843 0.475007
2879 4 0.413216 0.0101413 0.456476
642 4 0.448414 0.0582709 0.449434
2878 2 0.422558 0.0316924 0.447906
2880 4 0.4319 0.0532435 0.439336
469 2 0.00209204 0.144843 0.449225
470 4 0.0203199 0.136275 0.434408
718 2 0.0272251 0.0920195 0.44407
719 4 0.0261402 0.116602 0.439631
939 4 0.109289 0.14733 0.489613
1033 2 0.131788 0.13274 0.470212
1035 4 0.156423 0.129293 0.467679
1034 4 0.107153 0.136188 0.472745
261 4 0.171877 0.142013 0.468269
683 4 0.258681 0.155968 0.413917
320 4 0.318681 0.130379 0.42074
684 4 0.301935 0.135697 0.428714
682 2 0.280308 0.145832 0.421316
1181 4 0.316834 0.127986 0.439391
1182 4 0.309193 0.0976764 0.478425
1180 2 0.313013 0.112831 0.458908
640 2 0.453727 0.0825857 0.44704
576 4 0.450789 0.113989 0.428774
641 4 0.459041 0.106901 0.444645
306 4 0.448516 0.122348 0.446376
304 2 0.437439 0.132222 0.466501
3158 4 0.425802 0.137903 0.50599
305 4 0.426362 0.142096 0.486625
694 2 0.16096 0.208431 0.491569
696 4 0.142291 0.223651 0.498276
259 2 0.183885 0.163228 0.473832
695 4 0.17963 0.193211 0.484863
260 4 0.195892 0.184442 0.479395
687 4 0.232728 0.22319 0.452583
686 4 0.192829 0.202887 0.474868
685 2 0.212779 0.213038 0.463726
474 4 0.240917 0.233901 0.440942
599 4 0.246311 0.217401 0.442907
472 2 0.226707 0.250732 0.429111
600 4 0.256234 0.172363 0.423572
598 2 0.251272 0.194882 0.433239
411 4 0.248822 0.229547 0.455495
409 2 0.260174 0.229868 0.47777
488 4 0.257943 0.230625 0.440526
487 2 0.277814 0.241564 0.430007
410 4 0.271527 0.230189 0.500046
473 4 0.212498 0.267564 0.41728
266 4 0.343293 0.307738 0.460211
265 2 0.34811 0.29933 0.437161
873 4 0.384656 0.289741 0.503478
348 4 0.0438337 0.362248 0.42158
2812 2 0.0089415 0.341266 0.437781
2813 4 0.0271074 0.356614 0.430058
326 4 0.0341127 0.374305 0.434289
325 2 0.0544711 0.378593 0.448157
327 4 0.0748295 0.382881 0.462025
7 3 0.0875454 0.396223 0.468107
6 1 0.103622 0.38422 0.47936
709 2 0.14849 0.420737 0.484169
10 3 0.11416 0.370273 0.464762
8 3 0.118916 0.39901 0.48862
9 3 0.0933956 0.371867 0.49613
711 4 0.124557 0.419133 0.491228
774 4 0.187774 0.428656 0.487186
813 4 0.277318 0.364349 0.466625
811 2 0.265773 0.363282 0.488779
680 4 0.0446349 0.488226 0.493108
635 4 0.186631 0.431405 0.467589
636 4 0.202089 0.46344 0.432439
634 2 0.19436 0.447422 0.450014
710 4 0.172423 0.422342 0.477111
4 3 0.318252 0.484377 0.451371
668 4 0.336354 0.479138 0.442148
669 4 0.340173 0.435784 0.41752
667 2 0.338263 0.457461 0.429834
239 4 0.431541 0.447281 0.440268
238 2 0.418052 0.43268 0.425101
588 4 0.443692 0.45056 0.455697
586 2 0.438993 0.445049 0.479629
1184 4 0.0314777 0.0161181 0.563318
3077 4 0.0150557 0.00573406 0.558984
3076 2 0.00517597 0.0158744 0.538374
1183 2 0.0459042 0.99808 0.572894
1152 4 0.137538 0.0507607 0.54308
1150 2 0.14331 0.0646106 0.563081
1151 4 0.149082 0.0784604 0.583082
342 4 0.147426 0.0396402 0.530016
340 2 0.171708 0.0342226 0.527521
2430 4 0.203158 0.0101432 0.522618
341 4 0.195989 0.0288049 0.525026
432 4 0.321226 0.0190342 0.495353
430 2 0.340389 0.00975879 0.508466
841 2 0.38936 0.0190432 0.53807
842 4 0.409701 0.0335763 0.537616
843 4 0.369019 0.00451016 0.538524
1217 4 0.427313 0.0256782 0.541877
1216 2 0.43812 0.00392475 0.547808
2657 4 0.511872 0.0714266 0.518374
877 2 0.038376 0.159512 0.532889
878 4 0.0151162 0.150385 0.533817
879 4 0.0616357 0.168639 0.531961
938 4 0.0731318 0.156567 0.522901
937 2 0.0912105 0.151948 0.506257
3159 4 0.462809 0.136829 0.539606
3157 2 0.444306 0.137366 0.522798
1062 4 0.464729 0.116803 0.540247
1060 2 0.482699 0.100067 0.535537
1272 4 0.0785023 0.163926 0.540307
1199 4 0.00410371 0.16486 0.544542
1270 2 0.0922024 0.177864 0.555902
1258 2 0.136823 0.233801 0.540886
1259 4 0.13782 0.242914 0.564148
1260 4 0.135826 0.224689 0.517623
1271 4 0.105902 0.191802 0.571498
898 2 0.283031 0.233692 0.527656
899 4 0.303466 0.227336 0.540587
857 4 0.316306 0.215389 0.54872
791 4 0.319636 0.235061 0.548083
856 2 0.304691 0.20051 0.565118
858 4 0.293076 0.18563 0.581515
790 2 0.341926 0.246005 0.551013
900 4 0.262597 0.240048 0.514725
651 4 0.282613 0.322849 0.559304
805 2 0.319401 0.327183 0.568508
792 4 0.364215 0.256949 0.553943
872 4 0.374016 0.272429 0.54917
1238 4 0.36865 0.270612 0.56755
871 2 0.379336 0.281085 0.526324
1237 2 0.361469 0.291014 0.580096
1137 4 0.120172 0.383775 0.585879
897 4 0.127001 0.401402 0.580341
1135 2 0.10901 0.361668 0.58932
773 4 0.212842 0.410002 0.526228
1189 2 0.202323 0.408234 0.56778
1190 4 0.21126 0.412635 0.544847
803 4 0.218597 0.395919 0.537558
802 2 0.229473 0.374827 0.529682
804 4 0.240349 0.353735 0.521805
930 4 0.22934 0.412032 0.536976
772 2 0.200308 0.419329 0.506707
649 2 0.270333 0.334888 0.541154
806 4 0.299638 0.333724 0.554657
650 4 0.258052 0.346927 0.523004
812 4 0.254228 0.362216 0.510932
925 2 0.427937 0.396854 0.51155
927 4 0.428837 0.372238 0.51584
681 4 0.0575188 0.440632 0.501447
383 4 0.076 0.442576 0.510138
679 2 0.0510768 0.464429 0.497278
384 4 0.123827 0.427977 0.509722
382 2 0.0999133 0.435276 0.50993
569 4 0.138086 0.432398 0.522562
568 2 0.147082 0.451298 0.536238
570 4 0.156078 0.470199 0.549913
928 2 0.250486 0.424753 0.532949
929 4 0.271631 0.437474 0.528922
1951 2 0.279018 0.473594 0.519622
1953 4 0.277804 0.449223 0.514167
1952 4 0.280232 0.497965 0.525078
661 2 0.415466 0.454488 0.530491
1001 4 0.409752 0.489564 0.553265
662 4 0.414446 0.471543 0.548747
663 4 0.416487 0.437433 0.512236
1330 2 0.447537 0.497373 0.548453
926 4 0.427038 0.42147 0.507261
1911 4 0.413923 0.476555 0.567631
1332 4 0.428053 0.483601 0.555928
1909 2 0.423348 0.461376 0.585122
587 4 0.434294 0.439539 0.503561
2374 2 0.137412 0.00764655 0.633459
2375 4 0.124315 0.028196 0.63906
1057 2 0.130165 0.0608462 0.616181
1058 4 0.117096 0.0446315 0.630018
1059 4 0.143234 0.0770609 0.602345
950 4 0.246564 0.00715302 0.60698
949 2 0.260188 0.0256296 0.616889
2398 2 0.323328 0.00446395 0.661291
2400 4 0.311543 0.0207665 0.646442
951 4 0.273812 0.0441062 0.626797
1031 4 0.272876 0.0404617 0.646936
1030 2 0.293873 0.0518814 0.654278
1032 4 0.31487 0.0633012 0.661621
43 3 0.458834 0.0559498 0.640281
45 3 0.483036 0.037068 0.662084
41 1 0.46988 0.0556046 0.660683
1155 4 0.154393 0.0916302 0.596047
1153 2 0.155302 0.115188 0.587717
1154 4 0.156211 0.138746 0.579388
1207 2 0.0968345 0.166857 0.661496
1221 4 0.171909 0.150072 0.586395
1211 4 0.233309 0.154889 0.656978
810 4 0.485717 0.0906103 0.652493
808 2 0.487014 0.0977197 0.628557
809 4 0.488311 0.104829 0.604621
3250 2 0.494433 0.145215 0.598546
3252 4 0.48696 0.12162 0.594992
1209 4 0.0910085 0.172507 0.637846
1244 4 0.0938584 0.202588 0.583966
1243 2 0.0879467 0.195805 0.607295
1245 4 0.0820351 0.189022 0.630623
1219 2 0.189689 0.164368 0.596626
1220 4 0.20747 0.178663 0.606856
1210 2 0.229709 0.164794 0.634304
1212 4 0.226109 0.1747 0.611631
797 4 0.211515 0.238918 0.600445
796 2 0.214791 0.215481 0.608519
798 4 0.218066 0.192045 0.616593
3121 2 0.476927 0.202953 0.592945
3122 4 0.494934 0.186298 0.597793
3123 4 0.458919 0.219608 0.588096
905 4 0.460338 0.239582 0.584304
1193 4 0.419689 0.195088 0.666299
3251 4 0.501905 0.16881 0.6021
982 2 0.0396927 0.328385 0.649495
983 4 0.0232194 0.312355 0.639655
807 4 0.339163 0.320643 0.582358
1239 4 0.354288 0.311416 0.592641
906 4 0.45186 0.284372 0.604864
904 2 0.456099 0.261977 0.594584
953 4 0.459414 0.302066 0.608767
952 2 0.475474 0.320722 0.604386
984 4 0.0561659 0.344416 0.659336
1041 4 0.0690483 0.35877 0.662016
1039 2 0.073377 0.374409 0.642994
993 4 0.060442 0.39888 0.623406
1040 4 0.0777058 0.390048 0.623971
895 2 0.150782 0.404831 0.58726
1136 4 0.0978477 0.339561 0.592762
1028 4 0.189715 0.397536 0.658839
1027 2 0.187844 0.400293 0.634059
1029 4 0.185973 0.403051 0.609278
1191 4 0.193386 0.403833 0.590713
1068 4 0.171434 0.393093 0.663724
1206 4 0.490607 0.411775 0.61751
3309 4 0.503093 0.40151 0.607178
991 2 0.0514059 0.420091 0.61373
992 4 0.0423698 0.441301 0.604053
896 4 0.174563 0.40826 0.594179
1172 4 0.188818 0.420164 0.600046
1160 4 0.183852 0.485061 0.597031
1171 2 0.185227 0.444566 0.604151
1173 4 0.181636 0.468967 0.608255
1187 4 0.173642 0.486461 0.613678
1186 2 0.172081 0.488998 0.638503
1268 4 0.440793 0.484331 0.65543
1267 2 0.437921 0.465982 0.638689
1204 2 0.469579 0.424989 0.614612
1910 4 0.432774 0.446197 0.602612
1269 4 0.435048 0.447634 0.621948
1205 4 0.448551 0.438203 0.611714
2168 4 0.45928 0.486399 0.648352
1284 4 0.0928201 0.0451131 0.720267
1282 2 0.106967 0.0631841 0.710343
2047 2 0.16364 0.000527321 0.75338
2049 4 0.186801 0.00956442 0.750721
1201 2 0.198346 0.0388065 0.721943
1203 4 0.199551 0.0541679 0.702251
1226 4 0.185873 0.0667196 0.704057
1148 4 0.20503 0.0711984 0.708315
1202 4 0.19714 0.0234452 0.741634
44 3 0.482846 0.0747082 0.662996
42 3 0.454278 0.0551164 0.677579
1163 4 0.497503 0.0855361 0.666618
1075 2 0.00762673 0.111404 0.72403
1077 4 0.0224525 0.127491 0.736136
864 4 0.0391051 0.135423 0.744751
850 2 0.0663621 0.154904 0.703338
852 4 0.0417056 0.154858 0.707489
1214 4 0.027744 0.169237 0.711105
1283 4 0.121114 0.0812552 0.700419
909 4 0.107443 0.146015 0.696409
907 2 0.116727 0.122926 0.69884
908 4 0.126011 0.099838 0.70127
1227 4 0.139849 0.0855265 0.69869
851 4 0.0910186 0.154949 0.699187
1208 4 0.102661 0.161206 0.685145
1107 4 0.108122 0.163891 0.703173
888 4 0.249582 0.160725 0.667164
1225 2 0.162861 0.0761231 0.701373
1147 2 0.217307 0.0906334 0.71815
1149 4 0.229585 0.110068 0.727985
1257 4 0.232562 0.125143 0.74038
829 2 0.322538 0.152995 0.698332
887 4 0.290539 0.170463 0.694152
886 2 0.270061 0.165594 0.680658
831 4 0.33675 0.132598 0.695652
1142 4 0.352772 0.146127 0.703723
1141 2 0.37571 0.153408 0.710509
1026 4 0.416722 0.157477 0.723774
3426 4 0.480199 0.0923571 0.671257
1025 4 0.449847 0.120117 0.721009
3424 2 0.473502 0.101722 0.693453
3425 4 0.466805 0.111088 0.715648
3269 4 0.465551 0.117956 0.733043
1024 2 0.433284 0.138797 0.722391
3268 2 0.477556 0.128922 0.752038
845 4 0.454378 0.102513 0.728538
844 2 0.445376 0.0815758 0.738824
1213 2 0.0110021 0.182668 0.723931
1105 2 0.129615 0.176639 0.704007
1106 4 0.151109 0.189387 0.70484
1130 4 0.150387 0.193146 0.725169
1129 2 0.155783 0.209123 0.743629
830 4 0.308326 0.173391 0.701012
978 4 0.291695 0.1785 0.711465
976 2 0.299866 0.191208 0.731388
916 2 0.322445 0.242659 0.736394
977 4 0.308038 0.203916 0.75131
1143 4 0.398647 0.160689 0.717295
1262 4 0.408634 0.173987 0.727935
1194 4 0.413975 0.170451 0.709439
1192 2 0.416832 0.18277 0.687869
1261 2 0.421401 0.18545 0.746122
1044 4 0.466395 0.244594 0.745757
3262 2 0.0700292 0.330365 0.695753
892 2 0.0669002 0.321697 0.750585
893 4 0.0753235 0.306298 0.732778
3264 4 0.0718622 0.317015 0.716814
779 4 0.0827436 0.300393 0.716878
778 2 0.102595 0.286241 0.722429
780 4 0.122447 0.272089 0.72798
1065 4 0.256622 0.279873 0.680079
1064 4 0.288942 0.313621 0.697888
1063 2 0.272782 0.296747 0.688983
946 2 0.313956 0.296224 0.726873
948 4 0.300337 0.313348 0.71477
917 4 0.327948 0.264967 0.726534
947 4 0.327576 0.279101 0.738975
1008 4 0.470868 0.303069 0.710685
1006 2 0.467798 0.283265 0.725637
1007 4 0.464729 0.263462 0.74059
3263 4 0.0681961 0.343716 0.674691
941 4 0.133937 0.402946 0.716817
1067 4 0.151934 0.405561 0.708053
940 2 0.123347 0.393288 0.737305
1066 2 0.161684 0.399327 0.685888
884 4 0.0660333 0.481728 0.753908
1188 4 0.17052 0.491534 0.663329
1139 4 0.305324 0.471106 0.687879
1138 2 0.316454 0.465743 0.709617
1140 4 0.327583 0.46038 0.731355
1989 4 0.31333 0.449847 0.740616
1229 4 0.331043 0.442453 0.73567
1230 4 0.378599 0.427028 0.736791
1100 4 0.396666 0.431018 0.741883
1228 2 0.354821 0.434741 0.736231
1099 2 0.413096 0.447887 0.733477
1101 4 0.429525 0.464757 0.725071
3330 4 0.448875 0.46848 0.725284
3328 2 0.462866 0.461799 0.705667
1251 4 0.436841 0.482511 0.730131
3329 4 0.476857 0.455119 0.686051
1249 2 0.445014 0.499527 0.746528
834 4 0.0343613 0.0679238 0.81604
785 4 0.0149511 0.0770467 0.819984
2256 4 0.205402 0.0125698 0.755884
1113 4 0.350667 0.0647839 0.787438
1111 2 0.366506 0.0808276 0.798251
2442 4 0.452831 0.00637046 0.810246
2321 4 0.449529 0.024478 0.806331
2322 4 0.435301 0.0521003 0.767148
2320 2 0.442415 0.0382892 0.786739
846 4 0.436374 0.0606389 0.749109
980 4 0.436411 0.0138768 0.817025
832 2 0.047465 0.0878836 0.808618
862 2 0.044409 0.128172 0.768085
863 4 0.049713 0.120922 0.791419
833 4 0.0605687 0.107843 0.801197
1125 4 0.0548728 0.122836 0.810705
1123 2 0.065845 0.139587 0.825678
1124 4 0.0768173 0.156338 0.84065
34 3 0.117998 0.164861 0.809617
911 4 0.170191 0.123018 0.844123
1255 2 0.230125 0.131284 0.764495
921 4 0.214866 0.150848 0.795701
919 2 0.196063 0.16366 0.806069
840 4 0.229501 0.144711 0.806815
1256 4 0.227688 0.137424 0.78861
838 2 0.250526 0.142342 0.820139
839 4 0.271551 0.139974 0.833464
959 4 0.275034 0.158096 0.842135
1112 4 0.382345 0.0968713 0.809063
818 4 0.383796 0.0930465 0.828774
817 2 0.385352 0.116977 0.835852
3270 4 0.489562 0.139888 0.771033
1146 4 0.483694 0.157254 0.773838
1131 4 0.161179 0.2251 0.76209
822 4 0.158965 0.242373 0.769347
31 1 0.11049 0.174798 0.829194
1277 4 0.163098 0.22911 0.782074
33 3 0.112996 0.197827 0.827856
1276 2 0.164465 0.210546 0.798768
920 4 0.177261 0.176472 0.816437
1278 4 0.165833 0.191983 0.815462
1241 4 0.177035 0.188018 0.831234
918 4 0.316942 0.22035 0.746255
1298 4 0.32297 0.210847 0.762445
1297 2 0.337552 0.20298 0.78117
1299 4 0.352135 0.195112 0.799896
1086 4 0.3444 0.181544 0.812053
50 3 0.403027 0.205257 0.799855
1084 2 0.360944 0.170221 0.826996
46 1 0.425471 0.203664 0.796337
49 3 0.433684 0.223841 0.788349
1043 4 0.443224 0.210885 0.774523
48 3 0.436203 0.198017 0.816119
47 3 0.429548 0.18727 0.780723
1263 4 0.434168 0.196914 0.764309
1145 4 0.448241 0.192385 0.776942
1144 2 0.465968 0.174819 0.77539
1042 2 0.454809 0.227739 0.76014
1022 4 0.447072 0.188038 0.829096
894 4 0.058477 0.337097 0.768391
820 2 0.152006 0.265334 0.762307
821 4 0.145046 0.288294 0.755266
1236 4 0.23077 0.335331 0.778504
1234 2 0.238001 0.325705 0.800418
1235 4 0.245232 0.316079 0.822332
1166 4 0.475134 0.2588 0.755836
1165 2 0.497601 0.260486 0.76668
3275 4 0.0125588 0.363689 0.794302
3276 4 0.0510758 0.354461 0.763773
3274 2 0.0318173 0.359075 0.779038
816 4 0.0685794 0.35416 0.77151