ITEM: TIMESTEP
1210000
ITEM: NUMBER OF ATOMS
4590
ITEM: BOX BOUNDS pp pp pp
-9.9985700000000008e+00 9.9985700000000008e+00
-9.9985700000000008e+00 9.9985700000000008e+00
-9.9985700000000008e+00 9.9985700000000008e+00
ITEM: ATOMS id type xs ys zs
463 2 0.0485184 0.074506 0.0207545
465 4 0.0612127 0.0536603 0.0261854
701 4 0.0794433 0.0572955 0.0346195
700 2 0.097903 0.0648365 0.0497042
702 4 0.116363 0.0723775 0.0647889
566 4 0.135557 0.0742715 0.0590017
565 2 0.144884 0.0755173 0.0821672
491 4 0.286967 0.0314177 0.050877
2264 4 0.289195 0.0312144 0.0307326
490 2 0.288946 0.00694989 0.0556295
2263 2 0.291526 0.0329656 0.00589964
745 2 0.460352 0.0481731 0.0047842
746 4 0.464975 0.0444651 0.0290753
2469 4 0.475733 0.0293682 0.0367618
2467 2 0.490106 0.0104799 0.0446256
464 4 0.0358241 0.0953516 0.0153237
589 2 0.00193596 0.119189 0.0811022
590 4 0.0152607 0.115497 0.0602695
827 4 0.394822 0.121745 0.0123885
866 4 0.387461 0.137742 0.00285593
865 2 0.365432 0.14763 0.0093444
867 4 0.343403 0.157519 0.0158329
771 4 0.44353 0.144668 0.0768116
554 4 0.0434238 0.185117 0.0257577
553 2 0.0530088 0.20579 0.0154657
555 4 0.0625938 0.226463 0.0051737
835 2 0.105387 0.226545 0.00730284
837 4 0.129438 0.230792 0.0126579
666 4 0.315615 0.218666 0.0320292
664 2 0.323115 0.195818 0.0251838
573 4 0.301108 0.231357 0.02888
461 4 0.309266 0.230574 0.0467218
460 2 0.31943 0.230565 0.0695664
665 4 0.330615 0.172969 0.0183384
1070 4 0.406959 0.219165 0.0330046
1071 4 0.428519 0.242873 0.0713947
1012 2 0.497517 0.207135 0.0756785
1069 2 0.417739 0.231019 0.0521997
769 2 0.451452 0.168178 0.0737007
770 4 0.459375 0.191688 0.0705897
1014 4 0.472849 0.203072 0.0760775
294 4 0.0671623 0.29536 0.0264022
292 2 0.0874552 0.297103 0.0409053
507 4 0.120905 0.310063 0.0438873
293 4 0.107748 0.298846 0.0554084
505 2 0.145806 0.307806 0.043835
506 4 0.170708 0.305549 0.0437826
483 4 0.188646 0.312533 0.048608
481 2 0.202308 0.333302 0.0512871
355 2 0.296393 0.318577 0.0100424
571 2 0.302855 0.255136 0.0213526
356 4 0.305125 0.296088 0.00346911
572 4 0.304603 0.278916 0.0138252
324 4 0.442237 0.25355 0.0615051
322 2 0.44558 0.278324 0.061
672 4 0.445668 0.320606 0.0511138
323 4 0.448924 0.303097 0.060495
620 4 0.0105914 0.355337 0.0674871
647 4 0.0258187 0.354751 0.0837027
287 4 0.137031 0.351202 0.00527507
609 4 0.214463 0.374508 0.0571804
607 2 0.237579 0.382799 0.0524795
482 4 0.215971 0.354071 0.0539662
357 4 0.287661 0.341065 0.0166158
252 4 0.276796 0.401875 0.0471751
608 4 0.260694 0.391091 0.0477786
250 2 0.285663 0.408674 0.0248073
251 4 0.294531 0.415473 0.00243956
957 4 0.393846 0.332601 0.0165309
741 4 0.403847 0.361642 0.0759791
670 2 0.457718 0.336945 0.0657095
671 4 0.469767 0.353283 0.0803053
281 4 0.482603 0.3677 0.0800025
280 2 0.474953 0.389921 0.0714662
282 4 0.467302 0.412142 0.06293
551 4 0.109387 0.434312 0.0675847
550 2 0.107109 0.45921 0.0673079
552 4 0.104832 0.484108 0.0670311
244 2 0.252864 0.475927 0.068071
246 4 0.255627 0.493243 0.0502464
272 4 0.26349 0.494248 0.0321251
271 2 0.266749 0.477084 0.0142381
523 2 0.35688 0.491374 0.059925
524 4 0.339677 0.488989 0.0419376
525 4 0.374083 0.493759 0.0779123
226 2 0.457115 0.464934 0.032725
228 4 0.454306 0.465463 0.00788538
227 4 0.459924 0.464406 0.0575647
16 1 0.0594486 0.0630471 0.153738
20 3 0.0439262 0.0548301 0.139241
1806 4 0.0810901 0.030721 0.146622
18 3 0.0774872 0.0485156 0.155097
2576 4 0.0194628 0.0276778 0.112316
1804 2 0.0870496 0.0152489 0.127907
567 4 0.154211 0.076763 0.105333
450 4 0.177611 0.0548672 0.125084
1505 4 0.174008 0.0400989 0.140504
448 2 0.183772 0.0789632 0.127653
1504 2 0.175778 0.0321458 0.164143
652 2 0.294676 0.0187323 0.116343
653 4 0.299563 0.0237835 0.0923475
654 4 0.28979 0.0136812 0.140339
557 4 0.361384 0.0797378 0.107498
296 4 0.369452 0.0631304 0.0993278
295 2 0.388505 0.0486753 0.106622
297 4 0.407558 0.0342203 0.113916
485 4 0.397177 0.0184277 0.10535
17 3 0.0668844 0.0834392 0.146121
2625 4 0.00427799 0.139341 0.157121
237 4 0.14538 0.139672 0.13864
578 4 0.133439 0.150726 0.14867
577 2 0.117561 0.131909 0.153028
579 4 0.101683 0.113092 0.157386
235 2 0.168649 0.130955 0.135851
236 4 0.191917 0.122239 0.133062
693 4 0.201233 0.109153 0.144441
449 4 0.189934 0.103059 0.130222
691 2 0.217744 0.111726 0.163041
558 4 0.327613 0.115918 0.10034
556 2 0.344498 0.0978279 0.103919
337 2 0.0607267 0.19064 0.143769
339 4 0.0443833 0.183668 0.126178
338 4 0.0770702 0.197612 0.16136
476 4 0.138116 0.197758 0.134669
475 2 0.115844 0.202172 0.145141
477 4 0.0935717 0.206585 0.155613
737 4 0.149998 0.198839 0.118179
736 2 0.160806 0.220802 0.113082
738 4 0.171614 0.242765 0.107984
462 4 0.329594 0.230557 0.0924109
255 4 0.335239 0.21911 0.107816
254 4 0.363637 0.220321 0.148959
253 2 0.349438 0.219716 0.128387
630 4 0.379048 0.212968 0.158422
628 2 0.399843 0.201067 0.151275
765 4 0.378545 0.232298 0.153603
629 4 0.420639 0.189166 0.144128
749 4 0.101168 0.306381 0.154112
352 2 0.326542 0.28348 0.136104
353 4 0.306306 0.292368 0.147797
754 2 0.286223 0.327168 0.158663
755 4 0.294667 0.303661 0.159814
278 4 0.29195 0.284416 0.157655
354 4 0.346777 0.274593 0.124411
646 2 0.0465856 0.345279 0.0939107
648 4 0.0673524 0.335807 0.104119
456 4 0.0772416 0.353395 0.104538
455 4 0.123517 0.370651 0.0966931
454 2 0.100379 0.362023 0.100615
537 4 0.222486 0.380041 0.128735
535 2 0.203576 0.385035 0.113157
536 4 0.184667 0.390029 0.0975791
611 4 0.229331 0.377315 0.147915
610 2 0.253887 0.372608 0.147924
612 4 0.278444 0.3679 0.147933
756 4 0.27778 0.350674 0.157512
387 4 0.33454 0.391159 0.152079
302 4 0.335511 0.410918 0.150667
739 2 0.397082 0.367458 0.099337
740 4 0.390317 0.373273 0.122695
15 3 0.392422 0.370169 0.141793
385 2 0.357668 0.387733 0.143216
386 4 0.380796 0.384307 0.134354
11 1 0.409244 0.364207 0.155939
12 3 0.415773 0.342646 0.151285
2651 4 0.488637 0.349612 0.0849989
14 3 0.427415 0.37834 0.153033
495 4 0.437359 0.394772 0.146676
1465 2 0.0200296 0.466582 0.136019
1466 4 0.0439403 0.473893 0.136085
1791 4 0.0551394 0.489933 0.13718
242 4 0.110167 0.489642 0.085002
241 2 0.131575 0.498845 0.0940683
627 4 0.23393 0.455614 0.0993185
625 2 0.213003 0.443735 0.0925252
626 4 0.192076 0.431856 0.085732
637 2 0.22825 0.498641 0.146414
767 4 0.243856 0.471951 0.151051
1439 4 0.185298 0.499946 0.149326
638 4 0.251921 0.490588 0.14635
245 4 0.250101 0.458612 0.0858956
766 2 0.26308 0.457234 0.157299
768 4 0.282303 0.442517 0.163546
301 2 0.319044 0.428484 0.15741
303 4 0.302578 0.44605 0.164153
660 4 0.415215 0.457757 0.144323
494 4 0.429861 0.444187 0.145059
493 2 0.43361 0.419479 0.145868
658 2 0.428437 0.473042 0.159045
2480 4 0.0219764 0.0213195 0.200199
19 3 0.0499628 0.0658831 0.174724
1422 4 0.0115444 0.00825478 0.19139
2479 2 0.00145588 0.0353039 0.203118
673 2 0.147852 0.0660248 0.211091
675 4 0.135791 0.0515352 0.194667
674 4 0.159912 0.0805143 0.227516
689 4 0.195295 0.0237207 0.195005
1506 4 0.177549 0.0241927 0.187782
688 2 0.201281 0.00667445 0.21229
21 1 0.397176 0.0148924 0.230726
25 3 0.407935 0.0309895 0.218736
759 4 0.415102 0.0493227 0.2217
757 2 0.401463 0.0701596 0.223935
22 3 0.374686 0.0196837 0.231369
351 4 0.473677 0.0295748 0.24011
349 2 0.450334 0.0324201 0.231614
350 4 0.426991 0.0352653 0.223118
380 4 0.0519228 0.0860585 0.173816
2483 4 0.00326947 0.146938 0.17564
512 4 0.0433183 0.128712 0.209102
379 2 0.0407918 0.100773 0.19069
381 4 0.0296609 0.115488 0.207565
511 2 0.043037 0.153011 0.21499
692 4 0.234255 0.114299 0.181641
582 4 0.243005 0.123619 0.196918
722 4 0.178001 0.157616 0.235817
721 2 0.189391 0.163204 0.214271
580 2 0.265877 0.128291 0.205874
581 4 0.288749 0.132964 0.21483
30 3 0.307795 0.125585 0.214648
26 1 0.324663 0.124708 0.229923
29 3 0.3166 0.116752 0.250174
27 3 0.33313 0.145862 0.233084
28 3 0.341641 0.110912 0.222187
758 4 0.387825 0.0909964 0.22617
312 4 0.483929 0.15833 0.180306
310 2 0.46148 0.147337 0.180922
311 4 0.439031 0.136344 0.181539
513 4 0.0427556 0.17731 0.220878
363 4 0.0895537 0.204047 0.174664
362 4 0.0995694 0.233591 0.213748
361 2 0.0945616 0.218819 0.194206
372 4 0.115664 0.245564 0.212007
370 2 0.133786 0.248503 0.228982
392 4 0.103783 0.181868 0.246827
723 4 0.200781 0.168792 0.192726
284 4 0.279596 0.180775 0.171591
283 2 0.304374 0.177774 0.170101
285 4 0.329152 0.174773 0.168611
521 4 0.475667 0.188142 0.246631
520 2 0.495409 0.18061 0.233264
395 4 0.0755236 0.290372 0.216269
394 2 0.053991 0.289834 0.228967
396 4 0.0324584 0.289297 0.241665
750 4 0.086616 0.2946 0.200482
748 2 0.0938921 0.30049 0.177297
371 4 0.151908 0.251442 0.245956
300 4 0.12208 0.329415 0.202878
279 4 0.275568 0.268797 0.202247
277 2 0.283759 0.276606 0.179951
308 4 0.324239 0.286532 0.235815
307 2 0.33125 0.28761 0.211839
763 2 0.38527 0.251053 0.168709
309 4 0.33826 0.288689 0.187862
764 4 0.391995 0.269808 0.183815
623 4 0.401611 0.288042 0.186199
526 2 0.485144 0.288462 0.1691
528 4 0.470051 0.294845 0.187986
622 2 0.426541 0.287762 0.188097
624 4 0.451471 0.287483 0.189996
262 2 0.0569952 0.399687 0.226276
264 4 0.0359764 0.394068 0.213954
263 4 0.0780141 0.405306 0.238597
298 2 0.127849 0.344302 0.22212
299 4 0.133617 0.35919 0.241362
601 2 0.112322 0.394533 0.248572
603 4 0.130835 0.377763 0.247464
290 4 0.220531 0.405242 0.213981
13 3 0.401848 0.365227 0.177909
447 4 0.489795 0.366676 0.215619
643 2 0.48828 0.399746 0.198991
644 4 0.496309 0.376111 0.200435
289 2 0.201146 0.420628 0.210421
417 4 0.167647 0.500521 0.224205
415 2 0.170845 0.476043 0.220229
291 4 0.181761 0.436013 0.206861
416 4 0.174042 0.451566 0.216253
645 4 0.480251 0.423381 0.197548
597 4 0.484219 0.442894 0.19337
595 2 0.469739 0.462947 0.189712
596 4 0.455258 0.482999 0.186054
659 4 0.441659 0.488327 0.173767
231 4 0.438706 0.491087 0.192725
234 4 0.0068081 0.0409803 0.25943
1799 4 0.0270104 0.0294962 0.319218
233 4 0.0316709 0.0260569 0.300171
1402 2 0.0691664 0.0314854 0.307891
1403 4 0.0449242 0.0314868 0.314014
232 2 0.0192395 0.0335186 0.279801
1404 4 0.0934087 0.031484 0.301768
1699 2 0.189195 0.057081 0.306387
1701 4 0.171216 0.0397055 0.306468
1700 4 0.207175 0.0744565 0.306305
23 3 0.405361 0.0143888 0.252432
697 2 0.37338 0.0342981 0.311257
699 4 0.367468 0.0213172 0.290722
1518 4 0.352437 0.0128772 0.281086
633 4 0.381436 0.0671525 0.331742
698 4 0.379293 0.047279 0.331793
743 4 0.492978 0.041104 0.296952
744 4 0.470046 0.0203088 0.257679
742 2 0.481512 0.0307064 0.277316
478 2 0.474586 0.0464874 0.332522
479 4 0.492736 0.0464558 0.315325
398 4 0.0801493 0.150741 0.321803
390 4 0.0867166 0.1668 0.309786
546 4 0.167378 0.161619 0.2518
248 4 0.205966 0.089891 0.319428
249 4 0.22704 0.128366 0.295421
247 2 0.216503 0.109128 0.307424
404 4 0.218736 0.146538 0.287994
403 2 0.200456 0.148044 0.271002
405 4 0.182176 0.14955 0.254009
632 4 0.354213 0.107654 0.320824
631 2 0.367825 0.0874034 0.326283
333 4 0.463895 0.143026 0.279762
393 4 0.0833004 0.17136 0.29122
544 2 0.144864 0.17245 0.252776
545 4 0.122349 0.183282 0.253751
391 2 0.0935419 0.176614 0.269023
388 2 0.102854 0.179714 0.323857
717 4 0.405085 0.227152 0.330695
331 2 0.457882 0.167056 0.283167
420 4 0.420571 0.223376 0.317463
332 4 0.451869 0.191086 0.286573
418 2 0.439816 0.216502 0.303057
419 4 0.459062 0.209628 0.288651
760 2 0.487896 0.212915 0.283033
762 4 0.470097 0.195615 0.280014
444 4 0.0345478 0.251877 0.298737
364 2 0.000877283 0.304793 0.26083
442 2 0.0326474 0.262791 0.276322
443 4 0.0307469 0.273704 0.253906
365 4 0.0167766 0.287282 0.252722
401 4 0.219125 0.287545 0.261951
400 2 0.227097 0.288173 0.285641
402 4 0.235068 0.288801 0.309331
510 4 0.23914 0.303793 0.320871
508 2 0.229156 0.326165 0.32587
345 4 0.248119 0.287639 0.324175
343 2 0.259675 0.266389 0.330504
715 2 0.405905 0.252139 0.331134
497 4 0.334104 0.285398 0.252336
498 4 0.358924 0.319955 0.278612
496 2 0.346514 0.302677 0.265474
543 4 0.414633 0.322622 0.286942
716 4 0.406724 0.277125 0.331573
541 2 0.427944 0.304544 0.29795
542 4 0.441254 0.286465 0.308958
602 4 0.0938092 0.411303 0.24968
734 4 0.145609 0.366818 0.255153
733 2 0.156636 0.364507 0.277474
735 4 0.167663 0.362195 0.299795
677 4 0.17075 0.373267 0.315256
676 2 0.192139 0.36884 0.327426
509 4 0.219172 0.348537 0.330869
728 4 0.321636 0.374507 0.32156
727 2 0.33585 0.385405 0.304114
729 4 0.350065 0.396304 0.286668
615 4 0.409608 0.337884 0.297967
613 2 0.416199 0.361228 0.304035
2538 4 0.468063 0.381409 0.318525
2536 2 0.469498 0.399622 0.301455
614 4 0.42279 0.384571 0.310102
777 4 0.0736738 0.43029 0.315557
549 4 0.061628 0.436799 0.331095
775 2 0.0957281 0.44192 0.313677
414 4 0.126739 0.470992 0.316007
776 4 0.117782 0.45355 0.311796
412 2 0.145218 0.476691 0.331857
438 4 0.287394 0.424075 0.277924
437 4 0.319554 0.451148 0.305008
436 2 0.303474 0.437612 0.291466
2537 4 0.470933 0.417835 0.284385
2861 4 0.454838 0.466167 0.262376
2862 4 0.469043 0.418316 0.265419
2860 2 0.461941 0.442242 0.263898
1798 2 0.0157921 0.0166029 0.337469
369 4 0.0674053 0.0517701 0.37121
1800 4 0.00457384 0.00370963 0.35572
367 2 0.0778797 0.0290689 0.37156
732 4 0.0828438 0.0612034 0.378137
368 4 0.088354 0.00636772 0.37191
605 4 0.137271 0.0467504 0.356364
604 2 0.144488 0.0633458 0.373617
606 4 0.151704 0.0799412 0.390871
256 2 0.387565 0.0540841 0.364899
257 4 0.371827 0.0581113 0.345892
258 4 0.403304 0.0500569 0.383906
424 2 0.412285 0.0404854 0.415232
426 4 0.416949 0.056987 0.397035
480 4 0.456436 0.0465191 0.34972
458 4 0.0238374 0.145936 0.382569
318 4 0.0196407 0.137153 0.365329
316 2 0.0347961 0.117493 0.368327
317 4 0.0499516 0.0978336 0.371325
457 2 0.0205479 0.166152 0.39691
397 2 0.0833427 0.129781 0.335057
730 2 0.0895102 0.0846077 0.372394
399 4 0.0865361 0.108821 0.34831
731 4 0.0961766 0.108012 0.366652
600 4 0.205169 0.139905 0.380729
598 2 0.195391 0.162399 0.385584
683 4 0.24966 0.119901 0.381343
682 2 0.266101 0.110063 0.397408
684 4 0.282543 0.100225 0.413472
575 4 0.407448 0.130006 0.38832
516 4 0.405109 0.135258 0.36924
708 4 0.364403 0.162806 0.364879
321 4 0.341721 0.131798 0.416706
574 2 0.416922 0.139561 0.409394
451 2 0.480011 0.153642 0.357663
514 2 0.42675 0.134841 0.356724
453 4 0.456918 0.1524 0.348158
515 4 0.448392 0.134424 0.344209
2654 4 0.0129539 0.201971 0.397611
459 4 0.0172583 0.186368 0.411251
389 4 0.118992 0.192628 0.337928
685 2 0.161986 0.203531 0.412499
687 4 0.168066 0.194263 0.390087
599 4 0.185613 0.184894 0.390439
473 4 0.233405 0.202272 0.384717
344 4 0.271232 0.245139 0.336833
378 4 0.275602 0.226531 0.33695
376 2 0.295709 0.212567 0.34204
377 4 0.315816 0.198603 0.34713
472 2 0.255975 0.203116 0.395444
474 4 0.278545 0.20396 0.406171
707 4 0.333232 0.20072 0.355306
706 2 0.348817 0.181763 0.360092
467 4 0.374479 0.190789 0.407669
305 4 0.470428 0.188234 0.414635
275 4 0.146079 0.314316 0.405481
274 2 0.164262 0.304322 0.391527
616 2 0.122561 0.330784 0.416119
374 4 0.223764 0.251405 0.390475
276 4 0.182444 0.294329 0.377574
373 2 0.202662 0.264783 0.389513
375 4 0.18156 0.27816 0.388552
561 4 0.489906 0.333661 0.38828
406 2 0.0251795 0.384996 0.384231
407 4 0.0426703 0.394777 0.369278
548 4 0.0314863 0.406899 0.357518
408 4 0.00768874 0.375216 0.399183
347 4 0.0847337 0.337098 0.411899
617 4 0.146414 0.333929 0.409313
678 4 0.213527 0.364413 0.339597
435 4 0.232312 0.362922 0.333684
504 4 0.250133 0.389217 0.40707
434 4 0.267866 0.394977 0.348142
433 2 0.250089 0.378949 0.340913
503 4 0.29591 0.409145 0.409894
334 2 0.329708 0.402107 0.409181
502 2 0.273021 0.399181 0.408482
335 4 0.347636 0.38515 0.413209
240 4 0.367057 0.378593 0.412442
753 4 0.465301 0.371506 0.335059
752 4 0.482702 0.345477 0.374052
751 2 0.474002 0.358491 0.354555
547 2 0.0465572 0.421849 0.344307
413 4 0.163697 0.482391 0.347707
500 4 0.169472 0.491267 0.364466
1545 4 0.231196 0.479512 0.349387
1543 2 0.206333 0.479906 0.352004
1544 4 0.18147 0.480299 0.354621
1436 4 0.235168 0.49695 0.340929
336 4 0.31178 0.419064 0.405152
669 4 0.294689 0.428594 0.408476
594 4 0.395187 0.44943 0.34062
592 2 0.41851 0.458317 0.339127
593 4 0.441833 0.467205 0.337635
1524 4 0.0662776 0.00131888 0.461659
1126 2 0.00635332 0.0524547 0.491837
720 4 0.0292727 0.0676059 0.457327
2237 4 0.0272798 0.0477579 0.45667
2236 2 0.0254023 0.0249197 0.446666
1127 4 0.0209496 0.0579986 0.472308
2238 4 0.0235248 0.00208144 0.436663
1522 2 0.0673219 0.00618018 0.486163
2428 2 0.226266 0.00325302 0.487675
2430 4 0.210916 0.0225833 0.491659
726 4 0.314102 0.0423186 0.442835
724 2 0.310315 0.0347744 0.466371
725 4 0.306528 0.0272301 0.489906
963 4 0.300906 0.00855588 0.489024
425 4 0.40762 0.0239839 0.433428
1580 4 0.399355 0.00681197 0.424504
2878 2 0.478727 0.0704855 0.486021
718 2 0.0247473 0.0920748 0.454883
719 4 0.0202219 0.116544 0.452438
1033 2 0.109944 0.141108 0.47877
1035 4 0.104308 0.15136 0.456672
1182 4 0.259473 0.108065 0.477407
320 4 0.297406 0.109453 0.422839
1180 2 0.270833 0.105148 0.455324
1181 4 0.282193 0.102231 0.433242
319 2 0.319563 0.120626 0.419772
411 4 0.286732 0.156014 0.472381
3157 2 0.490234 0.15529 0.474002
2880 4 0.472607 0.0888939 0.470246
642 4 0.4623 0.10285 0.46123
640 2 0.45156 0.119386 0.445856
641 4 0.440819 0.135923 0.430482
306 4 0.444356 0.152904 0.438568
576 4 0.426395 0.149116 0.430469
3159 4 0.4956 0.132257 0.482118
471 4 0.0459325 0.230856 0.493014
469 2 0.038544 0.206969 0.492948
470 4 0.0311554 0.183082 0.492882
686 4 0.155906 0.212799 0.434912
260 4 0.138287 0.206298 0.438443
261 4 0.112483 0.16962 0.460569
259 2 0.125385 0.187959 0.449506
695 4 0.14179 0.225422 0.440591
694 2 0.139544 0.246789 0.453379
488 4 0.285794 0.210919 0.424297
487 2 0.294121 0.222734 0.444699
489 4 0.302448 0.234549 0.465101
409 2 0.282515 0.179582 0.479587
410 4 0.278298 0.203151 0.486792
900 4 0.294968 0.216143 0.491191
468 4 0.365244 0.234833 0.429475
466 2 0.369861 0.212811 0.418572
3158 4 0.484869 0.178323 0.465885
304 2 0.457392 0.170569 0.426601
585 4 0.442523 0.246807 0.468691
348 4 0.0582061 0.332561 0.454047
326 4 0.0652897 0.328763 0.472219
618 4 0.0987078 0.327639 0.422925
1260 4 0.12639 0.276371 0.481338
696 4 0.137298 0.268157 0.466168
811 2 0.247954 0.288843 0.490745
813 4 0.243204 0.270096 0.474897
266 4 0.30943 0.271119 0.433958
265 2 0.331829 0.261163 0.429026
267 4 0.354228 0.251207 0.424093
2455 2 0.497918 0.302199 0.485808
2456 4 0.491477 0.296697 0.462283
584 4 0.477168 0.282606 0.464345
583 2 0.459846 0.264707 0.466518
2813 4 0.000425622 0.399396 0.448582
346 2 0.0714699 0.33483 0.432973
325 2 0.0805281 0.343583 0.485385
681 4 0.070424 0.410582 0.442719
10 3 0.140166 0.361342 0.470994
7 3 0.105809 0.369624 0.482991
6 1 0.128272 0.371371 0.487626
8 3 0.13393 0.393835 0.488966
711 4 0.147485 0.401082 0.47634
327 4 0.0957665 0.358403 0.498551
709 2 0.172053 0.403087 0.480533
710 4 0.196621 0.405091 0.484726
774 4 0.214374 0.412302 0.487782
239 4 0.394756 0.411469 0.437988
238 2 0.380906 0.395031 0.425215
588 4 0.396685 0.405116 0.455696
586 2 0.394711 0.411043 0.479907
1383 4 0.0345617 0.469436 0.43946
679 2 0.0584043 0.432149 0.438776
1381 2 0.0462065 0.491378 0.44231
680 4 0.0463845 0.453717 0.434833
539 4 0.0969781 0.4672 0.492197
384 4 0.135031 0.4315 0.440891
382 2 0.110993 0.425761 0.444689
568 2 0.143007 0.466172 0.466266
569 4 0.141126 0.443457 0.455986
570 4 0.144889 0.488887 0.476546
383 4 0.0869552 0.420022 0.448488
636 4 0.212611 0.461181 0.451374
635 4 0.204707 0.416176 0.471692
634 2 0.208659 0.438679 0.461533
667 2 0.299822 0.45112 0.418037
668 4 0.304955 0.473646 0.427598
4 3 0.317637 0.486288 0.422014
5 3 0.287288 0.497681 0.441165
880 2 0.344012 0.498863 0.489154
1523 4 0.0683661 0.0110415 0.510667
1057 2 0.117478 0.0709073 0.575824
2374 2 0.111141 0.0132372 0.577164
1058 4 0.0996342 0.0550363 0.583233
340 2 0.202644 0.0588486 0.508521
342 4 0.18987 0.0794435 0.514673
1152 4 0.168744 0.0800149 0.509856
341 4 0.215418 0.0382537 0.502368
430 2 0.321838 0.0317823 0.519481
431 4 0.331527 0.0485848 0.53526
432 4 0.312149 0.0149798 0.503702
843 4 0.340993 0.0647764 0.541984
1217 4 0.401235 0.0409501 0.535291
1216 2 0.414317 0.0199353 0.531769
842 4 0.389375 0.0532122 0.5471
841 2 0.365184 0.0589943 0.544542
3009 4 0.49693 0.0817574 0.564256
2879 4 0.484847 0.0520771 0.501797
879 4 0.0723721 0.157071 0.553468
1272 4 0.0870935 0.16057 0.565681
938 4 0.0865872 0.143314 0.557392
937 2 0.0966513 0.132422 0.537261
1151 4 0.139054 0.0883803 0.549216
1059 4 0.135322 0.0867783 0.568415
1155 4 0.141389 0.104041 0.560372
939 4 0.106715 0.12153 0.51713
1150 2 0.153899 0.0841976 0.529536
1153 2 0.154363 0.118352 0.576248
1034 4 0.11558 0.130856 0.500868
878 4 0.0343708 0.188791 0.546365
1199 4 0.0202363 0.20028 0.538185
877 2 0.0533714 0.172931 0.549917
857 4 0.294529 0.216529 0.558932
856 2 0.27957 0.213211 0.578691
898 2 0.297618 0.218704 0.515922
791 4 0.300653 0.234791 0.554818
899 4 0.300267 0.221266 0.540652
871 2 0.393215 0.233505 0.547796
872 4 0.380635 0.22684 0.527241
873 4 0.405795 0.240171 0.568351
3353 4 0.0133573 0.262471 0.539565
3352 2 0.00603159 0.278402 0.521741
1259 4 0.120541 0.292049 0.528462
1258 2 0.123465 0.28421 0.5049
649 2 0.231271 0.299559 0.542603
651 4 0.215274 0.290599 0.559603
650 4 0.247267 0.308519 0.525603
804 4 0.247013 0.324387 0.514142
790 2 0.311944 0.256232 0.560979
812 4 0.252705 0.30759 0.506593
792 4 0.323235 0.277674 0.56714
1238 4 0.314276 0.295969 0.569288
1237 2 0.331926 0.312502 0.575636
1239 4 0.349576 0.329036 0.581983
1009 2 0.49826 0.311358 0.546051
1010 4 0.495694 0.298635 0.52468
935 4 0.0105731 0.397782 0.539722
1135 2 0.135639 0.413087 0.556417
9 3 0.132591 0.360893 0.507874
897 4 0.155437 0.381188 0.580746
1137 4 0.147467 0.398491 0.572916
1189 2 0.234338 0.386101 0.557617
773 4 0.242432 0.390865 0.523192
1190 4 0.247889 0.379339 0.537722
772 2 0.228403 0.401583 0.505487
1191 4 0.220787 0.392864 0.577512
802 2 0.248454 0.34922 0.516676
803 4 0.249895 0.374053 0.519209
930 4 0.261173 0.388557 0.527245
928 2 0.284119 0.393695 0.535746
929 4 0.307065 0.398833 0.544248
927 4 0.377561 0.371639 0.541218
925 2 0.387698 0.392558 0.532008
926 4 0.397835 0.413477 0.522797
1136 4 0.12381 0.427683 0.539918
538 2 0.103466 0.489647 0.501098
1161 4 0.160519 0.482479 0.562232
2243 4 0.149546 0.497543 0.558532
1159 2 0.177101 0.475078 0.57942
889 2 0.300083 0.464597 0.560656
890 4 0.316936 0.476726 0.574586
891 4 0.28323 0.452468 0.546727
1953 4 0.359488 0.450989 0.557368
1951 2 0.362354 0.460563 0.534448
881 4 0.355729 0.48811 0.508449
1000 2 0.414618 0.496121 0.53417
1952 4 0.365219 0.470137 0.511529
663 4 0.407671 0.426577 0.512517
587 4 0.392737 0.416969 0.504118
1001 4 0.429541 0.476533 0.538509
662 4 0.437183 0.459452 0.535947
661 2 0.422427 0.443015 0.524232
1911 4 0.438727 0.467643 0.553405
1909 2 0.443335 0.457756 0.575904
1332 4 0.449416 0.474355 0.538437
1330 2 0.469164 0.489095 0.534204
2319 4 0.0531049 0.00356427 0.630287
943 2 0.0721739 0.00451939 0.658521
2375 4 0.104923 0.0362393 0.584741
825 4 0.109142 0.0101224 0.659601
950 4 0.317979 0.0301296 0.613851
949 2 0.298949 0.0458749 0.609959
951 4 0.27992 0.0616202 0.606067
1031 4 0.280256 0.0786851 0.6164
1092 4 0.326908 0.00275196 0.658185
45 3 0.445615 0.0638581 0.648032
41 1 0.441176 0.0779229 0.665385
3179 4 0.0352983 0.15104 0.665895
1083 4 0.0259126 0.13344 0.658856
3178 2 0.0168719 0.16412 0.655191
1284 4 0.166354 0.0862432 0.648459
1270 2 0.0920403 0.16709 0.589307
1154 4 0.167337 0.132663 0.592124
1032 4 0.243977 0.107146 0.635752
1221 4 0.181227 0.136977 0.60434
1219 2 0.195593 0.15353 0.616371
1030 2 0.262116 0.0929157 0.626076
808 2 0.488192 0.0872908 0.641508
43 3 0.428798 0.0960667 0.657903
810 4 0.475065 0.0891546 0.662707
1243 2 0.0556579 0.206824 0.643165
1244 4 0.0605163 0.188996 0.62632
1245 4 0.0507996 0.224652 0.660009
1271 4 0.0969871 0.17361 0.612933
1212 4 0.227234 0.179368 0.626399
1220 4 0.20996 0.170084 0.628403
796 2 0.202384 0.211873 0.616885
798 4 0.21019 0.189012 0.623337
797 4 0.194579 0.234734 0.610433
1210 2 0.249725 0.178859 0.637312
858 4 0.26461 0.209893 0.598449
1211 4 0.272215 0.178351 0.648226
888 4 0.283068 0.168267 0.661343
3121 2 0.496428 0.234565 0.656542
905 4 0.462242 0.249382 0.631423
3123 4 0.475753 0.245584 0.647808
983 4 0.0152197 0.315105 0.604416
982 2 0.0322362 0.325863 0.619245
3263 4 0.0475773 0.327175 0.651329
947 4 0.225291 0.280215 0.635495
946 2 0.236121 0.281905 0.657968
906 4 0.421677 0.276493 0.620458
904 2 0.44196 0.262937 0.62594
952 2 0.48249 0.324806 0.598366
953 4 0.461205 0.319763 0.610478
984 4 0.0492527 0.33662 0.634074
1041 4 0.0458166 0.346762 0.650235
1039 2 0.0619512 0.365252 0.645444
1040 4 0.0780859 0.383742 0.640652
993 4 0.0686824 0.399376 0.631421
895 2 0.179524 0.386952 0.584174
896 4 0.203612 0.392715 0.587602
1172 4 0.215543 0.40713 0.589911
807 4 0.325368 0.33926 0.649105
1206 4 0.454984 0.399234 0.660271
992 4 0.0628713 0.447635 0.619675
991 2 0.0657768 0.423506 0.625548
1160 4 0.193682 0.467677 0.596609
1173 4 0.208376 0.456615 0.590648
1171 2 0.211959 0.431872 0.59028
1188 4 0.19477 0.493187 0.647625
1187 4 0.209115 0.465571 0.60848
1186 2 0.201942 0.479379 0.628052
1204 2 0.449255 0.423531 0.658852
1910 4 0.447943 0.44787 0.598402
1269 4 0.448523 0.460301 0.641703
1267 2 0.441094 0.484158 0.640775
1205 4 0.443525 0.447828 0.657434
1077 4 0.0413653 0.0787618 0.745858
944 4 0.0915843 0.0163869 0.668893
2255 4 0.220969 0.0333249 0.727088
2254 2 0.202716 0.0255007 0.742279
1147 2 0.206479 0.0817744 0.749059
1149 4 0.231357 0.0826062 0.746702
1004 4 0.326586 0.0084679 0.729809
1003 2 0.337741 0.0297699 0.736661
1005 4 0.348897 0.0510719 0.743514
1163 4 0.476933 0.0743581 0.675285
1162 2 0.492463 0.0610806 0.689697
42 3 0.428993 0.0666751 0.681329
1081 2 0.0290046 0.112078 0.671477
1082 4 0.0320966 0.0907155 0.684097
1076 4 0.024308 0.0972102 0.702621
1075 2 0.0328367 0.087986 0.724239
850 2 0.0682992 0.149705 0.735227
852 4 0.0439848 0.145985 0.739715
1282 2 0.151773 0.09297 0.667625
909 4 0.101037 0.148465 0.713442
907 2 0.110937 0.127586 0.703888
908 4 0.120836 0.106708 0.694334
1283 4 0.137191 0.0996967 0.68679
1227 4 0.137058 0.106071 0.705592
851 4 0.0926135 0.153426 0.730738
1225 2 0.152052 0.0987006 0.724195
1107 4 0.111696 0.156676 0.728004
1105 2 0.124893 0.165008 0.747539
1226 4 0.167046 0.0913306 0.742797
830 4 0.319307 0.150029 0.712114
978 4 0.303526 0.159722 0.717326
887 4 0.313377 0.165553 0.701025
831 4 0.367047 0.136421 0.718151
1141 2 0.40146 0.15814 0.721752
829 2 0.343177 0.143225 0.715132
1142 4 0.385793 0.13935 0.726917
44 3 0.461024 0.0852597 0.674906
1025 4 0.474792 0.147226 0.701812
3424 2 0.484456 0.114985 0.689891
3426 4 0.478353 0.0922407 0.681486
1024 2 0.454748 0.161884 0.704745
3425 4 0.490558 0.137729 0.698295
3269 4 0.492344 0.153849 0.708763
1209 4 0.0620615 0.230211 0.675223
1215 4 0.00174907 0.197074 0.743716
1213 2 0.0187907 0.179127 0.747278
1207 2 0.0850379 0.232212 0.68488
1208 4 0.108014 0.234214 0.694537
886 2 0.298222 0.16691 0.681184
976 2 0.302761 0.177624 0.734765
1194 4 0.391151 0.208066 0.705738
1193 4 0.361626 0.247983 0.699778
1192 2 0.376388 0.228024 0.702758
1143 4 0.417126 0.17693 0.716587
1026 4 0.434705 0.176541 0.707677
1261 2 0.441422 0.20436 0.736835
1262 4 0.429165 0.192222 0.718735
1179 4 0.00866969 0.261475 0.748675
3262 2 0.0421677 0.321908 0.675165
3264 4 0.036758 0.316641 0.699002
779 4 0.0475545 0.31751 0.714844
893 4 0.0344358 0.331063 0.712879
778 2 0.0680849 0.313582 0.728564
780 4 0.0886152 0.309654 0.742285
821 4 0.118513 0.27412 0.745731
1064 4 0.234649 0.272474 0.689834
948 4 0.246952 0.283596 0.680441
1065 4 0.224837 0.272762 0.738868
1063 2 0.229743 0.272618 0.714351
805 2 0.330108 0.325296 0.669297
917 4 0.285354 0.250806 0.736851
806 4 0.334848 0.311333 0.689489
892 2 0.0248843 0.35029 0.725694
894 4 0.0153329 0.369518 0.73851
3276 4 0.00508205 0.384897 0.743942
814 2 0.0460968 0.3979 0.747492
816 4 0.0247527 0.385488 0.743549
1066 2 0.15786 0.408337 0.706537
1068 4 0.165623 0.396002 0.68622
942 4 0.0873935 0.409073 0.748386
1029 4 0.2324 0.403698 0.667447
1027 2 0.209131 0.402774 0.676552
1028 4 0.185863 0.401851 0.685657
1019 4 0.39186 0.407163 0.726703
1018 2 0.381222 0.403237 0.748987
1008 4 0.422822 0.336705 0.730981
1279 2 0.0363588 0.495568 0.692537
1280 4 0.061042 0.492414 0.690092
1281 4 0.0116756 0.498721 0.694981
1067 4 0.150096 0.420672 0.726854
940 2 0.109216 0.417685 0.739738
941 4 0.131038 0.426297 0.731089
1174 2 0.181234 0.49779 0.676489
1176 4 0.179794 0.488782 0.699769
1140 4 0.296337 0.473946 0.692475
1138 2 0.294646 0.451154 0.702615
1139 4 0.292955 0.428361 0.712755
1230 4 0.405072 0.470695 0.725312
1228 2 0.387184 0.460665 0.739616
1100 4 0.41068 0.460713 0.709729
1101 4 0.46047 0.461549 0.7143
1099 2 0.435575 0.461131 0.712014
1251 4 0.465467 0.465135 0.732687
3330 4 0.472008 0.449959 0.723445
3328 2 0.487868 0.435924 0.710154
1201 2 0.158631 0.0555392 0.765944
2047 2 0.159893 0.99968 0.770343
1202 4 0.154943 0.0330448 0.776219
1203 4 0.16232 0.0780335 0.755669
1148 4 0.1816 0.0809426 0.751415
2049 4 0.17042 0.0223324 0.769226
2256 4 0.184463 0.0176766 0.757471
2321 4 0.463388 0.00630464 0.777252
2322 4 0.467605 0.0528775 0.79497
2320 2 0.465496 0.0295911 0.786111
846 4 0.469408 0.0735236 0.79452
980 4 0.440377 0.0165883 0.827968
1214 4 0.0358324 0.161181 0.750839
864 4 0.0452972 0.0855572 0.765886
862 2 0.0425014 0.106323 0.779529
863 4 0.0397056 0.12709 0.793171
832 2 0.0138169 0.117175 0.826277
833 4 0.0297279 0.127282 0.80985
1125 4 0.0483893 0.134079 0.809188
1123 2 0.053813 0.158286 0.812319
31 1 0.124657 0.142243 0.820492
35 3 0.143129 0.135476 0.809018
33 3 0.10762 0.147537 0.805656
1257 4 0.240497 0.0971544 0.755574
1255 2 0.257032 0.0947716 0.774178
1256 4 0.273567 0.0923887 0.792782
840 4 0.273504 0.109309 0.803804
838 2 0.290077 0.115867 0.82134
1112 4 0.370812 0.101898 0.829169
844 2 0.480586 0.0943266 0.802734
845 4 0.491764 0.11513 0.810948
1177 2 0.00131578 0.237615 0.75002
1124 4 0.0592367 0.182492 0.815449
1072 2 0.0596536 0.239536 0.769285
1073 4 0.0397575 0.225493 0.763617
1106 4 0.13809 0.173339 0.767074
1130 4 0.142878 0.187325 0.754649
1129 2 0.151437 0.208134 0.765552