ITEM: TIMESTEP
1890000
ITEM: NUMBER OF ATOMS
4590
ITEM: BOX BOUNDS pp pp pp
-9.9985700000000008e+00 9.9985700000000008e+00
-9.9985700000000008e+00 9.9985700000000008e+00
-9.9985700000000008e+00 9.9985700000000008e+00
ITEM: ATOMS id type xs ys zs
701 4 0.0766748 0.0697542 0.0235854
465 4 0.0604382 0.0589743 0.0209837
463 2 0.0465423 0.0796821 0.0227919
700 2 0.098373 0.0585899 0.0290375
702 4 0.120071 0.0474256 0.0344896
566 4 0.140326 0.0482188 0.0387727
565 2 0.15554 0.0667168 0.0315936
2264 4 0.263495 0.0133457 0.0464167
2263 2 0.261242 0.0305427 0.0284067
2265 4 0.258988 0.0477397 0.0103966
746 4 0.458074 0.0584749 0.0232484
2469 4 0.471164 0.0445522 0.0277131
2467 2 0.475128 0.0221873 0.0381666
745 2 0.454955 0.0583389 0.99844
464 4 0.0326464 0.10039 0.0246001
590 4 0.0230151 0.10115 0.04156
589 2 0.0106865 0.101692 0.063306
567 4 0.170754 0.0852147 0.0244145
558 4 0.318298 0.127259 0.0480356
556 2 0.323358 0.113934 0.0685782
865 2 0.369826 0.164133 0.0192969
771 4 0.46984 0.127121 0.0672999
769 2 0.479546 0.149343 0.0733937
554 4 0.0415543 0.22218 0.0503506
553 2 0.0564934 0.234287 0.034369
555 4 0.0714325 0.246395 0.0183873
837 4 0.135732 0.21937 0.00928402
835 2 0.112909 0.229276 0.0117697
836 4 0.0900864 0.239182 0.0142553
666 4 0.336825 0.231158 0.05327
461 4 0.332523 0.234182 0.0723968
867 4 0.370123 0.174703 0.0419542
573 4 0.335264 0.24965 0.0604906
664 2 0.344705 0.207652 0.0500245
665 4 0.352584 0.184145 0.046779
1070 4 0.408103 0.216791 0.0200162
1069 2 0.405524 0.235358 0.0365625
770 4 0.489251 0.171566 0.0794875
2808 4 0.00582863 0.288009 0.00572294
294 4 0.0891306 0.299946 0.0486015
292 2 0.10664 0.317101 0.0436707
293 4 0.124149 0.334256 0.0387398
356 4 0.313826 0.306808 0.0395195
572 4 0.319577 0.288036 0.0325416
355 2 0.312138 0.321484 0.0193463
571 2 0.32742 0.268843 0.0465161
1071 4 0.402944 0.253925 0.0531088
324 4 0.40692 0.272486 0.0607258
322 2 0.418783 0.294464 0.0595222
672 4 0.436968 0.334399 0.0645407
323 4 0.430646 0.316441 0.0583185
620 4 0.00676129 0.379071 0.0673249
647 4 0.0187021 0.368353 0.0796038
646 2 0.0397303 0.355288 0.0831148
507 4 0.136608 0.331944 0.0541212
505 2 0.161062 0.337128 0.0547126
483 4 0.180512 0.360597 0.0508303
506 4 0.185515 0.342311 0.055304
481 2 0.20118 0.371033 0.0413917
609 4 0.228162 0.397589 0.0405674
482 4 0.221849 0.381469 0.0319531
607 2 0.249546 0.408939 0.0343158
357 4 0.31045 0.336159 0.999173
608 4 0.27093 0.420289 0.0280642
957 4 0.38684 0.402579 0.00377075
670 2 0.451197 0.354957 0.0647796
281 4 0.466764 0.393015 0.0732337
671 4 0.465427 0.375515 0.0650185
2651 4 0.478331 0.377576 0.0794664
1467 4 0.00773694 0.440343 0.0853914
551 4 0.0811864 0.434422 0.0766841
552 4 0.107196 0.476922 0.0724503
1787 4 0.109133 0.491442 0.060087
550 2 0.0941912 0.455672 0.0745672
1788 4 0.124435 0.499884 0.0132332
1786 2 0.116784 0.495663 0.0366601
242 4 0.105883 0.494894 0.0789665
246 4 0.250264 0.482134 0.0329957
244 2 0.244923 0.467219 0.0523398
245 4 0.239582 0.452304 0.0716839
272 4 0.242305 0.481899 0.015158
627 4 0.24383 0.432655 0.0717608
252 4 0.285686 0.43069 0.0198998
250 2 0.301582 0.445202 0.00717535
280 2 0.47257 0.417332 0.0735784
282 4 0.478377 0.44165 0.0739231
226 2 0.474362 0.477384 0.0497491
228 4 0.47838 0.49756 0.0355386
227 4 0.470344 0.457207 0.0639596
16 1 0.0696204 0.0601491 0.137675
20 3 0.0675998 0.0656208 0.11566
1806 4 0.0517918 0.0224366 0.145287
18 3 0.0590168 0.0399291 0.141812
1804 2 0.0506284 0.00660492 0.125969
19 3 0.0603135 0.0768185 0.150862
380 4 0.0464894 0.0708088 0.164628
17 3 0.0919139 0.0580713 0.14295
450 4 0.161905 0.0494702 0.165721
673 2 0.119974 0.0423694 0.161448
675 4 0.0958489 0.0423946 0.15488
448 2 0.17368 0.068619 0.154773
652 2 0.324708 0.037159 0.148457
654 4 0.312163 0.0168069 0.155779
653 4 0.337253 0.057511 0.141136
484 2 0.377956 0.0100275 0.114527
295 2 0.344213 0.0641443 0.106612
297 4 0.35012 0.0415353 0.115507
485 4 0.362227 0.0282596 0.107792
579 4 0.0898375 0.10548 0.102969
237 4 0.144685 0.139057 0.12829
578 4 0.129058 0.132013 0.119045
577 2 0.109448 0.118746 0.111007
476 4 0.128155 0.148965 0.129348
737 4 0.137895 0.147406 0.112555
736 2 0.144817 0.166426 0.0978755
235 2 0.160824 0.120063 0.130274
475 2 0.115636 0.165526 0.143284
236 4 0.176963 0.101069 0.132258
693 4 0.195309 0.0950041 0.128765
449 4 0.185456 0.0877678 0.143826
691 2 0.21916 0.0961443 0.136183
692 4 0.24301 0.0972845 0.143601
582 4 0.262575 0.097131 0.146246
557 4 0.328419 0.100608 0.0891208
296 4 0.338307 0.0867534 0.0977172
311 4 0.425652 0.145634 0.130388
310 2 0.432631 0.162516 0.147461
339 4 0.0450632 0.184674 0.158874
337 2 0.069068 0.189363 0.164066
738 4 0.15174 0.185446 0.0831956
477 4 0.103118 0.182087 0.15722
338 4 0.0930729 0.194052 0.169258
283 2 0.317449 0.202992 0.141279
354 4 0.326037 0.242777 0.133102
285 4 0.308176 0.180605 0.147444
284 4 0.326721 0.22538 0.135113
460 2 0.334138 0.233635 0.0973421
462 4 0.335753 0.233087 0.122287
255 4 0.340729 0.235098 0.139139
254 4 0.386306 0.243099 0.158098
253 2 0.363518 0.239099 0.148619
630 4 0.394764 0.225466 0.161738
1012 2 0.492474 0.191623 0.107935
1013 4 0.484708 0.212487 0.119317
312 4 0.439609 0.179398 0.164534
352 2 0.308614 0.259775 0.138819
353 4 0.291191 0.276773 0.144537
754 2 0.280619 0.307813 0.143779
755 4 0.281585 0.28737 0.158144
278 4 0.277798 0.26823 0.155336
756 4 0.279653 0.328256 0.129415
277 2 0.254338 0.262521 0.161834
456 4 0.0751248 0.329764 0.0945707
648 4 0.0607584 0.342224 0.0866258
454 2 0.0972102 0.341459 0.0953727
455 4 0.119296 0.353154 0.0961747
626 4 0.205156 0.408543 0.0923432
537 4 0.207152 0.346011 0.108349
535 2 0.20199 0.367861 0.0973455
611 4 0.225713 0.340275 0.112599
610 2 0.249793 0.343355 0.118585
536 4 0.196828 0.389712 0.0863422
612 4 0.273874 0.346436 0.12457
741 4 0.390281 0.359401 0.101376
739 2 0.391095 0.36937 0.124292
740 4 0.391909 0.379338 0.147208
15 3 0.38336 0.370734 0.162925
385 2 0.358025 0.398751 0.159163
386 4 0.381217 0.389414 0.158763
495 4 0.400702 0.39428 0.155813
387 4 0.334833 0.408088 0.159562
1465 2 0.0209333 0.459073 0.0954028
1466 4 0.0341296 0.477803 0.105414
1791 4 0.0279657 0.492007 0.118714
625 2 0.224493 0.420599 0.082052
637 2 0.218596 0.485435 0.153546
638 4 0.239747 0.472932 0.148908
639 4 0.197446 0.497938 0.158184
1439 4 0.178872 0.497378 0.165787
303 4 0.299162 0.445979 0.128907
766 2 0.268201 0.46167 0.147627
768 4 0.288421 0.462556 0.132946
301 2 0.317387 0.436804 0.143358
302 4 0.335613 0.427628 0.157809
493 2 0.407504 0.416769 0.14726
494 4 0.414307 0.439258 0.138707
660 4 0.424663 0.45702 0.132552
658 2 0.432303 0.470645 0.152075
2480 4 0.0135518 0.0143537 0.215534
379 2 0.0507616 0.087239 0.182985
1505 4 0.155653 0.0454835 0.183711
674 4 0.1441 0.0423443 0.168016
1504 2 0.16567 0.0373418 0.205124
689 4 0.190022 0.0169993 0.230656
1506 4 0.175688 0.0292 0.226538
1661 4 0.31351 0.00074419 0.168523
22 3 0.396128 0.00834075 0.203321
21 1 0.405782 0.00871515 0.224198
23 3 0.38926 0.0125389 0.240035
758 4 0.421273 0.0832415 0.220968
757 2 0.429176 0.0595746 0.222578
25 3 0.421304 0.0253615 0.224987
759 4 0.43708 0.0359077 0.224188
350 4 0.438263 0.0179391 0.230669
349 2 0.456642 0.017046 0.247598
512 4 0.0450579 0.119572 0.209816
381 4 0.0550338 0.103669 0.201342
511 2 0.0570778 0.140511 0.203316
513 4 0.0690978 0.16145 0.196815
545 4 0.133276 0.160246 0.250756
580 2 0.277239 0.102386 0.165805
581 4 0.291903 0.107641 0.185363
30 3 0.290592 0.126114 0.189744
26 1 0.310552 0.135757 0.194964
29 3 0.327726 0.120399 0.192207
27 3 0.310148 0.142599 0.216923
28 3 0.314201 0.154238 0.181415
521 4 0.475708 0.13967 0.20618
520 2 0.495106 0.155135 0.209302
363 4 0.105236 0.18027 0.176429
362 4 0.127208 0.212296 0.20793
361 2 0.116222 0.196283 0.19218
372 4 0.146136 0.220028 0.203889
370 2 0.149616 0.241821 0.215642
723 4 0.232757 0.196649 0.23344
721 2 0.214711 0.185944 0.247037
628 2 0.412804 0.209661 0.168805
765 4 0.400939 0.241548 0.171577
420 4 0.414774 0.238652 0.248723
629 4 0.430844 0.193855 0.175872
394 2 0.0431053 0.307444 0.246106
750 4 0.0719241 0.31723 0.222183
395 4 0.0574894 0.3229 0.232713
748 2 0.0783121 0.304773 0.201467
749 4 0.0847002 0.292315 0.18075
300 4 0.150149 0.318788 0.217486
371 4 0.153096 0.263614 0.227395
279 4 0.230878 0.256813 0.168332
307 2 0.31177 0.295701 0.201959
309 4 0.313621 0.282184 0.181005
308 4 0.30992 0.309217 0.222912
497 4 0.295997 0.321661 0.229944
763 2 0.411833 0.262237 0.180433
764 4 0.422728 0.282927 0.189289
623 4 0.437873 0.295328 0.192595
622 2 0.462866 0.296029 0.192446
624 4 0.487859 0.296731 0.192296
2617 2 0.00947781 0.413895 0.251076
2618 4 0.0174558 0.401575 0.230835
262 2 0.045098 0.395482 0.209615
263 4 0.0647846 0.380704 0.20523
602 4 0.0671093 0.379732 0.225497
264 4 0.0254115 0.41026 0.214
298 2 0.136068 0.334353 0.231075
299 4 0.121987 0.349917 0.244664
601 2 0.0879662 0.371967 0.236894
290 4 0.185373 0.365985 0.209408
289 2 0.177298 0.389254 0.213716
291 4 0.169222 0.412522 0.218023
11 1 0.399851 0.374524 0.178168
12 3 0.412069 0.35525 0.181062
14 3 0.413973 0.391285 0.17055
13 3 0.390557 0.380643 0.19853
2861 4 0.453233 0.413528 0.23763
416 4 0.183283 0.423358 0.208084
415 2 0.189469 0.447583 0.208322
1430 4 0.19667 0.476858 0.227975
417 4 0.195656 0.471808 0.20856
767 4 0.247981 0.460784 0.162309
713 4 0.350584 0.494275 0.224694
659 4 0.439942 0.48427 0.171599
597 4 0.491837 0.455644 0.197168
595 2 0.475499 0.47173 0.187195
596 4 0.45916 0.487816 0.177222
231 4 0.444632 0.491879 0.188855
1568 4 0.447227 0.502377 0.172575
232 2 0.00212291 0.0652888 0.299876
1799 4 0.0200163 0.0314796 0.306192
233 4 0.0218571 0.0499387 0.299534
1402 2 0.0544093 0.0376748 0.283848
1403 4 0.0377096 0.038812 0.302422
1798 2 0.00872352 0.0150977 0.321334
1404 4 0.0711091 0.0365377 0.265274
633 4 0.386611 0.0468533 0.317814
631 2 0.391331 0.0563791 0.295183
632 4 0.39605 0.0659049 0.272552
698 4 0.372453 0.0349853 0.324153
351 4 0.475021 0.0161529 0.264527
744 4 0.494306 0.0239354 0.267314
742 2 0.498811 0.0301345 0.291115
399 4 0.0490735 0.111042 0.324962
397 2 0.064622 0.12954 0.31854
398 4 0.0801704 0.148038 0.312118
393 4 0.0846745 0.159392 0.296822
317 4 0.0321239 0.108369 0.333087
731 4 0.0423161 0.0925862 0.328297
392 4 0.11864 0.151305 0.261022
390 4 0.0899541 0.165085 0.314619
391 2 0.101657 0.155349 0.278922
404 4 0.206306 0.163681 0.322859
249 4 0.215673 0.146254 0.320547
403 2 0.198163 0.163919 0.29922
444 4 0.027121 0.241369 0.268742
544 2 0.155847 0.16825 0.257944
546 4 0.178418 0.176254 0.265132
722 4 0.196664 0.175238 0.260634
405 4 0.190019 0.164157 0.275581
717 4 0.40219 0.253505 0.252531
331 2 0.457901 0.191854 0.302135
332 4 0.457295 0.202334 0.279442
418 2 0.429175 0.219923 0.25691
419 4 0.443575 0.201193 0.265097
760 2 0.486252 0.211254 0.258792
762 4 0.461687 0.207075 0.260859
333 4 0.458508 0.181374 0.324828
396 4 0.0287212 0.291987 0.259499
443 4 0.0199432 0.290305 0.276119
365 4 0.0127793 0.302521 0.263669
442 2 0.0235321 0.265837 0.27243
510 4 0.233471 0.298433 0.306768
508 2 0.21878 0.315365 0.317843
400 2 0.233277 0.27845 0.270418
402 4 0.241065 0.29307 0.289147
401 4 0.225488 0.26383 0.251689
509 4 0.204089 0.332297 0.328919
345 4 0.241705 0.280821 0.304463
496 2 0.285084 0.327716 0.25161
498 4 0.27417 0.333771 0.273276
343 2 0.258869 0.270048 0.31911
715 2 0.399865 0.271064 0.270179
716 4 0.397541 0.288623 0.287828
542 4 0.404978 0.287194 0.306283
541 2 0.404192 0.310297 0.315815
543 4 0.403406 0.333399 0.325346
547 2 0.0355839 0.386456 0.30848
548 4 0.0212401 0.366474 0.312967
549 4 0.0499277 0.406439 0.303993
777 4 0.055109 0.409485 0.323103
407 4 0.0175078 0.354932 0.328619
603 4 0.108823 0.364203 0.24829
734 4 0.117356 0.35343 0.262777
733 2 0.118069 0.351539 0.287698
735 4 0.118781 0.349649 0.31262
677 4 0.137824 0.345619 0.314429
676 2 0.161981 0.34278 0.320221
435 4 0.201758 0.350137 0.321472
678 4 0.186139 0.339942 0.326013
728 4 0.373209 0.402679 0.267176
727 2 0.364114 0.413633 0.28773
2537 4 0.49846 0.374284 0.270168
2860 2 0.468021 0.3998 0.252395
615 4 0.415597 0.349989 0.328029
2538 4 0.489124 0.372515 0.319264
2536 2 0.493792 0.3734 0.294716
2862 4 0.482809 0.386071 0.26716
753 4 0.481769 0.35421 0.319205
775 2 0.0697809 0.429668 0.321504
776 4 0.0844527 0.449851 0.319904
414 4 0.0929788 0.457397 0.302448
412 2 0.108788 0.473755 0.312825
413 4 0.124597 0.490112 0.323202
1545 4 0.189468 0.496356 0.326583
1543 2 0.165024 0.497296 0.321404
438 4 0.323111 0.482699 0.313499
436 2 0.330017 0.458728 0.311812
729 4 0.355018 0.424588 0.308283
437 4 0.336924 0.434757 0.310124
1771 2 0.0139232 0.00753052 0.376394
1772 4 0.0226474 0.0131944 0.399131
732 4 0.0674246 0.0661263 0.362504
2238 4 0.0326349 0.030663 0.401901
369 4 0.0749651 0.0558936 0.3787
367 2 0.0841567 0.044008 0.398686
730 2 0.0548704 0.0793563 0.3454
1701 4 0.166029 0.0792083 0.378056
257 4 0.382539 0.0462558 0.337078
697 2 0.364604 0.015625 0.337892
256 2 0.392359 0.0586108 0.356471
258 4 0.402178 0.0709659 0.375865
426 4 0.396833 0.0582781 0.390633
424 2 0.389049 0.0529603 0.413791
478 2 0.478971 0.0572764 0.336021
480 4 0.457016 0.068689 0.339618
1428 4 0.465944 0.0132333 0.415291
318 4 0.00536578 0.137833 0.363363
316 2 0.0187448 0.123101 0.348225
604 2 0.132467 0.0937371 0.403794
605 4 0.14823 0.0851867 0.38637
247 2 0.216684 0.12702 0.336492
1699 2 0.181995 0.0946176 0.366532
1700 4 0.197961 0.110027 0.355007
248 4 0.217694 0.107787 0.352436
600 4 0.232658 0.144189 0.406887
683 4 0.243348 0.127472 0.403837
682 2 0.266627 0.119182 0.407648
319 2 0.326249 0.120166 0.391085
320 4 0.309495 0.112943 0.408182
684 4 0.289906 0.110892 0.41146
708 4 0.337906 0.145689 0.371075
321 4 0.343003 0.12739 0.373988
516 4 0.444525 0.127224 0.362812
575 4 0.433988 0.123783 0.378555
574 2 0.439922 0.116521 0.401734
514 2 0.45181 0.147994 0.35095
459 4 0.00750308 0.193707 0.379313
388 2 0.0990712 0.173127 0.336468
389 4 0.108188 0.18117 0.358317
598 2 0.227556 0.167754 0.413508
378 4 0.286869 0.242044 0.332837
376 2 0.303394 0.22569 0.342039
377 4 0.319919 0.209337 0.351241
707 4 0.332457 0.192584 0.354587
474 4 0.268755 0.229456 0.392674
488 4 0.270062 0.223772 0.412551
487 2 0.278744 0.200743 0.416962
472 2 0.252113 0.245818 0.383699
706 2 0.335182 0.169137 0.362831
267 4 0.357427 0.245933 0.404899
515 4 0.459095 0.168765 0.339088
453 4 0.464209 0.187544 0.342759
451 2 0.486211 0.193654 0.352945
347 4 0.0653132 0.318807 0.383583
618 4 0.0827879 0.319348 0.393287
275 4 0.143295 0.326115 0.377072
617 4 0.126409 0.318755 0.368841
616 2 0.104598 0.319052 0.381064
274 2 0.157629 0.306608 0.383333
473 4 0.235472 0.262179 0.374724
374 4 0.220535 0.265598 0.388235
276 4 0.171963 0.287101 0.389593
373 2 0.19605 0.266877 0.393134
375 4 0.171565 0.268156 0.398034
344 4 0.276032 0.259276 0.333758
265 2 0.352429 0.267185 0.417088
752 4 0.48411 0.32418 0.359123
346 2 0.055901 0.336852 0.398107
408 4 0.0285294 0.333688 0.372528
406 2 0.0230186 0.34431 0.350573
348 4 0.0464888 0.354898 0.41263
433 2 0.207817 0.368916 0.336828
434 4 0.213876 0.387694 0.352185
502 2 0.276447 0.390197 0.38687
503 4 0.293927 0.404356 0.397785
336 4 0.312234 0.409232 0.394412
504 4 0.258967 0.376038 0.375954
334 2 0.336473 0.405332 0.389674
335 4 0.360712 0.401432 0.384936
240 4 0.374736 0.40964 0.396747
238 2 0.386761 0.411661 0.418576
751 2 0.482939 0.339195 0.339164
613 2 0.416529 0.352537 0.352885
614 4 0.417461 0.355085 0.377741
668 4 0.305831 0.47071 0.408723
669 4 0.298288 0.422202 0.399194
667 2 0.302059 0.446456 0.403959
3990 4 0.477768 0.49486 0.35993
2237 4 0.00792877 0.0557546 0.437408
2236 2 0.0202818 0.0432088 0.419655
720 4 0.013601 0.0659653 0.453095
718 2 0.0252826 0.0804604 0.469786
1781 4 0.0924525 0.9962 0.462602
368 4 0.0933483 0.0321223 0.418671
1782 4 0.109112 0.0187361 0.421186
1780 2 0.100782 0.00746811 0.441894
341 4 0.182746 0.0116818 0.492985
961 2 0.26165 0.00649712 0.499743
724 2 0.299846 0.0445249 0.477611
963 4 0.284798 0.015938 0.500251
726 4 0.303546 0.0680405 0.469962
725 4 0.296146 0.0210092 0.48526
1182 4 0.31116 0.07692 0.454859
1579 2 0.35431 0.0135222 0.43047
1580 4 0.372395 0.0307339 0.431836
425 4 0.381265 0.0476424 0.436949
2880 4 0.460337 0.0823558 0.493565
642 4 0.449473 0.0751493 0.477714
719 4 0.0369642 0.0949555 0.486478
606 4 0.116704 0.102288 0.421218
1033 2 0.12066 0.144096 0.466586
1035 4 0.133127 0.154219 0.447421
1034 4 0.108193 0.133973 0.48575
261 4 0.146464 0.15684 0.433437
1180 2 0.306375 0.0966977 0.440328
1181 4 0.30159 0.116475 0.425798
640 2 0.443111 0.0912431 0.459667
3157 2 0.484545 0.159401 0.490294
641 4 0.436748 0.107337 0.441621
576 4 0.445856 0.109259 0.424912
306 4 0.44324 0.124975 0.436656
304 2 0.452799 0.146463 0.445146
470 4 0.0126439 0.165444 0.482761
259 2 0.159138 0.176349 0.442598
694 2 0.154421 0.224629 0.478112
696 4 0.142501 0.236613 0.496538
1260 4 0.122831 0.242649 0.495977
599 4 0.222454 0.19132 0.420128
260 4 0.171812 0.195859 0.451759
695 4 0.16634 0.212646 0.459687
687 4 0.222122 0.21131 0.421395
686 4 0.184727 0.211162 0.454596
685 2 0.203424 0.211236 0.437996
489 4 0.287427 0.177714 0.421373
411 4 0.253376 0.20273 0.466073
409 2 0.267699 0.201682 0.486541
467 4 0.357554 0.181679 0.42359
466 2 0.354944 0.206439 0.421284
468 4 0.352333 0.231199 0.418978
305 4 0.462357 0.167951 0.453637
3158 4 0.473322 0.167842 0.469607
585 4 0.480976 0.243393 0.470275
266 4 0.34743 0.288436 0.429278
584 4 0.471369 0.289266 0.487715
583 2 0.476172 0.26633 0.478995
2456 4 0.461674 0.297772 0.503189
2812 2 0.0138797 0.349349 0.436348
2813 4 0.0372058 0.355332 0.429619
326 4 0.0555078 0.362705 0.427642
325 2 0.0718342 0.371423 0.444454
10 3 0.135991 0.354186 0.466229
327 4 0.0881606 0.380142 0.461265
7 3 0.107712 0.378144 0.461844
6 1 0.122594 0.369181 0.476922
711 4 0.148837 0.402076 0.489552
8 3 0.135443 0.386308 0.485865
9 3 0.110708 0.358562 0.493784
774 4 0.212236 0.402537 0.474584
635 4 0.209203 0.40988 0.456651
709 2 0.171626 0.404979 0.479683
772 2 0.225615 0.39575 0.494586
710 4 0.194415 0.407883 0.469813
239 4 0.398785 0.413682 0.440405
588 4 0.381523 0.418438 0.449078
1383 4 0.0497186 0.466254 0.43915
1381 2 0.0626573 0.486886 0.433484
680 4 0.0591343 0.447032 0.438256
679 2 0.0762464 0.439116 0.454678
384 4 0.14031 0.418952 0.482797
681 4 0.0933585 0.4312 0.4711
383 4 0.0913408 0.425538 0.490498
568 2 0.159238 0.458105 0.486543
569 4 0.145281 0.437359 0.486614
382 2 0.115826 0.422245 0.486647
634 2 0.224182 0.423648 0.442117
570 4 0.173195 0.47885 0.486471
636 4 0.239162 0.437416 0.427583
2 3 0.327107 0.499541 0.449792
4 3 0.318527 0.483707 0.416802
880 2 0.330433 0.497531 0.489626
5 3 0.297592 0.476831 0.447332
1 1 0.309767 0.492634 0.436346
586 2 0.386522 0.425321 0.47259
1184 4 0.00826515 0.0286593 0.562268
3077 4 0.00901684 0.0302777 0.541855
1183 2 0.00315105 0.0114329 0.579654
1150 2 0.149366 0.0726922 0.547877
1151 4 0.14755 0.0804394 0.571581
342 4 0.164835 0.0528105 0.515084
1152 4 0.151181 0.064945 0.524173
340 2 0.17379 0.0322462 0.504035
430 2 0.323763 0.00915016 0.512477
432 4 0.302998 0.00848764 0.498564
431 4 0.344527 0.00981268 0.52639
843 4 0.348507 0.0288903 0.530001
842 4 0.380104 0.046273 0.564645
841 2 0.364306 0.0375816 0.547323
1217 4 0.392054 0.0468762 0.581354
2879 4 0.476234 0.0400545 0.51498
2878 2 0.468285 0.0612052 0.504272
3009 4 0.487184 0.0682282 0.57388
879 4 0.0748487 0.145955 0.551299
877 2 0.0548576 0.157516 0.541714
1199 4 0.0170138 0.160145 0.53513
878 4 0.0348666 0.169077 0.532129
938 4 0.092764 0.142709 0.544945
937 2 0.105919 0.139011 0.524006
939 4 0.119074 0.135314 0.503067
1272 4 0.0905683 0.148308 0.563455
1155 4 0.152951 0.0939961 0.584331
3159 4 0.495767 0.150961 0.510982
1259 4 0.085893 0.21562 0.516119
1270 2 0.0954708 0.169826 0.575209
1258 2 0.104362 0.229135 0.506048
898 2 0.292101 0.206699 0.550219
899 4 0.295247 0.215208 0.573519
900 4 0.288956 0.19819 0.526919
410 4 0.282023 0.200635 0.507008
791 4 0.312172 0.22181 0.580913
790 2 0.325181 0.242362 0.57512
811 2 0.236881 0.299776 0.509628
813 4 0.221206 0.284885 0.497069
812 4 0.252557 0.314668 0.522186
650 4 0.266586 0.313103 0.536107
649 2 0.266392 0.312876 0.561109
651 4 0.266198 0.312649 0.586111
871 2 0.367128 0.270997 0.545443
872 4 0.355699 0.272258 0.567646
792 4 0.33819 0.262914 0.569326
1238 4 0.343841 0.276604 0.582428
873 4 0.378556 0.269736 0.52324
2455 2 0.478463 0.316196 0.505167
2457 4 0.495251 0.334619 0.507146
935 4 0.00787571 0.342206 0.502577
1136 4 0.113668 0.377111 0.565299
1135 2 0.137396 0.377721 0.57316
1137 4 0.161124 0.378332 0.581021
773 4 0.238995 0.388963 0.514589
1190 4 0.243911 0.384401 0.533126
1189 2 0.235489 0.398091 0.552279
1191 4 0.227067 0.411781 0.571432
804 4 0.263727 0.330075 0.527668
802 2 0.259677 0.354309 0.523029
803 4 0.255627 0.378542 0.51839
930 4 0.254316 0.397642 0.522842
927 4 0.410592 0.374969 0.528064
925 2 0.4018 0.396049 0.517889
1161 4 0.163672 0.508664 0.564648
2243 4 0.148604 0.500812 0.552795
1172 4 0.221651 0.430442 0.568938
1159 2 0.182023 0.495028 0.574771
896 4 0.207733 0.416385 0.570617
928 2 0.273081 0.412994 0.51673
929 4 0.291846 0.428347 0.510618
891 4 0.320925 0.48184 0.529428
1952 4 0.317464 0.471133 0.513945
881 4 0.328238 0.488005 0.51264
1951 2 0.324719 0.447702 0.518796
889 2 0.300138 0.494618 0.534887
926 4 0.393008 0.417128 0.507714
1953 4 0.331975 0.424271 0.523646
587 4 0.391521 0.432203 0.496102
1001 4 0.410602 0.488911 0.551156
662 4 0.414597 0.471808 0.542137
661 2 0.40814 0.452701 0.52736
663 4 0.401682 0.433593 0.512582
1911 4 0.418081 0.474185 0.561589
1909 2 0.428304 0.460234 0.579645
1332 4 0.428687 0.483513 0.548357
1330 2 0.4489 0.496543 0.541513
945 4 0.0510985 0.00480199 0.639695
1057 2 0.157741 0.0536771 0.599492
1058 4 0.156984 0.0322539 0.612362
2375 4 0.145299 0.015084 0.611056
1284 4 0.129293 0.0856488 0.653247
1059 4 0.158498 0.0751003 0.586621
950 4 0.229068 0.0385388 0.597314
949 2 0.249143 0.0411436 0.61199
951 4 0.269217 0.0437485 0.626667
1031 4 0.264457 0.0565371 0.641326
1030 2 0.269713 0.0794159 0.649935
1216 2 0.404013 0.025984 0.588113
1218 4 0.415972 0.0050918 0.594872
3007 2 0.497456 0.0783418 0.59431
808 2 0.489153 0.0749835 0.649336
1083 4 0.0435854 0.142953 0.653388
3179 4 0.0342525 0.15969 0.656438
1153 2 0.160455 0.116767 0.591428
1154 4 0.167959 0.139537 0.598525
1221 4 0.157965 0.141541 0.615423
1219 2 0.171827 0.16039 0.624237
1211 4 0.245838 0.170001 0.666584
1032 4 0.274968 0.102295 0.658544
3178 2 0.0144543 0.171516 0.646776
1245 4 0.0736251 0.204639 0.641685
1271 4 0.100373 0.191343 0.586962
1243 2 0.0877756 0.205699 0.621098
1244 4 0.101926 0.206759 0.600511
1209 4 0.0802433 0.204064 0.66066
1210 2 0.224675 0.17381 0.653825
1212 4 0.203512 0.177619 0.641065
1220 4 0.18569 0.17924 0.633052
797 4 0.186026 0.241763 0.621524
796 2 0.191883 0.218368 0.62812
798 4 0.197739 0.194972 0.634717
857 4 0.301576 0.21056 0.591606
856 2 0.292983 0.215055 0.614652
858 4 0.28439 0.21955 0.637698
905 4 0.45286 0.243919 0.628283
3123 4 0.455873 0.231626 0.644513
3121 2 0.476823 0.218463 0.640902
3122 4 0.497773 0.205301 0.637292
983 4 0.0253894 0.294417 0.596752
982 2 0.0386374 0.312611 0.607645
984 4 0.0518855 0.330805 0.618537
3263 4 0.0535262 0.33296 0.638135
3262 2 0.0509596 0.325456 0.661848
805 2 0.304993 0.315256 0.640521
806 4 0.283104 0.321821 0.650666
807 4 0.326883 0.308691 0.630375
1239 4 0.344506 0.298301 0.627479
1237 2 0.344174 0.287453 0.604953
906 4 0.451221 0.287724 0.604216
904 2 0.45204 0.265822 0.61625
952 2 0.485915 0.31448 0.592545
953 4 0.468839 0.29722 0.598521
1041 4 0.0572009 0.348158 0.626432
1039 2 0.0563879 0.372918 0.623043
1040 4 0.0555749 0.397678 0.619655
993 4 0.0436842 0.403169 0.604733
897 4 0.162119 0.398607 0.580815
895 2 0.184926 0.407496 0.575716
1027 2 0.200663 0.414857 0.65056
1206 4 0.485997 0.412907 0.603475
3309 4 0.489221 0.393726 0.606311
3307 2 0.498224 0.372183 0.597364
991 2 0.0378924 0.425104 0.615244
992 4 0.0321006 0.447039 0.625755
1029 4 0.218417 0.416883 0.633071
1171 2 0.218149 0.451456 0.582026
1160 4 0.200374 0.481392 0.584894
1173 4 0.214647 0.472471 0.595115
1188 4 0.184548 0.478321 0.651884
1187 4 0.200274 0.480217 0.604452
1186 2 0.192411 0.479269 0.628168
1175 4 0.172794 0.493369 0.65989
1204 2 0.465425 0.425994 0.609019
1910 4 0.438528 0.446282 0.5977
1269 4 0.426928 0.44549 0.614067
1267 2 0.421219 0.459553 0.633937
1205 4 0.444854 0.43908 0.614563
1268 4 0.41551 0.473616 0.653807
1226 4 0.170745 0.0801229 0.739573
1148 4 0.18745 0.0743347 0.731555
1203 4 0.174347 0.0610701 0.738881
1201 2 0.1783 0.0371405 0.744958
2256 4 0.199955 0.00567231 0.749302
1003 2 0.326348 0.0317074 0.69663
1005 4 0.308408 0.0481825 0.70228
1049 4 0.357553 0.00252497 0.697062
1004 4 0.344287 0.0152323 0.690981
1050 4 0.404951 0.0051535 0.712785
1048 2 0.381252 0.00383924 0.704923
45 3 0.437652 0.0472811 0.684306
1162 2 0.494075 0.05989 0.703019
42 3 0.433915 0.0752257 0.708761
41 1 0.438592 0.0698896 0.686879
1163 4 0.477257 0.0726078 0.68958
44 3 0.459856 0.0775741 0.681664
810 4 0.475295 0.0744716 0.670142
43 3 0.4229 0.0800788 0.673156
1081 2 0.0372749 0.123013 0.66709
1075 2 0.0409532 0.0917623 0.721058
1076 4 0.0289908 0.0937333 0.69919
1082 4 0.0309643 0.103072 0.680791
1077 4 0.0529157 0.0897913 0.742925
1282 2 0.130724 0.0960433 0.675942
909 4 0.0983962 0.160556 0.706318
907 2 0.108121 0.137565 0.707743
908 4 0.117845 0.114575 0.709168
1283 4 0.132156 0.106438 0.698638
1227 4 0.132399 0.103716 0.717809
1225 2 0.151572 0.0919194 0.728691
851 4 0.0839383 0.173645 0.709891
1149 4 0.222422 0.0934245 0.761776
1147 2 0.204936 0.0838796 0.746665
888 4 0.251198 0.15339 0.677102
886 2 0.26946 0.149949 0.69383
829 2 0.326777 0.157763 0.69722
830 4 0.302317 0.157729 0.702407
887 4 0.287723 0.146508 0.710558
978 4 0.29185 0.163122 0.717742
831 4 0.351236 0.157796 0.692032
1142 4 0.367696 0.146857 0.695967
1141 2 0.384156 0.164902 0.701318
1025 4 0.461153 0.151982 0.698878
3424 2 0.474912 0.113983 0.69003
3426 4 0.474696 0.0901974 0.682325
3425 4 0.475128 0.137769 0.697735
3269 4 0.474689 0.150464 0.71286
3268 2 0.484988 0.162513 0.732198
1024 2 0.439769 0.164875 0.700165
1214 4 0.0277055 0.168451 0.74889
850 2 0.0651497 0.173332 0.726385
852 4 0.0463611 0.173018 0.74288
1213 2 0.00910728 0.18509 0.747333
1178 4 7.13908e-05 0.218308 0.740102
1208 4 0.0996214 0.177436 0.698292
1207 2 0.0899323 0.19075 0.679476
1107 4 0.101708 0.176369 0.717706
1105 2 0.123218 0.185019 0.727069
1106 4 0.144729 0.193669 0.736431
1130 4 0.155838 0.207083 0.729464
1129 2 0.169102 0.221739 0.744776
976 2 0.291744 0.181248 0.734963
916 2 0.285895 0.237838 0.742933
1193 4 0.369036 0.240794 0.697888
1194 4 0.400382 0.202748 0.706294
1192 2 0.384709 0.221771 0.702091
1143 4 0.400616 0.182947 0.706669
1262 4 0.414988 0.192729 0.714876
1261 2 0.422694 0.201016 0.737173
1026 4 0.418385 0.177769 0.701453
3264 4 0.0483929 0.317952 0.68556
779 4 0.0492738 0.299157 0.688777
778 2 0.0589717 0.276321 0.691882
780 4 0.0686696 0.253485 0.694986
893 4 0.0487413 0.311854 0.703971
892 2 0.0397375 0.328027 0.720781
1065 4 0.249787 0.327315 0.685252
947 4 0.324771 0.268328 0.67692
1063 2 0.254166 0.303137 0.68988
946 2 0.301946 0.273733 0.685578
948 4 0.279121 0.279137 0.694237
1064 4 0.258546 0.278959 0.694507
917 4 0.287762 0.258661 0.729218
1008 4 0.434966 0.282568 0.719765
1006 2 0.444235 0.28354 0.742966
894 4 0.0307338 0.344199 0.73759
3276 4 0.0172566 0.348314 0.750304
942 4 0.0847047 0.396218 0.740016
1067 4 0.144243 0.390983 0.702639
940 2 0.105965 0.393918 0.72706
941 4 0.127226 0.391618 0.714103
1066 2 0.155186 0.408092 0.688053
1028 4 0.182909 0.412832 0.668049
1019 4 0.388157 0.407788 0.734778
1068 4 0.166129 0.4252 0.673468
1176 4 0.167956 0.473724 0.705622
1174 2 0.170375 0.483546 0.682756
2168 4 0.407009 0.48939 0.664748
1140 4 0.362219 0.466554 0.717436
1230 4 0.38141 0.425557 0.738377
1100 4 0.397013 0.423363 0.726802
1138 2 0.3585 0.47115 0.693141
1139 4 0.354781 0.475746 0.668847
1101 4 0.441423 0.446254 0.728924
1099 2 0.419218 0.434809 0.727863
3330 4 0.460782 0.449317 0.72866
1251 4 0.449666 0.453375 0.744784
3328 2 0.485715 0.450995 0.729527
1296 4 0.00934362 0.049692 0.769816
1294 2 0.00293373 0.0256135 0.767739
864 4 0.0506569 0.0801176 0.759914
1295 4 0.996524 0.0015349 0.765661
1202 4 0.182252 0.0132109 0.751035
975 4 0.337473 0.0352324 0.826541
2322 4 0.468839 0.0461138 0.779941
2320 2 0.466936 0.0211934 0.77921
846 4 0.461277 0.0621857 0.771703
862 2 0.0533465 0.0999827 0.774858
863 4 0.0560362 0.119848 0.789802
833 4 0.0456014 0.126677 0.804483
1125 4 0.0598136 0.137334 0.796236
1123 2 0.0752785 0.156949 0.795107
832 2 0.0408183 0.12223 0.828619
34 3 0.129396 0.140796 0.82757
1257 4 0.238686 0.103127 0.767639
1255 2 0.249521 0.117557 0.784946
921 4 0.208213 0.143488 0.825217
1256 4 0.260356 0.131988 0.802254
840 4 0.266637 0.131844 0.82125
844 2 0.474102 0.0832179 0.775986
845 4 0.486927 0.10425 0.780268
1072 2 0.0744861 0.205954 0.822604
1073 4 0.0817019 0.191662 0.803399
1177 2 0.00267637 0.237862 0.755466
1124 4 0.0907434 0.176564 0.793978
919 2 0.202415 0.167569 0.828638
1131 4 0.182367 0.236394 0.760087
1277 4 0.186592 0.232305 0.778981
1276 2 0.191069 0.214987 0.796451
1278 4 0.195546 0.197669 0.813922
822 4 0.17365 0.246425 0.774369
1241 4 0.188537 0.208761 0.829458
977 4 0.291639 0.199375 0.752185
918 4 0.284029 0.217015 0.756647
1298 4 0.295771 0.208298 0.769324
1297 2 0.312976 0.205542 0.787257
1299 4 0.33018 0.202785 0.80519
1086 4 0.349388 0.200166 0.812885
50 3 0.391212 0.2061 0.78335
46 1 0.41165 0.211786 0.791632
1084 2 0.349253 0.180273 0.828032
49 3 0.413395 0.234868 0.793249
48 3 0.414698 0.20213 0.81251
47 3 0.428002 0.204071 0.777411
1263 4 0.4304 0.209304 0.759469
1146 4 0.489522 0.185073 0.767365
1145 4 0.445449 0.20824 0.772017
1144 2 0.467486 0.196656 0.769691
1022 4 0.42552 0.187043 0.821137
1021 2 0.444994 0.181473 0.835798
1306 2 0.497908 0.249303 0.832376
3270 4 0.495287 0.174561 0.751535
3188 4 0.0153349 0.271937 0.778035
3187 2 0.0179614 0.276857 0.802409
3189 4 0.0205879 0.281776 0.826782
1179 4 0.00528135 0.257415 0.770831
821 4 0.162343 0.295136 0.773952