ITEM: TIMESTEP
1710000
ITEM: NUMBER OF ATOMS
4590
ITEM: BOX BOUNDS pp pp pp
-9.9985700000000008e+00 9.9985700000000008e+00
-9.9985700000000008e+00 9.9985700000000008e+00
-9.9985700000000008e+00 9.9985700000000008e+00
ITEM: ATOMS id type xs ys zs
465 4 0.0545105 0.0787525 0.995458
700 2 0.0908927 0.0684474 0.0182605
702 4 0.109632 0.0661135 0.0346488
566 4 0.127966 0.0729171 0.0342124
565 2 0.152282 0.0786171 0.0330117
491 4 0.273719 0.00385248 0.0377502
2264 4 0.281308 0.0213711 0.0409113
2263 2 0.281439 0.0374358 0.0217518
558 4 0.297461 0.0772472 0.0461378
556 2 0.315888 0.0833389 0.0619023
557 4 0.334315 0.0894306 0.0776668
745 2 0.458597 0.0453684 0.00146103
746 4 0.464718 0.0387331 0.0247781
2469 4 0.47786 0.0271123 0.0340123
2467 2 0.489733 0.00738907 0.0437695
463 2 0.0428708 0.0963375 0.00889124
464 4 0.0312311 0.113923 0.0223249
590 4 0.0127997 0.122897 0.023497
589 2 0.00336817 0.125193 0.0465395
567 4 0.176597 0.0843171 0.031811
359 4 0.23203 0.115093 0.0167155
358 2 0.250168 0.129104 0.00672198
865 2 0.341548 0.153182 0.00581009
867 4 0.333321 0.166531 0.0252857
554 4 0.0482509 0.245269 0.0531992
553 2 0.0703338 0.239186 0.0431734
555 4 0.0924166 0.233102 0.0331476
837 4 0.1411 0.221721 0.00903518
835 2 0.119191 0.232953 0.0133942
836 4 0.0972811 0.244185 0.0177532
461 4 0.336613 0.231628 0.0678308
665 4 0.3336 0.182625 0.0355744
666 4 0.344636 0.229295 0.0497446
664 2 0.339118 0.20596 0.0426595
573 4 0.339188 0.246863 0.0558305
1070 4 0.392235 0.232891 0.0137599
1069 2 0.404312 0.242268 0.0335436
1071 4 0.41639 0.251644 0.0533274
294 4 0.0825272 0.293973 0.0552848
292 2 0.103342 0.296923 0.0417491
507 4 0.139204 0.309905 0.0209506
293 4 0.124157 0.299873 0.0282134
505 2 0.15687 0.324422 0.0310657
356 4 0.314024 0.303269 0.0384163
572 4 0.31443 0.290222 0.0530435
355 2 0.30883 0.319755 0.0203486
571 2 0.326809 0.268543 0.054437
324 4 0.43325 0.262842 0.0499944
322 2 0.42686 0.285461 0.0585217
672 4 0.439444 0.315964 0.0694424
323 4 0.420469 0.30808 0.067049
620 4 0.00961492 0.376887 0.0740217
647 4 0.0267024 0.366992 0.0748611
483 4 0.179386 0.355425 0.0299544
506 4 0.174537 0.33894 0.0411808
481 2 0.197176 0.372273 0.0349385
609 4 0.232143 0.384833 0.0450709
607 2 0.250904 0.401182 0.0475016
482 4 0.214966 0.389121 0.0399227
357 4 0.303637 0.33624 0.00228095
957 4 0.369368 0.362515 0.0146606
670 2 0.455182 0.335288 0.0714622
280 2 0.474072 0.397415 0.0648275
281 4 0.475483 0.372557 0.0671321
671 4 0.47092 0.354612 0.073482
2651 4 0.489249 0.359736 0.0720613
552 4 0.0923474 0.489366 0.0837611
1787 4 0.102327 0.492686 0.0676878
627 4 0.243413 0.453841 0.0769621
252 4 0.271183 0.43063 0.0338382
608 4 0.269665 0.417531 0.0499324
244 2 0.251164 0.480247 0.0529746
245 4 0.254838 0.470316 0.0756252
250 2 0.293096 0.442345 0.0366243
251 4 0.31501 0.454059 0.0394104
272 4 0.253661 0.492471 0.0115144
246 4 0.247491 0.490178 0.030324
282 4 0.47266 0.422272 0.062523
226 2 0.467553 0.459819 0.0425487
228 4 0.466147 0.478263 0.0257254
227 4 0.468958 0.441375 0.0593721
563 4 0.457758 0.490198 0.0384652
16 1 0.0637583 0.0596376 0.146477
20 3 0.0566614 0.0766338 0.133083
1806 4 0.0601548 0.0214267 0.141216
18 3 0.0528588 0.0399687 0.140755
19 3 0.0596041 0.0648163 0.168711
1804 2 0.0542112 0.0114785 0.11906
17 3 0.0863943 0.0566944 0.143631
1505 4 0.155652 0.0448679 0.164346
450 4 0.166778 0.045572 0.147792
448 2 0.170578 0.0695647 0.141868
653 4 0.330722 0.0513033 0.121714
652 2 0.330701 0.0302453 0.135195
654 4 0.330679 0.00918727 0.148676
484 2 0.37843 0.00736757 0.101092
295 2 0.356345 0.0653127 0.0980844
297 4 0.360808 0.0438132 0.110044
485 4 0.367608 0.0297924 0.0988159
579 4 0.093106 0.109928 0.115738
237 4 0.143905 0.141936 0.142159
578 4 0.126088 0.141561 0.136041
577 2 0.109597 0.125744 0.12589
235 2 0.162579 0.126287 0.13654
476 4 0.135201 0.158266 0.134333
236 4 0.181253 0.110639 0.13092
693 4 0.190265 0.100819 0.143616
449 4 0.174379 0.0935574 0.135945
691 2 0.213311 0.101497 0.153292
692 4 0.236356 0.102174 0.162969
582 4 0.254298 0.0969989 0.156329
580 2 0.275343 0.109269 0.161964
581 4 0.296387 0.121538 0.167598
296 4 0.351883 0.0868122 0.0861247
771 4 0.474127 0.12393 0.078427
769 2 0.476907 0.147971 0.0847136
310 2 0.430875 0.164757 0.137864
311 4 0.431366 0.140137 0.133527
339 4 0.0513282 0.187575 0.160984
337 2 0.075521 0.191981 0.165508
475 2 0.124774 0.171432 0.152857
737 4 0.14756 0.164821 0.121227
736 2 0.164312 0.179391 0.109725
738 4 0.181063 0.19396 0.0982225
460 2 0.333871 0.228201 0.0924462
283 2 0.316888 0.197023 0.138815
462 4 0.331128 0.224775 0.117062
354 4 0.3239 0.236754 0.127352
285 4 0.309326 0.174035 0.145105
284 4 0.32445 0.220011 0.132525
352 2 0.305273 0.251611 0.134935
255 4 0.33929 0.229695 0.131788
254 4 0.372787 0.240087 0.167435
253 2 0.356038 0.234891 0.149612
630 4 0.388631 0.229018 0.16945
628 2 0.403435 0.209546 0.164267
770 4 0.479687 0.172011 0.0910002
1014 4 0.485322 0.187539 0.101047
312 4 0.430384 0.189376 0.142201
629 4 0.418238 0.190073 0.159085
456 4 0.071971 0.326052 0.0986714
749 4 0.0718425 0.299837 0.165734
353 4 0.286647 0.266468 0.142518
754 2 0.27428 0.3085 0.141981
755 4 0.282773 0.284985 0.141653
756 4 0.265787 0.332014 0.142309
278 4 0.270549 0.271968 0.150537
648 4 0.0618934 0.343202 0.10125
646 2 0.0442979 0.355097 0.0880553
454 2 0.08798 0.335138 0.115593
455 4 0.103989 0.344224 0.132514
537 4 0.204568 0.36194 0.106289
535 2 0.206652 0.386667 0.109353
611 4 0.212069 0.347638 0.118442
610 2 0.236357 0.342235 0.120901
612 4 0.260646 0.336831 0.123361
303 4 0.284083 0.42333 0.148064
741 4 0.382105 0.376379 0.0874846
739 2 0.385533 0.380807 0.111853
740 4 0.38896 0.385235 0.136222
15 3 0.380407 0.375669 0.151072
385 2 0.362427 0.408483 0.157292
386 4 0.382335 0.395409 0.149681
495 4 0.402195 0.396208 0.145688
11 1 0.399444 0.3697 0.162055
12 3 0.40342 0.347293 0.158695
14 3 0.417448 0.381825 0.153855
1465 2 0.0291881 0.462444 0.102
1466 4 0.0524997 0.469299 0.107896
1467 4 0.00587656 0.455589 0.0961042
1791 4 0.0666658 0.477009 0.119385
550 2 0.0918768 0.46527 0.0904204
551 4 0.0914063 0.441174 0.0970797
625 2 0.225797 0.440795 0.0889904
626 4 0.208181 0.42775 0.101019
536 4 0.208736 0.411395 0.112416
637 2 0.223295 0.499968 0.147178
767 4 0.23368 0.470172 0.149605
638 4 0.244536 0.48679 0.146592
766 2 0.252441 0.453698 0.150963
768 4 0.271201 0.437225 0.152321
301 2 0.309022 0.425121 0.148179
302 4 0.333961 0.426912 0.148294
387 4 0.342519 0.421556 0.164902
493 2 0.41267 0.41841 0.140942
660 4 0.415261 0.458378 0.141106
494 4 0.423146 0.440612 0.136196
658 2 0.427167 0.472416 0.158028
380 4 0.0604569 0.0847013 0.167196
2480 4 0.0180626 0.00617588 0.210183
673 2 0.119731 0.0591565 0.183962
675 4 0.0956312 0.0651494 0.186868
674 4 0.143832 0.0531636 0.181057
1504 2 0.169905 0.0381338 0.183754
689 4 0.181652 0.0135658 0.211058
1506 4 0.184158 0.0313996 0.203163
21 1 0.398189 2.91249e-05 0.235436
25 3 0.412301 0.01326 0.223418
22 3 0.377648 0.0102728 0.236952
758 4 0.402569 0.0767904 0.20839
757 2 0.410817 0.0537401 0.213472
759 4 0.419065 0.0306897 0.218554
349 2 0.446406 0.0240616 0.247375
350 4 0.429505 0.0192091 0.229599
379 2 0.0570569 0.106335 0.179262
512 4 0.0497622 0.1267 0.211615
381 4 0.0536569 0.12797 0.191327
511 2 0.038769 0.144541 0.225254
513 4 0.0277758 0.162382 0.238893
392 4 0.116322 0.161004 0.24582
721 2 0.208331 0.158226 0.232234
723 4 0.217991 0.159257 0.209195
30 3 0.298783 0.13918 0.177483
26 1 0.315265 0.140947 0.1931
29 3 0.321098 0.119877 0.200873
27 3 0.307639 0.153544 0.210772
28 3 0.333814 0.151406 0.183885
477 4 0.114348 0.184597 0.171381
338 4 0.0997139 0.196388 0.170031
363 4 0.114554 0.202314 0.180011
362 4 0.13006 0.202668 0.227552
361 2 0.122307 0.202491 0.203782
372 4 0.132584 0.222049 0.229257
370 2 0.143912 0.24078 0.241341
545 4 0.133033 0.172967 0.247467
521 4 0.470352 0.164079 0.229513
520 2 0.493953 0.163686 0.221267
761 4 0.495226 0.228083 0.24715
394 2 0.0456491 0.297053 0.240066
750 4 0.0797596 0.303714 0.214958
748 2 0.0758011 0.301776 0.190346
395 4 0.0610516 0.304081 0.221666
300 4 0.127868 0.300544 0.20033
298 2 0.126327 0.317973 0.218191
279 4 0.254463 0.259847 0.196309
277 2 0.262506 0.265907 0.173423
307 2 0.332697 0.311526 0.216709
309 4 0.327901 0.310753 0.192182
497 4 0.32671 0.320119 0.256752
765 4 0.389137 0.247289 0.161291
308 4 0.337493 0.312299 0.241237
763 2 0.404324 0.264487 0.171229
764 4 0.419511 0.281685 0.181167
623 4 0.428649 0.300095 0.184425
528 4 0.487196 0.315222 0.195144
622 2 0.450853 0.303863 0.195288
624 4 0.473056 0.307631 0.206151
2618 4 0.0186898 0.410367 0.218769
262 2 0.0597945 0.406749 0.224247
264 4 0.0387282 0.411126 0.211509
263 4 0.0808607 0.402373 0.236984
602 4 0.087889 0.387837 0.224636
299 4 0.124786 0.335402 0.236053
603 4 0.117926 0.352413 0.243173
601 2 0.102908 0.370125 0.233904
290 4 0.181128 0.376559 0.205677
289 2 0.187265 0.399833 0.212446
13 3 0.396999 0.373556 0.184805
2861 4 0.437983 0.409924 0.240248
416 4 0.178308 0.43218 0.211331
415 2 0.174468 0.456371 0.216351
291 4 0.193402 0.423108 0.219214
1430 4 0.188228 0.485098 0.212899
417 4 0.170629 0.480563 0.221372
713 4 0.346453 0.48936 0.243102
659 4 0.439074 0.486453 0.17495
597 4 0.490305 0.45217 0.194196
595 2 0.471393 0.468344 0.191761
596 4 0.452482 0.484518 0.189325
231 4 0.436515 0.494719 0.19274
229 2 0.421087 0.499062 0.211931
1799 4 0.0290765 0.0128097 0.312227
233 4 0.0353493 0.0310739 0.310031
1402 2 0.0704623 0.0197776 0.301509
1403 4 0.0459059 0.0156467 0.303767
232 2 0.025784 0.0522524 0.300803
234 4 0.0162187 0.0734309 0.291575
1798 2 0.0128045 0.00694863 0.330284
1404 4 0.0950187 0.0239084 0.299251
697 2 0.362225 0.0160955 0.32967
633 4 0.369183 0.0576644 0.325403
631 2 0.383184 0.0684926 0.307743
632 4 0.397186 0.0793209 0.290082
698 4 0.361742 0.0410321 0.331433
351 4 0.463308 0.0289141 0.265151
743 4 0.485426 0.0515799 0.310209
744 4 0.471417 0.0467864 0.262444
742 2 0.478421 0.0491832 0.286326
479 4 0.482375 0.0547032 0.329429
2664 4 0.497104 0.0433329 0.323822
399 4 0.0537434 0.100353 0.319419
397 2 0.0678383 0.118269 0.309147
398 4 0.0819332 0.136186 0.298875
317 4 0.0369618 0.105342 0.329017
544 2 0.157349 0.169964 0.252461
393 4 0.0866074 0.144288 0.282404
390 4 0.095735 0.149723 0.299729
391 2 0.101464 0.152646 0.264112
388 2 0.102311 0.164942 0.318446
404 4 0.189922 0.155311 0.318376
403 2 0.192778 0.16196 0.294442
546 4 0.181664 0.166961 0.257455
515 4 0.464899 0.152805 0.331935
444 4 0.0328382 0.2355 0.279631
722 4 0.198671 0.157195 0.255273
405 4 0.195634 0.168609 0.270509
420 4 0.407946 0.22077 0.265141
717 4 0.414479 0.239722 0.264568
333 4 0.469625 0.167516 0.320828
331 2 0.462362 0.179521 0.300133
332 4 0.455098 0.191527 0.279438
418 2 0.42751 0.20526 0.263776
419 4 0.447074 0.18975 0.26241
760 2 0.481103 0.209397 0.255901
762 4 0.46698 0.190712 0.264651
396 4 0.0302466 0.290025 0.258466
443 4 0.0204065 0.283626 0.274142
365 4 0.0202709 0.302399 0.269548
364 2 0.00514 0.322287 0.268715
442 2 0.0266223 0.259563 0.276887
371 4 0.15524 0.259511 0.253424
401 4 0.230161 0.290425 0.259256
400 2 0.234521 0.290725 0.283875
402 4 0.23888 0.291025 0.308494
345 4 0.246638 0.285518 0.325927
510 4 0.228061 0.291966 0.325139
508 2 0.221368 0.315106 0.331842
496 2 0.303507 0.319632 0.266054
498 4 0.280303 0.319145 0.275357
715 2 0.416499 0.263208 0.272906
716 4 0.418519 0.286693 0.281244
542 4 0.425473 0.288292 0.299221
541 2 0.424158 0.313097 0.30208
547 2 0.02377 0.395299 0.316735
548 4 0.0150032 0.375002 0.328412
734 4 0.123387 0.337463 0.254678
733 2 0.141508 0.347443 0.26872
735 4 0.15963 0.357423 0.282763
677 4 0.164012 0.351995 0.300445
509 4 0.214675 0.338246 0.338544
676 2 0.180612 0.350271 0.319064
678 4 0.197212 0.348547 0.337682
433 2 0.223252 0.378716 0.33113
434 4 0.232946 0.40176 0.331567
728 4 0.35851 0.381402 0.325695
727 2 0.349434 0.399811 0.311415
729 4 0.340359 0.418219 0.297134
2860 2 0.455509 0.394103 0.248475
615 4 0.422577 0.356744 0.307162
543 4 0.422843 0.337902 0.304939
613 2 0.423998 0.36205 0.331554
2538 4 0.485544 0.374948 0.314535
2536 2 0.488447 0.374961 0.289701
2537 4 0.49135 0.374974 0.264866
2862 4 0.473035 0.378281 0.256703
753 4 0.482831 0.35499 0.315583
549 4 0.0325369 0.415596 0.305058
777 4 0.0500261 0.419379 0.31565
775 2 0.0677 0.436788 0.312528
414 4 0.101616 0.449423 0.320564
776 4 0.0853739 0.454197 0.309407
412 2 0.110152 0.472351 0.325723
438 4 0.316669 0.471193 0.292171
436 2 0.334048 0.453351 0.294362
437 4 0.351428 0.43551 0.296553
1772 4 0.0210841 0.00974461 0.406461
732 4 0.0794441 0.067711 0.368354
2238 4 0.0173328 0.0292876 0.401579
369 4 0.068502 0.0667562 0.383938
367 2 0.0786815 0.0458415 0.393111
368 4 0.088861 0.0249268 0.402283
1782 4 0.107255 0.0192231 0.408042
1701 4 0.193422 0.0722507 0.387712
605 4 0.17739 0.0816741 0.378169
1699 2 0.207279 0.081741 0.369189
256 2 0.383162 0.0633404 0.363593
257 4 0.370578 0.0532734 0.344476
258 4 0.395747 0.0734073 0.38271
426 4 0.39226 0.0632283 0.398692
424 2 0.389882 0.0458686 0.41653
1428 4 0.47307 0.997831 0.386725
478 2 0.466509 0.0688202 0.342627
480 4 0.450644 0.0829372 0.355824
458 4 0.00607871 0.141321 0.376284
730 2 0.0658119 0.0825411 0.353542
731 4 0.0521797 0.0973711 0.338729
318 4 0.0111473 0.137134 0.357717
316 2 0.0240545 0.121238 0.343367
604 2 0.155533 0.0925673 0.383533
606 4 0.133675 0.10346 0.388897
249 4 0.189704 0.148515 0.337837
247 2 0.205066 0.129018 0.340849
1700 4 0.221136 0.0912312 0.350666
248 4 0.220428 0.109522 0.343861
600 4 0.235506 0.158145 0.396627
683 4 0.242887 0.143425 0.406137
682 2 0.262802 0.12837 0.407519
319 2 0.312693 0.11986 0.385808
320 4 0.3021 0.114354 0.407777
708 4 0.325843 0.144117 0.366085
706 2 0.325938 0.167223 0.356529
684 4 0.282717 0.113314 0.408901
321 4 0.323287 0.125366 0.363839
516 4 0.445718 0.111776 0.353134
575 4 0.446588 0.107575 0.373795
574 2 0.443163 0.109079 0.398518
514 2 0.455309 0.132291 0.342534
389 4 0.108887 0.180161 0.337163
598 2 0.225752 0.177383 0.409274
473 4 0.23108 0.250152 0.378147
374 4 0.213838 0.244405 0.386039
472 2 0.253739 0.240993 0.383422
378 4 0.285736 0.232498 0.348251
376 2 0.307502 0.220711 0.351782
377 4 0.329268 0.208923 0.355313
707 4 0.326034 0.190328 0.346973
474 4 0.276399 0.231834 0.388697
488 4 0.276121 0.219947 0.404364
344 4 0.273043 0.246248 0.342093
487 2 0.30104 0.221111 0.406068
489 4 0.325958 0.222275 0.407773
453 4 0.465392 0.172178 0.338503
452 4 0.497733 0.186839 0.373715
451 2 0.481562 0.179509 0.356109
347 4 0.0718162 0.313283 0.399128
618 4 0.0795927 0.297328 0.387843
275 4 0.139605 0.315274 0.385045
617 4 0.128931 0.301082 0.39508
616 2 0.104262 0.299205 0.391461
274 2 0.161635 0.309142 0.374933
276 4 0.183665 0.303011 0.364822
373 2 0.203642 0.266711 0.381174
375 4 0.193446 0.289017 0.376309
343 2 0.259841 0.265883 0.33401
408 4 0.0151094 0.359893 0.388683
406 2 0.00868651 0.368876 0.36625
407 4 0.00226366 0.377858 0.343817
346 2 0.0632653 0.334247 0.409739
435 4 0.213557 0.355673 0.330693
334 2 0.326925 0.410904 0.400392
502 2 0.269141 0.411494 0.40105
504 4 0.248848 0.397337 0.397452
335 4 0.344936 0.393828 0.397361
240 4 0.364038 0.391974 0.401552
752 4 0.486431 0.335248 0.361387
614 4 0.425418 0.367356 0.355947
751 2 0.484631 0.345119 0.338485
1543 2 0.162054 0.49644 0.339803
500 4 0.125545 0.50068 0.348959
413 4 0.118688 0.49528 0.330882
1544 4 0.137576 0.49557 0.334776
1545 4 0.186532 0.49731 0.34483
503 4 0.289434 0.425651 0.404648
668 4 0.298795 0.487368 0.408929
669 4 0.296561 0.439851 0.393503
336 4 0.308914 0.42798 0.403423
667 2 0.297678 0.46361 0.401216
593 4 0.398281 0.499406 0.394742
592 2 0.409145 0.498104 0.37226
2237 4 0.00986958 0.060258 0.440126
2236 2 0.0136012 0.0447728 0.420852
1127 4 0.0133498 0.064063 0.458536
720 4 0.027742 0.0670929 0.446234
1781 4 0.0901087 0.00387033 0.452439
1780 2 0.0986817 0.0115467 0.430241
724 2 0.287939 0.0554893 0.484517
963 4 0.287434 0.0131158 0.48055
726 4 0.283687 0.0800203 0.48221
1182 4 0.284908 0.0800997 0.462349
725 4 0.292192 0.0309582 0.486823
1579 2 0.367347 0.999367 0.443538
1580 4 0.368369 0.0229574 0.435314
425 4 0.387504 0.028509 0.434367
2878 2 0.480322 0.0617837 0.49456
2880 4 0.478394 0.0782189 0.475816
642 4 0.456984 0.0755781 0.475287
718 2 0.0351436 0.088077 0.457638
719 4 0.0425453 0.109061 0.469043
1033 2 0.117899 0.135522 0.469029
1035 4 0.125498 0.151483 0.451347
1034 4 0.110299 0.119561 0.486711
261 4 0.134537 0.167046 0.443069
1180 2 0.289347 0.0963484 0.44387
1181 4 0.293786 0.112597 0.425392
3157 2 0.501149 0.142351 0.476001
3158 4 0.47962 0.148383 0.464809
641 4 0.434664 0.104905 0.441486
576 4 0.439739 0.110582 0.42324
640 2 0.445824 0.0902417 0.458387
306 4 0.438434 0.123422 0.437287
304 2 0.45495 0.141233 0.443219
305 4 0.471465 0.159044 0.44915
471 4 0.00107322 0.180904 0.456699
259 2 0.148053 0.187923 0.445651
694 2 0.148064 0.236274 0.472942
260 4 0.161568 0.2088 0.448232
695 4 0.165874 0.222848 0.461641
599 4 0.215998 0.196621 0.42192
687 4 0.221571 0.213142 0.430593
686 4 0.17911 0.209483 0.456753
685 2 0.20034 0.211312 0.443673
411 4 0.246928 0.19895 0.482499
467 4 0.371304 0.185114 0.440557
466 2 0.373141 0.20858 0.432123
468 4 0.374978 0.232047 0.423688
585 4 0.456728 0.227718 0.476774
696 4 0.130254 0.2497 0.484243
1260 4 0.118168 0.252799 0.499174
813 4 0.23682 0.288438 0.47907
811 2 0.236601 0.304684 0.498076
266 4 0.332895 0.26851 0.428545
267 4 0.378566 0.251005 0.41813
265 2 0.35573 0.259758 0.423338
584 4 0.450438 0.273499 0.495886
583 2 0.453583 0.250608 0.48633
348 4 0.0547143 0.355211 0.420349
326 4 0.0663951 0.368372 0.431083
681 4 0.0745979 0.417117 0.468784
325 2 0.088966 0.367947 0.441833
10 3 0.137384 0.351826 0.498842
327 4 0.111537 0.367522 0.452582
7 3 0.114603 0.36189 0.471045
6 1 0.128315 0.369582 0.487836
711 4 0.155813 0.397175 0.469947
8 3 0.145141 0.382512 0.478449
774 4 0.214838 0.407821 0.469607
635 4 0.206276 0.412874 0.452563
709 2 0.180239 0.395941 0.464747
772 2 0.230875 0.404534 0.488507
710 4 0.204665 0.394707 0.459548
586 2 0.402044 0.411782 0.478379
239 4 0.389568 0.39667 0.444294
238 2 0.376803 0.394322 0.422923
588 4 0.384585 0.408303 0.460822
587 4 0.419503 0.41526 0.495937
1383 4 0.053291 0.464223 0.430738
1381 2 0.0652051 0.486183 0.429743
680 4 0.054242 0.443487 0.431488
679 2 0.0644199 0.430302 0.450136
539 4 0.0955716 0.474217 0.49609
383 4 0.085811 0.419802 0.485893
382 2 0.106536 0.433763 0.486749
570 4 0.165367 0.488206 0.46895
569 4 0.140221 0.445174 0.473036
568 2 0.152794 0.46669 0.470993
384 4 0.127262 0.447724 0.487605
636 4 0.237346 0.437779 0.422312
634 2 0.221811 0.425326 0.437438
4 3 0.30242 0.492616 0.42716
5 3 0.287244 0.478792 0.458724
1 1 0.296237 0.49733 0.449022
880 2 0.332166 0.496328 0.496051
1184 4 0.000628154 0.0355948 0.574749
3077 4 0.00563333 0.0352682 0.555545
1059 4 0.145338 0.0692007 0.579801
340 2 0.192512 0.0463152 0.522352
342 4 0.188293 0.0707912 0.525234
2430 4 0.200251 0.00276745 0.524837
341 4 0.196731 0.0218392 0.51947
1152 4 0.178866 0.0819385 0.539199
430 2 0.312815 0.0180599 0.516671
431 4 0.329709 0.0205825 0.534929
432 4 0.29592 0.0155373 0.498412
843 4 0.34357 0.0351496 0.529552
842 4 0.384053 0.038817 0.558679
841 2 0.363812 0.0369833 0.544116
1217 4 0.402277 0.0413777 0.566141
1216 2 0.410847 0.0179117 0.567178
2879 4 0.48225 0.0453485 0.513305
1218 4 0.419417 0.994446 0.568216
879 4 0.0772764 0.157654 0.545368
877 2 0.0542323 0.161314 0.536382
878 4 0.0311882 0.164974 0.527396
938 4 0.0956095 0.150243 0.541356
937 2 0.10649 0.140051 0.521284
1151 4 0.141366 0.0868366 0.571916
939 4 0.117371 0.129858 0.501212
1150 2 0.160116 0.0843875 0.555557
1272 4 0.0927649 0.167489 0.549238
1199 4 0.0158804 0.162702 0.541313
1198 2 0.999571 0.174325 0.556283
1270 2 0.0952976 0.182208 0.569291
409 2 0.262156 0.199583 0.50232
898 2 0.300839 0.222741 0.545922
899 4 0.31243 0.229617 0.566983
900 4 0.289248 0.215865 0.524862
410 4 0.277384 0.200217 0.522141
791 4 0.324236 0.226619 0.581885
790 2 0.337218 0.247924 0.580225
1259 4 0.0693831 0.258522 0.508555
1258 2 0.0937757 0.255661 0.503864
812 4 0.236382 0.320929 0.517082
650 4 0.250554 0.32392 0.530137
649 2 0.272327 0.316684 0.540075
651 4 0.294099 0.309447 0.550013
871 2 0.363548 0.264411 0.524494
873 4 0.388126 0.263319 0.520032
872 4 0.33897 0.265503 0.528956
792 4 0.3502 0.269228 0.578566
2455 2 0.471321 0.307528 0.512788
2457 4 0.484707 0.323687 0.526385
2456 4 0.457935 0.291369 0.499191
935 4 0.00662865 0.357235 0.512246
9 3 0.115728 0.382406 0.502517
1136 4 0.121586 0.403266 0.566406
773 4 0.246912 0.401248 0.507406
1190 4 0.243793 0.404327 0.525943
804 4 0.248566 0.336952 0.515753
802 2 0.249272 0.361855 0.517878
1189 2 0.232685 0.410605 0.547446
1191 4 0.221577 0.416883 0.568949
803 4 0.249978 0.386758 0.520003
930 4 0.261952 0.402597 0.519958
928 2 0.282343 0.416911 0.51783
927 4 0.442522 0.379174 0.539167
925 2 0.435896 0.399196 0.525735
926 4 0.429269 0.419217 0.512304
1011 4 0.502644 0.345834 0.582266
1009 2 0.49649 0.344179 0.558088
1206 4 0.491912 0.41789 0.592937
1010 4 0.490337 0.342525 0.53391
538 2 0.111295 0.49276 0.501929
1172 4 0.220042 0.43214 0.58077
929 4 0.302733 0.431224 0.515702
889 2 0.295627 0.501918 0.53745
891 4 0.314488 0.490832 0.525345
1952 4 0.326122 0.47556 0.529703
881 4 0.333124 0.491305 0.520526
1953 4 0.341769 0.429668 0.541945
1951 2 0.333945 0.452614 0.535824
1001 4 0.403512 0.48351 0.546743
662 4 0.410288 0.469092 0.536006
661 2 0.414535 0.450839 0.519455
663 4 0.418783 0.432585 0.502904
1911 4 0.414842 0.469867 0.555005
1909 2 0.424018 0.462249 0.576981
1332 4 0.42214 0.483017 0.543231
1330 2 0.441726 0.495782 0.534365
1185 4 0.0170177 0.0120705 0.615721
1183 2 0.00882292 0.0238327 0.595235
1057 2 0.138272 0.0480237 0.591061
1058 4 0.131206 0.0268468 0.602321
2375 4 0.128528 0.0107932 0.613615
1284 4 0.125509 0.0741803 0.658936
950 4 0.245254 0.00318945 0.610114
949 2 0.253086 0.026674 0.606604
951 4 0.260918 0.0501585 0.603095
1031 4 0.271662 0.0668972 0.601713
1030 2 0.274702 0.0752565 0.625081
1032 4 0.277741 0.0836158 0.648449
45 3 0.443302 0.0569488 0.66168
3007 2 0.491269 0.0593438 0.607687
3009 4 0.486059 0.0374855 0.596721
3008 4 0.496479 0.0812022 0.618653
3178 2 0.00702123 0.165906 0.65446
1083 4 0.0315843 0.131722 0.659042
1155 4 0.144118 0.0848803 0.59114
1153 2 0.149336 0.100972 0.609552
1154 4 0.154554 0.117063 0.627965
1221 4 0.153397 0.124372 0.646041
1219 2 0.168627 0.143737 0.641769
1210 2 0.219763 0.165403 0.645036
1211 4 0.239506 0.159422 0.659165
1220 4 0.183856 0.163102 0.637498
808 2 0.480182 0.0914411 0.654433
809 4 0.491026 0.0932959 0.63198
1245 4 0.0784831 0.204734 0.65568
1209 4 0.0816476 0.222951 0.66243
1271 4 0.0978304 0.196927 0.589344
1243 2 0.0833399 0.201628 0.63135
1244 4 0.0881966 0.198523 0.60702
1212 4 0.20002 0.171383 0.630907
797 4 0.182687 0.228417 0.612359
796 2 0.183193 0.204919 0.620889
798 4 0.183698 0.181421 0.629419
857 4 0.305829 0.224252 0.584708
856 2 0.300096 0.221953 0.608936
858 4 0.294362 0.219654 0.633165
905 4 0.467142 0.231318 0.618014
3123 4 0.47337 0.211743 0.617758
3121 2 0.478833 0.205066 0.641226
3122 4 0.484296 0.198389 0.664694
983 4 0.0325961 0.277438 0.60901
982 2 0.0413861 0.299788 0.615969
984 4 0.050176 0.322137 0.622927
3263 4 0.0502663 0.325377 0.641956
3262 2 0.0485485 0.323876 0.666855
805 2 0.296081 0.308216 0.637978
806 4 0.273745 0.302546 0.647679
807 4 0.318418 0.313885 0.628276
1239 4 0.330063 0.324083 0.615111
947 4 0.30312 0.276317 0.657554
1238 4 0.35034 0.289365 0.585376
1237 2 0.340202 0.306724 0.600243
906 4 0.468314 0.279811 0.605855
904 2 0.467728 0.255564 0.611935
952 2 0.474906 0.316327 0.598822
953 4 0.459092 0.297936 0.604893
954 4 0.490721 0.334717 0.59275
1041 4 0.056527 0.339261 0.630913
1039 2 0.0546135 0.363054 0.623468
1040 4 0.0527 0.386846 0.616022
993 4 0.05024 0.403401 0.625654
1135 2 0.140184 0.396176 0.58154
1137 4 0.158782 0.389086 0.596674
897 4 0.17712 0.380998 0.599719
895 2 0.19428 0.397615 0.592328
896 4 0.211439 0.414231 0.584937
1027 2 0.215705 0.410118 0.66554
991 2 0.0364401 0.418347 0.611116
992 4 0.0226402 0.433294 0.596579
1171 2 0.211891 0.454973 0.586883
1029 4 0.232341 0.412799 0.647067
1160 4 0.197414 0.495915 0.59502
1173 4 0.20374 0.477807 0.592997
1188 4 0.19384 0.475113 0.658887
1187 4 0.20309 0.485335 0.610818
1186 2 0.198465 0.480224 0.634852
1204 2 0.471348 0.432029 0.59449
1910 4 0.433194 0.454632 0.598957
1269 4 0.443406 0.448087 0.613872
1267 2 0.44345 0.457672 0.636966
1205 4 0.450785 0.446168 0.596043
1268 4 0.443493 0.467256 0.66006
1075 2 0.0278487 0.0877629 0.728426
1076 4 0.0314693 0.0799275 0.704959
1226 4 0.173122 0.0792452 0.745594
2255 4 0.243098 0.00228431 0.736907
1004 4 0.323531 0.0127567 0.704802
1003 2 0.312586 0.0349946 0.701506
1005 4 0.301641 0.0572326 0.698211
43 3 0.417247 0.0727901 0.683768
1162 2 0.491822 0.0696793 0.704241
42 3 0.44302 0.0495925 0.698269
41 1 0.439304 0.0657347 0.682307
1163 4 0.471094 0.077989 0.692996
44 3 0.453605 0.0835835 0.686218
1077 4 0.0242281 0.0955983 0.751892
1081 2 0.0342963 0.113151 0.675563
1082 4 0.0370083 0.0945808 0.692085
850 2 0.0687371 0.154854 0.723916
3179 4 0.0270406 0.151724 0.659282
852 4 0.0489331 0.152225 0.738952
1214 4 0.0306419 0.158654 0.739375
1282 2 0.126272 0.0825841 0.682473
909 4 0.106609 0.152102 0.713637
907 2 0.118745 0.130267 0.712575
908 4 0.130882 0.108432 0.711512
1283 4 0.127036 0.090988 0.706009
1227 4 0.129886 0.0938188 0.725125
851 4 0.088541 0.157483 0.708881
1225 2 0.151504 0.086532 0.735359
1149 4 0.238478 0.0938463 0.749693
1147 2 0.21435 0.0877398 0.752089
888 4 0.256603 0.151267 0.66602
886 2 0.272329 0.157714 0.684358
829 2 0.323461 0.15265 0.707105
830 4 0.300086 0.154595 0.715765
831 4 0.346836 0.150706 0.698444
1142 4 0.365157 0.15594 0.701433
810 4 0.469337 0.0895862 0.676886
1025 4 0.469069 0.159961 0.702259
3424 2 0.470901 0.119856 0.701178
3426 4 0.465056 0.0963758 0.694878
3425 4 0.476746 0.143336 0.707479
3269 4 0.481834 0.16037 0.716109
1213 2 0.0127166 0.17608 0.739814
1208 4 0.0778865 0.213574 0.711406
1207 2 0.079767 0.218263 0.686918
1107 4 0.0980484 0.167633 0.722677
1105 2 0.113794 0.187042 0.721918
1106 4 0.129539 0.20645 0.721158
1130 4 0.150042 0.207556 0.722044
1129 2 0.162861 0.221682 0.738208
887 4 0.288056 0.164161 0.702696
978 4 0.290867 0.170191 0.721012
976 2 0.295464 0.184942 0.74067
1141 2 0.386196 0.167021 0.709164
1193 4 0.347717 0.193942 0.706326
1194 4 0.369888 0.238761 0.707
1192 2 0.358802 0.216351 0.706663
1143 4 0.407235 0.178102 0.716894
1262 4 0.412997 0.195364 0.712283
1261 2 0.4175 0.204161 0.735251
3268 2 0.487276 0.170787 0.738178
1024 2 0.445994 0.169411 0.704108
1026 4 0.422919 0.178861 0.705958
3264 4 0.0468306 0.322375 0.691755
779 4 0.0420852 0.303097 0.694022
778 2 0.0545695 0.282557 0.700906
780 4 0.0670538 0.262016 0.707791
893 4 0.0355857 0.316861 0.706348
1065 4 0.217322 0.281641 0.708007
1063 2 0.241697 0.276469 0.710078
946 2 0.289186 0.269269 0.677082
948 4 0.275252 0.262221 0.69661
1064 4 0.266072 0.271296 0.712149
917 4 0.26666 0.253392 0.747096
1008 4 0.43405 0.303149 0.723568
1006 2 0.433084 0.290579 0.74516
892 2 0.0333641 0.339512 0.716702
894 4 0.0311425 0.362162 0.727056
816 4 0.038021 0.376665 0.737517
814 2 0.061275 0.38293 0.744238
815 4 0.0845291 0.389195 0.75096
3276 4 0.0183127 0.37361 0.736448
1067 4 0.147888 0.410792 0.718447
940 2 0.115446 0.399217 0.719917
941 4 0.135113 0.404998 0.705601
942 4 0.0957787 0.393436 0.734233
1066 2 0.17176 0.409675 0.711097
1068 4 0.195633 0.408558 0.703747
1028 4 0.19907 0.407436 0.684013
1019 4 0.408644 0.405459 0.737274
1018 2 0.393758 0.39184 0.752043
1280 4 0.0416586 0.487171 0.699275
1176 4 0.149855 0.48638 0.697322
1175 4 0.194533 0.486437 0.674859
1174 2 0.172194 0.486408 0.686091
1140 4 0.349839 0.471517 0.699391
1230 4 0.386328 0.432814 0.726371
1100 4 0.402967 0.424604 0.738279
1228 2 0.369948 0.444448 0.741255
1138 2 0.339844 0.494436 0.699415
3329 4 0.48431 0.435554 0.683888
1101 4 0.444697 0.450238 0.728167
1099 2 0.423832 0.437421 0.733223
3330 4 0.456783 0.43488 0.725632
1251 4 0.4569 0.446506 0.741592
3328 2 0.470547 0.435217 0.70476
2168 4 0.429141 0.47924 0.668117
1295 4 0.0149217 0.00450871 0.796933
1296 4 0.0448493 0.0445231 0.798908
1294 2 0.0298855 0.0245159 0.797921
1203 4 0.177096 0.0673586 0.760636
2049 4 0.188867 0.999601 0.769752
1201 2 0.181942 0.0431389 0.764523
1202 4 0.186787 0.0189191 0.76841
2254 2 0.223911 0.00655671 0.752359
2256 4 0.204724 0.0108291 0.767812
975 4 0.324514 0.0473946 0.823261
2321 4 0.45443 0.00511368 0.788561
2322 4 0.450599 0.0545889 0.782377
2320 2 0.452515 0.0298513 0.785469
846 4 0.438633 0.0692934 0.776216
864 4 0.03425 0.0908524 0.768207
862 2 0.0377889 0.108307 0.785756
863 4 0.0413278 0.125762 0.803305
833 4 0.040929 0.140367 0.815489
1125 4 0.0579817 0.135458 0.807796
1123 2 0.0711675 0.156694 0.80722
35 3 0.101881 0.147054 0.826676
34 3 0.135445 0.161517 0.817625
1148 4 0.190223 0.0816333 0.754485
921 4 0.17606 0.144485 0.80752
1257 4 0.250067 0.0977857 0.7647
1255 2 0.270955 0.0950833 0.778174
1256 4 0.291844 0.092381 0.791648
840 4 0.291297 0.1076 0.804568
838 2 0.287024 0.119079 0.826366
844 2 0.456287 0.0845024 0.785282
845 4 0.473942 0.0997114 0.794348
1072 2 0.0523849 0.20737 0.810614
1074 4 0.0319029 0.220739 0.815804
1073 4 0.0728669 0.194001 0.805423
1124 4 0.0843533 0.177931 0.806645
1131 4 0.17568 0.235808 0.754373
1277 4 0.180799 0.235818 0.773261
1276 2 0.189071 0.21901 0.789822
1278 4 0.197342 0.202202 0.806382
920 4 0.190323 0.190632 0.820472
919 2 0.183191 0.167559 0.813996
1241 4 0.204252 0.202059 0.825059
977 4 0.300062 0.199693 0.760328
918 4 0.298144 0.219617 0.766298
1298 4 0.314484 0.209888 0.767577
1297 2 0.327048 0.206214 0.78888
916 2 0.282402 0.236505 0.756697
1299 4 0.339613 0.20254 0.810183
50 3 0.386835 0.19944 0.784955
1086 4 0.339786 0.182471 0.812588
1043 4 0.402427 0.240333 0.802855
49 3 0.409977 0.221973 0.804303
1084 2 0.351412 0.173965 0.833025
46 1 0.408113 0.201988 0.792661
48 3 0.413707 0.184215 0.806489
47 3 0.422634 0.20239 0.774825
3468 4 0.500977 0.18863 0.776017