ITEM: TIMESTEP
1750000
ITEM: NUMBER OF ATOMS
4590
ITEM: BOX BOUNDS pp pp pp
-9.9985700000000008e+00 9.9985700000000008e+00
-9.9985700000000008e+00 9.9985700000000008e+00
-9.9985700000000008e+00 9.9985700000000008e+00
ITEM: ATOMS id type xs ys zs
701 4 0.070971 0.0687179 0.0165145
700 2 0.0919747 0.0699172 0.0300269
702 4 0.112978 0.0711164 0.0435393
566 4 0.132534 0.0748219 0.0417105
565 2 0.148009 0.0758195 0.022096
567 4 0.163483 0.0768171 0.00248147
491 4 0.279186 0.0147782 0.0567467
2264 4 0.271772 0.031722 0.04874
2263 2 0.273423 0.0327847 0.0238136
2265 4 0.275074 0.0338474 0.998887
745 2 0.460174 0.0485822 0.999432
746 4 0.467697 0.0417675 0.0222826
2469 4 0.473425 0.0381258 0.042186
2467 2 0.481644 0.0145655 0.0437812
463 2 0.0446983 0.0878701 0.00758524
464 4 0.0301446 0.107013 0.0144361
590 4 0.0226298 0.103824 0.0330366
589 2 0.00594981 0.112308 0.049619
359 4 0.242347 0.118596 0.026452
558 4 0.297158 0.083796 0.0450042
556 2 0.318031 0.0896071 0.057482
557 4 0.338905 0.0954182 0.0699598
358 2 0.253505 0.126289 0.00544021
771 4 0.457258 0.139581 0.0721247
769 2 0.473195 0.158246 0.0769028
554 4 0.0544987 0.233256 0.0539963
553 2 0.072819 0.231756 0.0370465
555 4 0.0911393 0.230256 0.0200968
837 4 0.14484 0.227129 0.997084
835 2 0.124199 0.236763 0.00739671
836 4 0.103559 0.246397 0.017709
461 4 0.331116 0.229241 0.0672416
573 4 0.33381 0.24127 0.0519067
867 4 0.358555 0.176549 0.021086
665 4 0.347276 0.174695 0.0381303
666 4 0.33396 0.221483 0.0497201
664 2 0.340618 0.198089 0.0439252
1070 4 0.390165 0.220529 0.0200639
1069 2 0.404484 0.234083 0.0354398
1071 4 0.418803 0.247638 0.0508157
294 4 0.0789771 0.292065 0.0389389
292 2 0.102914 0.299164 0.0375837
507 4 0.141382 0.316311 0.0249326
293 4 0.12685 0.306262 0.0362284
505 2 0.158841 0.330154 0.0362794
356 4 0.316583 0.307666 0.0419398
572 4 0.317174 0.287768 0.0440378
355 2 0.314161 0.323608 0.0228304
571 2 0.325492 0.264519 0.0479722
324 4 0.408303 0.26565 0.0537272
322 2 0.42169 0.285116 0.0619166
672 4 0.443089 0.323627 0.070779
323 4 0.435076 0.304582 0.0701059
620 4 0.00762165 0.379989 0.0742395
647 4 0.0168238 0.363567 0.0788983
483 4 0.183673 0.360122 0.0407788
506 4 0.1763 0.343997 0.0476263
481 2 0.206258 0.370774 0.0394856
609 4 0.24692 0.38291 0.0454316
482 4 0.228842 0.381425 0.0381923
607 2 0.252841 0.406845 0.0412798
357 4 0.31174 0.33955 0.00372104
957 4 0.377951 0.350477 0.0210399
670 2 0.456866 0.344156 0.0745102
280 2 0.472392 0.405509 0.0660603
281 4 0.473558 0.383582 0.0780205
671 4 0.470643 0.364686 0.0782414
2651 4 0.488607 0.370148 0.0802904
1467 4 0.0107394 0.462277 0.0835673
552 4 0.0902181 0.482503 0.0848055
1787 4 0.0994077 0.490025 0.0692032
627 4 0.239846 0.462736 0.0771135
272 4 0.244724 0.491626 0.0109976
246 4 0.2401 0.496786 0.0294735
252 4 0.274595 0.443144 0.0325858
608 4 0.258762 0.43078 0.037128
244 2 0.248399 0.481842 0.0477216
245 4 0.256697 0.466898 0.0659696
250 2 0.299443 0.44579 0.0317212
251 4 0.324291 0.448436 0.0308566
524 4 0.400427 0.491618 0.015512
523 2 0.382243 0.496828 0.0318633
282 4 0.471226 0.427435 0.0541
226 2 0.477026 0.464007 0.0465698
228 4 0.476238 0.483449 0.0308675
227 4 0.477815 0.444565 0.0622722
563 4 0.463959 0.495516 0.041058
16 1 0.0643237 0.0607535 0.151822
20 3 0.0547718 0.0783565 0.14098
1806 4 0.061142 0.0269791 0.139467
18 3 0.0512807 0.0417568 0.1491
1804 2 0.054456 0.0123975 0.120287
2575 2 0.0142101 0.00118362 0.0857589
2576 4 0.0389533 0.00469073 0.0849495
1805 4 0.04777 0.997816 0.101108
17 3 0.0851717 0.0567951 0.142943
450 4 0.161759 0.0501033 0.149764
448 2 0.172913 0.0715894 0.143509
653 4 0.331026 0.0542619 0.123398
652 2 0.32834 0.0320944 0.134648
654 4 0.325655 0.00992685 0.145899
484 2 0.379225 0.0100016 0.106711
295 2 0.357925 0.0673721 0.0955189
297 4 0.366859 0.0459998 0.104931
485 4 0.365332 0.0283251 0.0968909
579 4 0.0950114 0.110345 0.121494
237 4 0.15342 0.146137 0.126846
578 4 0.13438 0.141077 0.124018
577 2 0.114696 0.125711 0.122756
476 4 0.139803 0.153653 0.138426
737 4 0.15093 0.165049 0.126634
235 2 0.168604 0.128371 0.135734
236 4 0.183787 0.110605 0.144623
693 4 0.195015 0.107323 0.12852
449 4 0.184066 0.0930755 0.137254
691 2 0.217541 0.104383 0.138965
692 4 0.240067 0.101443 0.149411
582 4 0.251748 0.0916434 0.161418
580 2 0.268139 0.110501 0.160461
581 4 0.284529 0.129359 0.159504
296 4 0.348991 0.0887443 0.0861063
311 4 0.437241 0.143982 0.129642
339 4 0.0480336 0.192134 0.145287
337 2 0.0711738 0.190288 0.154577
475 2 0.126833 0.171397 0.150346
736 2 0.162818 0.177944 0.108813
738 4 0.174706 0.19084 0.090993
460 2 0.331803 0.228089 0.0922092
283 2 0.314612 0.194172 0.134659
462 4 0.332491 0.226936 0.117177
354 4 0.318957 0.233974 0.126008
285 4 0.307727 0.17173 0.143269
284 4 0.321496 0.216614 0.126048
255 4 0.332442 0.227293 0.134796
254 4 0.37285 0.230385 0.164095
253 2 0.352646 0.228839 0.149446
628 2 0.400735 0.208026 0.168723
629 4 0.413327 0.187718 0.161361
310 2 0.433933 0.16615 0.140724
770 4 0.489131 0.176911 0.0816808
1014 4 0.497812 0.182592 0.0984261
312 4 0.430624 0.188319 0.151806
456 4 0.0706993 0.326028 0.0943756
454 2 0.0949923 0.32652 0.100273
455 4 0.119285 0.327012 0.106171
352 2 0.303199 0.251466 0.134427
353 4 0.28744 0.268957 0.142847
754 2 0.280003 0.309875 0.135531
755 4 0.290275 0.288268 0.142797
278 4 0.273955 0.280018 0.150861
612 4 0.250817 0.328565 0.133944
519 4 0.494222 0.303303 0.107792
648 4 0.0520962 0.33004 0.0904093
646 2 0.03446 0.346804 0.0846538
537 4 0.195998 0.366292 0.11623
535 2 0.204983 0.389496 0.113774
611 4 0.211895 0.353249 0.114541
610 2 0.231356 0.340907 0.124242
536 4 0.213968 0.4127 0.111318
756 4 0.269732 0.331482 0.128264
302 4 0.325755 0.41957 0.160127
741 4 0.365137 0.38087 0.0928004
739 2 0.376359 0.385391 0.114682
740 4 0.387582 0.389911 0.136563
15 3 0.38111 0.379892 0.152156
385 2 0.362773 0.412555 0.158202
386 4 0.382297 0.399336 0.149878
495 4 0.400148 0.400329 0.146403
11 1 0.401196 0.374516 0.161446
12 3 0.408818 0.354889 0.152182
14 3 0.416633 0.391309 0.157196
1465 2 0.0319267 0.456909 0.0957109
1466 4 0.0531141 0.451542 0.107855
1791 4 0.0592606 0.469365 0.116571
1789 2 0.0647138 0.489751 0.129982
550 2 0.0901888 0.457507 0.0854266
551 4 0.0901595 0.432511 0.0860477
625 2 0.229913 0.441134 0.0848511
626 4 0.219981 0.419531 0.0925887
767 4 0.238975 0.474782 0.152265
638 4 0.239084 0.487735 0.136448
303 4 0.288265 0.447314 0.142085
766 2 0.260076 0.461959 0.156206
768 4 0.281177 0.449137 0.160147
301 2 0.30701 0.433442 0.151106
387 4 0.343249 0.425773 0.166525
493 2 0.410923 0.420449 0.136193
660 4 0.4332 0.454406 0.134768
494 4 0.421698 0.44057 0.125982
658 2 0.436 0.471503 0.152796
19 3 0.0665876 0.0656404 0.174392
2480 4 0.0161282 0.0144171 0.202641
1422 4 0.0296629 0.000644559 0.198135
1505 4 0.15609 0.0462048 0.168403
673 2 0.122352 0.0659083 0.187213
675 4 0.100011 0.0756283 0.192834
674 4 0.144693 0.0561884 0.181593
1504 2 0.170739 0.036343 0.186104
689 4 0.182941 0.0184757 0.222004
1506 4 0.185388 0.0264812 0.203805
688 2 0.199746 4.03821e-05 0.220299
25 3 0.415171 0.0111815 0.231054
22 3 0.377916 0.0108894 0.233272
758 4 0.415773 0.0656916 0.200133
757 2 0.419742 0.0470582 0.216327
759 4 0.423712 0.0284248 0.23252
350 4 0.430577 0.0147289 0.243115
380 4 0.0659703 0.0851644 0.169009
379 2 0.0607918 0.104653 0.183793
512 4 0.0424111 0.118731 0.212941
381 4 0.0556134 0.124141 0.198576
511 2 0.0461634 0.142361 0.220202
513 4 0.0499157 0.165991 0.227463
392 4 0.115176 0.156211 0.247786
30 3 0.300477 0.135781 0.168658
26 1 0.315819 0.139701 0.185025
29 3 0.316811 0.121558 0.199457
27 3 0.309579 0.158356 0.196949
28 3 0.336679 0.143463 0.175585
521 4 0.47357 0.162016 0.217125
477 4 0.113863 0.18914 0.162267
338 4 0.094314 0.188443 0.163866
363 4 0.105676 0.194059 0.179107
362 4 0.129043 0.207007 0.22138
361 2 0.11736 0.200533 0.200243
372 4 0.145262 0.214367 0.233645
370 2 0.150477 0.238729 0.235759
721 2 0.211243 0.172384 0.245028
723 4 0.227133 0.169502 0.225939
630 4 0.388143 0.228334 0.176085
520 2 0.497813 0.166128 0.212593
394 2 0.0430083 0.295402 0.243658
750 4 0.0589341 0.292716 0.215967
748 2 0.0766819 0.291132 0.198426
395 4 0.0623105 0.305437 0.231333
749 4 0.0944297 0.289547 0.180885
300 4 0.133271 0.309697 0.200862
298 2 0.129271 0.320261 0.223169
299 4 0.125271 0.330825 0.245475
371 4 0.155691 0.263092 0.237873
279 4 0.252477 0.252077 0.186339
277 2 0.263216 0.266047 0.1686
307 2 0.327139 0.311477 0.215175
309 4 0.324077 0.300125 0.193108
308 4 0.330202 0.322829 0.237242
765 4 0.383644 0.245645 0.169584
763 2 0.39988 0.263751 0.175391
764 4 0.416116 0.281858 0.181197
623 4 0.421178 0.300555 0.18845
528 4 0.489596 0.298116 0.197047
622 2 0.446143 0.299299 0.189035
624 4 0.471108 0.298043 0.18962
2618 4 0.0128057 0.40743 0.22295
262 2 0.044671 0.405832 0.219768
263 4 0.0636174 0.389539 0.220646
602 4 0.0770715 0.374473 0.222432
603 4 0.109719 0.342585 0.242877
601 2 0.0933953 0.358529 0.232654
290 4 0.182568 0.372353 0.19137
289 2 0.188686 0.395588 0.198289
291 4 0.194805 0.418823 0.205209
13 3 0.398797 0.37157 0.184337
2861 4 0.440375 0.409621 0.235688
2860 2 0.455387 0.394858 0.249174
264 4 0.0257247 0.422124 0.218889
416 4 0.185119 0.43297 0.216172
415 2 0.185413 0.457361 0.221668
1430 4 0.183246 0.493765 0.211149
417 4 0.185706 0.481751 0.227164
713 4 0.343458 0.495741 0.246323
659 4 0.4388 0.488601 0.170824
597 4 0.498634 0.465885 0.197155
595 2 0.476543 0.474425 0.189141
596 4 0.454451 0.482966 0.181128
231 4 0.437833 0.489808 0.189851
229 2 0.421933 0.496106 0.208091
1799 4 0.0274894 0.0205016 0.306244
233 4 0.0320336 0.0353391 0.29443
1402 2 0.0679216 0.0243163 0.293514
1403 4 0.0435242 0.0191062 0.295188
232 2 0.0142104 0.0524648 0.290658
1798 2 0.0132743 0.00704891 0.321805
1404 4 0.0923189 0.0295263 0.29184
23 3 0.398335 0.996774 0.261495
697 2 0.362937 0.018835 0.331078
633 4 0.38009 0.0576809 0.319521
631 2 0.38098 0.0767884 0.303419
698 4 0.375119 0.0403457 0.327328
349 2 0.452968 0.0191285 0.253338
351 4 0.475358 0.0235281 0.26356
743 4 0.487707 0.0377862 0.312861
744 4 0.492781 0.0336976 0.26328
742 2 0.490244 0.0357419 0.288071
479 4 0.478455 0.0421356 0.329884
2664 4 0.497677 0.0400543 0.328842
478 2 0.462866 0.0613174 0.333658
399 4 0.0536025 0.0996757 0.319683
397 2 0.0659727 0.119846 0.311602
398 4 0.0783428 0.140017 0.303522
317 4 0.0383135 0.0995727 0.331449
544 2 0.158284 0.162707 0.256005
393 4 0.0841085 0.147231 0.285929
390 4 0.0963966 0.147261 0.301413
391 2 0.0996421 0.151721 0.266858
388 2 0.105986 0.162842 0.318456
546 4 0.182642 0.161851 0.261582
632 4 0.38187 0.0958959 0.287316
444 4 0.0377231 0.24125 0.298322
545 4 0.133925 0.163562 0.250428
404 4 0.192947 0.168634 0.327536
403 2 0.187779 0.169738 0.303098
722 4 0.195354 0.175266 0.264117
405 4 0.182611 0.170841 0.278659
420 4 0.417994 0.234452 0.250481
333 4 0.465391 0.179215 0.331346
331 2 0.462847 0.192809 0.310516
332 4 0.460303 0.206404 0.289686
418 2 0.434964 0.219651 0.26135
419 4 0.451933 0.20485 0.272219
760 2 0.486812 0.202496 0.256972
762 4 0.469263 0.197778 0.274146
396 4 0.0237061 0.285368 0.255984
443 4 0.0280792 0.284724 0.275568
365 4 0.0116694 0.292973 0.269328
442 2 0.0329011 0.262987 0.286945
400 2 0.242125 0.292491 0.277882
402 4 0.241441 0.292002 0.302871
510 4 0.240856 0.29808 0.32138
508 2 0.225953 0.317268 0.327291
497 4 0.329271 0.323468 0.256828
401 4 0.242809 0.29298 0.252892
345 4 0.250045 0.280972 0.316403
496 2 0.305928 0.319215 0.264714
498 4 0.282585 0.314962 0.272601
343 2 0.269501 0.269882 0.327522
717 4 0.413139 0.251607 0.25853
715 2 0.416138 0.26818 0.27701
716 4 0.419138 0.284753 0.295491
542 4 0.43108 0.294212 0.309435
541 2 0.422432 0.317183 0.3142
547 2 0.0315391 0.391114 0.313549
548 4 0.0235318 0.374793 0.330716
549 4 0.0395464 0.407435 0.296382
734 4 0.122469 0.346295 0.257058
733 2 0.139757 0.356238 0.27214
735 4 0.157044 0.366181 0.287221
677 4 0.152299 0.363435 0.307964
509 4 0.211051 0.336455 0.333201
676 2 0.172449 0.353476 0.318917
678 4 0.192599 0.343517 0.329871
728 4 0.363125 0.381495 0.309125
727 2 0.360036 0.40583 0.304282
615 4 0.415181 0.359209 0.313605
543 4 0.413783 0.340155 0.318965
2538 4 0.488673 0.364344 0.317224
2536 2 0.487642 0.367579 0.292452
2537 4 0.48661 0.370815 0.26768
2862 4 0.470399 0.380095 0.26266
753 4 0.483933 0.344451 0.313753
777 4 0.0388033 0.425399 0.303926
775 2 0.0574001 0.440175 0.311735
776 4 0.075997 0.454952 0.319545
414 4 0.09325 0.448236 0.312648
412 2 0.107477 0.465444 0.323902
1545 4 0.181747 0.495211 0.323927
1776 4 0.171776 0.50346 0.274005
438 4 0.308328 0.45862 0.292588
436 2 0.332143 0.4541 0.298717
729 4 0.356947 0.430165 0.299439
437 4 0.355959 0.44958 0.304846
1772 4 0.0276604 0.00905078 0.396406
732 4 0.0782606 0.073769 0.377857
2238 4 0.0190059 0.0261865 0.39704
369 4 0.0743118 0.0767728 0.396742
367 2 0.0807244 0.053328 0.402607
368 4 0.087137 0.0298831 0.408471
1782 4 0.0939068 0.0120806 0.416019
1701 4 0.194271 0.0736139 0.382733
256 2 0.385719 0.068313 0.359357
257 4 0.377241 0.0562501 0.339163
258 4 0.394196 0.0803759 0.379551
426 4 0.393576 0.0788905 0.399076
424 2 0.39039 0.0589472 0.413817
480 4 0.447278 0.0804993 0.337431
458 4 0.00286659 0.14565 0.36459
730 2 0.0672609 0.083394 0.357571
731 4 0.0562611 0.0930189 0.337284
318 4 0.00831915 0.126524 0.361024
316 2 0.0233163 0.113048 0.346236
604 2 0.155899 0.0913816 0.388755
606 4 0.132637 0.100024 0.385699
605 4 0.179162 0.0827389 0.391811
1699 2 0.205013 0.0823339 0.361907
249 4 0.198575 0.157281 0.343153
247 2 0.203358 0.132892 0.340415
1700 4 0.215756 0.0910539 0.34108
248 4 0.208141 0.108504 0.337677
600 4 0.230935 0.155503 0.383798
683 4 0.239345 0.137735 0.389246
682 2 0.259157 0.124717 0.397196
319 2 0.318858 0.118472 0.392182
320 4 0.297928 0.113586 0.404958
708 4 0.334164 0.13911 0.367712
706 2 0.329431 0.162517 0.360302
684 4 0.278969 0.111699 0.405145
321 4 0.339789 0.123359 0.379407
515 4 0.459988 0.163539 0.341561
516 4 0.442758 0.118585 0.355089
575 4 0.4319 0.11483 0.372932
574 2 0.437983 0.112544 0.397076
514 2 0.451373 0.141062 0.348325
453 4 0.478249 0.168641 0.342894
2654 4 0.00162139 0.204656 0.390414
389 4 0.115576 0.178422 0.335498
598 2 0.225073 0.172318 0.401349
473 4 0.227586 0.244203 0.369294
374 4 0.209293 0.246752 0.377034
472 2 0.250872 0.243531 0.378375
378 4 0.292424 0.23874 0.340514
376 2 0.309754 0.220734 0.341292
377 4 0.327085 0.202727 0.342069
707 4 0.324699 0.185923 0.352893
474 4 0.274159 0.24286 0.387456
488 4 0.274154 0.222613 0.387363
487 2 0.294849 0.214025 0.398459
489 4 0.315545 0.205437 0.409555
267 4 0.376181 0.24827 0.419737
452 4 0.496194 0.194731 0.381599
451 2 0.487221 0.181686 0.362246
347 4 0.0580726 0.312676 0.398058
618 4 0.0780926 0.308994 0.397107
346 2 0.0570284 0.331962 0.413937
275 4 0.13976 0.323457 0.39256
617 4 0.128037 0.306814 0.395859
616 2 0.103065 0.307904 0.396483
274 2 0.158265 0.30739 0.387601
276 4 0.17677 0.291322 0.382643
373 2 0.202375 0.270779 0.37701
375 4 0.195457 0.294807 0.376987
344 4 0.288957 0.258791 0.338642
752 4 0.487609 0.319661 0.357028
751 2 0.485771 0.332056 0.335391
408 4 0.0164098 0.347263 0.374271
406 2 0.0106446 0.363052 0.35576
407 4 0.00487936 0.378841 0.33725
433 2 0.223723 0.374264 0.335402
434 4 0.239947 0.393061 0.338335
435 4 0.207499 0.355466 0.332469
334 2 0.329341 0.409977 0.390086
502 2 0.274234 0.405342 0.400476
504 4 0.256149 0.392125 0.411586
613 2 0.416478 0.366358 0.337529
335 4 0.348672 0.394709 0.385804
240 4 0.360153 0.401795 0.400467
614 4 0.417776 0.373508 0.361453
1543 2 0.159846 0.490191 0.334898
500 4 0.123038 0.497719 0.347434
413 4 0.121705 0.482652 0.335156
1544 4 0.137946 0.485171 0.345868
503 4 0.292319 0.418559 0.389366
668 4 0.308808 0.482396 0.412037
669 4 0.294617 0.4374 0.395462
336 4 0.310009 0.425246 0.394367
667 2 0.301712 0.459898 0.403749
3990 4 0.497205 0.497636 0.362213
2237 4 0.0196783 0.0538724 0.438678
2236 2 0.0193421 0.0400295 0.417859
1127 4 0.00756662 0.0578212 0.453301
720 4 0.0243813 0.0672653 0.45283
1781 4 0.0926182 0.00873384 0.465897
1780 2 0.0932625 0.0104072 0.440958
724 2 0.287714 0.0522576 0.484445
963 4 0.291338 0.0156159 0.481573
726 4 0.281557 0.0745137 0.474857
725 4 0.293871 0.0300016 0.494034
432 4 0.300389 0.013562 0.499601
1579 2 0.364383 0.00462923 0.434439
1580 4 0.372575 0.0256839 0.423726
425 4 0.387203 0.0390038 0.428557
2878 2 0.468161 0.0578275 0.49563
2880 4 0.458654 0.0750322 0.480177
642 4 0.452042 0.0692752 0.461182
718 2 0.0347692 0.0876985 0.462817
719 4 0.045157 0.108132 0.472805
1033 2 0.112732 0.138101 0.46888
1035 4 0.11224 0.155293 0.450732
1034 4 0.113223 0.120908 0.487028
1182 4 0.290804 0.0895028 0.464456
1180 2 0.289534 0.102322 0.443026
1181 4 0.288264 0.115142 0.421597
3157 2 0.494858 0.144391 0.477643
3158 4 0.480016 0.154971 0.460527
641 4 0.439267 0.112867 0.440272
576 4 0.444066 0.110259 0.42122
640 2 0.445654 0.0910711 0.450727
306 4 0.442207 0.128518 0.428275
304 2 0.452601 0.146041 0.44277
305 4 0.462995 0.163564 0.457265
261 4 0.126272 0.169557 0.453335
259 2 0.141762 0.188536 0.458338
694 2 0.147056 0.238423 0.480503
260 4 0.157253 0.207515 0.463341
695 4 0.164665 0.223148 0.471461
599 4 0.219211 0.189134 0.418901
687 4 0.217098 0.194133 0.437243
686 4 0.176218 0.21224 0.459643
685 2 0.196658 0.203187 0.448443
411 4 0.243987 0.198838 0.490946
467 4 0.375923 0.186596 0.453455
466 2 0.373823 0.207956 0.440628
468 4 0.371724 0.229316 0.4278
585 4 0.457172 0.231118 0.476006
696 4 0.129446 0.253698 0.489546
813 4 0.229157 0.288116 0.484983
811 2 0.240555 0.301731 0.502587
266 4 0.340193 0.282102 0.427543
265 2 0.358187 0.265186 0.42364
584 4 0.454662 0.278385 0.49214
583 2 0.455917 0.254752 0.484073
2812 2 0.00191978 0.365672 0.442688
2813 4 0.0182783 0.382772 0.450762
348 4 0.0559842 0.351248 0.429816
326 4 0.0641433 0.369086 0.427389
325 2 0.0835499 0.372566 0.442766
10 3 0.138779 0.353781 0.491272
327 4 0.102957 0.376046 0.458143
7 3 0.111928 0.359673 0.466028
6 1 0.12258 0.368289 0.484506
711 4 0.152064 0.391331 0.472535
8 3 0.132081 0.38869 0.478855
9 3 0.107004 0.371228 0.501452
774 4 0.216975 0.393109 0.469345
635 4 0.216398 0.411587 0.463667
709 2 0.176271 0.39759 0.47242
772 2 0.231166 0.394258 0.4899
710 4 0.200478 0.403849 0.472304
586 2 0.391034 0.404388 0.479878
239 4 0.388373 0.398652 0.441631
238 2 0.374263 0.400223 0.421049
588 4 0.379831 0.396784 0.458857
587 4 0.402236 0.411992 0.500898
681 4 0.0696519 0.422611 0.473994
1383 4 0.0651901 0.462103 0.439189
1381 2 0.0709907 0.4845 0.429706
680 4 0.0531257 0.446402 0.433231
679 2 0.0613888 0.434506 0.453613
539 4 0.0767909 0.485915 0.492703
383 4 0.0862855 0.425155 0.484851
382 2 0.110697 0.423411 0.479733
570 4 0.150685 0.484752 0.466105
569 4 0.149838 0.435799 0.476286
568 2 0.150262 0.460275 0.471196
384 4 0.135109 0.421666 0.474615
636 4 0.230594 0.423099 0.417119
634 2 0.223496 0.417343 0.440393
880 2 0.333555 0.49313 0.495722
1 1 0.30746 0.496758 0.446531
5 3 0.302516 0.475567 0.453249
4 3 0.314526 0.496612 0.42443
882 4 0.335939 0.506426 0.474681
663 4 0.412591 0.427773 0.503965
3077 4 0.996941 0.0298646 0.552496
1059 4 0.151272 0.0692068 0.583076
1150 2 0.16031 0.0850698 0.549173
340 2 0.186512 0.0443952 0.515361
342 4 0.17649 0.0659038 0.523243
2430 4 0.208773 0.0124562 0.519179
341 4 0.196534 0.0228866 0.507479
1152 4 0.166907 0.0846642 0.525059
430 2 0.319898 0.0133481 0.515238
431 4 0.339407 0.0131343 0.530875
843 4 0.348163 0.0295972 0.5254
842 4 0.383596 0.0505722 0.553778
841 2 0.36588 0.0400847 0.539589
1217 4 0.395439 0.0338421 0.553972
1216 2 0.408336 0.014022 0.562096
2879 4 0.477667 0.0406227 0.511084
879 4 0.0698959 0.150865 0.547506
877 2 0.0477558 0.158824 0.539042
1199 4 0.00888299 0.159425 0.536973
938 4 0.0886157 0.152353 0.541463
937 2 0.0994759 0.138754 0.52351
1151 4 0.153714 0.0854754 0.573287
939 4 0.110336 0.125156 0.505557
1272 4 0.083135 0.15991 0.55866
878 4 0.0256157 0.166783 0.530577
1270 2 0.0916172 0.179898 0.571057
1260 4 0.115785 0.243234 0.499392
409 2 0.257229 0.211092 0.508256
898 2 0.303021 0.214675 0.546979
899 4 0.319582 0.218822 0.565247
900 4 0.286461 0.210527 0.528711
410 4 0.270471 0.223347 0.525567
873 4 0.383179 0.245762 0.509505
1259 4 0.0785875 0.2753 0.508817
1258 2 0.0971862 0.259267 0.504104
812 4 0.251953 0.315345 0.520191
650 4 0.265889 0.320556 0.532423
649 2 0.2819 0.317275 0.551345
651 4 0.297911 0.313994 0.570268
790 2 0.33575 0.249355 0.579779
871 2 0.366962 0.261344 0.520432
872 4 0.350746 0.276926 0.531358
792 4 0.34267 0.27335 0.578538
2455 2 0.479416 0.310322 0.51023
2457 4 0.491162 0.329407 0.521321
2456 4 0.46767 0.291238 0.49914
935 4 0.0137978 0.359378 0.527047
1136 4 0.108034 0.404166 0.562702
1135 2 0.129687 0.399669 0.574369
773 4 0.245356 0.395406 0.510454
1190 4 0.245073 0.398341 0.530175
1189 2 0.237152 0.405231 0.552868
1191 4 0.229231 0.41212 0.575561
804 4 0.253318 0.334115 0.527321
802 2 0.254253 0.358997 0.525042
803 4 0.255187 0.383879 0.522764
930 4 0.260865 0.402694 0.520065
927 4 0.446131 0.37819 0.53086
925 2 0.433989 0.394591 0.516412
926 4 0.421846 0.410993 0.501965
1172 4 0.219615 0.428269 0.581873
928 2 0.277098 0.421148 0.515469
929 4 0.29333 0.439603 0.510873
891 4 0.316319 0.488486 0.525082
1952 4 0.323678 0.473538 0.534157
881 4 0.33117 0.479834 0.516763
1951 2 0.327527 0.45048 0.543028
1953 4 0.331376 0.427422 0.5519
1001 4 0.409109 0.48507 0.540391
662 4 0.407746 0.466411 0.535338
661 2 0.410168 0.447092 0.519652
1911 4 0.413681 0.470859 0.55345
4084 2 0.49916 0.493902 0.548018
1909 2 0.423248 0.459548 0.573593
1332 4 0.425572 0.475434 0.538938
1330 2 0.444348 0.490548 0.532287
1185 4 0.0102415 0.00227135 0.608095
1183 2 0.00505871 0.0180389 0.589394
1057 2 0.142673 0.046899 0.590398
1058 4 0.134075 0.0245911 0.597719
2375 4 0.143203 0.00907863 0.606883
1284 4 0.126632 0.0792775 0.663878
950 4 0.227301 0.0132084 0.60329
949 2 0.248376 0.0265643 0.604914
951 4 0.269451 0.0399201 0.606539
1031 4 0.279672 0.0558881 0.609265
1030 2 0.272207 0.06893 0.629249
1032 4 0.264743 0.081972 0.649233
3007 2 0.494271 0.0594453 0.605112
3009 4 0.492978 0.045481 0.584411
3008 4 0.495563 0.0734096 0.625812
3178 2 0.0131656 0.164643 0.648668
1083 4 0.0302272 0.134083 0.654143
3179 4 0.0354151 0.153806 0.65223
1155 4 0.15648 0.0851872 0.592659
1153 2 0.151022 0.102643 0.609708
1154 4 0.145564 0.120099 0.626758
1221 4 0.152171 0.131593 0.640415
1219 2 0.16974 0.149216 0.637978
1211 4 0.239971 0.158166 0.660161
1220 4 0.187309 0.166839 0.635541
888 4 0.260172 0.155848 0.66253
808 2 0.478208 0.0852202 0.653814
809 4 0.488572 0.0910142 0.63181
1245 4 0.081937 0.213964 0.645775
1209 4 0.0786982 0.226041 0.661606
1243 2 0.0833394 0.207303 0.621716
1244 4 0.0847417 0.200641 0.597657
1271 4 0.100099 0.199887 0.583455
1210 2 0.220746 0.1693 0.64869
1212 4 0.201521 0.180435 0.637218
797 4 0.186831 0.224365 0.607958
796 2 0.184803 0.204625 0.62317
798 4 0.182776 0.184885 0.638382
791 4 0.328831 0.22536 0.581019
857 4 0.312461 0.214535 0.5832
856 2 0.2968 0.217719 0.60243
858 4 0.281139 0.220903 0.621659
905 4 0.47175 0.229701 0.613201
3123 4 0.468228 0.211452 0.619396
3121 2 0.481642 0.204319 0.639255
3122 4 0.495055 0.197186 0.659114
983 4 0.0221974 0.287895 0.601148
982 2 0.0397575 0.302814 0.610856
984 4 0.0573176 0.317733 0.620564
3263 4 0.0519022 0.327823 0.636589
3262 2 0.0503511 0.321216 0.660654
805 2 0.292835 0.312585 0.636145
806 4 0.275914 0.305807 0.65326
807 4 0.309755 0.319364 0.61903
1239 4 0.326201 0.310677 0.626951
947 4 0.31077 0.271091 0.660755
1238 4 0.350647 0.288998 0.589094
1237 2 0.338424 0.299837 0.608023
906 4 0.468627 0.279543 0.610613
904 2 0.470188 0.254622 0.611907
952 2 0.482352 0.312806 0.607246
953 4 0.465257 0.297379 0.61699
954 4 0.499447 0.328233 0.597502
1041 4 0.0668631 0.333798 0.624849
1039 2 0.06305 0.358372 0.622247
1040 4 0.0592368 0.382945 0.619645
993 4 0.0592059 0.403012 0.62507
991 2 0.042118 0.414037 0.610522
1137 4 0.15134 0.395173 0.586036
897 4 0.166729 0.396941 0.598859
895 2 0.189995 0.403771 0.592757
896 4 0.21326 0.410601 0.586656
1029 4 0.222847 0.40173 0.650879
1206 4 0.492764 0.413804 0.596783
3309 4 0.503739 0.397594 0.597258
992 4 0.0250301 0.425061 0.595974
1171 2 0.216314 0.45213 0.588576
1160 4 0.197887 0.488741 0.595554
1173 4 0.213014 0.475991 0.595279
1188 4 0.184013 0.48555 0.656252
1187 4 0.206254 0.481065 0.611688
1186 2 0.195133 0.483308 0.63397
1204 2 0.471512 0.426974 0.596494
1910 4 0.432814 0.448237 0.593736
1269 4 0.440192 0.447245 0.611878
1267 2 0.442877 0.459951 0.633245
1205 4 0.45026 0.440144 0.596205
1268 4 0.445562 0.472656 0.654611
2168 4 0.429055 0.482594 0.65946
1226 4 0.169255 0.0796331 0.741454
2255 4 0.243045 0.00821263 0.744631
1148 4 0.185495 0.0813779 0.750862
1004 4 0.326923 0.0123369 0.707435
1003 2 0.314058 0.0336816 0.705418
1005 4 0.301192 0.0550263 0.703401
1049 4 0.343529 0.00211614 0.711779
45 3 0.444803 0.0484765 0.674073
43 3 0.419574 0.0741857 0.685036
1162 2 0.494518 0.0654264 0.706233
42 3 0.437377 0.0528927 0.710381
41 1 0.439619 0.0636999 0.690199
1163 4 0.475977 0.0759114 0.693137
44 3 0.456571 0.0794456 0.691964
1075 2 0.028181 0.0929944 0.72907
1076 4 0.0230552 0.100437 0.705756
1081 2 0.0274192 0.114996 0.670048
1082 4 0.0246112 0.0959076 0.685952
850 2 0.0708646 0.162463 0.73024
852 4 0.0513755 0.159402 0.745602
1214 4 0.0326053 0.16727 0.745908
1282 2 0.120974 0.0890952 0.686167
909 4 0.106587 0.159922 0.706231
907 2 0.116276 0.137125 0.709635
908 4 0.125965 0.114328 0.713039
1283 4 0.115316 0.0989129 0.708455
1227 4 0.126198 0.0991795 0.725183
851 4 0.0903537 0.165524 0.714879
1225 2 0.147726 0.0894063 0.733319
886 2 0.273892 0.159289 0.683148
829 2 0.329157 0.149529 0.711689
830 4 0.305325 0.157065 0.711015
887 4 0.287612 0.162729 0.703767
831 4 0.352988 0.141993 0.712362
1142 4 0.370782 0.14959 0.709771
1141 2 0.389524 0.166102 0.710887
810 4 0.467844 0.0794262 0.675818
1025 4 0.463041 0.154749 0.705135
3424 2 0.469157 0.11561 0.70041
3426 4 0.468655 0.0936376 0.688487
3425 4 0.469659 0.137582 0.712332
3269 4 0.47601 0.153906 0.720197
3268 2 0.485118 0.165007 0.740666
1213 2 0.011265 0.180275 0.745116
1208 4 0.0632289 0.196655 0.698994
1207 2 0.0709635 0.211348 0.6803
1107 4 0.1025 0.179238 0.709264
1105 2 0.119316 0.194108 0.720277
1106 4 0.136133 0.208977 0.731289
1130 4 0.153877 0.213587 0.723194
1129 2 0.162838 0.224469 0.743845
978 4 0.29243 0.167056 0.722239
976 2 0.297362 0.183851 0.740093
1193 4 0.335727 0.207973 0.705076
1194 4 0.383718 0.221662 0.701891
1192 2 0.359723 0.214817 0.703484
1143 4 0.408267 0.182614 0.712002
1262 4 0.417926 0.198128 0.718943
1261 2 0.423192 0.203696 0.742743
1024 2 0.444158 0.17113 0.704599
1026 4 0.425276 0.187511 0.704064
3264 4 0.0487999 0.314608 0.684719
779 4 0.0439012 0.300944 0.696779
778 2 0.0520117 0.277427 0.699303
780 4 0.0601223 0.253911 0.701827
893 4 0.0438802 0.318759 0.703771
1065 4 0.213968 0.288694 0.708137
1063 2 0.234865 0.275694 0.703722
946 2 0.292382 0.267394 0.67729
948 4 0.273995 0.263697 0.693825
1064 4 0.255762 0.262694 0.699307
1008 4 0.427132 0.307703 0.72207
1006 2 0.434239 0.294673 0.742192
892 2 0.0362923 0.337712 0.718207
894 4 0.0287044 0.356664 0.732643
816 4 0.0340699 0.373487 0.740853
814 2 0.0581538 0.378348 0.745491
3276 4 0.0152321 0.369667 0.740515
815 4 0.0822378 0.383209 0.750129
1067 4 0.14769 0.399619 0.705101
940 2 0.107308 0.387467 0.719397
941 4 0.129198 0.394275 0.709414
942 4 0.0854187 0.380659 0.729381
1027 2 0.21389 0.41322 0.671199
1066 2 0.171007 0.408638 0.705477
1019 4 0.395777 0.404935 0.738916
1280 4 0.0400215 0.489187 0.706917
1176 4 0.16252 0.474644 0.705514
1068 4 0.194324 0.417657 0.705852
1028 4 0.204932 0.424709 0.69152
1175 4 0.189515 0.498311 0.670702
1174 2 0.176018 0.486478 0.688108
1140 4 0.365234 0.467762 0.714315
1230 4 0.385649 0.43982 0.735517
1100 4 0.397005 0.424661 0.740131
1228 2 0.365105 0.446872 0.747903
1138 2 0.349044 0.485682 0.707841
3329 4 0.48343 0.45278 0.690888
1101 4 0.44584 0.43502 0.737204
1099 2 0.421423 0.429841 0.738667
3330 4 0.464763 0.43653 0.734342
1251 4 0.457315 0.444943 0.749747
3328 2 0.474096 0.444655 0.712615
1295 4 0.00818204 0.011313 0.793622
1296 4 0.033341 0.0542647 0.798407
1294 2 0.0207615 0.0327888 0.796015
1203 4 0.171996 0.0671091 0.755598
2049 4 0.180712 0.00749398 0.770912
1201 2 0.179923 0.0458905 0.766187
1202 4 0.187849 0.0246719 0.776775
2254 2 0.221709 0.00974751 0.757577
2256 4 0.200373 0.0112824 0.770523
975 4 0.34005 0.0507641 0.826562
2321 4 0.468892 0.00157754 0.791244
2322 4 0.44679 0.0454681 0.78198
2320 2 0.457841 0.0235228 0.786612
846 4 0.442299 0.0637033 0.776877
1077 4 0.0333067 0.0855515 0.752383
864 4 0.0510842 0.0877699 0.759791
862 2 0.0544445 0.105071 0.777527
863 4 0.0578049 0.122372 0.795262
833 4 0.0452352 0.131475 0.807143
1125 4 0.0641798 0.134437 0.808645
1123 2 0.0729412 0.157265 0.803422
832 2 0.0342394 0.12721 0.82919
35 3 0.0998098 0.13827 0.835362
34 3 0.120584 0.158808 0.811607
31 1 0.120638 0.146537 0.8313
32 3 0.135436 0.129059 0.829131
1149 4 0.230755 0.102358 0.747389
1147 2 0.208125 0.091868 0.749125
921 4 0.181984 0.141965 0.822812
1257 4 0.25106 0.100962 0.746718
919 2 0.192699 0.164528 0.821691
1255 2 0.263966 0.102979 0.768038
1256 4 0.276871 0.104997 0.789359
840 4 0.276888 0.10641 0.809427
838 2 0.279531 0.116779 0.832026
844 2 0.454205 0.0856383 0.778386
845 4 0.466112 0.107573 0.779896
1072 2 0.0622404 0.212345 0.815924
1074 4 0.0442229 0.229065 0.820506
1073 4 0.080258 0.195625 0.811342
1124 4 0.0817026 0.180094 0.798198
1131 4 0.1718 0.23535 0.764496
1277 4 0.16836 0.232067 0.783594
1276 2 0.183499 0.216155 0.795545
1278 4 0.198638 0.200244 0.807495
920 4 0.203414 0.187092 0.820571
1241 4 0.204672 0.206168 0.825356
977 4 0.302295 0.200646 0.757947
918 4 0.302073 0.217284 0.76705
1298 4 0.318922 0.206387 0.763375
1297 2 0.32994 0.202259 0.785437
916 2 0.286218 0.233698 0.756834
1086 4 0.332112 0.189515 0.823031
1299 4 0.340957 0.198131 0.807499
50 3 0.38622 0.194645 0.790839
1043 4 0.403033 0.240393 0.792739
49 3 0.408209 0.223022 0.802194
46 1 0.407354 0.200407 0.797067
48 3 0.413884 0.187863 0.815463