ITEM: TIMESTEP
3040000
ITEM: NUMBER OF ATOMS
4590
ITEM: BOX BOUNDS pp pp pp
-9.9985700000000008e+00 9.9985700000000008e+00
-9.9985700000000008e+00 9.9985700000000008e+00
-9.9985700000000008e+00 9.9985700000000008e+00
ITEM: ATOMS id type xs ys zs
465 4 0.0723019 0.0652647 0.0260243
701 4 0.0875102 0.0632143 0.013207
700 2 0.111425 0.0683025 0.0184412
702 4 0.135339 0.0733907 0.0236754
566 4 0.145715 0.0658917 0.00747501
746 4 0.482117 0.0511362 0.0422726
2469 4 0.477676 0.0339028 0.0536783
745 2 0.472427 0.0540251 0.019405
463 2 0.0549604 0.0830606 0.0288095
464 4 0.0376189 0.100857 0.0315948
590 4 0.0340717 0.102296 0.0516237
589 2 0.0169947 0.0974893 0.0692432
579 4 0.103252 0.137528 0.0935931
558 4 0.366649 0.115517 0.03434
556 2 0.3723 0.0979183 0.0511783
866 4 0.363667 0.133834 0.0276518
865 2 0.363547 0.158821 0.0267328
827 4 0.366051 0.117979 0.0157229
557 4 0.377952 0.0803196 0.0680166
771 4 0.416151 0.160862 0.0854567
554 4 0.037095 0.213758 0.0322522
553 2 0.0600765 0.210583 0.0229276
555 4 0.083058 0.207408 0.013603
835 2 0.115658 0.209454 0.0154832
836 4 0.0952142 0.212897 0.0294612
461 4 0.339442 0.238926 0.0806364
666 4 0.337731 0.236616 0.0615798
664 2 0.348265 0.220452 0.0456753
665 4 0.358798 0.204288 0.0297708
867 4 0.363427 0.183807 0.0258138
2808 4 0.0463933 0.305652 0.0349783
2806 2 0.0232259 0.296272 0.0342961
2807 4 5.85224e-05 0.286892 0.0336139
292 2 0.0992476 0.331209 0.0797996
356 4 0.311302 0.315309 0.0529358
572 4 0.315112 0.294918 0.0543456
355 2 0.307897 0.329987 0.0329826
571 2 0.320101 0.27187 0.0626575
573 4 0.32509 0.248822 0.0709693
620 4 0.0146199 0.377633 0.0868385
647 4 0.0208628 0.360046 0.0787138
293 4 0.115627 0.344063 0.0659553
507 4 0.131461 0.346205 0.0562743
505 2 0.140374 0.368389 0.0489513
483 4 0.152736 0.409783 0.0392508
506 4 0.149287 0.390573 0.0416283
481 2 0.176157 0.417108 0.0344574
626 4 0.188514 0.422699 0.0828588
482 4 0.199578 0.424433 0.0296641
357 4 0.304493 0.344666 0.0130294
902 4 0.288165 0.35148 0.00394715
671 4 0.490115 0.379374 0.0696891
281 4 0.499525 0.385565 0.053995
280 2 0.490097 0.408722 0.0542085
550 2 0.0593668 0.442605 0.0810527
551 4 0.0452478 0.429052 0.0966138
552 4 0.0734857 0.456158 0.0654916
1787 4 0.0826995 0.465609 0.0518042
1786 2 0.0746184 0.475211 0.0301783
1788 4 0.0665374 0.484813 0.00855251
242 4 0.0927159 0.462273 0.066695
609 4 0.218076 0.416754 0.0274024
246 4 0.244367 0.48188 0.0235203
244 2 0.240425 0.47442 0.047057
245 4 0.236483 0.466959 0.0705938
272 4 0.251781 0.487128 0.00609198
627 4 0.216969 0.463172 0.0755814
625 2 0.202741 0.442936 0.0792201
607 2 0.242623 0.419973 0.0309039
1778 4 0.249822 0.500779 0.0200466
608 4 0.26717 0.423191 0.0344054
252 4 0.285959 0.419181 0.025977
250 2 0.296584 0.441802 0.025217
251 4 0.30721 0.464423 0.0244569
2289 4 0.309492 0.483457 0.0235161
957 4 0.399499 0.427156 0.00224449
525 4 0.435958 0.493138 0.0791598
226 2 0.465634 0.472332 0.0644743
227 4 0.476657 0.452256 0.0544419
228 4 0.454612 0.492408 0.0745066
282 4 0.480669 0.431879 0.054422
1804 2 0.0513538 0.999451 0.0949194
16 1 0.0736812 0.0395169 0.13205
20 3 0.070486 0.0521542 0.113375
18 3 0.0665277 0.0177787 0.128218
19 3 0.0620093 0.0486679 0.149894
1806 4 0.0514899 0.0117397 0.116694
380 4 0.0759136 0.0631859 0.155656
17 3 0.0960935 0.0391681 0.137219
675 4 0.0936932 0.0544166 0.148844
652 2 0.320761 0.0204861 0.156105
654 4 0.306585 0.00528573 0.170004
653 4 0.334936 0.0356864 0.142206
484 2 0.365489 0.00495721 0.122601
297 4 0.360432 0.0456173 0.12648
485 4 0.371895 0.0290806 0.121117
295 2 0.365908 0.0589657 0.106059
296 4 0.371385 0.0723141 0.0856388
2625 4 0.99955 0.109023 0.149212
2623 2 0.994421 0.105533 0.12499
2624 4 0.989292 0.102042 0.100769
591 4 0.999918 0.0926822 0.0868627
237 4 0.143316 0.164812 0.140099
578 4 0.134113 0.163522 0.123133
577 2 0.118683 0.150525 0.108363
235 2 0.155579 0.145117 0.149421
236 4 0.167841 0.125421 0.158744
693 4 0.187845 0.128149 0.159291
449 4 0.179589 0.11494 0.170042
691 2 0.211712 0.121167 0.15668
692 4 0.235578 0.114185 0.154069
582 4 0.243608 0.0987398 0.143457
580 2 0.265155 0.111364 0.142221
581 4 0.286702 0.123988 0.140985
30 3 0.301264 0.13219 0.155249
737 4 0.150243 0.173499 0.124002
476 4 0.134389 0.180832 0.132736
475 2 0.12315 0.19324 0.151308
736 2 0.167833 0.190882 0.120312
738 4 0.185424 0.208264 0.116623
354 4 0.319333 0.233393 0.136355
283 2 0.331503 0.195674 0.151527
285 4 0.337003 0.173873 0.162467
284 4 0.326004 0.217474 0.140588
462 4 0.334359 0.227886 0.129144
460 2 0.3369 0.233406 0.10489
255 4 0.333474 0.232151 0.146573
352 2 0.296212 0.239966 0.143242
253 2 0.351011 0.244526 0.159398
1070 4 0.424021 0.229149 0.079862
769 2 0.434462 0.170805 0.0992776
770 4 0.452773 0.180748 0.113099
1014 4 0.466673 0.18838 0.126064
1013 4 0.455588 0.237071 0.12341
1012 2 0.46113 0.212725 0.124737
294 4 0.0828681 0.318355 0.0936438
610 2 0.226089 0.326187 0.128428
612 4 0.240133 0.306771 0.135567
756 4 0.253375 0.298268 0.124544
353 4 0.273092 0.246539 0.150129
754 2 0.254806 0.276335 0.136463
755 4 0.256238 0.254401 0.148383
278 4 0.263542 0.248854 0.166345
254 4 0.368548 0.2569 0.172224
1069 2 0.43683 0.250225 0.0839737
322 2 0.457491 0.312796 0.0903969
1071 4 0.44964 0.271301 0.0880855
324 4 0.450456 0.289518 0.096211
456 4 0.0592012 0.328668 0.110601
455 4 0.0645307 0.324189 0.160122
454 2 0.061866 0.326428 0.135362
646 2 0.0359412 0.341451 0.0859274
648 4 0.0510197 0.322856 0.0931411
536 4 0.191567 0.403669 0.0889853
611 4 0.212045 0.345603 0.121289
535 2 0.199204 0.383833 0.102153
537 4 0.206842 0.363998 0.11532
387 4 0.336199 0.414697 0.122132
739 2 0.39948 0.379397 0.11062
740 4 0.390332 0.385184 0.133158
385 2 0.357396 0.405965 0.132113
386 4 0.378593 0.397234 0.142094
495 4 0.397602 0.39913 0.145638
15 3 0.375952 0.377679 0.144815
741 4 0.408629 0.37361 0.0880809
670 2 0.470856 0.365546 0.0776279
672 4 0.451596 0.351717 0.0855667
323 4 0.464526 0.336075 0.0845829
1466 4 0.0088322 0.487817 0.101468
1465 2 0.994232 0.467556 0.102686
241 2 0.108653 0.47385 0.0820949
243 4 0.12459 0.485427 0.0974948
1440 4 0.143196 0.488307 0.10355
1438 2 0.166743 0.488138 0.111958
1439 4 0.19029 0.487969 0.120366
639 4 0.202202 0.489381 0.104712
303 4 0.318847 0.479436 0.109002
768 4 0.302305 0.488206 0.104498
301 2 0.323041 0.455806 0.116017
302 4 0.327234 0.432176 0.123033
493 2 0.40895 0.421382 0.14453
660 4 0.406777 0.458963 0.145788
494 4 0.420298 0.443635 0.143422
524 4 0.424992 0.489486 0.127813
523 2 0.430475 0.491312 0.103486
658 2 0.418616 0.475348 0.160504
379 2 0.0707792 0.0833836 0.169472
673 2 0.117261 0.0567199 0.156871
450 4 0.152604 0.0728912 0.172145
1505 4 0.155885 0.0540653 0.176448
674 4 0.140829 0.0590231 0.164898
1504 2 0.162302 0.0309183 0.183392
1506 4 0.16872 0.00777126 0.190335
22 3 0.418089 0.00581912 0.20232
757 2 0.467228 0.0268987 0.211817
25 3 0.435466 0.0137952 0.234372
759 4 0.454379 0.0145749 0.229372
758 4 0.480077 0.0392224 0.194261
350 4 0.449093 0.00990412 0.247661
512 4 0.0713091 0.119351 0.174024
381 4 0.0656448 0.103581 0.183288
511 2 0.0783856 0.139753 0.186627
448 2 0.166096 0.0939157 0.171093
513 4 0.0854621 0.160156 0.19923
29 3 0.328937 0.155743 0.165101
26 1 0.319395 0.134911 0.168758
28 3 0.313077 0.132885 0.190992
27 3 0.334944 0.118659 0.163935
521 4 0.49414 0.138541 0.225648
339 4 0.073412 0.176162 0.202306
337 2 0.0864161 0.19518 0.19259
477 4 0.111911 0.205648 0.16988
363 4 0.117782 0.22018 0.181555
338 4 0.0994203 0.214198 0.182874
362 4 0.144947 0.241005 0.218012
361 2 0.131364 0.230593 0.199784
372 4 0.135235 0.25045 0.233954
628 2 0.395059 0.224476 0.186385
629 4 0.407648 0.204671 0.195015
630 4 0.38247 0.244281 0.177755
312 4 0.421795 0.199782 0.181952
311 4 0.461867 0.17047 0.187933
310 2 0.441831 0.185126 0.184943
761 4 0.496879 0.224323 0.255981
749 4 0.0483429 0.321115 0.170579
750 4 0.0484752 0.286294 0.20647
395 4 0.0398228 0.29957 0.219719
748 2 0.048409 0.303705 0.188525
394 2 0.0310613 0.29079 0.241429
300 4 0.121148 0.313604 0.183747
298 2 0.119664 0.331339 0.20131
277 2 0.265518 0.25874 0.189226
279 4 0.267493 0.268626 0.212107
401 4 0.271084 0.318515 0.233278
498 4 0.277268 0.335724 0.224266
308 4 0.337081 0.327854 0.200867
765 4 0.385075 0.263319 0.18071
763 2 0.402407 0.278503 0.190416
526 2 0.503196 0.301711 0.179789
528 4 0.488955 0.317568 0.192863
764 4 0.41974 0.293686 0.200123
624 4 0.477554 0.311085 0.208381
622 2 0.455055 0.301047 0.212652
623 4 0.432557 0.29101 0.216923
262 2 0.0508813 0.408673 0.206265
263 4 0.0754009 0.404433 0.208712
299 4 0.11818 0.349073 0.218873
734 4 0.12342 0.344585 0.236665
602 4 0.0921411 0.403184 0.218167
601 2 0.101178 0.38108 0.225577
603 4 0.110214 0.358976 0.232988
290 4 0.16873 0.394658 0.21738
289 2 0.172788 0.415113 0.203585
496 2 0.298016 0.335642 0.210312
497 4 0.318763 0.335561 0.196357
11 1 0.387913 0.375176 0.164033
12 3 0.398229 0.354615 0.163913
307 2 0.351469 0.343539 0.187748
309 4 0.365858 0.359225 0.174629
14 3 0.404139 0.391701 0.165468
13 3 0.373757 0.376359 0.182379
264 4 0.0263618 0.412914 0.203818
2617 2 0.00520635 0.428048 0.231034
2618 4 0.0277867 0.422434 0.22188
291 4 0.176845 0.435569 0.189791
416 4 0.172079 0.453388 0.18137
415 2 0.182921 0.470609 0.195898
1430 4 0.214674 0.484201 0.206558
417 4 0.193763 0.48783 0.210426
597 4 0.488473 0.463885 0.193319
596 4 0.44693 0.49068 0.185774
659 4 0.430455 0.491733 0.175219
595 2 0.467701 0.477283 0.189546
1799 4 0.0113597 0.0164735 0.302934
233 4 0.00928934 0.0335093 0.294454
1402 2 0.0495072 0.0297097 0.311571
1403 4 0.0259746 0.0298578 0.303123
1404 4 0.0730397 0.0295617 0.32002
1798 2 0.00111574 0.00323724 0.32151
633 4 0.377465 0.032805 0.289427
631 2 0.38577 0.0355026 0.265998
257 4 0.366493 0.0272624 0.305018
698 4 0.371398 0.0148594 0.291641
256 2 0.366459 0.0483321 0.31848
258 4 0.366425 0.0694018 0.331943
632 4 0.394075 0.0382002 0.242569
349 2 0.449535 0.0131141 0.272454
744 4 0.469748 0.0183391 0.301095
742 2 0.481978 0.0219309 0.322605
351 4 0.449977 0.016324 0.297246
398 4 0.0810191 0.143603 0.317447
390 4 0.0749949 0.16086 0.324293
393 4 0.0818272 0.158557 0.30552
392 4 0.112204 0.153622 0.266104
391 2 0.0970157 0.156089 0.285812
545 4 0.130995 0.163018 0.269311
403 2 0.200573 0.158879 0.306548
404 4 0.208843 0.137873 0.317298
444 4 0.0236656 0.234553 0.304781
388 2 0.0743348 0.18288 0.336119
370 2 0.149616 0.246409 0.254004
544 2 0.152639 0.167926 0.280827
371 4 0.163998 0.242367 0.274055
546 4 0.174283 0.172833 0.292343
723 4 0.21196 0.223061 0.270601
721 2 0.195095 0.207585 0.280663
405 4 0.192303 0.179885 0.295798
722 4 0.17823 0.192109 0.290726
376 2 0.309812 0.226419 0.318809
378 4 0.300333 0.245281 0.305409
377 4 0.319291 0.207557 0.332209
420 4 0.394147 0.224207 0.269953
717 4 0.382441 0.234279 0.283378
418 2 0.418363 0.219279 0.273764
331 2 0.451097 0.204783 0.319325
332 4 0.443869 0.206186 0.29543
419 4 0.442578 0.214351 0.277575
760 2 0.478067 0.215218 0.269706
762 4 0.459255 0.206113 0.28343
442 2 0.0225803 0.256944 0.293707
364 2 0.0227663 0.314499 0.291009
396 4 0.0222998 0.282009 0.263139
443 4 0.021495 0.279335 0.282632
365 4 0.0284955 0.295884 0.275329
407 4 0.016536 0.330962 0.325964
735 4 0.153612 0.323613 0.270567
733 2 0.138516 0.334099 0.253616
676 2 0.188226 0.33495 0.290998
508 2 0.240895 0.311081 0.305332
509 4 0.219496 0.320607 0.314079
678 4 0.210663 0.332927 0.301846
435 4 0.219993 0.339942 0.31734
510 4 0.262295 0.301555 0.296586
400 2 0.264666 0.309123 0.255544
402 4 0.258248 0.299731 0.27781
345 4 0.269011 0.286045 0.287895
343 2 0.286251 0.27389 0.301319
344 4 0.303492 0.261735 0.314743
715 2 0.372291 0.253739 0.295355
716 4 0.362141 0.2732 0.307331
542 4 0.360763 0.291649 0.300791
541 2 0.374703 0.308911 0.31232
543 4 0.388643 0.326172 0.323849
751 2 0.487046 0.317457 0.326672
753 4 0.478361 0.327102 0.305301
366 4 0.0170371 0.333114 0.306688
548 4 0.0269009 0.345391 0.317172
547 2 0.0311285 0.369978 0.315493
549 4 0.0353561 0.394564 0.313814
777 4 0.0321637 0.407822 0.329422
2493 4 0.00764547 0.346413 0.31748
677 4 0.165789 0.336972 0.28015
728 4 0.359425 0.386091 0.297781
727 2 0.366348 0.407088 0.30946
2538 4 0.493618 0.334676 0.295516
2536 2 0.506556 0.354289 0.286966
1543 2 0.142999 0.481655 0.314591
1545 4 0.158691 0.480082 0.295188
1436 4 0.176911 0.488134 0.297574
1544 4 0.127306 0.483228 0.333993
729 4 0.373271 0.428084 0.32114
437 4 0.358576 0.437156 0.331224
730 2 0.0773631 0.071359 0.357967
1772 4 0.00172079 0.0331845 0.389565
2238 4 0.0163272 0.0456893 0.387245
2236 2 0.0200031 0.0491688 0.411731
1771 2 0.99776 0.0138077 0.374267
368 4 0.0812882 0.0161424 0.417191
732 4 0.0952806 0.054461 0.362279
369 4 0.0917171 0.0384182 0.373651
367 2 0.0865027 0.0272803 0.395421
604 2 0.166749 0.0206313 0.38446
1701 4 0.195301 0.0465557 0.396228
1699 2 0.192868 0.0713224 0.393804
605 4 0.175562 0.0420847 0.393801
424 2 0.377695 0.0643158 0.370825
425 4 0.392909 0.0597031 0.390124
1580 4 0.395276 0.0387311 0.389715
426 4 0.362482 0.0689284 0.351526
1579 2 0.390252 0.0149579 0.395613
743 4 0.494209 0.0255227 0.344116
478 2 0.490909 0.0413248 0.375856
480 4 0.476348 0.0523937 0.392904
457 2 0.99891 0.163923 0.365602
458 4 0.0047624 0.140056 0.360992
397 2 0.0723269 0.125282 0.332075
399 4 0.0636348 0.106961 0.346703
317 4 0.0542573 0.104458 0.362829
731 4 0.0594457 0.0882571 0.353654
316 2 0.0312643 0.113295 0.367119
249 4 0.201768 0.123119 0.327398
247 2 0.19824 0.112107 0.349566
248 4 0.194711 0.101095 0.371735
1700 4 0.190435 0.096089 0.391381
319 2 0.328013 0.130118 0.396089
321 4 0.343402 0.135336 0.377086
708 4 0.333653 0.147772 0.364294
516 4 0.464129 0.149433 0.367924
575 4 0.461631 0.141353 0.385509
574 2 0.461286 0.124588 0.404057
459 4 0.993058 0.187791 0.370213
2654 4 0.00669682 0.201651 0.37353
389 4 0.0736748 0.2049 0.347945
707 4 0.321359 0.188908 0.338655
706 2 0.327506 0.16834 0.351475
600 4 0.248586 0.179415 0.405981
466 2 0.351093 0.253497 0.384943
467 4 0.34608 0.245887 0.361659
451 2 0.501852 0.209955 0.342108
333 4 0.458325 0.20338 0.34322
453 4 0.477355 0.207965 0.346704
515 4 0.466623 0.198791 0.360285
514 2 0.465376 0.174112 0.364104
406 2 0.0228281 0.31611 0.34507
408 4 0.0291201 0.301259 0.364175
347 4 0.0542428 0.331909 0.368099
275 4 0.134844 0.329885 0.358774
274 2 0.14737 0.312018 0.370983
276 4 0.159897 0.294151 0.383192
373 2 0.191127 0.27976 0.40426
375 4 0.177476 0.284679 0.383898
374 4 0.204779 0.27484 0.424622
489 4 0.296371 0.25539 0.407689
615 4 0.403649 0.324529 0.338445
267 4 0.348596 0.279178 0.403315
468 4 0.356106 0.261107 0.408227
613 2 0.413945 0.30959 0.355649
752 4 0.495732 0.307812 0.348042
614 4 0.424242 0.29465 0.372853
346 2 0.052648 0.336178 0.392684
618 4 0.0688879 0.339322 0.357036
617 4 0.118022 0.335998 0.348344
616 2 0.0934548 0.33766 0.35269
433 2 0.211309 0.348531 0.339158
434 4 0.202626 0.35712 0.360975
240 4 0.396283 0.408862 0.400366
335 4 0.376547 0.407383 0.40453
334 2 0.353706 0.414457 0.41184
775 2 0.0425547 0.429419 0.336548
776 4 0.0529457 0.451016 0.343674
414 4 0.0725621 0.458229 0.344134
413 4 0.119219 0.475195 0.350134
412 2 0.0958905 0.466712 0.347134
500 4 0.118061 0.494744 0.346808
504 4 0.284599 0.417614 0.378917
502 2 0.299039 0.415105 0.399175
503 4 0.313478 0.412595 0.419433
436 2 0.373058 0.45363 0.343226
438 4 0.38754 0.470105 0.355228
336 4 0.330865 0.42153 0.419151
593 4 0.392257 0.488263 0.363896
3990 4 0.474336 0.478638 0.360955
1127 4 0.0139986 0.0577643 0.451878
2237 4 0.0236791 0.0526484 0.436217
720 4 0.0235361 0.0719623 0.442722
1782 4 0.0998877 0.0203263 0.425861
2428 2 0.225413 0.0221273 0.490134
2430 4 0.200975 0.0201177 0.495022
2429 4 0.249852 0.0241369 0.485246
962 4 0.261129 0.00830927 0.486906
961 2 0.281549 0.0200547 0.495287
724 2 0.316301 0.0666561 0.492373
725 4 0.310049 0.0487002 0.508612
2879 4 0.405743 0.00295325 0.467742
642 4 0.446302 0.054943 0.455823
2878 2 0.417823 0.0244052 0.463376
2880 4 0.429903 0.0458571 0.45901
640 2 0.456436 0.0761636 0.447328
469 2 0.00293777 0.146522 0.46906
470 4 0.0251759 0.137519 0.462018
718 2 0.0277418 0.0950174 0.451437
719 4 0.0319475 0.118073 0.460152
937 2 0.08339 0.153673 0.501996
939 4 0.0966548 0.144933 0.482687
1033 2 0.133396 0.139471 0.468296
1035 4 0.157928 0.134867 0.469778
1034 4 0.108865 0.144075 0.466814
261 4 0.177169 0.136106 0.464634
259 2 0.184546 0.15952 0.46938
320 4 0.312624 0.124901 0.415093
726 4 0.322552 0.0846121 0.476135
684 4 0.297083 0.133697 0.422327
682 2 0.277047 0.147739 0.417174
683 4 0.25701 0.161781 0.412021
1181 4 0.309713 0.123452 0.433996
1182 4 0.333142 0.0874972 0.459668
1180 2 0.321428 0.105475 0.446832
576 4 0.46094 0.107824 0.422604
641 4 0.466569 0.0973842 0.438832
306 4 0.460094 0.115513 0.440346
304 2 0.455892 0.128188 0.461486
3158 4 0.440022 0.152575 0.491611
305 4 0.45169 0.140862 0.482625
694 2 0.176233 0.216926 0.496908
695 4 0.182766 0.196618 0.483866
260 4 0.191923 0.182934 0.474127
687 4 0.236083 0.221763 0.447186
686 4 0.197056 0.202089 0.471488
685 2 0.21657 0.211926 0.459337
474 4 0.240858 0.236549 0.438925
599 4 0.247161 0.221063 0.433624
411 4 0.25304 0.228217 0.448292
598 2 0.247873 0.200239 0.419802
409 2 0.26739 0.226406 0.468687
488 4 0.257712 0.234943 0.43194
487 2 0.277042 0.245167 0.419815
410 4 0.28174 0.224594 0.489082
2812 2 0.018883 0.33202 0.438934
472 2 0.22959 0.258832 0.437623
473 4 0.218322 0.281115 0.436321
266 4 0.322711 0.311462 0.431394
265 2 0.335653 0.29532 0.417355
348 4 0.0510532 0.340446 0.417269
2813 4 0.041046 0.342529 0.434081
326 4 0.0569066 0.353547 0.42951
325 2 0.0657051 0.372369 0.44342
327 4 0.0745037 0.391191 0.457331
7 3 0.0858567 0.387126 0.47322
6 1 0.102666 0.381474 0.48787
709 2 0.145683 0.419277 0.495428
10 3 0.119238 0.370762 0.476501
774 4 0.186806 0.419999 0.488571
710 4 0.167974 0.42418 0.485217
813 4 0.281482 0.342883 0.475437
811 2 0.270728 0.341596 0.497973
238 2 0.407721 0.409564 0.422589
679 2 0.0598502 0.468159 0.4993
680 4 0.0493513 0.482825 0.481983
1383 4 0.0593404 0.49494 0.468326
635 4 0.181222 0.426731 0.47078
636 4 0.193078 0.452037 0.42931
634 2 0.18715 0.439384 0.450045
668 4 0.327004 0.477891 0.436261
667 2 0.321621 0.453697 0.432964
4 3 0.329011 0.492736 0.449524
669 4 0.316238 0.429504 0.429667
587 4 0.40711 0.439395 0.495815
239 4 0.41916 0.410266 0.444811
586 2 0.411249 0.434461 0.471655
588 4 0.415389 0.429527 0.447495
1184 4 0.0269619 0.0100748 0.564872
3077 4 0.0155865 0.00865703 0.548753
3076 2 0.00452545 0.0199899 0.529404
1152 4 0.134613 0.0547167 0.522628
1150 2 0.131769 0.0696178 0.542504
1151 4 0.128924 0.0845188 0.56238
342 4 0.150038 0.0607734 0.511734
1059 4 0.137695 0.0843705 0.579566
340 2 0.171122 0.0476146 0.508993
341 4 0.192205 0.0344558 0.506251
430 2 0.323439 0.0249812 0.53616
432 4 0.30535 0.0351679 0.522225
963 4 0.301969 0.0318002 0.503667
841 2 0.378416 0.0370147 0.556688
842 4 0.398792 0.0514466 0.555374
843 4 0.35804 0.0225828 0.558002
431 4 0.341528 0.0147946 0.550095
1217 4 0.413212 0.0377386 0.553977
1216 2 0.429415 0.0189767 0.550718
879 4 0.0517952 0.160912 0.527089
877 2 0.0270472 0.157915 0.525155
878 4 0.00229932 0.154919 0.523221
938 4 0.0701252 0.162413 0.521305
1155 4 0.146024 0.0947706 0.565615
1154 4 0.154026 0.1408 0.583447
1153 2 0.150025 0.117785 0.574531
1221 4 0.173451 0.140424 0.592329
3159 4 0.448416 0.12968 0.53527
3157 2 0.444219 0.141127 0.513441
1062 4 0.459916 0.11642 0.524574
1060 2 0.47598 0.0974559 0.521837
1272 4 0.0645892 0.172833 0.536425
1270 2 0.0735301 0.177415 0.559321
1271 4 0.082471 0.181998 0.582217
1258 2 0.151488 0.235504 0.543103
1259 4 0.136777 0.223506 0.559376
1260 4 0.166198 0.247503 0.526829
696 4 0.1697 0.237234 0.509949
898 2 0.288955 0.226936 0.53213
899 4 0.296947 0.22678 0.555822
857 4 0.30548 0.223264 0.573296
791 4 0.315549 0.233131 0.559346
900 4 0.280964 0.227091 0.508439
856 2 0.29545 0.203149 0.58425
790 2 0.337917 0.243667 0.555626
792 4 0.360286 0.254202 0.551907
872 4 0.377373 0.26127 0.546168
1238 4 0.36677 0.269626 0.561151
871 2 0.380253 0.270811 0.523237
873 4 0.383134 0.280352 0.500305
1237 2 0.364517 0.28957 0.576063
1135 2 0.112831 0.364501 0.578925
1136 4 0.107897 0.340028 0.577549
1137 4 0.117764 0.388975 0.580302
897 4 0.136572 0.390434 0.57192
895 2 0.158148 0.399273 0.580949
8 3 0.110972 0.400838 0.497589
711 4 0.123392 0.414375 0.505639
9 3 0.0939756 0.3675 0.504228
773 4 0.219748 0.415637 0.525942
1189 2 0.210248 0.4109 0.567101
1190 4 0.221333 0.412113 0.544722
803 4 0.224064 0.397123 0.532118
802 2 0.235571 0.375091 0.529401
804 4 0.247078 0.35306 0.526684
930 4 0.23713 0.411448 0.534135
772 2 0.203277 0.417818 0.507257
651 4 0.292702 0.32724 0.563609
649 2 0.271903 0.332052 0.550593
650 4 0.251104 0.336864 0.537577
812 4 0.259974 0.34031 0.520509
925 2 0.415023 0.398799 0.51264
927 4 0.417341 0.376002 0.522647
539 4 0.0861095 0.480943 0.519972
383 4 0.0734361 0.433744 0.513491
681 4 0.0703492 0.453494 0.516617
384 4 0.121571 0.423937 0.522851
382 2 0.0975034 0.428841 0.518171
569 4 0.132175 0.430805 0.538332
568 2 0.148054 0.448608 0.545821
570 4 0.163934 0.46641 0.55331
538 2 0.107069 0.494135 0.523411
928 2 0.254466 0.429243 0.536957
929 4 0.271803 0.447037 0.539779
1951 2 0.296204 0.46378 0.528872
1953 4 0.288487 0.440338 0.532885
1952 4 0.303922 0.487221 0.524858
663 4 0.401984 0.4342 0.513876
661 2 0.41035 0.451989 0.529327
1330 2 0.449238 0.496093 0.538272
926 4 0.412705 0.421595 0.502633
1001 4 0.409896 0.484489 0.554274
662 4 0.418716 0.469778 0.544778
1911 4 0.427062 0.475552 0.560313
1332 4 0.426676 0.487975 0.545359
2374 2 0.146547 0.0137583 0.612631
2375 4 0.154268 0.0375376 0.612282
1057 2 0.142798 0.0700171 0.599393
1058 4 0.147902 0.0556636 0.61922
950 4 0.249095 0.0208617 0.602036
2400 4 0.323047 0.0292138 0.652592
949 2 0.256087 0.0290478 0.624603
951 4 0.26308 0.037234 0.64717
1031 4 0.275802 0.046999 0.637056
1030 2 0.291832 0.0587713 0.652209
43 3 0.462058 0.0490262 0.645042
810 4 0.49239 0.0844748 0.66077
1209 4 0.107871 0.16465 0.641354
1207 2 0.106127 0.162565 0.666209
1219 2 0.193431 0.155198 0.595111
1220 4 0.21341 0.169972 0.597894
888 4 0.259669 0.169255 0.662551
808 2 0.497506 0.0937094 0.638104
809 4 0.502622 0.102944 0.615439
3250 2 0.495119 0.142486 0.608703
3251 4 0.496966 0.167332 0.61082
3252 4 0.493273 0.117641 0.606586
1244 4 0.0943148 0.195821 0.589604
1245 4 0.0915278 0.173485 0.634259
1243 2 0.0929213 0.184653 0.611931
1210 2 0.23116 0.176088 0.636391
1212 4 0.222315 0.177562 0.613051
797 4 0.182577 0.230786 0.610066
796 2 0.195315 0.209439 0.60738
798 4 0.208054 0.188092 0.604694
1211 4 0.240006 0.174614 0.659731
858 4 0.28542 0.183035 0.595205
3121 2 0.4831 0.209151 0.613543
3122 4 0.489087 0.184875 0.613533
3123 4 0.477113 0.233427 0.613553
983 4 0.00733607 0.33415 0.629181
3263 4 0.0670829 0.334653 0.662043
806 4 0.293848 0.322664 0.582352
805 2 0.318447 0.319407 0.585425
807 4 0.343046 0.31615 0.588499
1239 4 0.362264 0.309513 0.590975
906 4 0.458479 0.29158 0.592377
905 4 0.464742 0.248269 0.616576
904 2 0.461611 0.269924 0.604477
953 4 0.461376 0.306819 0.605651
952 2 0.480206 0.322282 0.600042
982 2 0.0274473 0.335128 0.644006
984 4 0.0475584 0.336106 0.65883
1041 4 0.0594558 0.349671 0.652747
1039 2 0.0674313 0.372133 0.645196
993 4 0.0706865 0.3958 0.616158
991 2 0.0617866 0.418895 0.612606
1040 4 0.0754067 0.394596 0.637645
896 4 0.179724 0.408112 0.589979
1028 4 0.185656 0.384776 0.6516
1027 2 0.188007 0.39313 0.628151
1029 4 0.190358 0.401484 0.604702
1191 4 0.199164 0.409686 0.58948
954 4 0.499037 0.337745 0.594432
1206 4 0.489549 0.412601 0.622046
3309 4 0.499971 0.396464 0.625856
992 4 0.0528866 0.441989 0.609055
1159 2 0.166859 0.504037 0.602587
1172 4 0.188617 0.421097 0.601686
1160 4 0.180161 0.485584 0.612965
1171 2 0.189829 0.445394 0.607462
1173 4 0.191042 0.469691 0.613237
1187 4 0.192244 0.481435 0.628106
1186 2 0.180551 0.478018 0.649941
1909 2 0.432204 0.463896 0.581828
1268 4 0.450367 0.491636 0.651334
1267 2 0.443517 0.47222 0.637148
1204 2 0.468875 0.426118 0.618167
1910 4 0.437346 0.452241 0.603343
1269 4 0.436666 0.452803 0.622962
1205 4 0.448201 0.439635 0.614287
1284 4 0.109136 0.0480288 0.724816
1282 2 0.122005 0.0659995 0.713127
2047 2 0.152022 0.0117717 0.745642
2049 4 0.17693 0.00958148 0.745542
1225 2 0.173656 0.0802796 0.693441
1201 2 0.195141 0.0423724 0.725995
1202 4 0.19124 0.0220442 0.740021
1203 4 0.199042 0.0627005 0.711969
1226 4 0.196079 0.0692205 0.693748
1148 4 0.209179 0.0777608 0.705262
2256 4 0.195864 0.00455622 0.748245
1032 4 0.307863 0.0705436 0.667363
45 3 0.485564 0.0315752 0.668719
41 1 0.471588 0.0493786 0.666195
1163 4 0.49746 0.0789034 0.678081
44 3 0.483327 0.0691565 0.669266
42 3 0.454842 0.048153 0.681917
1077 4 0.0339705 0.135908 0.728964
1075 2 0.0138696 0.121791 0.72429
864 4 0.0412815 0.135704 0.748181
850 2 0.075187 0.160038 0.712344
1283 4 0.134874 0.0839702 0.701439
909 4 0.113122 0.144304 0.69732
907 2 0.126151 0.123276 0.700964
908 4 0.139179 0.102249 0.704609
1227 4 0.151233 0.0913388 0.693134
851 4 0.0985621 0.152347 0.707913
1208 4 0.104383 0.16048 0.691064
1107 4 0.116475 0.160412 0.706583
1147 2 0.222897 0.0923949 0.72019
1149 4 0.236614 0.107029 0.735118
829 2 0.321868 0.155608 0.699394
830 4 0.297645 0.156898 0.705456
886 2 0.269055 0.164131 0.685153
887 4 0.27844 0.159006 0.707755
831 4 0.346092 0.154318 0.693332
1142 4 0.359389 0.143811 0.703182
1141 2 0.380985 0.156093 0.705997
1143 4 0.402582 0.168375 0.708812
3426 4 0.479594 0.0874773 0.675511
1025 4 0.457026 0.126094 0.706686
3424 2 0.477512 0.108797 0.688406
3425 4 0.47543 0.130118 0.701302
3269 4 0.472152 0.123302 0.718546
1024 2 0.438405 0.142594 0.709173
3268 2 0.482792 0.13189 0.73948
1026 4 0.419784 0.159093 0.711661
845 4 0.459573 0.100369 0.729603
852 4 0.051812 0.167729 0.716775
1214 4 0.0423463 0.18234 0.704957
1213 2 0.0198903 0.190412 0.712423
1105 2 0.129096 0.176749 0.720688
1106 4 0.141718 0.193086 0.734794
1130 4 0.161538 0.195974 0.737548
978 4 0.291624 0.171771 0.716364
976 2 0.297616 0.186046 0.735998
916 2 0.317797 0.239741 0.744186
977 4 0.303607 0.20032 0.755633
1192 2 0.419799 0.196269 0.686846
1194 4 0.419038 0.175718 0.701067
1262 4 0.416432 0.176627 0.720372
1193 4 0.420561 0.216821 0.672624
1261 2 0.423034 0.184643 0.743117
3262 2 0.0725482 0.32356 0.683774
3264 4 0.0780134 0.312467 0.705506
893 4 0.0800277 0.306303 0.724313
892 2 0.0727969 0.323409 0.741055
779 4 0.0882929 0.296293 0.710076
778 2 0.113084 0.294302 0.712646
780 4 0.137875 0.29231 0.715217
1065 4 0.245663 0.299494 0.692588
1064 4 0.29351 0.312029 0.699952
1063 2 0.269587 0.305762 0.69627
947 4 0.32275 0.281942 0.739267
946 2 0.31071 0.301072 0.728576
948 4 0.298671 0.320202 0.717886
917 4 0.328009 0.261513 0.737338
1008 4 0.448212 0.301438 0.715684
1006 2 0.455284 0.280846 0.727977
1007 4 0.462356 0.260254 0.740271
941 4 0.138056 0.408205 0.720537
1067 4 0.151162 0.404581 0.707916
940 2 0.132336 0.397723 0.742504
1066 2 0.165751 0.399483 0.68826
1068 4 0.18034 0.394385 0.668604
1019 4 0.387701 0.411355 0.748537
1230 4 0.377833 0.414405 0.732531
884 4 0.0621516 0.474971 0.752868
1176 4 0.123286 0.486498 0.707721
1174 2 0.138368 0.485942 0.687786
1175 4 0.15345 0.485385 0.667851
1188 4 0.168858 0.474602 0.671777
1139 4 0.307815 0.489113 0.702392
1138 2 0.314607 0.466753 0.711286
1140 4 0.321398 0.444394 0.720181
1989 4 0.316598 0.446084 0.739357
1229 4 0.332708 0.435935 0.733476
1100 4 0.394152 0.423217 0.733781
1228 2 0.355271 0.42517 0.733004
1099 2 0.410997 0.441358 0.730269
1101 4 0.427842 0.459499 0.726757
3330 4 0.445744 0.45435 0.733291
3328 2 0.463903 0.451824 0.71629
1251 4 0.435913 0.468931 0.741506
3329 4 0.482062 0.449297 0.699289
1249 2 0.439123 0.489695 0.755059
834 4 0.0378803 0.070517 0.813771
785 4 0.0244429 0.081574 0.821062
832 2 0.0551065 0.0850624 0.80296
2048 4 0.127115 0.0139619 0.745742
2390 4 0.125499 0.00444595 0.765773
1113 4 0.364886 0.0619632 0.787864
1111 2 0.374953 0.0783107 0.803882
2321 4 0.442165 0.0144571 0.799962
2322 4 0.449176 0.0580669 0.776515
2320 2 0.44567 0.036262 0.788239
846 4 0.442501 0.0754278 0.769443
980 4 0.437335 0.00773554 0.817722
979 2 0.420857 0.0141334 0.835406
862 2 0.0569039 0.125795 0.765001
863 4 0.0725263 0.115886 0.781822
833 4 0.0723328 0.0996077 0.79215
1125 4 0.0727159 0.116714 0.801351
1123 2 0.0734931 0.136324 0.816843
1124 4 0.0742703 0.155934 0.832336
911 4 0.151791 0.118528 0.818544
910 2 0.140908 0.132499 0.836194
1257 4 0.228198 0.110836 0.752914
1255 2 0.22196 0.120009 0.775322
921 4 0.202104 0.139733 0.805779
919 2 0.188647 0.154986 0.820321
840 4 0.22032 0.139725 0.813293
1256 4 0.215721 0.129182 0.797729
838 2 0.243679 0.145318 0.820241
1112 4 0.385019 0.0946582 0.819901
844 2 0.451037 0.0878985 0.749523
3270 4 0.493432 0.140479 0.760413
1146 4 0.485428 0.156139 0.768051
1073 4 0.0681826 0.171256 0.842201
34 3 0.116452 0.177008 0.812698
1277 4 0.15012 0.21946 0.801513
1276 2 0.161189 0.204683 0.818374
1129 2 0.156355 0.205011 0.760278
1131 4 0.151172 0.214049 0.783007
822 4 0.158009 0.231861 0.789519
35 3 0.0860977 0.17149 0.834281
920 4 0.175191 0.170238 0.834862
918 4 0.307586 0.217969 0.751034
1298 4 0.320742 0.206085 0.759826
1297 2 0.33207 0.19844 0.780764
1299 4 0.343397 0.190794 0.801703
1086 4 0.352886 0.184189 0.817526
50 3 0.402338 0.193297 0.796739
1044 4 0.460946 0.248739 0.756245
46 1 0.425051 0.191794 0.796021
49 3 0.434259 0.212767 0.792311
1043 4 0.440365 0.206375 0.773051
48 3 0.433041 0.183051 0.815974
47 3 0.43118 0.177829 0.7788
1263 4 0.429636 0.192659 0.765862
1145 4 0.446775 0.187707 0.771228
1144 2 0.466101 0.171923 0.769639
1042 2 0.450656 0.227557 0.764648
1022 4 0.447218 0.196413 0.821431
3187 2 0.0135157 0.275953 0.766021
3189 4 0.0342728 0.2892 0.770362
820 2 0.168105 0.254472 0.786059
821 4 0.1782 0.277084 0.782599
1236 4 0.230754 0.316719 0.771916
1234 2 0.239718 0.316958 0.795256
1098 4 0.233194 0.32848 0.827476
1235 4 0.248682 0.317198 0.818596
1166 4 0.468835 0.265913 0.757058
1165 2 0.488797 0.268251 0.771932
3275 4 0.017939 0.361339 0.782424
894 4 0.0655661 0.340515 0.757796
3276 4 0.0642705 0.343529 0.776348