ITEM: TIMESTEP
3390000
ITEM: NUMBER OF ATOMS
4590
ITEM: BOX BOUNDS pp pp pp
-9.9985700000000008e+00 9.9985700000000008e+00
-9.9985700000000008e+00 9.9985700000000008e+00
-9.9985700000000008e+00 9.9985700000000008e+00
ITEM: ATOMS id type xs ys zs
2576 4 0.043028 0.997805 0.0732145
702 4 0.128861 0.0583134 0.0233471
566 4 0.141238 0.0598188 0.00698233
700 2 0.114761 0.0771003 0.0319161
986 4 0.40478 0.0814986 0.0107635
746 4 0.477177 0.0421442 0.0487856
2469 4 0.495721 0.0360636 0.0551882
745 2 0.468482 0.0478306 0.0260424
747 4 0.459788 0.0535169 0.00329928
985 2 0.425231 0.0697975 0.00239558
987 4 0.445681 0.0580965 0.994028
463 2 0.0663309 0.104875 0.050066
464 4 0.0419181 0.099557 0.0510191
590 4 0.0270863 0.109575 0.0573207
589 2 0.00646251 0.109216 0.0714524
465 4 0.0907437 0.110194 0.0491129
701 4 0.100661 0.0958872 0.040485
557 4 0.329322 0.091505 0.0765087
558 4 0.356601 0.121103 0.0468355
556 2 0.342961 0.106304 0.0616721
866 4 0.365136 0.138535 0.0446866
865 2 0.364397 0.16117 0.0552828
827 4 0.376121 0.121669 0.0465223
826 2 0.392987 0.111211 0.0313116
828 4 0.409853 0.100753 0.016101
554 4 0.0236936 0.204026 0.0403317
553 2 0.0443456 0.209183 0.0272138
555 4 0.0649975 0.21434 0.0140959
836 4 0.0780772 0.207458 0.00103986
835 2 0.102993 0.207573 0.00313314
666 4 0.34131 0.246538 0.0717622
664 2 0.353788 0.225536 0.0664297
665 4 0.366265 0.204535 0.0610971
867 4 0.363658 0.183805 0.0658791
2808 4 0.0568603 0.301604 0.0469919
2806 2 0.0332802 0.293838 0.0499687
2807 4 0.00970023 0.286073 0.0529455
573 4 0.331589 0.263718 0.0718152
356 4 0.309709 0.309921 0.0509995
572 4 0.305997 0.306643 0.0700335
355 2 0.300972 0.326401 0.034349
571 2 0.318793 0.285181 0.0709243
1070 4 0.419579 0.261533 0.071179
507 4 0.133553 0.340352 0.0715568
505 2 0.142222 0.36001 0.0587674
506 4 0.150891 0.379669 0.045978
483 4 0.158166 0.393624 0.0327409
481 2 0.182057 0.39896 0.0276482
482 4 0.205947 0.404297 0.0225555
609 4 0.224755 0.40771 0.0276708
357 4 0.292234 0.342881 0.0176986
902 4 0.290288 0.348722 0.998338
741 4 0.408913 0.369078 0.0847869
957 4 0.410143 0.404675 0.0208702
955 2 0.400754 0.391361 0.0019028
1787 4 0.068317 0.484183 0.0700195
244 2 0.227817 0.482758 0.0433004
245 4 0.209871 0.478964 0.0602926
627 4 0.201979 0.46189 0.0659404
625 2 0.204109 0.440255 0.0782918
607 2 0.242979 0.417768 0.041524
246 4 0.245763 0.486551 0.0263082
272 4 0.258912 0.492464 0.0131662
608 4 0.261203 0.427826 0.0553771
252 4 0.279092 0.435733 0.0513447
250 2 0.292902 0.443062 0.0318316
251 4 0.306711 0.450391 0.0123185
2289 4 0.322082 0.462902 0.0100362
226 2 0.472375 0.475146 0.0590146
227 4 0.492234 0.460493 0.0550073
228 4 0.452515 0.489799 0.063022
282 4 0.495133 0.454885 0.0745057
525 4 0.438463 0.484806 0.0765412
16 1 0.0553167 0.0431609 0.158696
20 3 0.053747 0.0585229 0.141957
18 3 0.0489209 0.0222663 0.150891
1806 4 0.0507676 0.025203 0.132359
1804 2 0.0530647 0.0135905 0.110335
17 3 0.0771237 0.0420412 0.165931
692 4 0.236138 0.0813104 0.149548
654 4 0.309986 0.0118875 0.156685
652 2 0.330648 0.0213665 0.146272
653 4 0.35131 0.0308454 0.13586
484 2 0.38365 0.0225452 0.116019
297 4 0.342769 0.0396675 0.121165
485 4 0.361311 0.033203 0.119562
295 2 0.339237 0.0600029 0.107052
486 4 0.405989 0.0118875 0.112475
579 4 0.112942 0.137488 0.0895408
237 4 0.158321 0.140915 0.135191
577 2 0.129216 0.144403 0.107219
578 4 0.145491 0.151318 0.124897
476 4 0.155134 0.159549 0.139922
737 4 0.163725 0.155801 0.123483
235 2 0.16967 0.119813 0.142339
236 4 0.18102 0.0987115 0.149487
691 2 0.213363 0.0879902 0.157415
693 4 0.190589 0.0946701 0.165281
736 2 0.183621 0.169266 0.116551
449 4 0.171338 0.0940677 0.16578
582 4 0.249356 0.084764 0.135757
580 2 0.269929 0.0980267 0.140858
581 4 0.290502 0.111289 0.145958
29 3 0.301337 0.161782 0.153022
30 3 0.295912 0.124996 0.158942
296 4 0.335704 0.0803383 0.0929396
771 4 0.44134 0.123357 0.10849
769 2 0.438802 0.14817 0.110236
475 2 0.143646 0.176095 0.154736
738 4 0.203516 0.182731 0.109619
285 4 0.300025 0.178284 0.14051
354 4 0.317376 0.241236 0.151136
462 4 0.318711 0.240759 0.134
460 2 0.326887 0.247082 0.111232
283 2 0.307315 0.202171 0.141731
284 4 0.314604 0.226057 0.142952
255 4 0.330906 0.232764 0.143742
253 2 0.350038 0.233734 0.159811
461 4 0.335064 0.253406 0.0884653
770 4 0.436263 0.172983 0.111982
1014 4 0.455962 0.175839 0.11103
1013 4 0.462741 0.22531 0.108313
1012 2 0.459351 0.200574 0.109672
519 4 0.473684 0.241497 0.109687
454 2 0.0686258 0.328363 0.153036
455 4 0.0577099 0.311403 0.167814
756 4 0.253797 0.301588 0.117785
352 2 0.297363 0.25462 0.157883
612 4 0.249103 0.316 0.129785
754 2 0.256532 0.288056 0.138632
755 4 0.259267 0.274525 0.15948
353 4 0.27735 0.268004 0.16463
1069 2 0.43992 0.272045 0.0812239
1071 4 0.460262 0.282556 0.0912688
322 2 0.453809 0.323929 0.094194
324 4 0.45265 0.300863 0.0846132
517 2 0.483768 0.250053 0.130907
518 4 0.493852 0.258609 0.152127
647 4 0.0339093 0.380273 0.105374
620 4 0.0209057 0.372882 0.0939303
456 4 0.0795416 0.345324 0.138259
648 4 0.0745024 0.357672 0.12387
646 2 0.0542059 0.368972 0.114622
294 4 0.087654 0.342922 0.120855
293 4 0.126569 0.337443 0.0899311
292 2 0.107112 0.340182 0.105393
610 2 0.241633 0.333143 0.113188
626 4 0.206239 0.418619 0.0906431
536 4 0.219757 0.405851 0.0968797
611 4 0.234162 0.350286 0.0965904
535 2 0.217058 0.381225 0.0934909
537 4 0.214358 0.3566 0.0901021
387 4 0.33078 0.407692 0.110577
739 2 0.399162 0.379036 0.105546
740 4 0.389411 0.388993 0.126305
385 2 0.353079 0.402603 0.120678
386 4 0.375378 0.397515 0.13078
495 4 0.390844 0.404966 0.137572
15 3 0.376186 0.37898 0.136792
11 1 0.386618 0.380831 0.156951
12 3 0.398848 0.36176 0.160934
14 3 0.400979 0.399056 0.15679
309 4 0.361426 0.366441 0.170246
323 4 0.454969 0.346995 0.103775
670 2 0.472569 0.381499 0.103988
672 4 0.456812 0.364444 0.113262
671 4 0.488327 0.398554 0.0947141
552 4 0.0722255 0.473359 0.0855164
550 2 0.0581518 0.453794 0.0921723
551 4 0.044078 0.434228 0.0988283
242 4 0.0777154 0.492408 0.0845897
241 2 0.0988049 0.492179 0.0980195
243 4 0.119894 0.491951 0.111449
1440 4 0.135311 0.478484 0.110147
1438 2 0.159996 0.482427 0.109576
1439 4 0.18468 0.486369 0.109006
639 4 0.191959 0.4863 0.0906051
637 2 0.213359 0.490211 0.10293
638 4 0.234759 0.494122 0.115255
767 4 0.247805 0.488996 0.100024
303 4 0.312218 0.464136 0.088281
768 4 0.294903 0.475715 0.0897241
301 2 0.313758 0.44306 0.101645
302 4 0.315298 0.421984 0.115009
766 2 0.271354 0.482355 0.0948742
493 2 0.40032 0.427669 0.133102
494 4 0.409797 0.450371 0.128632
660 4 0.415699 0.468672 0.131706
524 4 0.414106 0.461347 0.113381
523 2 0.426285 0.473077 0.0949609
658 2 0.424672 0.48088 0.151596
19 3 0.0418205 0.0494401 0.176495
380 4 0.05683 0.0581359 0.1862
379 2 0.0489983 0.0750263 0.20289
675 4 0.076862 0.0541055 0.182364
673 2 0.101378 0.0522833 0.186928
674 4 0.125894 0.0504612 0.191493
450 4 0.140726 0.0631398 0.190419
1505 4 0.143697 0.0442672 0.196218
1504 2 0.147751 0.0218607 0.206548
448 2 0.156032 0.0786037 0.178099
1506 4 0.151805 0.999454 0.216877
22 3 0.381731 0.00314876 0.220007
25 3 0.410408 0.00856348 0.243271
757 2 0.429101 0.0399649 0.223314
759 4 0.416897 0.0266199 0.240581
758 4 0.441306 0.0533098 0.206048
512 4 0.0347513 0.110238 0.222457
381 4 0.0411666 0.0919166 0.21958
511 2 0.049547 0.128593 0.21413
513 4 0.0643428 0.146948 0.205802
339 4 0.0820235 0.15289 0.196827
27 3 0.323908 0.142644 0.176194
26 1 0.302284 0.144611 0.168601
28 3 0.288433 0.149452 0.186576
477 4 0.132158 0.19264 0.16955
337 2 0.10055 0.167136 0.187938
363 4 0.118403 0.200243 0.180956
338 4 0.119076 0.181381 0.179049
362 4 0.140453 0.242306 0.196614
361 2 0.129428 0.221274 0.188785
372 4 0.147419 0.239655 0.215696
370 2 0.149244 0.246009 0.23981
723 4 0.23988 0.214261 0.252755
628 2 0.402831 0.211715 0.179191
630 4 0.387902 0.231559 0.182105
254 4 0.36917 0.234703 0.17588
765 4 0.380429 0.249884 0.181603
629 4 0.417761 0.191871 0.176277
311 4 0.477077 0.207608 0.174465
312 4 0.433984 0.185182 0.186331
310 2 0.45553 0.196395 0.180398
761 4 0.472105 0.199884 0.228911
749 4 0.0379475 0.31744 0.173296
750 4 0.0482411 0.305785 0.220824
395 4 0.0455015 0.29429 0.236913
748 2 0.0430943 0.311612 0.19706
300 4 0.138284 0.296833 0.173481
298 2 0.132776 0.313384 0.191394
299 4 0.127267 0.329935 0.209308
734 4 0.120669 0.331962 0.227625
278 4 0.263155 0.267066 0.177563
277 2 0.264702 0.278641 0.199672
279 4 0.266249 0.290217 0.22178
401 4 0.274284 0.306887 0.228471
496 2 0.30156 0.33349 0.210505
498 4 0.291269 0.316742 0.225957
400 2 0.271159 0.311727 0.252801
763 2 0.381269 0.274869 0.181121
764 4 0.382109 0.299854 0.180639
623 4 0.401343 0.304336 0.185988
528 4 0.45963 0.287658 0.203795
624 4 0.44919 0.304172 0.200526
622 2 0.425266 0.304254 0.193257
526 2 0.474666 0.277152 0.186803
527 4 0.489702 0.266645 0.169812
262 2 0.0551789 0.396478 0.201403
263 4 0.07336 0.390076 0.185477
264 4 0.0369979 0.40288 0.217329
2618 4 0.0246657 0.40785 0.23224
2617 2 0.00147819 0.411643 0.240792
602 4 0.0883706 0.380207 0.194512
601 2 0.104112 0.363691 0.204741
603 4 0.119853 0.347176 0.21497
497 4 0.311851 0.350239 0.195053
308 4 0.323448 0.337291 0.184693
307 2 0.342437 0.351866 0.177469
13 3 0.370873 0.383303 0.173816
290 4 0.154128 0.428699 0.236103
289 2 0.166377 0.429003 0.214307
291 4 0.178625 0.429307 0.192511
416 4 0.184634 0.439589 0.176959
415 2 0.192244 0.463405 0.17722
1430 4 0.200696 0.491707 0.199051
417 4 0.199853 0.487221 0.177482
713 4 0.371194 0.496117 0.245642
597 4 0.483298 0.469933 0.209418
659 4 0.433646 0.493089 0.171486
595 2 0.463688 0.481131 0.198683
596 4 0.444078 0.492328 0.187949
645 4 0.498961 0.464056 0.199952
234 4 0.00958956 0.0712845 0.307265
232 2 0.0186352 0.0487503 0.313228
1799 4 0.0164164 0.0124333 0.310247
233 4 0.0276807 0.026216 0.319192
1402 2 0.060618 0.0124751 0.310813
1403 4 0.0356894 0.0124944 0.308879
1798 2 0.00647567 0.997729 0.327859
2756 4 0.00313523 0.0788765 0.324173
1404 4 0.0855466 0.0124558 0.312748
632 4 0.405971 0.022744 0.255842
633 4 0.371225 0.0327005 0.290401
631 2 0.388598 0.0277223 0.273122
257 4 0.353165 0.0345759 0.297279
698 4 0.362051 0.0181485 0.299947
256 2 0.356012 0.0478878 0.318252
350 4 0.423839 0.0158221 0.25554
349 2 0.445789 0.0104722 0.266251
744 4 0.481924 0.0160156 0.286367
742 2 0.493322 0.0254038 0.306544
351 4 0.46774 0.00512233 0.276962
397 2 0.0828201 0.137991 0.319804
399 4 0.0746723 0.116277 0.329149
398 4 0.0909679 0.159704 0.310459
249 4 0.217315 0.120653 0.321876
404 4 0.214586 0.129463 0.303906
403 2 0.208195 0.150615 0.292205
393 4 0.104298 0.171773 0.303033
390 4 0.0888035 0.179285 0.311482
392 4 0.137495 0.177424 0.266064
391 2 0.120897 0.174599 0.284548
388 2 0.0891474 0.198334 0.327675
545 4 0.145474 0.190566 0.250697
371 4 0.151068 0.252363 0.263923
721 2 0.222198 0.202611 0.266053
544 2 0.168437 0.186179 0.259565
546 4 0.1914 0.181791 0.268433
405 4 0.201804 0.171767 0.280504
722 4 0.204517 0.190962 0.279351
377 4 0.303862 0.214354 0.317569
376 2 0.301136 0.237565 0.308681
420 4 0.39513 0.218398 0.305036
717 4 0.381684 0.231813 0.29714
760 2 0.462113 0.205153 0.251218
418 2 0.418512 0.21336 0.297748
331 2 0.470801 0.198127 0.310736
332 4 0.460448 0.20184 0.288281
419 4 0.441893 0.208322 0.290461
762 4 0.452121 0.210421 0.273524
394 2 0.0419735 0.292027 0.261563
442 2 0.0206049 0.265783 0.316156
364 2 0.0231256 0.321686 0.306058
396 4 0.0384455 0.289764 0.286213
443 4 0.0243299 0.278782 0.295124
365 4 0.0265742 0.297783 0.299581
733 2 0.122119 0.327522 0.252188
735 4 0.123568 0.323081 0.276752
677 4 0.143594 0.32623 0.284539
508 2 0.232468 0.320927 0.29318
676 2 0.168094 0.328783 0.288831
509 4 0.21129 0.332803 0.299153
510 4 0.253645 0.309052 0.287208
402 4 0.268034 0.316568 0.277132
345 4 0.271222 0.307499 0.294635
343 2 0.275299 0.283181 0.298779
344 4 0.279376 0.258863 0.302924
378 4 0.298411 0.260777 0.299793
715 2 0.378959 0.256543 0.294655
716 4 0.376233 0.281273 0.292171
542 4 0.37399 0.29194 0.309432
541 2 0.384676 0.306375 0.326828
751 2 0.491331 0.319689 0.330984
753 4 0.493686 0.328731 0.307792
407 4 0.018303 0.358529 0.327374
366 4 0.019677 0.345588 0.312534
548 4 0.0214855 0.364617 0.308717
547 2 0.0290054 0.385881 0.297924
549 4 0.0365252 0.407144 0.287131
2493 4 0.00405836 0.356751 0.313937
777 4 0.042401 0.415274 0.303533
678 4 0.192594 0.331337 0.293123
435 4 0.197823 0.344537 0.306602
433 2 0.196133 0.367671 0.315937
434 4 0.194443 0.390805 0.325272
728 4 0.35155 0.414485 0.297002
2538 4 0.493782 0.337281 0.288198
775 2 0.0604875 0.42844 0.3147
776 4 0.0785741 0.441606 0.325867
414 4 0.0961169 0.435515 0.329454
1545 4 0.185683 0.47097 0.329621
1436 4 0.192097 0.484589 0.31505
727 2 0.362007 0.433911 0.30877
729 4 0.372464 0.453336 0.320538
1771 2 0.00637751 0.99954 0.383364
2238 4 0.0214588 0.0305447 0.400934
1772 4 0.0174949 0.0115722 0.402253
1782 4 0.0678594 0.0073539 0.406028
606 4 0.157095 0.00673947 0.382665
732 4 0.09887 0.0841335 0.379136
369 4 0.0968886 0.0656678 0.385968
367 2 0.0886015 0.0446502 0.396681
368 4 0.0803145 0.0236326 0.407394
604 2 0.169838 0.0261236 0.391995
1701 4 0.1935 0.0640129 0.404756
1699 2 0.202326 0.0762009 0.384787
605 4 0.182582 0.0455077 0.401325
258 4 0.35886 0.0611998 0.339225
424 2 0.35184 0.056181 0.374291
425 4 0.360169 0.0487308 0.396658
1580 4 0.356461 0.0304636 0.400956
426 4 0.343511 0.0636311 0.351923
1579 2 0.373426 0.0133406 0.407603
480 4 0.502756 0.0333446 0.394375
317 4 0.0580542 0.108804 0.336651
731 4 0.0750624 0.0996155 0.337975
316 2 0.0357924 0.114416 0.346555
318 4 0.0135306 0.120027 0.35646
458 4 0.997214 0.131784 0.359452
457 2 0.00566623 0.152302 0.370974
730 2 0.0869662 0.0918745 0.358555
1700 4 0.211152 0.0883889 0.364819
247 2 0.222295 0.110362 0.344113
248 4 0.227275 0.100071 0.36635
319 2 0.322576 0.153932 0.388188
321 4 0.330927 0.169297 0.370317
320 4 0.314225 0.138568 0.406059
684 4 0.299423 0.133903 0.418489
516 4 0.455234 0.148191 0.37304
575 4 0.473566 0.144647 0.384632
574 2 0.466986 0.130272 0.404002
514 2 0.469529 0.164208 0.360222
2653 2 0.00643145 0.21513 0.385228
459 4 0.0141185 0.172821 0.382495
2654 4 0.016062 0.192058 0.385584
444 4 0.0168799 0.252785 0.337188
389 4 0.0894914 0.217382 0.343867
707 4 0.308899 0.213419 0.335839
706 2 0.324509 0.199188 0.349218
708 4 0.340119 0.184958 0.362597
333 4 0.481154 0.194415 0.33319
453 4 0.49464 0.196324 0.347282
515 4 0.483825 0.180224 0.347404
274 2 0.136197 0.318815 0.368139
276 4 0.150421 0.303929 0.382327
275 4 0.121974 0.333701 0.353951
375 4 0.153392 0.298844 0.401574
373 2 0.174499 0.285498 0.402821
374 4 0.195606 0.272152 0.404069
473 4 0.213856 0.263257 0.407059
543 4 0.395361 0.320811 0.344223
467 4 0.362921 0.258919 0.362838
466 2 0.353331 0.268514 0.383842
468 4 0.343742 0.278108 0.404845
615 4 0.39969 0.309258 0.360455
613 2 0.406722 0.315768 0.38355
561 4 0.489881 0.317749 0.373517
752 4 0.488976 0.310648 0.354177
614 4 0.413754 0.322277 0.406644
406 2 0.0330885 0.360059 0.34748
408 4 0.047874 0.361588 0.367585
347 4 0.0549674 0.363397 0.385793
346 2 0.0475826 0.365918 0.409548
618 4 0.0622806 0.350007 0.373862
617 4 0.108494 0.348 0.354862
616 2 0.0853874 0.349003 0.364362
504 4 0.289125 0.396416 0.416235
502 2 0.307154 0.413266 0.41221
1543 2 0.161681 0.47759 0.331913
1544 4 0.137679 0.484211 0.334206
413 4 0.122797 0.475236 0.343983
412 2 0.109457 0.455375 0.336718
500 4 0.126603 0.493922 0.347197
669 4 0.330792 0.448295 0.409892
503 4 0.325184 0.430116 0.408186
335 4 0.388738 0.41835 0.40947
334 2 0.365695 0.426878 0.404833
437 4 0.374421 0.470197 0.330971
336 4 0.342653 0.435405 0.400197
436 2 0.384172 0.479322 0.352109
438 4 0.393923 0.488448 0.373247
593 4 0.407663 0.498284 0.36237
240 4 0.40788 0.426994 0.407203
2236 2 0.0182899 0.0473532 0.419172
1126 2 0.0133675 0.0457046 0.47659
1127 4 0.0171181 0.0591031 0.455815
2237 4 0.015121 0.0641618 0.437409
720 4 0.0294876 0.0726754 0.448097
1128 4 0.00961698 0.0323062 0.497365
724 2 0.31855 0.0539002 0.471527
963 4 0.302195 0.0172384 0.489175
725 4 0.306846 0.0327227 0.477828
432 4 0.320572 0.0238564 0.488378
726 4 0.330254 0.0750777 0.465225
961 2 0.280306 0.0118636 0.5
642 4 0.440701 0.0599403 0.441653
2878 2 0.446039 0.0177779 0.440953
2880 4 0.450901 0.0419231 0.436646
469 2 0.999072 0.139759 0.46798
470 4 0.0190256 0.125358 0.463551
718 2 0.0292752 0.0976681 0.447391
719 4 0.0290628 0.122661 0.446685
939 4 0.0997254 0.150334 0.477341
1033 2 0.130406 0.144895 0.453267
1035 4 0.154979 0.14457 0.448661
1034 4 0.105832 0.14522 0.457873
261 4 0.174989 0.141725 0.448475
259 2 0.180972 0.162606 0.46086
682 2 0.27933 0.14535 0.427996
1181 4 0.316304 0.124933 0.419781
1182 4 0.324902 0.0923169 0.4567
1180 2 0.320603 0.108625 0.43824
683 4 0.259237 0.156798 0.437503
640 2 0.44593 0.0843258 0.439866
576 4 0.460405 0.115896 0.423373
641 4 0.451158 0.108711 0.438079
306 4 0.463699 0.123933 0.44095
304 2 0.448802 0.135743 0.457192
305 4 0.433906 0.147552 0.473434
3158 4 0.429909 0.144274 0.49237
694 2 0.15998 0.214999 0.490429
695 4 0.175445 0.198253 0.480153
260 4 0.186955 0.183486 0.473245
687 4 0.232382 0.22339 0.450681
686 4 0.190538 0.202481 0.468363
685 2 0.21146 0.212936 0.459522
474 4 0.23949 0.235699 0.439985
599 4 0.24825 0.220894 0.442962
411 4 0.246322 0.2327 0.455795
472 2 0.226673 0.249478 0.423522
409 2 0.25399 0.235627 0.479413
600 4 0.265583 0.17519 0.432407
598 2 0.256916 0.198042 0.437684
488 4 0.257223 0.236036 0.442475
487 2 0.277143 0.247869 0.433075
489 4 0.297062 0.259703 0.423675
265 2 0.33387 0.296393 0.431643
266 4 0.325325 0.319202 0.437295
267 4 0.342415 0.273585 0.425991
348 4 0.0401978 0.368439 0.433303
2812 2 0.00134164 0.356041 0.442292
2813 4 0.0224764 0.369397 0.44196
326 4 0.0345257 0.384169 0.443381
325 2 0.0480492 0.38647 0.464285
327 4 0.0615727 0.38877 0.48519
7 3 0.0781547 0.397895 0.491947
6 1 0.0936961 0.381561 0.496507
10 3 0.093732 0.36631 0.479594
813 4 0.247783 0.339367 0.457643
811 2 0.24799 0.342138 0.482491
927 4 0.410229 0.380203 0.482695
925 2 0.420588 0.401201 0.491467
681 4 0.0438119 0.446139 0.496536
709 2 0.135574 0.415832 0.494595
710 4 0.156212 0.422995 0.482431
774 4 0.170264 0.421809 0.495986
634 2 0.174343 0.444657 0.459123
635 4 0.174596 0.427572 0.477377
636 4 0.174091 0.461742 0.440868
667 2 0.331211 0.46621 0.42733
668 4 0.33163 0.484124 0.444768
239 4 0.43725 0.46005 0.430556
238 2 0.422565 0.443522 0.41888
586 2 0.435424 0.450117 0.473442
588 4 0.432472 0.459344 0.450391
926 4 0.430948 0.422199 0.500239
587 4 0.438375 0.44089 0.496492
1184 4 0.0651805 0.0200378 0.557868
3077 4 0.0499449 0.0219672 0.545833
3076 2 0.0377004 0.0215291 0.524037
3078 4 0.0254558 0.021091 0.502241
3111 4 0.00920238 0.0125209 0.496749
1152 4 0.150346 0.0594583 0.53693
1150 2 0.139464 0.0676083 0.557914
342 4 0.165024 0.0467528 0.534944
340 2 0.184859 0.033112 0.541703
2430 4 0.214958 0.00350985 0.548487
341 4 0.204694 0.0194711 0.548461
2428 2 0.235357 0.0116652 0.536548
2429 4 0.255757 0.0198205 0.524609
841 2 0.387611 0.0219786 0.531846
843 4 0.367601 0.00874802 0.524792
431 4 0.349403 0.00278907 0.523387
842 4 0.40762 0.0352091 0.538899
430 2 0.334988 0.0133228 0.505882
1217 4 0.420154 0.0216317 0.544145
877 2 0.0366914 0.149964 0.540982
878 4 0.0161339 0.150288 0.555211
938 4 0.0720888 0.159129 0.518079
1272 4 0.0680756 0.161735 0.537458
879 4 0.0572489 0.149641 0.526753
1199 4 0.012843 0.168887 0.546425
937 2 0.0859071 0.154732 0.49771
1221 4 0.166014 0.151522 0.581717
3159 4 0.459834 0.141179 0.532315
3157 2 0.444872 0.142726 0.512343
1062 4 0.467837 0.121812 0.533492
1060 2 0.487984 0.107192 0.531147
1270 2 0.0871027 0.171908 0.550093
1258 2 0.120295 0.236896 0.538305
1260 4 0.133027 0.232247 0.517293
1271 4 0.10613 0.182081 0.562729
696 4 0.144515 0.231745 0.500704
1259 4 0.107563 0.241545 0.559316
1244 4 0.0957167 0.185413 0.579638
898 2 0.298965 0.233349 0.521547
899 4 0.31739 0.230381 0.538187
857 4 0.325879 0.213535 0.543764
856 2 0.328489 0.191806 0.555856
900 4 0.28054 0.236317 0.504908
410 4 0.261658 0.238554 0.503031
858 4 0.331099 0.170077 0.567949
791 4 0.336838 0.229593 0.541331
790 2 0.350175 0.24788 0.551955
651 4 0.286951 0.334556 0.544881
792 4 0.363512 0.266168 0.562578
872 4 0.381211 0.269878 0.553371
1238 4 0.373811 0.282055 0.565886
871 2 0.397777 0.278372 0.53668
1237 2 0.357405 0.299048 0.574087
1239 4 0.340998 0.31604 0.582288
873 4 0.414343 0.286866 0.519989
9 3 0.088053 0.371208 0.516492
711 4 0.114936 0.408669 0.506759
897 4 0.144525 0.377007 0.578709
8 3 0.114624 0.391416 0.498325
773 4 0.20814 0.412898 0.527399
1189 2 0.208119 0.412417 0.566214
1190 4 0.219202 0.41343 0.543824
803 4 0.216077 0.396709 0.534607
802 2 0.224779 0.375196 0.525297
804 4 0.23348 0.353684 0.515987
930 4 0.227406 0.410804 0.527093
650 4 0.241474 0.337733 0.524326
812 4 0.248197 0.344909 0.50734
649 2 0.264213 0.336144 0.534603
805 2 0.316658 0.335444 0.563297
806 4 0.306696 0.340673 0.540968
383 4 0.063427 0.447358 0.500899
680 4 0.0423129 0.495876 0.501498
679 2 0.0430624 0.471008 0.499017
384 4 0.108413 0.426773 0.508195
382 2 0.0859202 0.437065 0.504547
569 4 0.113525 0.439573 0.52438
568 2 0.124229 0.433713 0.546204
570 4 0.134932 0.427853 0.568027
538 2 0.132157 0.479501 0.516822
539 4 0.118446 0.458765 0.519508
772 2 0.189202 0.417353 0.511693
928 2 0.247581 0.425306 0.529893
929 4 0.267756 0.439808 0.532692
1951 2 0.270124 0.474758 0.535487
1953 4 0.266906 0.452814 0.547032
1952 4 0.273343 0.496702 0.523942
1001 4 0.413435 0.4752 0.560327
1000 2 0.390032 0.483897 0.558958
1002 4 0.36663 0.492594 0.55759
1330 2 0.44633 0.500782 0.559194
662 4 0.429141 0.465595 0.553304
661 2 0.43153 0.450375 0.533611
663 4 0.433918 0.435155 0.513918
1911 4 0.424743 0.464146 0.571914
1332 4 0.431443 0.481382 0.564408
1151 4 0.128583 0.0757584 0.578899
2374 2 0.151219 0.0101623 0.637235
2375 4 0.154383 0.0349648 0.63723
1057 2 0.140619 0.0630096 0.61494
1058 4 0.140312 0.0489627 0.635623
1059 4 0.140925 0.0770564 0.594258
950 4 0.230213 0.00896458 0.651279
949 2 0.247496 0.0260796 0.657073
951 4 0.264778 0.0431945 0.662866
1031 4 0.277783 0.0577478 0.656756
1030 2 0.29262 0.0675887 0.6392
2400 4 0.328345 0.00255705 0.624588
1032 4 0.307457 0.0774297 0.621644
43 3 0.447735 0.0659067 0.634464
45 3 0.473394 0.0453425 0.652805
41 1 0.458276 0.0622562 0.65481
44 3 0.468958 0.0816372 0.661787
1154 4 0.159843 0.134971 0.593032
1155 4 0.133163 0.0930157 0.587682
1153 2 0.146503 0.113993 0.590357
1211 4 0.235229 0.157904 0.649931
1219 2 0.18413 0.167399 0.588418
810 4 0.481473 0.0954002 0.655642
808 2 0.48343 0.104505 0.632437
809 4 0.485388 0.113611 0.609233
3008 4 0.493382 0.106497 0.593414
1209 4 0.112189 0.172886 0.63714
1207 2 0.105562 0.16453 0.659755
1245 4 0.094598 0.176814 0.628888
1243 2 0.0951574 0.181113 0.604263
1220 4 0.202246 0.183276 0.595118
1210 2 0.224548 0.168905 0.630181
1212 4 0.213867 0.179907 0.610431
796 2 0.212962 0.220011 0.590162
798 4 0.213471 0.197998 0.602009
797 4 0.212454 0.242024 0.578314
3123 4 0.49166 0.224861 0.606514
905 4 0.488865 0.244795 0.606113
983 4 0.00538062 0.333269 0.654675
807 4 0.32662 0.330215 0.585626
906 4 0.460066 0.283029 0.591638
904 2 0.474466 0.263912 0.598876
953 4 0.453914 0.299626 0.584026
952 2 0.472032 0.316516 0.587436
982 2 0.0292225 0.339134 0.659401
1041 4 0.0647659 0.359135 0.656746
1039 2 0.0671153 0.380074 0.643284
1040 4 0.0694647 0.401012 0.629821
993 4 0.0543154 0.414147 0.630319
984 4 0.0530644 0.345 0.664127
3263 4 0.0719573 0.341269 0.66096
1137 4 0.133439 0.380271 0.593857
1135 2 0.114688 0.364042 0.597056
1136 4 0.0959381 0.347814 0.600256
895 2 0.161452 0.394112 0.585495
1028 4 0.193147 0.398848 0.655604
1027 2 0.192203 0.405201 0.631439
1029 4 0.191259 0.411554 0.607275
1068 4 0.179199 0.385997 0.662294
896 4 0.178378 0.411218 0.592282
1206 4 0.483724 0.403531 0.611535
954 4 0.49015 0.333406 0.590846
3307 2 0.498066 0.372344 0.604941
3308 4 0.497601 0.351201 0.591602
3182 4 0.502197 0.412079 0.613559
991 2 0.0412229 0.429685 0.615747
992 4 0.0281304 0.445223 0.601175
1191 4 0.197036 0.411404 0.588604
1172 4 0.187706 0.426997 0.597164
1160 4 0.187332 0.494074 0.606224
1171 2 0.187125 0.451993 0.596975
1173 4 0.186544 0.476989 0.596787
1187 4 0.173727 0.48015 0.610878
1186 2 0.163932 0.4907 0.631322
1909 2 0.429616 0.454737 0.594562
1268 4 0.467243 0.480555 0.655914
1267 2 0.453516 0.462208 0.645907
1204 2 0.463134 0.416184 0.617948
1910 4 0.43449 0.445328 0.617209
1269 4 0.439789 0.443861 0.6359
1205 4 0.442544 0.428837 0.624362
2168 4 0.485896 0.486377 0.658499
1284 4 0.108952 0.0473515 0.732247
1282 2 0.123437 0.0656126 0.723196
1201 2 0.202792 0.0446123 0.730916
1203 4 0.200411 0.0625255 0.713635
1226 4 0.193615 0.0792434 0.705376
1148 4 0.211435 0.0786739 0.712791
1202 4 0.205173 0.0266991 0.748197
42 3 0.442441 0.0564498 0.670453
1075 2 0.00623079 0.126939 0.722906
1077 4 0.0244538 0.143711 0.726338
850 2 0.0641187 0.148959 0.707194
852 4 0.0413068 0.147835 0.717369
864 4 0.04032 0.148905 0.73687
1214 4 0.0301968 0.161869 0.726339
851 4 0.0869305 0.150083 0.697019
1283 4 0.137921 0.0838736 0.714145
1227 4 0.1477 0.0990359 0.706259
909 4 0.103283 0.140214 0.692675
907 2 0.115805 0.120232 0.700989
908 4 0.128326 0.10025 0.709303
1208 4 0.0989345 0.156174 0.68237
1107 4 0.103578 0.157784 0.701344
888 4 0.251012 0.158911 0.664241
1225 2 0.170657 0.0891397 0.705818
1147 2 0.229101 0.0910187 0.725468
1149 4 0.246766 0.103364 0.738146
829 2 0.320954 0.147054 0.694699
830 4 0.300729 0.161494 0.697459
887 4 0.282351 0.160667 0.703171
886 2 0.266682 0.159789 0.683706
831 4 0.341179 0.132614 0.691939
1142 4 0.353009 0.145803 0.698034
1141 2 0.372808 0.155108 0.710143
1026 4 0.408558 0.155777 0.725792
1143 4 0.392606 0.164414 0.722251
3426 4 0.472433 0.0969686 0.672802
1163 4 0.486509 0.0837406 0.670987
1025 4 0.442924 0.119571 0.728767
3424 2 0.464462 0.104551 0.695255
3425 4 0.456491 0.112132 0.717709
3269 4 0.462182 0.119741 0.734495
1024 2 0.425741 0.137674 0.727279
3268 2 0.475999 0.133678 0.749989
845 4 0.451847 0.103703 0.734589
1213 2 0.0135039 0.180302 0.728936
1105 2 0.115798 0.176031 0.713297
1106 4 0.128018 0.194279 0.72525
1130 4 0.138008 0.210537 0.722843
1129 2 0.15114 0.216712 0.743204
978 4 0.292557 0.176652 0.70585
976 2 0.304291 0.188395 0.724547
977 4 0.316024 0.200139 0.743244
916 2 0.332315 0.239706 0.735561
1262 4 0.404304 0.172424 0.734975
1194 4 0.409595 0.172502 0.715789
1192 2 0.417738 0.182401 0.694321
1193 4 0.425881 0.1923 0.672852
3262 2 0.0783714 0.330419 0.682554
893 4 0.0710662 0.318371 0.718413
892 2 0.0656958 0.329842 0.739971
3264 4 0.0847855 0.319569 0.704149
779 4 0.0879462 0.309698 0.720976
778 2 0.100721 0.288701 0.725573
780 4 0.113495 0.267705 0.730171
1065 4 0.245788 0.318269 0.690995
1064 4 0.295392 0.319616 0.69719
1063 2 0.27059 0.318942 0.694092
946 2 0.317568 0.283599 0.704547
948 4 0.29927 0.300267 0.701007
947 4 0.335865 0.266931 0.708087
917 4 0.341362 0.261347 0.726902
1008 4 0.459413 0.278063 0.69462
1006 2 0.461006 0.270984 0.718548
1007 4 0.462599 0.263904 0.742475
941 4 0.149815 0.373276 0.715089
1067 4 0.144446 0.382639 0.698094
940 2 0.132602 0.372971 0.733221
1066 2 0.161823 0.384318 0.680194
884 4 0.0707506 0.453935 0.73645
1139 4 0.303402 0.450381 0.705668
1138 2 0.319491 0.453818 0.724496
1140 4 0.33558 0.457255 0.743324
1100 4 0.406131 0.426848 0.744704
1099 2 0.421732 0.443698 0.734811
1101 4 0.437334 0.460547 0.724918
3330 4 0.452262 0.470739 0.718479
3328 2 0.466552 0.45399 0.706628
1251 4 0.448059 0.470524 0.737982
3329 4 0.480841 0.437241 0.694777
1249 2 0.457439 0.492721 0.744654
834 4 0.021683 0.0775246 0.808017
785 4 0.0206156 0.0722428 0.826887
2390 4 0.139462 0.0141259 0.783582
2048 4 0.149826 0.00358683 0.76948
2047 2 0.172433 0.0140265 0.767223
2049 4 0.19504 0.0244662 0.764965
2254 2 0.235612 0.00869229 0.770125
2256 4 0.212831 0.0158163 0.762679
2255 4 0.258393 0.0015683 0.777572
1113 4 0.353965 0.0431848 0.80758
1111 2 0.363061 0.0645855 0.81677
979 2 0.414494 0.0198454 0.829958
2442 4 0.447677 0.0109874 0.817529
2321 4 0.447194 0.0224015 0.801822
2322 4 0.439967 0.0462773 0.758481
2320 2 0.443581 0.0343394 0.780152
846 4 0.433705 0.0647156 0.760115
980 4 0.433816 0.0251055 0.814985
832 2 0.0306094 0.0986662 0.798091
862 2 0.0447552 0.142283 0.760569
863 4 0.0491903 0.135661 0.784268
833 4 0.0395359 0.119808 0.788165
1125 4 0.0504986 0.128399 0.802347
1123 2 0.0635721 0.143135 0.817746
1124 4 0.0766457 0.15787 0.833145
1257 4 0.245323 0.114794 0.755487
1255 2 0.239736 0.119625 0.779374
921 4 0.218092 0.133717 0.808232
919 2 0.205185 0.153645 0.816071
840 4 0.233793 0.133823 0.820295
1256 4 0.234148 0.124457 0.803262
838 2 0.254982 0.140594 0.831711
1112 4 0.372156 0.0859861 0.82596
818 4 0.385799 0.102275 0.821844
817 2 0.389293 0.126097 0.828589
819 4 0.392787 0.149919 0.835333
1085 4 0.371919 0.154453 0.831704
844 2 0.442776 0.0842094 0.747352
3270 4 0.489815 0.147615 0.765482
1146 4 0.48348 0.16445 0.774199
34 3 0.11037 0.181685 0.816028
1131 4 0.164273 0.222887 0.763566
822 4 0.171892 0.237754 0.774305
1277 4 0.168772 0.220507 0.782688
1276 2 0.173588 0.204116 0.800945
920 4 0.192277 0.173573 0.823911
1278 4 0.178405 0.187725 0.819202
918 4 0.323267 0.218064 0.74422
1298 4 0.329883 0.202956 0.755975
1297 2 0.34053 0.196915 0.777777
1299 4 0.351176 0.190874 0.799579
1086 4 0.341091 0.191013 0.817086
50 3 0.399717 0.204196 0.808481
1084 2 0.356505 0.172733 0.824395
1261 2 0.415593 0.183762 0.75419
46 1 0.422205 0.203369 0.80498
49 3 0.429403 0.223074 0.795066
1043 4 0.436727 0.211411 0.778305
48 3 0.433242 0.200149 0.825134
47 3 0.427048 0.185788 0.790958
1263 4 0.426882 0.1951 0.773404
1145 4 0.443283 0.192981 0.782623
1144 2 0.463381 0.178716 0.778411
1042 2 0.443794 0.231936 0.765897
1044 4 0.45086 0.252461 0.753488
820 2 0.168425 0.255809 0.791252
821 4 0.164959 0.273864 0.808198
1236 4 0.201638 0.313339 0.780918
1234 2 0.217686 0.324633 0.796412
1235 4 0.233733 0.335928 0.811906
1166 4 0.463867 0.264024 0.76176
1165 2 0.486543 0.26535 0.772211
894 4 0.0603253 0.341313 0.761529
3275 4 0.00457682 0.339174 0.791808