ITEM: TIMESTEP
1410000
ITEM: NUMBER OF ATOMS
4590
ITEM: BOX BOUNDS pp pp pp
-9.9985700000000008e+00 9.9985700000000008e+00
-9.9985700000000008e+00 9.9985700000000008e+00
-9.9985700000000008e+00 9.9985700000000008e+00
ITEM: ATOMS id type xs ys zs
463 2 0.0453976 0.070812 0.0236515
465 4 0.0616781 0.0586247 0.0381978
701 4 0.0781008 0.0596389 0.027072
2576 4 0.0221113 0.0239072 0.0593953
2575 2 0.00908875 0.0142495 0.07843
3290 4 0.0100782 0.0467442 0.00226479
700 2 0.0984289 0.06495 0.0406271
702 4 0.118757 0.0702612 0.0541821
566 4 0.133143 0.0659168 0.066845
491 4 0.267321 0.0156361 0.0430953
2264 4 0.271975 0.0163346 0.0236491
2263 2 0.278396 0.0379348 0.0128147
745 2 0.480297 0.0489064 0.00315974
746 4 0.490037 0.04501 0.0258559
2469 4 0.486485 0.0262615 0.0318218
2467 2 0.495658 0.00594233 0.0431428
464 4 0.0291171 0.0829993 0.00910525
590 4 0.0204286 0.12995 0.0578941
589 2 0.00715745 0.12554 0.078621
422 4 0.0856762 0.119124 0.0109536
565 2 0.149488 0.0837105 0.0604083
567 4 0.165832 0.101504 0.0539716
867 4 0.33765 0.16382 0.0112404
865 2 0.358399 0.150101 0.0137746
866 4 0.379148 0.136381 0.0163088
827 4 0.387785 0.118751 0.0131767
558 4 0.327958 0.134496 0.0802423
556 2 0.333481 0.111552 0.0885046
771 4 0.436713 0.160944 0.0773006
554 4 0.0479117 0.207964 0.0393092
553 2 0.0637315 0.219809 0.0239927
555 4 0.0795512 0.231655 0.0086762
835 2 0.119361 0.233514 0.00650695
837 4 0.142372 0.22474 0.00218696
836 4 0.0963493 0.242287 0.0108269
915 4 0.151971 0.240416 0.997429
665 4 0.320877 0.168455 0.0208438
666 4 0.321149 0.215135 0.0387778
664 2 0.321013 0.191795 0.0298108
573 4 0.315954 0.233892 0.0365112
461 4 0.329538 0.228314 0.0501127
460 2 0.334704 0.224878 0.0743341
1070 4 0.388105 0.218926 0.0705084
1069 2 0.40263 0.239115 0.0679348
1012 2 0.491891 0.213295 0.0572204
769 2 0.458685 0.172877 0.0774475
770 4 0.480657 0.18481 0.0775945
1014 4 0.473498 0.199742 0.0673784
294 4 0.0665322 0.282569 0.0411081
292 2 0.0900092 0.288099 0.0345181
507 4 0.124103 0.301224 0.0433168
293 4 0.113486 0.293629 0.027928
505 2 0.148224 0.306615 0.0395369
506 4 0.172346 0.312005 0.035757
483 4 0.182181 0.327554 0.044554
571 2 0.31183 0.256207 0.0260116
356 4 0.299291 0.296605 0.0218478
572 4 0.307707 0.278521 0.015512
1071 4 0.417156 0.259303 0.0653613
324 4 0.429101 0.261393 0.0497155
322 2 0.431337 0.28621 0.0476438
672 4 0.436955 0.329324 0.0523905
323 4 0.433573 0.311027 0.0455722
620 4 0.00767196 0.353913 0.0633284
647 4 0.0270986 0.347857 0.0643034
646 2 0.0495111 0.34469 0.0749257
481 2 0.19332 0.349239 0.0501109
609 4 0.213881 0.378528 0.0711446
607 2 0.234787 0.387564 0.0608259
482 4 0.20446 0.370923 0.0556677
608 4 0.255692 0.396601 0.0505071
252 4 0.271151 0.406941 0.0586858
250 2 0.281418 0.418856 0.039249
957 4 0.372305 0.35262 0.0179282
670 2 0.456348 0.342333 0.0613272
671 4 0.475741 0.355341 0.070264
281 4 0.468663 0.371016 0.078889
280 2 0.469215 0.395526 0.0739764
2651 4 0.487536 0.367281 0.0804827
551 4 0.0869291 0.450157 0.0804588
550 2 0.101534 0.470174 0.083804
244 2 0.248032 0.481369 0.0529611
245 4 0.246622 0.466769 0.0732098
272 4 0.243395 0.493523 0.0144997
251 4 0.291686 0.430772 0.0198122
524 4 0.3496 0.500254 0.00980166
523 2 0.347569 0.494669 0.0340888
282 4 0.469767 0.420036 0.0690638
226 2 0.467533 0.447069 0.0381597
228 4 0.460439 0.467617 0.0258051
227 4 0.474628 0.426521 0.0505142
563 4 0.447837 0.481124 0.0330864
16 1 0.0480529 0.0557922 0.142986
20 3 0.0404624 0.0399115 0.157437
1806 4 0.0628786 0.0298479 0.133759
18 3 0.0683044 0.0491306 0.133826
17 3 0.0327601 0.05853 0.126021
1804 2 0.0806485 0.0130205 0.128636
19 3 0.0506449 0.0760047 0.154082
450 4 0.17014 0.0579398 0.125814
1505 4 0.168051 0.0425795 0.138394
448 2 0.179128 0.0812625 0.125152
1504 2 0.179714 0.0365646 0.159677
652 2 0.313911 0.0144344 0.103236
653 4 0.318527 0.0202323 0.0793559
654 4 0.309294 0.00863651 0.127116
1661 4 0.31713 0.00200705 0.14479
484 2 0.379746 0.997676 0.109465
296 4 0.348211 0.0736295 0.0856975
295 2 0.359989 0.0568795 0.100047
297 4 0.371767 0.0401294 0.114396
485 4 0.372141 0.0202318 0.117118
237 4 0.148894 0.150942 0.141313
578 4 0.129412 0.149081 0.143905
577 2 0.11394 0.131964 0.134271
579 4 0.0984685 0.114848 0.124637
235 2 0.168816 0.137057 0.135358
236 4 0.188739 0.123171 0.129403
693 4 0.201511 0.111709 0.138018
449 4 0.188117 0.104585 0.12449
691 2 0.220237 0.109699 0.154463
557 4 0.339003 0.0886082 0.0967668
337 2 0.0751706 0.196794 0.16093
339 4 0.0525098 0.187447 0.156
476 4 0.141836 0.184646 0.122797
475 2 0.129368 0.192937 0.142822
477 4 0.1169 0.201228 0.162846
737 4 0.145568 0.194938 0.107054
736 2 0.165135 0.210097 0.103512
738 4 0.184701 0.225256 0.0999705
283 2 0.325808 0.208623 0.15285
284 4 0.334087 0.221566 0.133125
462 4 0.339871 0.221442 0.0985555
255 4 0.344439 0.227242 0.116772
254 4 0.390395 0.243845 0.127407
253 2 0.367417 0.235543 0.122089
630 4 0.404402 0.234339 0.134639
628 2 0.417444 0.213138 0.137001
765 4 0.396849 0.248973 0.145616
629 4 0.430487 0.191936 0.139362
749 4 0.0953288 0.300789 0.156945
353 4 0.30865 0.289153 0.147968
754 2 0.278768 0.316573 0.139656
755 4 0.289967 0.295053 0.145712
278 4 0.294729 0.279593 0.157024
352 2 0.32717 0.276918 0.136457
756 4 0.267569 0.338093 0.133601
354 4 0.34569 0.264684 0.124946
763 2 0.409555 0.260475 0.163822
519 4 0.499547 0.282922 0.0855311
517 2 0.504774 0.279989 0.109806
648 4 0.0719235 0.341524 0.085548
456 4 0.0805002 0.338706 0.101932
455 4 0.123125 0.36406 0.0955314
454 2 0.101813 0.351383 0.0987316
537 4 0.202153 0.372041 0.124492
535 2 0.203121 0.395509 0.115918
611 4 0.216653 0.367052 0.135736
610 2 0.240784 0.361348 0.138948
612 4 0.264916 0.355643 0.142161
741 4 0.388323 0.369053 0.0896676
387 4 0.336953 0.407682 0.162478
739 2 0.391563 0.377626 0.112931
740 4 0.394804 0.3862 0.136194
15 3 0.390761 0.377263 0.152896
385 2 0.360237 0.4015 0.155784
386 4 0.383521 0.395318 0.14909
11 1 0.40997 0.38383 0.163219
495 4 0.399751 0.404212 0.142237
12 3 0.426898 0.369265 0.1577
14 3 0.415837 0.405155 0.156202
1465 2 0.00574479 0.485712 0.148497
1466 4 0.0241719 0.502611 0.14831
552 4 0.116139 0.490191 0.0871492
627 4 0.236355 0.459024 0.0893572
536 4 0.20409 0.418977 0.107345
625 2 0.215156 0.446212 0.0927641
626 4 0.193956 0.4334 0.096171
637 2 0.237419 0.498697 0.143643
767 4 0.255437 0.465937 0.125079
638 4 0.253606 0.484719 0.13069
766 2 0.26576 0.450991 0.142261
301 2 0.312471 0.431861 0.164725
302 4 0.335058 0.426519 0.155427
494 4 0.406771 0.449282 0.12174
493 2 0.403261 0.426747 0.131989
660 4 0.410733 0.465583 0.132132
658 2 0.427029 0.476223 0.14783
2480 4 0.00599326 0.0105113 0.198657
673 2 0.126913 0.045607 0.207129
675 4 0.104361 0.0460638 0.217916
674 4 0.149465 0.0451503 0.196342
689 4 0.202634 0.0298969 0.19923
1506 4 0.191377 0.0305498 0.18096
688 2 0.212033 0.0110581 0.212718
21 1 0.394967 0.0144096 0.223277
25 3 0.409241 0.0286107 0.212635
22 3 0.373314 0.021192 0.219499
23 3 0.399051 0.014725 0.246116
757 2 0.407553 0.0662708 0.195908
759 4 0.412252 0.0474712 0.211709
351 4 0.466588 0.0306036 0.248393
349 2 0.446547 0.0331069 0.233652
350 4 0.426507 0.0356102 0.218912
380 4 0.0392214 0.0745232 0.170595
512 4 0.0529275 0.115534 0.216445
379 2 0.0390768 0.0935151 0.186858
381 4 0.0389322 0.112507 0.20312
511 2 0.0611869 0.138577 0.221543
513 4 0.0694462 0.16162 0.226642
692 4 0.238964 0.107689 0.170909
721 2 0.193714 0.149044 0.226778
723 4 0.194095 0.133672 0.207062
582 4 0.25455 0.0994657 0.178948
580 2 0.271441 0.113476 0.190929
581 4 0.288333 0.127487 0.202911
30 3 0.305607 0.1328 0.19305
26 1 0.323756 0.140658 0.204342
29 3 0.326949 0.128343 0.223747
27 3 0.320209 0.16267 0.210004
28 3 0.34263 0.139315 0.190912
758 4 0.402853 0.0850705 0.180107
310 2 0.424294 0.151948 0.170899
311 4 0.42154 0.128169 0.163677
521 4 0.457607 0.176275 0.216573
338 4 0.0978314 0.206141 0.16586
363 4 0.106497 0.19377 0.177934
362 4 0.128452 0.223182 0.2119
361 2 0.117474 0.208476 0.194917
372 4 0.14089 0.233683 0.222878
544 2 0.159765 0.190196 0.250887
722 4 0.193333 0.164415 0.246495
546 4 0.182763 0.180532 0.249183
285 4 0.317528 0.195679 0.172576
279 4 0.262222 0.254926 0.185931
312 4 0.427047 0.175726 0.178122
520 2 0.481457 0.178014 0.209272
395 4 0.0740196 0.290068 0.214412
394 2 0.0528376 0.293289 0.227301
396 4 0.0316556 0.29651 0.24019
750 4 0.067252 0.300645 0.198326
748 2 0.0812904 0.300717 0.177635
370 2 0.161192 0.247964 0.225894
300 4 0.142336 0.321123 0.214818
371 4 0.181493 0.262245 0.228909
277 2 0.278476 0.267259 0.171478
308 4 0.323983 0.273622 0.240786
307 2 0.322319 0.287784 0.220248
309 4 0.320655 0.301947 0.199709
764 4 0.422261 0.271976 0.182028
623 4 0.420687 0.288348 0.195567
526 2 0.496809 0.287753 0.168422
528 4 0.47936 0.297282 0.183584
622 2 0.444199 0.296738 0.196968
624 4 0.467712 0.305127 0.19837
262 2 0.0493406 0.399318 0.234511
264 4 0.02568 0.396236 0.227037
263 4 0.0730011 0.4024 0.241984
298 2 0.137742 0.341724 0.228222
299 4 0.133149 0.362325 0.241627
603 4 0.12492 0.374359 0.254755
290 4 0.17262 0.374419 0.22163
289 2 0.170926 0.399261 0.219357
13 3 0.407069 0.383584 0.186239
644 4 0.509797 0.401962 0.199693
1757 4 0.083238 0.494763 0.229296
1430 4 0.191458 0.506792 0.207815
416 4 0.172185 0.444829 0.21552
417 4 0.178342 0.492557 0.201923
415 2 0.175264 0.468693 0.208722
291 4 0.169233 0.424103 0.217084
768 4 0.276083 0.436045 0.159444
303 4 0.289884 0.437203 0.174024
643 2 0.497559 0.422774 0.206195
645 4 0.48532 0.443585 0.212697
597 4 0.470176 0.441919 0.20035
595 2 0.461215 0.463 0.190327
596 4 0.452255 0.484081 0.180304
659 4 0.443324 0.486864 0.163527
1799 4 0.0246585 0.030464 0.318009
233 4 0.0301045 0.0282905 0.299116
1402 2 0.065684 0.0160797 0.310132
1403 4 0.0426952 0.0255875 0.312641
232 2 0.0163772 0.034923 0.279298
234 4 0.00264988 0.0415555 0.25948
1404 4 0.0886728 0.00657188 0.307623
1699 2 0.184112 0.0747004 0.337367
1518 4 0.358558 0.00352289 0.304553
697 2 0.366742 0.0425334 0.319539
699 4 0.361508 0.0231097 0.304689
698 4 0.371976 0.0619571 0.334388
633 4 0.376881 0.0781692 0.324625
2664 4 0.498706 0.0298178 0.32146
743 4 0.494933 0.0417007 0.3068
744 4 0.48214 0.0278293 0.26049
742 2 0.488537 0.034765 0.283645
479 4 0.481947 0.0405822 0.319976
398 4 0.110996 0.1449 0.306323
397 2 0.100485 0.123065 0.312482
393 4 0.102689 0.157081 0.293754
399 4 0.0899743 0.10123 0.31864
390 4 0.104659 0.162678 0.312662
1700 4 0.204926 0.0844003 0.327474
248 4 0.219687 0.100102 0.325396
249 4 0.206971 0.148433 0.327171
247 2 0.213329 0.124267 0.326284
404 4 0.202179 0.160503 0.311841
403 2 0.197408 0.166672 0.288085
632 4 0.390133 0.108588 0.287211
631 2 0.383507 0.0933788 0.305918
333 4 0.477599 0.143685 0.300316
515 4 0.443682 0.155193 0.331172
331 2 0.46556 0.165599 0.300224
545 4 0.136767 0.199859 0.252591
392 4 0.133683 0.182991 0.264279
391 2 0.118186 0.170036 0.279016
388 2 0.107758 0.175753 0.333749
405 4 0.192638 0.172842 0.264329
420 4 0.401535 0.215738 0.301998
717 4 0.406535 0.23466 0.298936
332 4 0.453522 0.187514 0.300132
418 2 0.421782 0.203647 0.293688
419 4 0.442029 0.191556 0.285378
760 2 0.475689 0.218406 0.28409
762 4 0.45611 0.203554 0.2887
761 4 0.495268 0.233258 0.279479
444 4 0.0408864 0.251443 0.287739
364 2 0.00794845 0.322885 0.263013
442 2 0.0331757 0.2686 0.271265
443 4 0.0254649 0.285756 0.254792
365 4 0.0238978 0.305727 0.254271
401 4 0.207415 0.258396 0.270089
400 2 0.217388 0.262917 0.292567
402 4 0.227361 0.267439 0.315046
345 4 0.240974 0.273904 0.327275
510 4 0.224796 0.284085 0.325874
508 2 0.218371 0.308002 0.322431
497 4 0.321385 0.266244 0.259882
496 2 0.322236 0.283708 0.277756
498 4 0.323087 0.301172 0.295629
715 2 0.415081 0.258052 0.296706
542 4 0.424045 0.300547 0.300614
716 4 0.423627 0.281443 0.294476
541 2 0.415831 0.323915 0.304028
602 4 0.0759648 0.383398 0.250019
601 2 0.100442 0.378879 0.252387
734 4 0.137891 0.359985 0.259329
733 2 0.140871 0.362398 0.284037
735 4 0.14385 0.364812 0.308745
677 4 0.155868 0.35863 0.324553
676 2 0.180352 0.353649 0.3255
433 2 0.238851 0.361648 0.330033
678 4 0.204837 0.348669 0.326448
435 4 0.22208 0.348647 0.316809
434 4 0.255622 0.37465 0.343257
728 4 0.373783 0.366033 0.306625
727 2 0.359556 0.386592 0.306887
729 4 0.345328 0.407152 0.307148
543 4 0.407617 0.347282 0.307442
615 4 0.415967 0.364852 0.312176
613 2 0.426177 0.387026 0.317585
2538 4 0.479199 0.384101 0.322305
2536 2 0.481208 0.39677 0.300843
614 4 0.436386 0.4092 0.322994
2537 4 0.483217 0.40944 0.279381
777 4 0.0575851 0.429255 0.323051
775 2 0.081502 0.432586 0.316565
414 4 0.123445 0.44207 0.31887
776 4 0.105419 0.435916 0.31008
438 4 0.301655 0.433302 0.29612
436 2 0.32566 0.426593 0.294134
437 4 0.349664 0.419883 0.292148
594 4 0.379893 0.46942 0.315846
592 2 0.390359 0.483038 0.334017
2862 4 0.463567 0.412901 0.268598
2861 4 0.44658 0.458163 0.255811
2860 2 0.455074 0.435532 0.262204
1798 2 0.0161825 0.0141457 0.334952
369 4 0.0950941 0.0502665 0.366793
367 2 0.0868088 0.0331383 0.383015
732 4 0.0868358 0.0682714 0.36875
368 4 0.0785235 0.0160102 0.399237
1701 4 0.163298 0.0650005 0.34726
1782 4 0.079768 0.00093917 0.411845
256 2 0.403039 0.0612304 0.356841
257 4 0.388352 0.0712846 0.33928
424 2 0.409787 0.030269 0.402058
478 2 0.467993 0.0555472 0.334346
258 4 0.417726 0.0511762 0.374401
426 4 0.422405 0.0328648 0.380628
480 4 0.454038 0.0705122 0.348717
458 4 0.0274128 0.155984 0.363604
318 4 0.0207696 0.138073 0.361068
316 2 0.0389113 0.125386 0.349445
317 4 0.0570529 0.112699 0.337822
605 4 0.151132 0.07691 0.359008
730 2 0.0866126 0.0877995 0.353136
604 2 0.150121 0.0972077 0.373574
606 4 0.149109 0.117505 0.38814
731 4 0.0863894 0.107328 0.337523
600 4 0.219017 0.150189 0.394284
683 4 0.236376 0.145034 0.403781
682 2 0.259311 0.136764 0.409328
319 2 0.311923 0.125265 0.402358
320 4 0.296126 0.116859 0.419822
708 4 0.336025 0.151449 0.381294
684 4 0.282246 0.128495 0.414876
575 4 0.403627 0.138188 0.382381
321 4 0.32772 0.133671 0.384895
516 4 0.407767 0.141557 0.363186
574 2 0.41948 0.13835 0.401716
451 2 0.480089 0.154656 0.351191
514 2 0.425724 0.148375 0.347179
2655 4 0.0106195 0.244102 0.3879
457 2 0.0171401 0.168272 0.382805
2653 2 0.00615059 0.221815 0.398316
2654 4 0.00168168 0.199528 0.408732
459 4 0.00686738 0.180559 0.402006
389 4 0.110856 0.188827 0.354835
598 2 0.217807 0.175078 0.396348
687 4 0.204102 0.200872 0.413319
599 4 0.216596 0.199967 0.398411
473 4 0.234029 0.229191 0.380576
374 4 0.21761 0.237473 0.387417
472 2 0.252547 0.223846 0.396503
378 4 0.28567 0.241412 0.363892
376 2 0.292807 0.218727 0.356169
377 4 0.299944 0.196042 0.348446
707 4 0.318108 0.18902 0.353579
706 2 0.327066 0.170235 0.367437
474 4 0.271066 0.218501 0.412431
453 4 0.45613 0.159955 0.346391
2849 4 0.00655651 0.263258 0.38786
347 4 0.0716611 0.325388 0.396316
275 4 0.156372 0.318662 0.387777
617 4 0.136486 0.318803 0.391899
616 2 0.11299 0.323638 0.398951
618 4 0.0894935 0.328472 0.406003
274 2 0.171323 0.298953 0.391408
276 4 0.186274 0.279244 0.39504
373 2 0.2102 0.261311 0.385993
375 4 0.202789 0.285148 0.38457
509 4 0.211945 0.331919 0.318988
344 4 0.281644 0.25173 0.346115
343 2 0.261309 0.262817 0.336695
406 2 0.0077057 0.357092 0.368953
407 4 0.0184845 0.365282 0.347931
548 4 0.02824 0.381701 0.348968
547 2 0.0406754 0.403159 0.345796
504 4 0.246112 0.409534 0.420381
334 2 0.331294 0.405795 0.393406
502 2 0.270307 0.410503 0.414149
336 4 0.309327 0.417036 0.39744
335 4 0.353261 0.394555 0.389372
240 4 0.365606 0.396016 0.403254
559 2 0.498495 0.336419 0.403537
561 4 0.480584 0.337134 0.386105
753 4 0.469265 0.369961 0.33327
752 4 0.469653 0.335338 0.369351
751 2 0.469459 0.352649 0.351311
549 4 0.0531107 0.424618 0.342624
412 2 0.137749 0.458485 0.331163
413 4 0.152053 0.474901 0.343456
500 4 0.151341 0.486309 0.359088
1543 2 0.187185 0.495314 0.337167
1544 4 0.167949 0.48466 0.349068
593 4 0.400825 0.496655 0.352188
720 4 0.0213594 0.0766098 0.459537
2237 4 0.0234764 0.0621532 0.447722
2236 2 0.0243086 0.0449073 0.429637
1127 4 0.0109952 0.0611745 0.463657
2238 4 0.0251407 0.0276614 0.411553
726 4 0.281547 0.0699858 0.477809
724 2 0.291203 0.0510189 0.490931
1580 4 0.383443 0.0154263 0.431931
425 4 0.39717 0.0276731 0.423488
2878 2 0.474524 0.0766177 0.483988
718 2 0.0355544 0.0943451 0.469984
719 4 0.0497494 0.11208 0.480431
1033 2 0.124915 0.138699 0.47038
1035 4 0.141095 0.154317 0.459451
1034 4 0.108735 0.123082 0.48131
1182 4 0.283349 0.0893066 0.471612
1180 2 0.281974 0.104341 0.451681
1181 4 0.280599 0.119376 0.431749
3158 4 0.512909 0.17054 0.44018
2880 4 0.47158 0.0915451 0.464146
642 4 0.47545 0.0911642 0.444277
640 2 0.463569 0.109444 0.432035
641 4 0.451687 0.127724 0.419793
306 4 0.452675 0.147454 0.417627
576 4 0.435333 0.138512 0.421051
469 2 0.0194358 0.196057 0.479009
470 4 0.0128613 0.172003 0.47718
686 4 0.171555 0.215653 0.44829
260 4 0.160647 0.211002 0.463683
261 4 0.133239 0.169533 0.469144
259 2 0.146943 0.190268 0.466414
695 4 0.153378 0.223464 0.450446
694 2 0.143071 0.243792 0.460727
411 4 0.232615 0.16532 0.502458
685 2 0.187828 0.208262 0.430805
488 4 0.270155 0.226485 0.430853
487 2 0.291459 0.220473 0.442478
489 4 0.312764 0.21446 0.454103
467 4 0.381761 0.211244 0.418922
466 2 0.379772 0.23087 0.434285
305 4 0.466477 0.193678 0.430801
304 2 0.459576 0.170566 0.424214
585 4 0.44989 0.234821 0.495364
2847 4 0.997795 0.319631 0.496704
1260 4 0.137185 0.275783 0.486296
696 4 0.132763 0.264121 0.471009
811 2 0.260003 0.305173 0.490683
813 4 0.265556 0.287979 0.4734
266 4 0.314741 0.269386 0.47325
468 4 0.377782 0.250497 0.449648
265 2 0.3362 0.261735 0.462947
267 4 0.357659 0.254084 0.452644
2456 4 0.477704 0.291795 0.480329
584 4 0.477168 0.272236 0.476478
583 2 0.463529 0.253529 0.485921
348 4 0.0571478 0.347669 0.438667
326 4 0.0606064 0.345659 0.459027
346 2 0.0644045 0.336529 0.417492
681 4 0.0663404 0.409827 0.435436
325 2 0.0779168 0.36174 0.467208
383 4 0.0766641 0.419542 0.450589
10 3 0.145622 0.366595 0.471929
327 4 0.0952273 0.37782 0.47539
7 3 0.112362 0.37744 0.48493
6 1 0.132665 0.368222 0.490586
635 4 0.203561 0.419991 0.460657
709 2 0.177694 0.400409 0.490014
774 4 0.212777 0.412475 0.476608
772 2 0.232704 0.407802 0.49097
710 4 0.193334 0.411955 0.474289
503 4 0.294502 0.411472 0.407918
239 4 0.391202 0.417801 0.440281
238 2 0.378404 0.406909 0.421768
588 4 0.39059 0.402003 0.453332
586 2 0.400118 0.410934 0.474654
587 4 0.409645 0.419865 0.495977
680 4 0.0372683 0.44975 0.42758
1381 2 0.0473186 0.491218 0.415321
1383 4 0.0449885 0.46653 0.418522
679 2 0.0518043 0.429788 0.431508
570 4 0.163431 0.477187 0.467276
538 2 0.106701 0.487105 0.4885
382 2 0.098834 0.426214 0.460032
569 4 0.140667 0.432748 0.47005
568 2 0.152049 0.454967 0.468663
384 4 0.121004 0.432886 0.469474
539 4 0.0913859 0.474988 0.472886
636 4 0.20831 0.438121 0.414294
634 2 0.205936 0.429056 0.437475
880 2 0.337225 0.495502 0.495624
5 3 0.295616 0.486136 0.447892
669 4 0.301856 0.428678 0.412223
668 4 0.319374 0.473851 0.4246
667 2 0.310615 0.451265 0.418411
4 3 0.321465 0.494117 0.421705
3077 4 0.986724 0.0321208 0.568597
1057 2 0.130566 0.0636314 0.581602
2375 4 0.125589 0.025174 0.594902
340 2 0.189077 0.0438444 0.517692
342 4 0.175327 0.0645361 0.520516
2430 4 0.192277 0.00880608 0.507137
341 4 0.202827 0.0231528 0.514868
430 2 0.315693 0.0317335 0.535934
432 4 0.296909 0.0242489 0.521225
963 4 0.288766 0.0158857 0.506056
725 4 0.300858 0.032052 0.504054
431 4 0.334476 0.039218 0.550643
843 4 0.349578 0.0463224 0.538754
1217 4 0.415025 0.0456812 0.543393
842 4 0.398868 0.0546644 0.54003
841 2 0.374223 0.0504934 0.539392
1216 2 0.423571 0.0224083 0.546636
2879 4 0.477468 0.0616902 0.503829
879 4 0.0689163 0.153445 0.542307
1272 4 0.0731619 0.141571 0.557544
877 2 0.0469291 0.164964 0.545316
938 4 0.0851537 0.143531 0.541664
1059 4 0.143362 0.0846872 0.577348
1150 2 0.155426 0.0822356 0.534915
937 2 0.0954361 0.138791 0.519371
1151 4 0.146937 0.0857553 0.558168
1155 4 0.161116 0.0901469 0.571512
939 4 0.105719 0.134051 0.497078
1270 2 0.0919428 0.144415 0.573803
1152 4 0.163915 0.078716 0.511661
878 4 0.0249418 0.176483 0.548325
1199 4 0.0160912 0.187281 0.533644
471 4 0.0260103 0.220111 0.480838
409 2 0.2492 0.178546 0.515695
857 4 0.288033 0.224055 0.576725
898 2 0.290614 0.215131 0.541391
791 4 0.298804 0.240614 0.575921
899 4 0.298863 0.228756 0.560664
900 4 0.282365 0.201505 0.522117
410 4 0.265784 0.191771 0.528931
871 2 0.374693 0.235568 0.518251
872 4 0.350637 0.228879 0.516928
873 4 0.398749 0.242256 0.519573
3354 4 0.994025 0.298835 0.497489
1259 4 0.107284 0.26156 0.523772
1258 2 0.122234 0.268671 0.505034
649 2 0.256342 0.310254 0.54896
651 4 0.261385 0.299199 0.570813
650 4 0.251299 0.321309 0.527107
804 4 0.244783 0.336713 0.51741
812 4 0.25445 0.322367 0.507966
790 2 0.318787 0.254977 0.571499
792 4 0.33877 0.269341 0.567077
1238 4 0.340842 0.289827 0.571261
906 4 0.437188 0.24893 0.579699
2455 2 0.490189 0.307275 0.495484
935 4 0.013169 0.402417 0.534206
9 3 0.129082 0.347143 0.4996
897 4 0.168573 0.383148 0.566642
1137 4 0.153612 0.392594 0.556724
711 4 0.162054 0.388863 0.505739
8 3 0.143003 0.381878 0.506239
1189 2 0.241087 0.408569 0.544627
773 4 0.25263 0.403129 0.505333
1190 4 0.254956 0.403193 0.524528
1191 4 0.227218 0.413945 0.564725
803 4 0.249685 0.386457 0.515908
895 2 0.190842 0.393843 0.570503
802 2 0.247234 0.361585 0.516659
896 4 0.213111 0.404538 0.574364
930 4 0.267401 0.39365 0.513189
928 2 0.292354 0.39426 0.514652
929 4 0.317308 0.394871 0.516115
927 4 0.401342 0.390782 0.554112
925 2 0.405828 0.406162 0.534916
926 4 0.410315 0.421542 0.515719
1135 2 0.141704 0.413729 0.550667
1136 4 0.129797 0.434864 0.544609
2243 4 0.150935 0.50658 0.565726
2242 2 0.138606 0.505724 0.54399
2244 4 0.126276 0.504868 0.522255
1172 4 0.218947 0.421468 0.581335
1171 2 0.215985 0.445538 0.58742
889 2 0.320981 0.47081 0.569971
891 4 0.334845 0.479124 0.550896
890 4 0.307117 0.462495 0.589045
1953 4 0.387244 0.45623 0.533942
1951 2 0.36599 0.4694 0.534129
1952 4 0.344737 0.48257 0.534316
663 4 0.411842 0.437007 0.50489
881 4 0.347197 0.483227 0.514991
1001 4 0.432149 0.494369 0.536325
662 4 0.426121 0.476206 0.532462
661 2 0.418981 0.456606 0.518676
1911 4 0.434113 0.480389 0.550063
1909 2 0.438324 0.470884 0.572803
1332 4 0.444902 0.479605 0.533692
1330 2 0.466027 0.492114 0.528952
1184 4 0.98861 0.0197902 0.585443
2374 2 0.129332 0.00111286 0.589225
1058 4 0.11777 0.0425756 0.585856
825 4 0.127809 0.00617785 0.664019
1284 4 0.159173 0.0741996 0.650584
950 4 0.253633 0.0214416 0.645339
949 2 0.26733 0.035904 0.630226
951 4 0.281027 0.0503664 0.615113
1031 4 0.284425 0.0703999 0.612045
45 3 0.427891 0.0658424 0.655142
3008 4 0.500581 0.0787189 0.603009
3178 2 0.992456 0.172101 0.662277
1271 4 0.110724 0.147258 0.590063
1153 2 0.173149 0.0983814 0.591824
1154 4 0.185182 0.106616 0.612136
1221 4 0.195165 0.122616 0.617433
1219 2 0.198711 0.145943 0.625706
1220 4 0.202256 0.16927 0.633979
1032 4 0.266575 0.10859 0.638945
1030 2 0.2755 0.089495 0.625495
808 2 0.48071 0.0904034 0.634434
810 4 0.468962 0.0869949 0.656241
43 3 0.424242 0.100302 0.669869
809 4 0.492457 0.0938119 0.612627
1243 2 0.0722737 0.213591 0.641826
1244 4 0.072137 0.225436 0.619807
1210 2 0.237408 0.18078 0.657315
1212 4 0.21632 0.178263 0.644119
796 2 0.195759 0.205607 0.623477
798 4 0.199848 0.18758 0.640314
797 4 0.19167 0.223634 0.606639
856 2 0.280465 0.209867 0.595872
858 4 0.272896 0.19568 0.615019
1211 4 0.258495 0.183297 0.670512
3121 2 0.496354 0.22452 0.639864
905 4 0.476237 0.238087 0.608996
3123 4 0.474909 0.227435 0.627344
904 2 0.456712 0.243509 0.594347
983 4 0.0445306 0.286263 0.618887
982 2 0.0431193 0.309288 0.628532
3263 4 0.0393285 0.328875 0.65815
947 4 0.248424 0.297075 0.643765
805 2 0.308736 0.322236 0.644539
1237 2 0.339355 0.299327 0.594342
1239 4 0.337869 0.308827 0.617423
807 4 0.318582 0.311786 0.624069
806 4 0.298889 0.332686 0.665009
952 2 0.484447 0.328985 0.609395
953 4 0.467847 0.321248 0.626418
984 4 0.0417079 0.332312 0.638178
1041 4 0.0314574 0.344094 0.64966
1039 2 0.0399054 0.364827 0.638525
1040 4 0.0483534 0.385559 0.62739
993 4 0.0505409 0.401723 0.638827
991 2 0.0597551 0.417378 0.621645
992 4 0.0689692 0.433032 0.604463
1159 2 0.184465 0.498558 0.586537
1160 4 0.202589 0.484896 0.597027
1173 4 0.213023 0.469608 0.593505
1188 4 0.194381 0.478717 0.659308
1187 4 0.211146 0.476832 0.612233
1186 2 0.202764 0.477775 0.635771
1206 4 0.470185 0.405574 0.644656
1204 2 0.463347 0.429301 0.640723
1910 4 0.442535 0.46138 0.595543
1269 4 0.435257 0.451543 0.639663
1267 2 0.427202 0.47298 0.6497
1205 4 0.456508 0.453027 0.63679
1226 4 0.162648 0.0899186 0.744091
2255 4 0.226854 0.0107068 0.745579
1004 4 0.334479 0.00229826 0.707295
1003 2 0.330559 0.0247547 0.717567
1005 4 0.326639 0.0472111 0.727839
41 1 0.434629 0.0796574 0.671947
1162 2 0.492556 0.0697557 0.686217
42 3 0.428781 0.0703942 0.692175
3179 4 0.00738332 0.16887 0.682074
1083 4 0.00744498 0.149838 0.689925
1081 2 0.0135368 0.125683 0.692081
1082 4 0.0196287 0.101529 0.694236
1076 4 0.017657 0.0902321 0.711263
1075 2 0.0333835 0.0928541 0.730524
850 2 0.066441 0.160451 0.713284
852 4 0.0465855 0.15915 0.728425
1214 4 0.028351 0.154529 0.733249
1282 2 0.152317 0.0868579 0.671027
909 4 0.101546 0.152746 0.691141
907 2 0.117591 0.133608 0.689923
908 4 0.133636 0.114471 0.688705
1283 4 0.145461 0.0995161 0.691471
1227 4 0.134493 0.106274 0.706138
851 4 0.0862966 0.161752 0.698144
1225 2 0.148571 0.0980963 0.725115
1148 4 0.175192 0.0890597 0.758642
1147 2 0.19983 0.0863473 0.755355
1149 4 0.224468 0.083635 0.752068
888 4 0.269376 0.167385 0.666862
830 4 0.320429 0.147153 0.709763
978 4 0.307399 0.158351 0.718227
887 4 0.305633 0.155977 0.699358
886 2 0.287504 0.161681 0.68311
831 4 0.364909 0.12914 0.723826
1141 2 0.399558 0.149024 0.717745
829 2 0.342669 0.138147 0.716795
1142 4 0.38429 0.13079 0.725466
1163 4 0.477128 0.0849053 0.67366
44 3 0.457674 0.0822809 0.671281
1025 4 0.471865 0.160791 0.687683
3424 2 0.473119 0.121884 0.677881
3426 4 0.464434 0.0994816 0.670962
3425 4 0.481803 0.144287 0.684801
3269 4 0.487595 0.157621 0.698528
3268 2 0.495777 0.164475 0.721139
1245 4 0.0724105 0.201745 0.663845
1209 4 0.0773282 0.208561 0.682847
1207 2 0.0835455 0.230903 0.692193
1213 2 0.0135524 0.172526 0.74232
1215 4 0.998754 0.190523 0.751392
1107 4 0.103881 0.166968 0.704806
1105 2 0.118183 0.186438 0.711253
1208 4 0.0897627 0.253246 0.701539
1106 4 0.132484 0.205908 0.717701
1130 4 0.14506 0.197308 0.731042
976 2 0.304695 0.176303 0.735419
1194 4 0.386468 0.232603 0.722704
1192 2 0.365313 0.236589 0.735422
1024 2 0.449589 0.169833 0.694555
1143 4 0.414825 0.167258 0.710025
1026 4 0.427313 0.178874 0.701427
1261 2 0.423906 0.198443 0.733863
1262 4 0.414418 0.186989 0.713764
3262 2 0.0397254 0.322009 0.682189
3264 4 0.0401223 0.315144 0.706228
779 4 0.0474 0.320651 0.72335
893 4 0.0323178 0.330171 0.716436
778 2 0.0612233 0.306388 0.738538
1064 4 0.254747 0.277008 0.70952
1065 4 0.210184 0.288555 0.729051
1063 2 0.232465 0.282782 0.719285
946 2 0.252358 0.288293 0.666843
948 4 0.256292 0.279511 0.68992
917 4 0.273142 0.242152 0.74772
1193 4 0.344158 0.240575 0.74814
1008 4 0.432216 0.301029 0.709728
1006 2 0.435832 0.293631 0.733337
892 2 0.0260116 0.352995 0.724466
894 4 0.0197054 0.375819 0.732496
1066 2 0.159465 0.396682 0.693498
1067 4 0.141851 0.401015 0.710707
940 2 0.110984 0.401869 0.725862
942 4 0.0974817 0.392806 0.744855
1068 4 0.177079 0.392349 0.676288
1027 2 0.213275 0.406486 0.679014
1028 4 0.193373 0.39351 0.686805
1279 2 0.0347805 0.506455 0.685382
1280 4 0.0543506 0.502002 0.67047
941 4 0.124485 0.410931 0.706868
1176 4 0.176931 0.477861 0.723202
1029 4 0.233178 0.419462 0.671223
1175 4 0.183072 0.469886 0.674219
1174 2 0.180001 0.473873 0.698711
1140 4 0.281383 0.456575 0.679492
1138 2 0.297767 0.460062 0.698055
1139 4 0.314151 0.46355 0.716618
1019 4 0.397485 0.438687 0.751055
1230 4 0.402066 0.467829 0.718613
1228 2 0.383259 0.466818 0.735058
1100 4 0.420251 0.466898 0.727664
1101 4 0.461588 0.439344 0.733383
1099 2 0.44092 0.453121 0.730524
3330 4 0.479673 0.43164 0.731216
1296 4 0.00893937 0.0427766 0.797604
1294 2 0.0179281 0.0229476 0.785308
1201 2 0.158021 0.0514699 0.764708
1202 4 0.154441 0.027956 0.772419
1203 4 0.161601 0.0749839 0.756997
2254 2 0.206197 0.0174427 0.757953
2049 4 0.169255 0.0160546 0.780156
2256 4 0.185541 0.0241786 0.770327
1113 4 0.393417 0.0482097 0.82272
975 4 0.330544 0.0644208 0.833263
1111 2 0.395004 0.0719852 0.830295
2442 4 0.464902 0.00169409 0.763345
980 4 0.470339 0.00638989 0.798198
2321 4 0.467272 0.0144583 0.778801
2322 4 0.463809 0.0643287 0.780092
2320 2 0.465541 0.0393935 0.779447
846 4 0.446907 0.0671813 0.790314
1077 4 0.0491099 0.0954762 0.749785
864 4 0.0460356 0.100682 0.768469
862 2 0.0411769 0.113264 0.789523
863 4 0.0363181 0.125846 0.810577
832 2 0.0097743 0.133144 0.835009
833 4 0.0245162 0.140086 0.816044
1125 4 0.0430691 0.14366 0.808493
31 1 0.129309 0.134906 0.808013
35 3 0.133393 0.119734 0.791527
33 3 0.111532 0.127773 0.82111
32 3 0.147994 0.13689 0.821282
34 3 0.124486 0.155606 0.798705
1257 4 0.237229 0.09579 0.759854
1255 2 0.25394 0.097393 0.778384
1256 4 0.270651 0.098996 0.796914
840 4 0.275796 0.118414 0.796253
838 2 0.285962 0.134856 0.812111
839 4 0.296127 0.151299 0.82797
844 2 0.451221 0.0893559 0.801031
845 4 0.455535 0.111531 0.811748
1123 2 0.0472776 0.168217 0.806389
1124 4 0.051486 0.192773 0.804285
1072 2 0.0527082 0.222235 0.789931
1073 4 0.0470581 0.211263 0.811676
1074 4 0.0583583 0.233207 0.768185
1129 2 0.148826 0.213762 0.749488
822 4 0.155529 0.249724 0.765309
1131 4 0.152592 0.230216 0.767934
1277 4 0.168921 0.237545 0.773463
1276 2 0.172939 0.228337 0.79636
1278 4 0.176958 0.21913 0.819256
920 4 0.174266 0.204273 0.832268
977 4 0.301991 0.194256 0.752611
916 2 0.286129 0.223611 0.758338
918 4 0.299115 0.20507 0.768957
1298 4 0.317229 0.199085 0.763768
1297 2 0.337059 0.199855 0.778978
1299 4 0.35689 0.200626 0.794187
50 3 0.402825 0.202412 0.776334
1086 4 0.356303 0.18912 0.810857
49 3 0.411539 0.233637 0.795484