ITEM: TIMESTEP
2350000
ITEM: NUMBER OF ATOMS
4590
ITEM: BOX BOUNDS pp pp pp
-9.9985700000000008e+00 9.9985700000000008e+00
-9.9985700000000008e+00 9.9985700000000008e+00
-9.9985700000000008e+00 9.9985700000000008e+00
ITEM: ATOMS id type xs ys zs
465 4 0.0725708 0.0683345 0.0324998
701 4 0.0863401 0.0528086 0.0324093
463 2 0.0679511 0.0831682 0.0520906
700 2 0.105939 0.0602548 0.0187855
702 4 0.125538 0.0677011 0.00516164
566 4 0.142053 0.068447 0.0174035
565 2 0.165161 0.0742161 0.0250143
567 4 0.188269 0.0799852 0.0326251
2469 4 0.507303 0.0483275 0.0323244
2467 2 0.506156 0.0245143 0.0398608
464 4 0.0633314 0.0980019 0.0716814
590 4 0.0467142 0.10847 0.0788067
589 2 0.0217151 0.108261 0.0792301
591 4 0.996716 0.108052 0.0796536
579 4 0.0911455 0.148699 0.0842752
558 4 0.321625 0.116651 0.0723036
556 2 0.340784 0.105436 0.0838075
865 2 0.350134 0.154964 0.0082773
769 2 0.484995 0.155287 0.0691265
771 4 0.479894 0.132923 0.059176
554 4 0.0382198 0.227279 0.998634
553 2 0.0594672 0.223311 0.011203
555 4 0.0807145 0.219343 0.0237723
835 2 0.122105 0.208475 0.0154993
836 4 0.0974819 0.207753 0.0197854
837 4 0.146728 0.209196 0.0112133
738 4 0.178796 0.186225 0.0801267
573 4 0.323373 0.241717 0.0597815
666 4 0.336092 0.228492 0.0535218
461 4 0.3321 0.229442 0.0722874
664 2 0.337034 0.205663 0.0433674
665 4 0.337975 0.182833 0.033213
867 4 0.340277 0.17721 0.0140332
1070 4 0.432383 0.210867 0.0560074
1069 2 0.44065 0.233537 0.0625591
2808 4 0.0180819 0.328537 0.0126255
2806 2 0.00551082 0.308403 0.0204853
294 4 0.100356 0.321963 0.0364606
292 2 0.124945 0.323264 0.0407989
293 4 0.149535 0.324566 0.0451373
455 4 0.117186 0.329359 0.0887694
507 4 0.158857 0.334783 0.0318128
356 4 0.303164 0.298474 0.0397625
572 4 0.294927 0.28082 0.047034
571 2 0.30915 0.261269 0.0534078
355 2 0.304933 0.320479 0.028023
1071 4 0.448917 0.256206 0.0691109
324 4 0.456326 0.272565 0.075929
322 2 0.450261 0.293553 0.088091
647 4 0.0180546 0.359525 0.0843894
646 2 0.0429432 0.359434 0.0867827
620 4 0.00923014 0.369376 0.0683127
648 4 0.0678318 0.359344 0.0891759
505 2 0.17545 0.348277 0.0188606
506 4 0.192043 0.361772 0.00590852
483 4 0.198962 0.380485 0.00632341
481 2 0.219062 0.389962 0.0177859
536 4 0.189077 0.400783 0.0803817
482 4 0.239161 0.399438 0.0292485
609 4 0.259113 0.399777 0.0225131
357 4 0.306703 0.342484 0.0162834
902 4 0.29515 0.358036 0.0126499
957 4 0.377923 0.392401 0.0348777
955 2 0.377373 0.38292 0.0117479
280 2 0.478264 0.405443 0.0592351
1465 2 0.00924392 0.481513 0.0777739
1787 4 0.101438 0.459904 0.0748325
1786 2 0.102259 0.470045 0.0519925
1788 4 0.103079 0.480186 0.0291525
246 4 0.229945 0.48804 0.0379667
244 2 0.21865 0.473432 0.0548247
245 4 0.207354 0.458823 0.0716827
627 4 0.190352 0.45136 0.0628724
625 2 0.184555 0.43192 0.0774904
272 4 0.238931 0.489985 0.0203771
1778 4 0.246431 0.49653 0.0375207
271 2 0.249778 0.472799 0.00581167
607 2 0.277351 0.41462 0.0310137
608 4 0.295589 0.429462 0.0395142
252 4 0.308914 0.445949 0.036828
250 2 0.32671 0.448701 0.019482
525 4 0.376835 0.501297 0.052603
523 2 0.370996 0.477213 0.0559268
524 4 0.365156 0.453129 0.0592506
282 4 0.472125 0.426666 0.0475275
226 2 0.480393 0.464111 0.0586011
227 4 0.484426 0.439509 0.0566948
228 4 0.47636 0.488714 0.0605075
16 1 0.0662686 0.0650184 0.138954
20 3 0.0621287 0.0831898 0.125866
1806 4 0.073935 0.026709 0.128275
18 3 0.0653902 0.0456807 0.12616
19 3 0.0506715 0.0638903 0.156097
17 3 0.0872776 0.0669173 0.148129
1804 2 0.0589715 0.0111315 0.115681
380 4 0.0371546 0.063255 0.17196
673 2 0.122144 0.061666 0.158154
675 4 0.0985756 0.0670613 0.164526
674 4 0.145712 0.0562707 0.151782
1505 4 0.157529 0.0491074 0.164552
450 4 0.164548 0.0585452 0.148839
448 2 0.175534 0.0809297 0.150694
652 2 0.292924 0.0345254 0.168873
654 4 0.305553 0.0130102 0.167203
484 2 0.352801 0.0183943 0.133572
295 2 0.363041 0.0663894 0.113639
297 4 0.356493 0.042293 0.114927
485 4 0.339898 0.0307333 0.116067
486 4 0.365705 0.00605529 0.151077
237 4 0.148704 0.14113 0.116128
578 4 0.132331 0.150473 0.112583
577 2 0.111738 0.149586 0.0984289
476 4 0.143736 0.154766 0.128702
737 4 0.148994 0.160266 0.110764
235 2 0.167429 0.129171 0.127595
236 4 0.186155 0.117211 0.139062
693 4 0.202668 0.114544 0.148857
449 4 0.186519 0.103314 0.152549
691 2 0.227471 0.111481 0.149612
692 4 0.252275 0.108418 0.150368
582 4 0.266838 0.105302 0.136795
557 4 0.359943 0.0942211 0.0953114
296 4 0.36959 0.0904858 0.112351
475 2 0.133892 0.167268 0.147988
736 2 0.163895 0.173246 0.0954455
477 4 0.124047 0.179771 0.167274
283 2 0.326762 0.198783 0.137898
354 4 0.319441 0.231942 0.136373
285 4 0.322442 0.175808 0.146768
284 4 0.331083 0.221758 0.129028
462 4 0.327061 0.237019 0.12146
460 2 0.329581 0.23323 0.0968735
29 3 0.306828 0.180066 0.158347
255 4 0.336287 0.236778 0.136402
253 2 0.356584 0.242723 0.14974
630 4 0.394495 0.247717 0.169596
770 4 0.490096 0.17765 0.079077
1014 4 0.495605 0.180154 0.0976972
1013 4 0.485656 0.219928 0.126328
1012 2 0.49063 0.200041 0.112013
610 2 0.236062 0.328752 0.0959567
352 2 0.301858 0.247163 0.145557
353 4 0.284275 0.262384 0.15474
754 2 0.277344 0.29637 0.131417
755 4 0.283226 0.281729 0.150813
756 4 0.271461 0.311012 0.112021
612 4 0.25785 0.316953 0.0993094
278 4 0.277422 0.2747 0.168223
254 4 0.376881 0.248667 0.163077
323 4 0.444197 0.314541 0.100253
456 4 0.0832907 0.364904 0.0793685
454 2 0.100238 0.347132 0.084069
626 4 0.178758 0.412481 0.0921084
537 4 0.206941 0.354095 0.0790331
611 4 0.214274 0.34055 0.0926039
535 2 0.198009 0.377439 0.0797074
387 4 0.329851 0.398534 0.153259
741 4 0.400181 0.361347 0.108251
739 2 0.397037 0.37072 0.131217
740 4 0.393893 0.380092 0.154183
15 3 0.38266 0.36866 0.165441
385 2 0.353848 0.392853 0.157388
386 4 0.377846 0.387173 0.161517
281 4 0.484402 0.38422 0.0709428
671 4 0.472347 0.377277 0.0842567
672 4 0.454277 0.332308 0.096584
670 2 0.463312 0.354793 0.0904203
2651 4 0.491966 0.378051 0.0878911
551 4 0.0429454 0.440141 0.0989941
550 2 0.0637137 0.451685 0.091211
552 4 0.0844819 0.46323 0.0834279
242 4 0.097239 0.477736 0.0814903
241 2 0.105518 0.489142 0.102143
1438 2 0.151497 0.491328 0.142611
243 4 0.113797 0.500548 0.122796
1440 4 0.128138 0.494397 0.134237
1439 4 0.174856 0.488259 0.150985
637 2 0.213607 0.480962 0.144766
638 4 0.233988 0.472206 0.133229
639 4 0.193226 0.489718 0.156304
767 4 0.253355 0.463992 0.133183
303 4 0.321834 0.466138 0.141584
766 2 0.278097 0.465927 0.13623
768 4 0.302838 0.467862 0.139277
301 2 0.326477 0.441693 0.144053
302 4 0.331119 0.417249 0.146522
493 2 0.403165 0.41704 0.162113
494 4 0.41089 0.440103 0.156316
379 2 0.0309171 0.0840572 0.184351
1504 2 0.162774 0.027233 0.175469
1506 4 0.16802 0.00535849 0.186385
653 4 0.280295 0.0560406 0.170544
21 1 0.408962 0.0155574 0.213627
23 3 0.396602 0.0289111 0.199229
24 3 0.394726 0.00285844 0.226836
757 2 0.446461 0.0563805 0.212427
25 3 0.422252 0.0285487 0.22679
759 4 0.438436 0.0397523 0.229287
350 4 0.435087 0.0240878 0.240401
758 4 0.454487 0.0730088 0.195567
512 4 0.0204539 0.120688 0.20932
381 4 0.0246796 0.104859 0.196742
511 2 0.0408619 0.134179 0.214485
513 4 0.0612699 0.147671 0.219651
339 4 0.0750161 0.160177 0.209562
580 2 0.281988 0.121898 0.147759
581 4 0.297138 0.138495 0.158723
30 3 0.284462 0.151844 0.169342
26 1 0.299575 0.167366 0.176361
521 4 0.489327 0.127063 0.228731
520 2 0.500642 0.149114 0.225433
337 2 0.0908112 0.168658 0.192133
363 4 0.118477 0.188298 0.184549
338 4 0.106606 0.177139 0.174704
362 4 0.143181 0.223214 0.210459
361 2 0.130829 0.205756 0.197504
372 4 0.132364 0.239385 0.213558
723 4 0.225625 0.219257 0.247296
279 4 0.231912 0.262896 0.185259
27 3 0.317675 0.156649 0.185672
28 3 0.289944 0.181116 0.192379
628 2 0.397607 0.227195 0.183537
629 4 0.40072 0.206673 0.197478
420 4 0.390244 0.214296 0.255576
312 4 0.413059 0.191326 0.197815
311 4 0.459712 0.17407 0.202951
310 2 0.436386 0.182698 0.200383
749 4 0.0690352 0.305302 0.181662
750 4 0.0392779 0.271805 0.203871
395 4 0.0381289 0.281994 0.22111
748 2 0.0541566 0.288553 0.192766
394 2 0.0298877 0.281298 0.244706
370 2 0.119559 0.246213 0.23392
300 4 0.13634 0.306143 0.188537
298 2 0.127362 0.318403 0.208393
277 2 0.254667 0.268798 0.176741
307 2 0.295853 0.305185 0.198563
308 4 0.292922 0.306651 0.22335
497 4 0.278487 0.299585 0.236173
309 4 0.298785 0.303719 0.173775
765 4 0.384006 0.264164 0.173237
763 2 0.397474 0.281957 0.184515
528 4 0.488661 0.31894 0.16834
624 4 0.471077 0.318496 0.174597
764 4 0.410942 0.29975 0.195794
623 4 0.423257 0.313234 0.188246
622 2 0.447167 0.315865 0.181422
262 2 0.0289179 0.385647 0.233877
601 2 0.0770971 0.340889 0.226535
264 4 0.0183291 0.408266 0.235066
2618 4 0.999831 0.414112 0.228934
263 4 0.0395067 0.363027 0.232689
602 4 0.055034 0.352562 0.227998
299 4 0.118384 0.330663 0.22825
603 4 0.0991603 0.329216 0.225071
734 4 0.104629 0.33855 0.240876
291 4 0.18864 0.405112 0.227666
290 4 0.171552 0.364902 0.203338
289 2 0.180096 0.385007 0.215502
495 4 0.39544 0.393977 0.167909
14 3 0.407251 0.390613 0.183635
11 1 0.395293 0.370738 0.184275
13 3 0.381656 0.370299 0.203043
12 3 0.410109 0.35318 0.185436
416 4 0.185071 0.420715 0.215667
415 2 0.194869 0.443317 0.211384
1430 4 0.213585 0.481064 0.215937
417 4 0.204667 0.465918 0.2071
660 4 0.410232 0.457431 0.165363
713 4 0.350062 0.505445 0.222528
658 2 0.425357 0.476626 0.170652
659 4 0.440481 0.495821 0.175941
595 2 0.479524 0.489438 0.192267
597 4 0.502086 0.480918 0.198867
232 2 0.00624494 0.0498276 0.308592
1799 4 0.0238962 0.0152837 0.319493
233 4 0.0250769 0.0342814 0.313964
1402 2 0.065307 0.0252107 0.318054
1403 4 0.0409709 0.0224473 0.313024
1404 4 0.0896432 0.0279741 0.323083
633 4 0.380941 0.0559346 0.296474
631 2 0.376803 0.0744562 0.280195
257 4 0.39 0.0463457 0.310918
698 4 0.378583 0.036667 0.297992
697 2 0.36924 0.014389 0.30444
349 2 0.449532 0.0181616 0.259931
744 4 0.48227 0.0180702 0.285285
742 2 0.488674 0.0288167 0.306934
351 4 0.463977 0.0122355 0.27946
399 4 0.0449524 0.113942 0.343608
397 2 0.0570599 0.123045 0.323715
390 4 0.0671114 0.150541 0.2965
398 4 0.0691674 0.132149 0.303823
393 4 0.084053 0.144537 0.304579
545 4 0.143915 0.142858 0.272301
392 4 0.129921 0.140388 0.285094
391 2 0.106987 0.142462 0.294836
544 2 0.165836 0.154879 0.272659
632 4 0.372665 0.0929778 0.263916
444 4 0.0461331 0.236623 0.308264
388 2 0.0607933 0.17472 0.295712
389 4 0.0544752 0.198899 0.294923
721 2 0.212216 0.200158 0.256274
546 4 0.187757 0.166901 0.273017
404 4 0.205758 0.170877 0.333045
403 2 0.202676 0.174551 0.308506
405 4 0.199595 0.178226 0.283966
722 4 0.198807 0.181059 0.265252
717 4 0.382292 0.232816 0.250091
331 2 0.453034 0.19935 0.307753
332 4 0.448479 0.201371 0.283251
418 2 0.414036 0.209273 0.261398
419 4 0.437828 0.204251 0.267219
760 2 0.477798 0.218911 0.259887
762 4 0.455026 0.212928 0.268302
333 4 0.45759 0.197329 0.332255
364 2 0.00822762 0.305305 0.288543
442 2 0.0316547 0.252065 0.294956
396 4 0.0216466 0.280601 0.268302
443 4 0.0171763 0.267508 0.281649
365 4 0.00517521 0.282085 0.279787
366 4 0.01128 0.328526 0.297298
407 4 0.0122272 0.335005 0.315634
371 4 0.106755 0.253041 0.254282
677 4 0.131653 0.321228 0.301642
676 2 0.152532 0.328043 0.313591
401 4 0.238527 0.284887 0.254201
510 4 0.229668 0.295233 0.318786
508 2 0.209722 0.309845 0.322505
400 2 0.234752 0.284035 0.278904
402 4 0.230978 0.283184 0.303606
509 4 0.189777 0.324457 0.326224
345 4 0.244412 0.281801 0.317996
678 4 0.173412 0.334857 0.325541
344 4 0.288437 0.263502 0.333086
343 2 0.266424 0.272652 0.325541
496 2 0.271681 0.316699 0.253084
715 2 0.375308 0.24992 0.26694
716 4 0.368324 0.267024 0.283788
542 4 0.378882 0.283204 0.289813
541 2 0.387722 0.300507 0.30555
543 4 0.396562 0.31781 0.321286
613 2 0.43258 0.330505 0.338726
548 4 0.00944138 0.347604 0.301627
547 2 0.0230116 0.368277 0.305321
549 4 0.0365818 0.38895 0.309016
777 4 0.0547689 0.399491 0.304113
775 2 0.0731267 0.412306 0.315246
733 2 0.117144 0.333265 0.261867
735 4 0.129659 0.327979 0.282858
498 4 0.264875 0.333813 0.269994
615 4 0.408603 0.331036 0.331656
728 4 0.387175 0.363891 0.293618
727 2 0.382165 0.388114 0.297264
729 4 0.377156 0.412338 0.300909
2538 4 0.473141 0.347686 0.280918
2536 2 0.488895 0.362662 0.268559
753 4 0.474143 0.349988 0.300983
751 2 0.489495 0.346191 0.320349
776 4 0.0914844 0.425122 0.326379
412 2 0.113208 0.462508 0.338907
413 4 0.126563 0.482402 0.346051
414 4 0.0998526 0.442614 0.331763
1544 4 0.144924 0.488063 0.340884
1543 2 0.166938 0.487122 0.329066
1545 4 0.188953 0.486181 0.317248
1436 4 0.200028 0.492291 0.301963
1437 4 0.202033 0.517843 0.259024
1435 2 0.20103 0.505067 0.280494
436 2 0.388414 0.437926 0.324263
437 4 0.378774 0.414993 0.321751
2861 4 0.486043 0.442928 0.275095
2860 2 0.493705 0.419552 0.270618
1771 2 0.00658766 0.00774643 0.392118
1772 4 0.0119681 0.0247632 0.409629
2238 4 0.0234493 0.0390278 0.401554
369 4 0.0871348 0.0553916 0.379979
732 4 0.0686229 0.0619325 0.378454
367 2 0.0867436 0.0490079 0.404151
606 4 0.131953 0.0542179 0.397545
604 2 0.156725 0.0558089 0.400544
605 4 0.181497 0.0574 0.403543
1701 4 0.19072 0.0750822 0.397281
256 2 0.385846 0.0582151 0.332529
258 4 0.381692 0.0700846 0.35414
426 4 0.372138 0.0726977 0.37084
424 2 0.377651 0.0576684 0.390047
479 4 0.50035 0.0526546 0.342109
478 2 0.48716 0.0666364 0.3581
458 4 0.999785 0.169863 0.37324
317 4 0.0349374 0.116535 0.360194
731 4 0.051272 0.105072 0.360051
730 2 0.0599475 0.083502 0.369253
318 4 0.999104 0.150319 0.368878
316 2 0.0170209 0.133427 0.364536
247 2 0.20312 0.13878 0.357247
248 4 0.201632 0.114623 0.363525
1699 2 0.196936 0.0861714 0.37575
1700 4 0.203151 0.0972605 0.35422
249 4 0.204607 0.162937 0.350968
683 4 0.238543 0.142355 0.413332
319 2 0.31282 0.12393 0.398559
320 4 0.293214 0.121483 0.413881
706 2 0.324455 0.163352 0.357669
321 4 0.332426 0.126378 0.383236
708 4 0.329069 0.143305 0.371883
480 4 0.47397 0.0806183 0.374092
516 4 0.440621 0.147617 0.37713
575 4 0.43249 0.132149 0.384074
574 2 0.445977 0.118958 0.400485
576 4 0.459463 0.105767 0.416895
2654 4 0.011709 0.226766 0.371423
459 4 0.0177476 0.213764 0.357404
457 2 0.00876611 0.191814 0.365322
472 2 0.2541 0.243308 0.399181
378 4 0.289779 0.245588 0.342522
376 2 0.301506 0.223611 0.340357
377 4 0.313233 0.201635 0.338192
707 4 0.31984 0.183398 0.343455
468 4 0.393147 0.242033 0.413988
452 4 0.50023 0.233625 0.356303
514 2 0.446618 0.166536 0.361922
515 4 0.452614 0.185455 0.346714
453 4 0.462178 0.201563 0.351319
451 2 0.481204 0.217594 0.353811
406 2 0.0201907 0.325908 0.337521
408 4 0.0281543 0.316811 0.359407
618 4 0.0944409 0.360042 0.367062
275 4 0.135103 0.319662 0.354692
617 4 0.124737 0.329611 0.341433
616 2 0.109589 0.344826 0.354247
274 2 0.154823 0.309304 0.366051
276 4 0.174543 0.298946 0.37741
473 4 0.243966 0.25344 0.378691
374 4 0.227014 0.263067 0.3842
373 2 0.208531 0.279551 0.387646
375 4 0.190049 0.296035 0.391091
267 4 0.387533 0.26096 0.416231
265 2 0.375109 0.282292 0.412263
266 4 0.362684 0.303624 0.408294
614 4 0.456558 0.329975 0.345795
347 4 0.0844679 0.347034 0.377858
346 2 0.0707184 0.349984 0.398532
435 4 0.189951 0.344664 0.324144
433 2 0.191706 0.356 0.346361
434 4 0.19346 0.367336 0.368578
502 2 0.287703 0.406536 0.413144
334 2 0.341455 0.41625 0.388537
335 4 0.365035 0.407948 0.389032
240 4 0.377081 0.420126 0.401683
503 4 0.302653 0.421005 0.399275
336 4 0.317874 0.424551 0.388042
669 4 0.312135 0.43813 0.40035
667 2 0.317456 0.458879 0.413249
438 4 0.398055 0.460859 0.326774
238 2 0.386941 0.431478 0.421661
594 4 0.45233 0.483852 0.370344
592 2 0.431892 0.49823 0.371185
3990 4 0.484775 0.486285 0.36385
2236 2 0.0215728 0.056576 0.419266
1127 4 0.0104603 0.0714502 0.45432
2237 4 0.0196964 0.0741242 0.436978
1780 2 0.0763791 0.0113424 0.451067
719 4 0.0763592 0.0834216 0.465981
368 4 0.0863523 0.0426241 0.428322
1782 4 0.0819581 0.0352002 0.446081
963 4 0.287465 0.00304521 0.490782
724 2 0.300913 0.0443654 0.480747
726 4 0.307418 0.0682491 0.477223
725 4 0.294407 0.0204817 0.484272
1182 4 0.301391 0.088184 0.473122
425 4 0.383163 0.0426391 0.409254
1579 2 0.370752 0.0113143 0.430113
1580 4 0.383501 0.0321648 0.42483
642 4 0.469625 0.0534963 0.458192
2878 2 0.449327 0.0565937 0.494043
2880 4 0.468918 0.0556378 0.478537
640 2 0.467191 0.0747933 0.445319
720 4 0.0280851 0.0796079 0.4535
718 2 0.0522221 0.0815147 0.45974
1033 2 0.12544 0.130303 0.480821
1035 4 0.147291 0.131863 0.468768
261 4 0.157897 0.143785 0.457527
1034 4 0.103589 0.128742 0.492873
939 4 0.0870752 0.1404 0.49847
600 4 0.246547 0.158414 0.420076
684 4 0.27755 0.111171 0.415928
682 2 0.258046 0.126763 0.41463
1180 2 0.297439 0.0985498 0.450714
1181 4 0.293487 0.108916 0.428307
641 4 0.464757 0.0960903 0.432447
306 4 0.472872 0.113669 0.42919
304 2 0.479324 0.132306 0.444559
3158 4 0.47721 0.157103 0.476995
305 4 0.485776 0.150943 0.459928
3157 2 0.491949 0.154194 0.496982
259 2 0.1631 0.168019 0.460817
694 2 0.156625 0.221202 0.482668
695 4 0.160815 0.209649 0.460893
696 4 0.152435 0.232755 0.504444
260 4 0.168303 0.192253 0.464108
598 2 0.245515 0.180053 0.432561
599 4 0.244483 0.201691 0.445047
687 4 0.225195 0.201842 0.446581
686 4 0.179605 0.208437 0.466043
685 2 0.2024 0.205139 0.456312
411 4 0.23589 0.212308 0.459606
409 2 0.252573 0.216183 0.477822
474 4 0.264233 0.233176 0.419671
488 4 0.273405 0.240093 0.434934
489 4 0.319013 0.219609 0.435942
487 2 0.296209 0.229851 0.435438
466 2 0.378057 0.225209 0.424688
467 4 0.362968 0.208386 0.435387
584 4 0.488547 0.296881 0.489783
583 2 0.495063 0.276791 0.503165
348 4 0.0569689 0.352933 0.419206
2812 2 0.0243908 0.342716 0.431688
2813 4 0.0492057 0.343103 0.434729
326 4 0.0570279 0.360722 0.437019
325 2 0.0684815 0.373465 0.455229
327 4 0.0799351 0.386209 0.473438
10 3 0.131528 0.368229 0.473324
7 3 0.0988337 0.383995 0.482007
6 1 0.119391 0.377639 0.49014
711 4 0.1483 0.40715 0.495793
8 3 0.130361 0.396394 0.498285
709 2 0.170475 0.402295 0.485311
774 4 0.211752 0.39176 0.475815
710 4 0.19265 0.39744 0.47483
772 2 0.224713 0.392366 0.497188
504 4 0.272754 0.392067 0.427012
587 4 0.398049 0.421754 0.49854
1383 4 0.0559826 0.486962 0.468874
680 4 0.0524908 0.476903 0.485892
384 4 0.138553 0.424476 0.494775
635 4 0.207128 0.41071 0.472867
636 4 0.214995 0.430307 0.427538
634 2 0.211062 0.420508 0.450203
668 4 0.322776 0.479628 0.426147
4 3 0.308421 0.493065 0.432347
588 4 0.383507 0.444334 0.456357
239 4 0.396801 0.442829 0.441638
586 2 0.390778 0.433044 0.477449
1183 2 0.0211575 0.00473236 0.560241
3077 4 0.0102987 0.00701293 0.528084
1150 2 0.147312 0.0693705 0.554586
342 4 0.134538 0.0457395 0.523327
1152 4 0.138201 0.0644853 0.53182
340 2 0.146196 0.0249091 0.515887
1151 4 0.156422 0.0742556 0.577353
341 4 0.157855 0.00407878 0.508447
1059 4 0.163426 0.0628347 0.591975
430 2 0.326752 0.99748 0.502683
432 4 0.306575 0.00592922 0.490572
841 2 0.347781 0.00988112 0.554718
842 4 0.351224 0.0208738 0.57691
1216 2 0.394939 0.016384 0.582112
1217 4 0.372414 0.0247737 0.575227
843 4 0.344338 0.998888 0.532526
2879 4 0.429735 0.0575495 0.509549
3009 4 0.487421 0.0623504 0.571173
1218 4 0.417465 0.00799431 0.588997
90 3 0.417406 0.991913 0.575143
879 4 0.0632071 0.154653 0.56317
877 2 0.040562 0.144248 0.561138
878 4 0.0179169 0.133844 0.559106
938 4 0.0705261 0.15045 0.544576
1272 4 0.081218 0.158934 0.558373
937 2 0.0788006 0.145425 0.521523
1155 4 0.158254 0.0812414 0.595533
3159 4 0.506688 0.151284 0.516969
1270 2 0.0837339 0.178181 0.574134
1258 2 0.121918 0.221249 0.526952
1260 4 0.132239 0.228063 0.505222
1259 4 0.111596 0.214435 0.548683
898 2 0.289732 0.207424 0.53216
899 4 0.305436 0.203403 0.551196
900 4 0.274027 0.211446 0.513124
791 4 0.324595 0.199882 0.549136
857 4 0.315711 0.19191 0.564522
790 2 0.341947 0.217712 0.551632
410 4 0.269257 0.220058 0.496038
792 4 0.359298 0.235541 0.554127
811 2 0.251079 0.303313 0.508947
813 4 0.249443 0.283911 0.49326
812 4 0.252715 0.322716 0.524633
650 4 0.261503 0.314524 0.540391
649 2 0.262938 0.312255 0.56525
871 2 0.371497 0.259963 0.527968
872 4 0.364318 0.25406 0.55118
1238 4 0.355228 0.249166 0.567965
873 4 0.378675 0.265866 0.504756
585 4 0.50158 0.2567 0.516548
1135 2 0.111438 0.405396 0.562627
897 4 0.149374 0.391083 0.579437
1137 4 0.130738 0.392013 0.571205
9 3 0.116269 0.362247 0.507221
1136 4 0.0921383 0.418779 0.554049
773 4 0.237674 0.392972 0.518562
1189 2 0.222643 0.407708 0.553519
895 2 0.172071 0.401484 0.5808
1190 4 0.237318 0.395192 0.537608
1191 4 0.207968 0.420224 0.569431
896 4 0.194767 0.411886 0.582163
803 4 0.247618 0.380795 0.52943
804 4 0.260656 0.333493 0.539089
802 2 0.254137 0.357144 0.534259
930 4 0.253426 0.39924 0.528317
928 2 0.275009 0.410451 0.522515
926 4 0.407692 0.407773 0.508634
925 2 0.411883 0.388376 0.523845
927 4 0.416073 0.368979 0.539056
679 2 0.0741217 0.468046 0.494771
382 2 0.11703 0.43294 0.504277
383 4 0.095507 0.441405 0.513779
681 4 0.0957525 0.459189 0.50365
569 4 0.150382 0.441719 0.493182
568 2 0.164914 0.460436 0.501163
570 4 0.179446 0.479153 0.509144
929 4 0.296592 0.421662 0.516713
1952 4 0.299609 0.484423 0.525526
1951 2 0.304336 0.459887 0.524625
1953 4 0.309064 0.435351 0.523725
663 4 0.415743 0.425933 0.506695
1000 2 0.405151 0.492467 0.550302
661 2 0.421663 0.443911 0.523032
1001 4 0.421716 0.474075 0.553839
662 4 0.427582 0.461889 0.53937
1911 4 0.435172 0.459915 0.557367
1332 4 0.439646 0.475944 0.546454
1330 2 0.458356 0.48904 0.536275
1909 2 0.435698 0.450086 0.580352
1058 4 0.196013 0.0249036 0.592127
1057 2 0.17972 0.0438692 0.592051
2375 4 0.195253 0.00550581 0.59436
2374 2 0.177979 0.990111 0.584886
950 4 0.262152 0.00547913 0.662791
949 2 0.271385 0.0263625 0.652601
951 4 0.280617 0.047246 0.642412
1031 4 0.292597 0.059754 0.633321
1030 2 0.310223 0.0714507 0.646651
3007 2 0.490229 0.0711311 0.594416
43 3 0.4316 0.072854 0.649794
808 2 0.494252 0.0799544 0.651262
45 3 0.446503 0.0416444 0.664677
3179 4 0.991839 0.147048 0.662556
1153 2 0.166748 0.10358 0.602883
1154 4 0.175242 0.125918 0.610233
1221 4 0.194502 0.130801 0.611019
1219 2 0.19551 0.153931 0.620462
1032 4 0.327849 0.0831473 0.659982
1244 4 0.0972158 0.206174 0.603268
1271 4 0.0862499 0.197428 0.589895
1209 4 0.0876264 0.186352 0.656645
1245 4 0.0955239 0.204549 0.65322
1243 2 0.0963699 0.205362 0.628244
1210 2 0.234382 0.188409 0.646998
1212 4 0.212912 0.186602 0.634311
1220 4 0.196519 0.177061 0.629905
797 4 0.174594 0.236065 0.618597
796 2 0.185241 0.215631 0.628305
798 4 0.195889 0.195197 0.638014
856 2 0.309075 0.175646 0.582316
858 4 0.302439 0.159382 0.600109
1211 4 0.255852 0.190216 0.659685
1193 4 0.402464 0.211987 0.650144
3121 2 0.483154 0.225548 0.615213
3122 4 0.494224 0.204281 0.622308
3357 4 0.488169 0.195078 0.63864
3123 4 0.472083 0.246815 0.608118
983 4 0.0467956 0.291846 0.595181
982 2 0.0496705 0.300474 0.618472
984 4 0.0525455 0.309102 0.641763
3263 4 0.0609376 0.316479 0.658143
1041 4 0.0597338 0.326822 0.641672
651 4 0.264374 0.309986 0.590109
805 2 0.300696 0.29223 0.6044
806 4 0.283031 0.307066 0.594754
807 4 0.31836 0.277394 0.614047
1239 4 0.334208 0.265358 0.610352
1237 2 0.344718 0.257262 0.589158
906 4 0.464649 0.309327 0.60324
905 4 0.479388 0.26184 0.597909
904 2 0.472018 0.285583 0.600575
952 2 0.485928 0.337421 0.589223
953 4 0.463926 0.328033 0.5965
1039 2 0.066496 0.348857 0.631983
1040 4 0.0732583 0.370893 0.622294
993 4 0.0576288 0.379198 0.611762
991 2 0.0561368 0.401683 0.600928
992 4 0.0546447 0.424168 0.590093
1068 4 0.188678 0.378262 0.672175
1028 4 0.205404 0.387467 0.66372
1027 2 0.223375 0.401421 0.653353
1206 4 0.485945 0.41582 0.620462
1160 4 0.199411 0.49652 0.588441
1172 4 0.204515 0.427478 0.587122
1171 2 0.20271 0.452416 0.586969
1029 4 0.241346 0.415376 0.642985
1173 4 0.200906 0.477353 0.586816
1187 4 0.199035 0.485189 0.604406
1186 2 0.191992 0.487306 0.628303
1175 4 0.176961 0.472212 0.658907
1188 4 0.184949 0.489423 0.652201
1268 4 0.407698 0.471925 0.653675
2168 4 0.419683 0.488385 0.655687
1267 2 0.414884 0.45624 0.635577
1204 2 0.462165 0.423549 0.620452
1910 4 0.436224 0.440258 0.603337
1269 4 0.42207 0.440556 0.617479
1205 4 0.438386 0.431277 0.620441
1284 4 0.0983166 0.0645164 0.682855
1282 2 0.11144 0.0807175 0.696656
2049 4 0.172198 0.0110905 0.739436
1201 2 0.180718 0.0492528 0.724057
1202 4 0.175529 0.0248357 0.725494
1203 4 0.185907 0.0736699 0.72262
1226 4 0.175678 0.0885843 0.730731
1148 4 0.192096 0.0836815 0.738482
1005 4 0.356027 0.051865 0.674923
1003 2 0.357126 0.0275989 0.668996
1004 4 0.358226 0.00333274 0.66307
41 1 0.441943 0.0636423 0.66841
810 4 0.481055 0.0745887 0.67181
42 3 0.427794 0.0654907 0.686453
1162 2 0.486659 0.059816 0.703468
1163 4 0.472993 0.075076 0.689131
44 3 0.461567 0.0751181 0.67306
1077 4 0.0330596 0.106578 0.740083
1075 2 0.0151116 0.101048 0.723577
1214 4 0.0315029 0.1769 0.727037
864 4 0.0509637 0.10323 0.748324
909 4 0.0976772 0.159481 0.714664
907 2 0.10558 0.135765 0.715188
908 4 0.113483 0.112049 0.715712
1283 4 0.124564 0.0969186 0.710457
1227 4 0.129824 0.107922 0.72582
1225 2 0.152751 0.0982533 0.728275
829 2 0.324511 0.144561 0.708957
830 4 0.301534 0.153896 0.712131
887 4 0.285186 0.161233 0.703817
831 4 0.347489 0.135225 0.705783
1142 4 0.360726 0.150373 0.706664
1141 2 0.379937 0.166118 0.709527
1025 4 0.455953 0.153692 0.697718
3424 2 0.469205 0.114367 0.686166
3426 4 0.472231 0.0911668 0.677348
3425 4 0.466178 0.137568 0.694983
3269 4 0.474844 0.151839 0.704715
3268 2 0.485114 0.159911 0.726035
845 4 0.451099 0.106436 0.744138
3270 4 0.495385 0.167983 0.747355
850 2 0.0621848 0.16965 0.732758
852 4 0.0397001 0.167966 0.743565
1213 2 0.0126536 0.192945 0.730566
851 4 0.0846694 0.171334 0.721952
1208 4 0.0846296 0.167343 0.702801
1207 2 0.086128 0.176847 0.679723
1107 4 0.0986687 0.178912 0.710583
1105 2 0.117105 0.189997 0.723327
1106 4 0.135542 0.201081 0.736071
1130 4 0.14686 0.210543 0.747491
888 4 0.274939 0.184419 0.66071
886 2 0.280063 0.172826 0.682264
978 4 0.293202 0.170392 0.718629
976 2 0.29322 0.189616 0.734618
977 4 0.293238 0.208839 0.750607
1194 4 0.40099 0.194298 0.696895
1192 2 0.401727 0.203142 0.67352
1143 4 0.399148 0.181864 0.712391
1262 4 0.409305 0.198755 0.714132
1024 2 0.436246 0.168862 0.700308
1026 4 0.41654 0.184032 0.702899
1261 2 0.419478 0.205059 0.736086
3262 2 0.0677975 0.312146 0.681794
3264 4 0.0746573 0.307814 0.705445
779 4 0.0805872 0.301034 0.722397
893 4 0.0683921 0.315894 0.722695
892 2 0.0693739 0.331549 0.742167
778 2 0.08511 0.278346 0.731884
780 4 0.0896329 0.255659 0.741371
1065 4 0.216555 0.300892 0.716881
1063 2 0.236441 0.294701 0.703046
947 4 0.3076 0.273853 0.718925
946 2 0.286483 0.272396 0.705616
948 4 0.265367 0.270938 0.692306
1064 4 0.256327 0.28851 0.689211
917 4 0.309536 0.26549 0.73762
1008 4 0.420702 0.279168 0.71207
1006 2 0.430877 0.279792 0.734902
1067 4 0.158656 0.386831 0.711238
940 2 0.132043 0.388218 0.74285
941 4 0.147138 0.378552 0.725417
1066 2 0.173667 0.382546 0.691707
1176 4 0.19108 0.445612 0.69883
1174 2 0.18402 0.458912 0.678868
1139 4 0.303286 0.480065 0.70154
1138 2 0.311943 0.462423 0.717
1140 4 0.3206 0.444781 0.732459
1100 4 0.401643 0.438261 0.746614
1228 2 0.357973 0.441907 0.747443
1230 4 0.382919 0.44025 0.747775
1101 4 0.445012 0.454644 0.727866
1099 2 0.423328 0.446452 0.73724
3330 4 0.46435 0.458447 0.729704
3328 2 0.485276 0.453229 0.717053
3329 4 0.506202 0.448011 0.704402
2047 2 0.151485 0.00871511 0.753239
2048 4 0.130773 0.00633974 0.767042
1113 4 0.390546 0.0703962 0.816772
2321 4 0.446007 0.01288 0.805426
2322 4 0.447886 0.0622787 0.797879
2320 2 0.446946 0.0375794 0.801653
846 4 0.451597 0.072513 0.780876
862 2 0.052349 0.113786 0.770948
863 4 0.0537342 0.124342 0.793571
833 4 0.0598876 0.116475 0.810414
1125 4 0.0648354 0.135186 0.806081
1123 2 0.0725676 0.156394 0.816834
832 2 0.052642 0.104155 0.83093
911 4 0.10293 0.108271 0.831644
1147 2 0.206541 0.0983158 0.752707
1149 4 0.220987 0.11295 0.766932
1257 4 0.237722 0.121271 0.762877
1255 2 0.241333 0.124346 0.787427
921 4 0.231045 0.138619 0.818719
919 2 0.210526 0.151717 0.824429
1256 4 0.244944 0.12742 0.811977
840 4 0.241244 0.128183 0.831376
920 4 0.190008 0.164816 0.830139
844 2 0.451348 0.0894744 0.762507
3188 4 0.00931477 0.247365 0.781025
3187 2 0.0282665 0.24489 0.797146
3189 4 0.0472182 0.242416 0.813268
1124 4 0.0802998 0.177602 0.827587
34 3 0.135294 0.190973 0.837098
1129 2 0.150697 0.219176 0.770641
1131 4 0.154534 0.227808 0.793792
822 4 0.162248 0.238806 0.807613
35 3 0.0994691 0.180481 0.832188
1277 4 0.163785 0.220163 0.810222
1276 2 0.177153 0.201982 0.820987
1278 4 0.190522 0.1838 0.831752
916 2 0.302739 0.244849 0.749987
918 4 0.295941 0.224208 0.762353
1298 4 0.30598 0.206976 0.763939
1297 2 0.300607 0.203199 0.788065
1299 4 0.295233 0.199421 0.81219
1086 4 0.308064 0.203428 0.825104
50 3 0.394699 0.204527 0.785866
46 1 0.415072 0.211109 0.793629
49 3 0.414228 0.233341 0.800218
48 3 0.421408 0.197776 0.811531
47 3 0.430646 0.208914 0.776843
1263 4 0.429651 0.211362 0.758039
1146 4 0.487754 0.181366 0.75982
1145 4 0.446595 0.209152 0.765701
1144 2 0.467174 0.195259 0.76276
1022 4 0.439131 0.187468 0.814094
3275 4 0.00833145 0.345426 0.793551
821 4 0.176917 0.284999 0.795295
820 2 0.169582 0.261902 0.801454
1096 2 0.24964 0.306331 0.831351
1235 4 0.229964 0.317479 0.798522
1098 4 0.240239 0.322397 0.814657
1043 4 0.406789 0.251166 0.800135
1042 2 0.422751 0.266506 0.788513
1044 4 0.438714 0.281845 0.776891
1007 4 0.441052 0.280416 0.757733
1165 2 0.477497 0.264465 0.773748
1166 4 0.455722 0.27595 0.769377
894 4 0.0703556 0.347203 0.761638
3276 4 0.0522093 0.345953 0.769568
3274 2 0.0302704 0.345689 0.781559
816 4 0.0636414 0.361165 0.774194
814 2 0.0823896 0.377706 0.773914
942 4 0.116948 0.397884 0.760283
815 4 0.101138 0.394247 0.773633
1234 2 0.224512 0.340058 0.789267
1080 4 0.156851 0.364798 0.809664
1078 2 0.171435 0.384864 0.812804
1236 4 0.21906 0.362637 0.780012
1079 4 0.186018 0.40493 0.815945
1018 2 0.393504 0.413182 0.776947
1020 4 0.395498 0.392342 0.790618
1016 4 0.413811 0.386264 0.796819
1015 2 0.413457 0.378573 0.820608
883 2 0.0550342 0.475885 0.7793