ITEM: TIMESTEP
2990000
ITEM: NUMBER OF ATOMS
4590
ITEM: BOX BOUNDS pp pp pp
-9.9985700000000008e+00 9.9985700000000008e+00
-9.9985700000000008e+00 9.9985700000000008e+00
-9.9985700000000008e+00 9.9985700000000008e+00
ITEM: ATOMS id type xs ys zs
465 4 0.0702606 0.0677281 0.0232956
701 4 0.0880087 0.0768911 0.0235438
700 2 0.111586 0.0686761 0.0222006
702 4 0.135163 0.0604611 0.0208573
566 4 0.155022 0.0613388 0.0171685
746 4 0.489005 0.0492938 0.0395696
2469 4 0.491767 0.0411779 0.0581648
745 2 0.477569 0.0505559 0.0173705
463 2 0.05806 0.0881635 0.0309582
464 4 0.0458594 0.108599 0.0386208
590 4 0.0391425 0.11129 0.0575952
589 2 0.0202496 0.103647 0.0720805
558 4 0.379061 0.119365 0.0382762
556 2 0.370902 0.108884 0.0594605
866 4 0.376643 0.133315 0.0250223
865 2 0.369952 0.156777 0.030495
827 4 0.367503 0.116931 0.0222139
557 4 0.362744 0.0984037 0.0806449
826 2 0.380741 0.106568 0.00370639
554 4 0.0465926 0.227227 0.0192781
553 2 0.0635367 0.211606 0.028976
555 4 0.0804808 0.195984 0.0386739
835 2 0.115664 0.203767 0.0119466
836 4 0.0962894 0.200981 0.0275042
837 4 0.135039 0.206553 0.996389
666 4 0.338406 0.237223 0.0635424
573 4 0.332224 0.256095 0.0660006
664 2 0.349402 0.216083 0.055968
665 4 0.360399 0.194944 0.0483935
867 4 0.36326 0.180239 0.0359678
1070 4 0.431778 0.237742 0.0889369
2808 4 0.0441121 0.299656 0.0131266
2806 2 0.0239926 0.296242 0.0275741
2807 4 0.00387303 0.292828 0.0420216
292 2 0.103718 0.334361 0.0805914
293 4 0.11807 0.343716 0.0623789
356 4 0.306853 0.309223 0.0539466
572 4 0.306161 0.298552 0.0703384
355 2 0.295664 0.323737 0.0369374
571 2 0.319192 0.277323 0.0681695
620 4 0.00675495 0.38028 0.0750254
507 4 0.12757 0.351806 0.046118
505 2 0.139495 0.373664 0.0438342
483 4 0.154059 0.412257 0.0306567
506 4 0.15142 0.395522 0.0415503
481 2 0.178921 0.412588 0.0332932
609 4 0.218112 0.414484 0.0235065
626 4 0.192784 0.41248 0.0848063
357 4 0.284474 0.338251 0.0199282
902 4 0.273046 0.351579 0.00833508
957 4 0.389097 0.419542 0.0124202
671 4 0.491941 0.371414 0.0607212
670 2 0.474208 0.36433 0.0768625
281 4 0.500837 0.387237 0.053442
280 2 0.493841 0.411083 0.0561981
550 2 0.0691228 0.442639 0.0742964
551 4 0.0520864 0.424937 0.0789403
552 4 0.0861591 0.460341 0.0696526
1787 4 0.0870269 0.475588 0.0573358
1786 2 0.0921937 0.477912 0.0329824
1788 4 0.0973605 0.480235 0.00862912
242 4 0.100014 0.474103 0.0720297
482 4 0.203783 0.41292 0.0359297
246 4 0.236301 0.486954 0.0278149
244 2 0.234882 0.475707 0.0501014
245 4 0.233463 0.464461 0.0723879
272 4 0.246042 0.480357 0.013109
627 4 0.216803 0.456145 0.0806676
625 2 0.204793 0.434312 0.0827369
607 2 0.241154 0.421847 0.0298347
1778 4 0.250353 0.498379 0.0193382
608 4 0.264196 0.429209 0.036163
252 4 0.281885 0.4357 0.035364
250 2 0.30205 0.448439 0.0278617
251 4 0.322215 0.461178 0.0203593
2289 4 0.331234 0.47876 0.018124
525 4 0.4419 0.488491 0.0804163
226 2 0.46761 0.472704 0.0645258
227 4 0.484573 0.454345 0.0651356
228 4 0.450646 0.491062 0.063916
282 4 0.486844 0.434929 0.0589542
16 1 0.0659108 0.0395644 0.140625
20 3 0.0656617 0.0509107 0.12088
18 3 0.0572813 0.0182373 0.13761
19 3 0.0534139 0.0509973 0.156484
1806 4 0.062537 0.0120316 0.118822
17 3 0.0875994 0.0378238 0.14809
675 4 0.0876586 0.0540448 0.159385
448 2 0.167012 0.0854695 0.167049
673 2 0.112534 0.0553043 0.161573
652 2 0.326674 0.0282725 0.149721
653 4 0.332607 0.0520731 0.144872
654 4 0.320741 0.00447193 0.154571
484 2 0.369588 0.0110051 0.111729
297 4 0.372449 0.0511198 0.126776
485 4 0.375316 0.035114 0.115066
295 2 0.373695 0.0702668 0.110744
579 4 0.11532 0.141162 0.0784218
237 4 0.145093 0.157918 0.136335
578 4 0.131702 0.157391 0.122795
577 2 0.123511 0.149276 0.100608
235 2 0.156933 0.137178 0.143741
737 4 0.147739 0.168373 0.120715
236 4 0.168772 0.116438 0.151148
693 4 0.185572 0.12456 0.158665
449 4 0.179691 0.106834 0.164223
691 2 0.208093 0.118579 0.149599
692 4 0.230614 0.112597 0.140532
582 4 0.251467 0.107616 0.138813
580 2 0.274747 0.109558 0.147727
581 4 0.298027 0.111501 0.156642
29 3 0.31882 0.15861 0.170033
296 4 0.374941 0.0894139 0.0947126
771 4 0.422341 0.144965 0.0924097
769 2 0.43216 0.161264 0.10863
770 4 0.441979 0.177564 0.12485
476 4 0.133277 0.173665 0.133058
475 2 0.127417 0.187542 0.153014
736 2 0.167329 0.182108 0.113452
738 4 0.18692 0.195843 0.10619
461 4 0.325839 0.241573 0.0773465
354 4 0.317801 0.235852 0.139746
283 2 0.324507 0.19656 0.149247
285 4 0.323946 0.173234 0.158234
284 4 0.325067 0.219886 0.140261
462 4 0.327331 0.230521 0.126094
460 2 0.326585 0.236047 0.10172
255 4 0.335743 0.233815 0.14089
352 2 0.297075 0.247578 0.147371
353 4 0.27635 0.259304 0.154997
253 2 0.355095 0.2427 0.153995
1014 4 0.450706 0.185269 0.109137
1013 4 0.467139 0.232382 0.112463
1012 2 0.458922 0.208826 0.1108
456 4 0.0523475 0.340458 0.121405
455 4 0.0598431 0.327906 0.169228
454 2 0.0560953 0.334182 0.145317
749 4 0.0411204 0.328649 0.17715
294 4 0.089367 0.325006 0.098804
610 2 0.225479 0.326721 0.127736
612 4 0.232909 0.302896 0.126211
756 4 0.227689 0.284395 0.128663
754 2 0.242508 0.269687 0.142419
755 4 0.257328 0.254978 0.156175
1069 2 0.434085 0.262534 0.0912134
322 2 0.457462 0.315626 0.100607
1071 4 0.436391 0.287327 0.0934899
324 4 0.451394 0.292036 0.106251
647 4 0.014897 0.362073 0.0787024
646 2 0.0339079 0.349863 0.0894116
648 4 0.0529188 0.337653 0.100121
536 4 0.193183 0.391863 0.0842126
611 4 0.218049 0.350547 0.129262
535 2 0.198422 0.378336 0.104578
537 4 0.203661 0.364809 0.124943
387 4 0.332824 0.416508 0.13503
739 2 0.394524 0.378345 0.113993
740 4 0.388558 0.385495 0.137198
385 2 0.354362 0.405602 0.141538
386 4 0.3759 0.394696 0.148046
495 4 0.394504 0.399675 0.150356
15 3 0.378053 0.374956 0.149105
741 4 0.400491 0.371195 0.0907884
11 1 0.390373 0.37539 0.168254
12 3 0.40435 0.357125 0.168687
672 4 0.456475 0.357246 0.0930037
323 4 0.463531 0.339216 0.0949628
241 2 0.113704 0.472701 0.092905
243 4 0.127395 0.4713 0.11378
1440 4 0.145148 0.476633 0.10572
1438 2 0.16891 0.479935 0.112766
1439 4 0.192673 0.483236 0.119812
639 4 0.20824 0.490339 0.108956
303 4 0.305476 0.472084 0.110692
768 4 0.304505 0.491311 0.108336
301 2 0.320421 0.454021 0.119385
302 4 0.335366 0.435959 0.128078
493 2 0.406526 0.421126 0.14583
660 4 0.408698 0.45914 0.14937
494 4 0.418548 0.442578 0.141305
524 4 0.421265 0.493802 0.125657
523 2 0.431582 0.491146 0.103037
658 2 0.421317 0.476022 0.162821
380 4 0.0689217 0.0580455 0.167534
379 2 0.0641308 0.0800824 0.178332
450 4 0.154333 0.0641048 0.169874
1505 4 0.146325 0.0483368 0.178536
674 4 0.13741 0.0565638 0.163761
1504 2 0.159976 0.0306209 0.189716
1506 4 0.173627 0.0129051 0.200895
1661 4 0.300611 0.000245282 0.154671
23 3 0.403172 0.00270099 0.229543
22 3 0.429275 0.00402542 0.202534
757 2 0.470652 0.0338098 0.215384
25 3 0.438554 0.0127281 0.237621
759 4 0.45065 0.0243663 0.227043
758 4 0.490653 0.0432532 0.203724
350 4 0.448774 0.0275896 0.245924
512 4 0.047959 0.116961 0.183245
381 4 0.0593399 0.102119 0.18913
511 2 0.0638389 0.133494 0.193228
513 4 0.0797188 0.150027 0.203212
30 3 0.297421 0.127773 0.167069
26 1 0.316344 0.136416 0.176335
28 3 0.315279 0.134819 0.199459
27 3 0.334554 0.124496 0.168888
339 4 0.0760253 0.169419 0.207877
337 2 0.0918413 0.185651 0.197314
477 4 0.121556 0.20142 0.17297
363 4 0.119294 0.217273 0.183092
338 4 0.107657 0.201882 0.186752
362 4 0.152783 0.237362 0.214328
361 2 0.136039 0.227318 0.19871
372 4 0.142887 0.240579 0.230962
277 2 0.259234 0.258616 0.193889
279 4 0.252777 0.252363 0.217221
628 2 0.395757 0.216507 0.178095
629 4 0.405773 0.193599 0.178429
630 4 0.385742 0.239415 0.177761
312 4 0.425527 0.189568 0.18349
311 4 0.470389 0.170909 0.19532
310 2 0.447958 0.180238 0.189405
761 4 0.47975 0.223756 0.239278
750 4 0.0392893 0.287596 0.205646
395 4 0.0437257 0.287677 0.225069
748 2 0.0402049 0.308122 0.191398
394 2 0.0367271 0.282816 0.248576
300 4 0.113433 0.315742 0.181267
298 2 0.113208 0.326886 0.203649
370 2 0.152578 0.244624 0.253654
278 4 0.265691 0.264869 0.170557
401 4 0.281677 0.306661 0.235408
498 4 0.285346 0.325533 0.229124
496 2 0.299523 0.331621 0.209448
497 4 0.313701 0.337709 0.189773
254 4 0.374447 0.251586 0.167099
765 4 0.387564 0.25913 0.179016
763 2 0.4054 0.272468 0.19038
308 4 0.331276 0.330739 0.19752
528 4 0.488577 0.316355 0.188031
764 4 0.423237 0.285806 0.201743
624 4 0.475511 0.313329 0.203161
622 2 0.451067 0.308683 0.205629
623 4 0.426623 0.304038 0.208098
262 2 0.0606569 0.411432 0.210248
263 4 0.0854535 0.409296 0.207853
264 4 0.0358602 0.413569 0.212644
299 4 0.112982 0.338031 0.22603
734 4 0.126775 0.342421 0.238437
602 4 0.0918195 0.399448 0.223161
601 2 0.103211 0.377738 0.228069
603 4 0.114602 0.356028 0.232977
290 4 0.162258 0.391764 0.212616
307 2 0.350719 0.343951 0.188999
309 4 0.370162 0.357162 0.180479
14 3 0.403231 0.394692 0.16896
13 3 0.376343 0.374538 0.186716
2617 2 0.00205551 0.425045 0.236227
2618 4 0.0237491 0.426126 0.223842
291 4 0.17806 0.439125 0.209794
416 4 0.16985 0.456064 0.206504
289 2 0.170159 0.415445 0.211205
415 2 0.180945 0.478336 0.204051
1430 4 0.21139 0.493053 0.198225
417 4 0.192041 0.500608 0.201599
597 4 0.485623 0.460829 0.200533
596 4 0.446573 0.490633 0.191179
659 4 0.433936 0.492904 0.176272
595 2 0.466098 0.475731 0.195856
645 4 0.49848 0.458246 0.184213
1799 4 0.00992663 0.0138583 0.293307
233 4 0.00839116 0.033303 0.288218
1402 2 0.0456152 0.0331955 0.308441
1403 4 0.0234038 0.0268714 0.298858
1404 4 0.0678265 0.0395196 0.318024
1798 2 0.999277 0.00258315 0.312919
632 4 0.419304 0.0466987 0.260767
633 4 0.378881 0.0319858 0.286266
631 2 0.399092 0.0393422 0.273517
257 4 0.364732 0.0387742 0.297334
698 4 0.367011 0.0194006 0.293915
697 2 0.365426 0.99961 0.309113
256 2 0.36124 0.0539633 0.316886
349 2 0.453072 0.0287256 0.270529
744 4 0.459328 0.0138545 0.30731
742 2 0.480389 0.0145573 0.320769
351 4 0.457371 0.0298616 0.295134
398 4 0.0737277 0.140095 0.318063
390 4 0.074276 0.159645 0.321158
393 4 0.0762495 0.152029 0.303
392 4 0.117989 0.154599 0.275579
391 2 0.0971193 0.153314 0.28929
521 4 0.494789 0.1286 0.250643
444 4 0.0157989 0.232013 0.310184
388 2 0.0726222 0.180288 0.33517
545 4 0.127566 0.171601 0.270986
544 2 0.151285 0.176458 0.277229
403 2 0.189773 0.166326 0.317803
546 4 0.175005 0.181314 0.283472
723 4 0.223003 0.222868 0.261813
721 2 0.2078 0.205158 0.270778
405 4 0.188959 0.180544 0.297252
722 4 0.192597 0.187447 0.279744
376 2 0.308454 0.22798 0.328648
378 4 0.298955 0.250761 0.324652
377 4 0.317954 0.2052 0.332644
707 4 0.328066 0.188219 0.3375
420 4 0.38996 0.22158 0.271184
717 4 0.389402 0.230774 0.28903
418 2 0.41113 0.209289 0.276279
331 2 0.452204 0.20332 0.315423
332 4 0.448313 0.202092 0.290754
419 4 0.4323 0.196999 0.281374
760 2 0.46431 0.212242 0.255221
762 4 0.448869 0.200728 0.271164
442 2 0.0205504 0.254677 0.300752
364 2 0.0149668 0.309495 0.296108
396 4 0.0297284 0.277955 0.272083
443 4 0.0253018 0.27734 0.29132
365 4 0.0176237 0.291256 0.279213
735 4 0.147374 0.320412 0.278337
733 2 0.137074 0.331416 0.258387
677 4 0.167462 0.315972 0.276714
371 4 0.162269 0.248669 0.276345
676 2 0.184139 0.319453 0.295015
508 2 0.238889 0.310292 0.3007
509 4 0.21773 0.313429 0.313648
678 4 0.200816 0.322933 0.313317
510 4 0.260048 0.307156 0.287752
400 2 0.268994 0.299161 0.255608
402 4 0.25631 0.291661 0.275809
345 4 0.266048 0.289216 0.292911
343 2 0.285984 0.278971 0.303992
344 4 0.30592 0.268726 0.315073
715 2 0.382575 0.254823 0.289507
716 4 0.375747 0.278871 0.289985
542 4 0.361969 0.29077 0.298757
541 2 0.375343 0.310995 0.304863
615 4 0.397282 0.329245 0.32881
751 2 0.485867 0.316079 0.322046
753 4 0.480047 0.318097 0.297814
366 4 0.0123099 0.327735 0.313003
548 4 0.02181 0.344637 0.316821
547 2 0.0325067 0.366988 0.320171
549 4 0.0432035 0.389338 0.323521
777 4 0.0426131 0.409837 0.32286
407 4 0.0151033 0.334 0.331144
435 4 0.215889 0.330139 0.323209
543 4 0.388716 0.33122 0.31097
728 4 0.371115 0.378358 0.305033
727 2 0.363054 0.40174 0.308701
2538 4 0.486679 0.335192 0.289593
2536 2 0.498043 0.356791 0.284159
1543 2 0.143433 0.474963 0.31232
1545 4 0.152271 0.468718 0.289779
1436 4 0.166069 0.484138 0.293069
729 4 0.354994 0.425123 0.312369
437 4 0.36604 0.44166 0.319527
730 2 0.0767309 0.0669378 0.353817
1772 4 0.0119161 0.0270117 0.387041
2238 4 0.016015 0.0478197 0.386456
2236 2 0.0218918 0.0549375 0.409694
1782 4 0.113393 0.00920454 0.422942
368 4 0.0993903 0.0204632 0.413
732 4 0.0939686 0.049034 0.35108
369 4 0.0940193 0.0457248 0.370178
367 2 0.0967048 0.033094 0.391589
606 4 0.164386 0.00217961 0.38985
604 2 0.170242 0.0219251 0.404027
1701 4 0.183655 0.0601842 0.416876
1699 2 0.18559 0.074757 0.396651
424 2 0.381567 0.0588036 0.37158
425 4 0.397465 0.0487388 0.388046
1580 4 0.406272 0.0304962 0.386218
426 4 0.365669 0.0688684 0.355113
258 4 0.357748 0.0691523 0.336438
1579 2 0.396056 0.0108235 0.397785
743 4 0.50145 0.0152601 0.334227
478 2 0.493976 0.0398246 0.369889
480 4 0.486756 0.0536094 0.38946
479 4 0.501196 0.0260398 0.350318
458 4 0.996692 0.134311 0.380814
397 2 0.0661776 0.120616 0.331802
399 4 0.0586274 0.101137 0.34554
318 4 0.00152261 0.117208 0.371485
317 4 0.046929 0.099383 0.360474
731 4 0.0594932 0.0848416 0.356554
316 2 0.0242258 0.108296 0.36598
404 4 0.190587 0.152108 0.338355
249 4 0.182324 0.133424 0.342421
247 2 0.188305 0.11023 0.349593
248 4 0.194285 0.0870361 0.356766
1700 4 0.187526 0.0893297 0.376425
320 4 0.313888 0.120462 0.418859
319 2 0.325142 0.125331 0.397068
321 4 0.336395 0.1302 0.375277
708 4 0.330207 0.145423 0.36328
706 2 0.329136 0.166821 0.35039
516 4 0.456096 0.150466 0.379133
575 4 0.473833 0.140835 0.379765
574 2 0.467035 0.1288 0.4006
389 4 0.0709683 0.20093 0.349181
600 4 0.266814 0.170754 0.42084
489 4 0.303078 0.249307 0.414427
466 2 0.352672 0.244895 0.383026
467 4 0.345698 0.229656 0.364471
451 2 0.499509 0.210113 0.340313
333 4 0.456096 0.204548 0.340091
453 4 0.475993 0.201616 0.340401
515 4 0.464295 0.18856 0.34779
514 2 0.460196 0.169513 0.363462
406 2 0.0167785 0.317762 0.350083
408 4 0.0184538 0.301523 0.369022
347 4 0.0830805 0.333272 0.3841
275 4 0.141119 0.331611 0.362377
274 2 0.154489 0.310962 0.366853
617 4 0.130252 0.340012 0.346362
276 4 0.167858 0.290312 0.37133
373 2 0.197929 0.272844 0.390818
375 4 0.188562 0.285806 0.371598
374 4 0.207296 0.259882 0.410039
433 2 0.202812 0.328322 0.344443
434 4 0.189735 0.326505 0.365676
266 4 0.318818 0.306726 0.431029
267 4 0.35362 0.276166 0.41217
468 4 0.359647 0.260135 0.401581
265 2 0.336219 0.291446 0.421599
752 4 0.491688 0.31406 0.346279
613 2 0.413754 0.322617 0.346414
614 4 0.430226 0.315989 0.364019
346 2 0.063748 0.338694 0.399
348 4 0.0444155 0.344116 0.413901
618 4 0.0834998 0.340076 0.364108
616 2 0.106876 0.340044 0.355235
504 4 0.277983 0.409606 0.399639
240 4 0.392239 0.392517 0.405354
335 4 0.374938 0.402346 0.408925
334 2 0.356304 0.418407 0.404452
775 2 0.0503862 0.429683 0.335933
776 4 0.0581593 0.449529 0.349006
414 4 0.0751865 0.453872 0.358295
1544 4 0.134594 0.481208 0.33486
413 4 0.115162 0.476771 0.338846
412 2 0.0951745 0.465322 0.34857
500 4 0.121005 0.494638 0.334638
502 2 0.300913 0.417813 0.4053
503 4 0.323843 0.426019 0.410962
436 2 0.367418 0.458997 0.337491
438 4 0.368797 0.476334 0.355455
336 4 0.337671 0.434468 0.399978
592 2 0.393101 0.504903 0.3681
593 4 0.378057 0.494171 0.351257
3990 4 0.480474 0.484905 0.362785
1127 4 0.0158593 0.0540274 0.444575
2237 4 0.0277686 0.0620552 0.432931
720 4 0.0259694 0.070591 0.450052
1126 2 0.00529068 0.0439628 0.464878
605 4 0.176098 0.0416706 0.418204
341 4 0.190798 0.0303797 0.50321
2428 2 0.222317 0.0201384 0.484821
2430 4 0.197785 0.0249568 0.48519
2429 4 0.246849 0.0153201 0.484452
962 4 0.25884 0.0013108 0.491869
961 2 0.280827 0.0112788 0.498379
724 2 0.306698 0.0633982 0.492672
963 4 0.302814 0.0212469 0.504888
726 4 0.312904 0.0867281 0.486162
2879 4 0.407172 0.0187808 0.474827
642 4 0.455805 0.0571515 0.457224
2878 2 0.429201 0.0288629 0.468641
2880 4 0.451229 0.038945 0.462454
469 2 0.00494627 0.139757 0.479544
470 4 0.0239309 0.124339 0.474343
718 2 0.0325665 0.0937197 0.456887
719 4 0.0391636 0.116848 0.463722
939 4 0.0945394 0.14324 0.484593
1033 2 0.127494 0.138386 0.465146
1035 4 0.152305 0.135517 0.463971
1034 4 0.102684 0.141255 0.466321
261 4 0.167097 0.147927 0.463908
684 4 0.299184 0.119917 0.431318
682 2 0.280422 0.135971 0.42739
683 4 0.26166 0.152025 0.423462
1181 4 0.317482 0.125122 0.437358
1182 4 0.325076 0.0897495 0.471881
1180 2 0.321279 0.107436 0.45462
576 4 0.460236 0.116765 0.421436
640 2 0.458211 0.0785727 0.444554
641 4 0.460617 0.0999939 0.431885
306 4 0.465658 0.116718 0.440088
304 2 0.45693 0.130774 0.458834
3158 4 0.447093 0.150615 0.496524
305 4 0.448201 0.144831 0.47758
694 2 0.177054 0.221199 0.493315
259 2 0.172413 0.172359 0.464106
695 4 0.186949 0.212537 0.472049
260 4 0.17773 0.19679 0.464305
472 2 0.231913 0.251857 0.42934
687 4 0.238293 0.218945 0.447269
686 4 0.196836 0.197591 0.465323
685 2 0.217564 0.208268 0.456296
474 4 0.244732 0.231846 0.437114
599 4 0.251589 0.215668 0.436703
411 4 0.254208 0.225912 0.450577
598 2 0.259201 0.193211 0.428772
409 2 0.263687 0.228357 0.473585
488 4 0.261849 0.230013 0.43513
487 2 0.282464 0.23966 0.424778
410 4 0.273166 0.230802 0.496593
696 4 0.16716 0.229861 0.514581
473 4 0.219093 0.271867 0.421567
2812 2 0.0195944 0.331201 0.438802
2813 4 0.0417196 0.341604 0.433564
326 4 0.0521026 0.356717 0.426638
325 2 0.0680016 0.367194 0.442844
327 4 0.0839006 0.377671 0.459049
7 3 0.0835283 0.383136 0.476981
6 1 0.10356 0.380571 0.487995
8 3 0.109083 0.400622 0.498285
709 2 0.14636 0.414752 0.497971
10 3 0.119695 0.374839 0.472981
711 4 0.12463 0.408887 0.508858
9 3 0.101273 0.363858 0.503928
774 4 0.184662 0.410875 0.491611
813 4 0.289751 0.345379 0.482601
811 2 0.274926 0.344019 0.50269
238 2 0.405657 0.405971 0.421605
679 2 0.0640715 0.465846 0.487983
680 4 0.0627871 0.482371 0.469263
1383 4 0.0525234 0.497657 0.464129
710 4 0.168091 0.420618 0.487083
635 4 0.184927 0.430136 0.48679
636 4 0.183619 0.452647 0.442154
634 2 0.184273 0.441392 0.464472
4 3 0.330559 0.498944 0.457272
586 2 0.408852 0.438585 0.46496
588 4 0.406035 0.436823 0.440178
669 4 0.333486 0.441662 0.417484
667 2 0.330695 0.460812 0.433317
668 4 0.327904 0.479962 0.449149
587 4 0.411669 0.440346 0.489742
239 4 0.419075 0.419426 0.437857
1184 4 0.0226981 0.0092775 0.561222
3077 4 0.0255638 0.0107261 0.541229
3076 2 0.0122004 0.0177232 0.521288
1152 4 0.136113 0.0626745 0.520362
1150 2 0.134583 0.0683258 0.54467
1151 4 0.133054 0.0739772 0.568979
342 4 0.155909 0.0633542 0.517215
340 2 0.173353 0.0468669 0.510213
430 2 0.330702 0.0233881 0.524902
725 4 0.300492 0.0400683 0.499182
432 4 0.313342 0.036234 0.5123
841 2 0.378585 0.0273102 0.56092
842 4 0.397411 0.0416244 0.569035
1217 4 0.416041 0.0375284 0.566591
843 4 0.359759 0.012996 0.552804
431 4 0.348061 0.0105423 0.537504
1216 2 0.43099 0.0190241 0.558891
1218 4 0.44594 0.000519792 0.551192
879 4 0.0481038 0.169026 0.520843
877 2 0.0298661 0.154314 0.529568
878 4 0.0116283 0.139603 0.538293
938 4 0.0676251 0.166515 0.51973
1199 4 0.00166219 0.154526 0.548061
937 2 0.0810822 0.154878 0.502162
1155 4 0.140909 0.0911683 0.570527
1154 4 0.153412 0.139579 0.571395
1153 2 0.14716 0.115374 0.570961
3159 4 0.468412 0.124125 0.533192
3157 2 0.457752 0.13737 0.514858
1062 4 0.463643 0.104205 0.531201
1060 2 0.482416 0.087861 0.528827
1272 4 0.059954 0.174716 0.53558
1270 2 0.0769941 0.182032 0.552351
1271 4 0.0940342 0.189349 0.569123
1258 2 0.159062 0.234246 0.54919
1259 4 0.157934 0.223963 0.571954
1260 4 0.16019 0.244529 0.526427
898 2 0.296936 0.231533 0.528125
899 4 0.307294 0.221775 0.548684
857 4 0.311726 0.210028 0.56356
791 4 0.321555 0.226759 0.560969
900 4 0.286578 0.24129 0.507566
856 2 0.308958 0.193273 0.581911
790 2 0.342065 0.241046 0.560315
651 4 0.294004 0.337104 0.577317
792 4 0.362575 0.255332 0.559661
872 4 0.371742 0.266242 0.546923
1238 4 0.374367 0.270411 0.565265
871 2 0.384176 0.274046 0.526683
873 4 0.396609 0.28185 0.506442
1237 2 0.364902 0.28805 0.580247
1135 2 0.113298 0.356017 0.577106
1136 4 0.105101 0.333293 0.583555
384 4 0.118178 0.427141 0.515289
1137 4 0.121494 0.378742 0.570657
897 4 0.138406 0.391088 0.568938
773 4 0.223295 0.411997 0.523343
1189 2 0.209253 0.411496 0.565178
1190 4 0.220546 0.412148 0.54288
803 4 0.223457 0.395373 0.53384
802 2 0.234545 0.372975 0.5331
804 4 0.245634 0.350577 0.53236
930 4 0.237949 0.408258 0.5354
772 2 0.203979 0.411436 0.507477
649 2 0.279143 0.343947 0.55841
650 4 0.264281 0.35079 0.539502
812 4 0.260102 0.34266 0.522779
925 2 0.419651 0.398645 0.501618
927 4 0.427151 0.375211 0.506061
539 4 0.078475 0.487648 0.517161
383 4 0.0683897 0.430262 0.511812
681 4 0.065356 0.44932 0.506702
382 2 0.0932839 0.428701 0.513551
569 4 0.132915 0.42791 0.528094
568 2 0.145493 0.444368 0.542099
570 4 0.15807 0.460825 0.556104
928 2 0.258648 0.421667 0.531284
929 4 0.279346 0.435076 0.527168
1951 2 0.293372 0.47599 0.524281
1953 4 0.280291 0.454744 0.522658
1952 4 0.306454 0.497237 0.525904
926 4 0.412151 0.42208 0.497174
663 4 0.406047 0.437015 0.50861
661 2 0.413735 0.452546 0.526634
1001 4 0.420692 0.484827 0.554684
662 4 0.421423 0.468077 0.544658
1911 4 0.429697 0.469156 0.562734
1332 4 0.437166 0.4786 0.547757
1909 2 0.432898 0.459951 0.58576
1059 4 0.136555 0.0812448 0.586903
2374 2 0.140654 0.00665311 0.607351
2375 4 0.144794 0.0305786 0.601384
1057 2 0.143963 0.0620963 0.601173
1058 4 0.15137 0.0429478 0.615444
950 4 0.251691 0.02418 0.605541
2400 4 0.314794 0.0123167 0.646297
949 2 0.267842 0.0360491 0.620489
951 4 0.283992 0.0479183 0.635438
1031 4 0.283087 0.0667107 0.644612
1030 2 0.300623 0.0585339 0.66045
808 2 0.497261 0.0895495 0.639001
43 3 0.464085 0.0508169 0.64569
810 4 0.489619 0.0808135 0.661148
1221 4 0.162574 0.148701 0.586385
1219 2 0.184563 0.155325 0.596272
888 4 0.25808 0.158497 0.655206
809 4 0.504902 0.0982854 0.616855
3250 2 0.503039 0.134815 0.605855
3251 4 0.501135 0.159347 0.6103
3252 4 0.504943 0.110284 0.601409
1244 4 0.110774 0.194195 0.578864
1245 4 0.107958 0.18053 0.626885
1243 2 0.109366 0.187362 0.602874
1209 4 0.102149 0.167543 0.641909
1210 2 0.235141 0.174771 0.635849
1212 4 0.216444 0.172855 0.61936
1220 4 0.206553 0.161949 0.60616
797 4 0.201528 0.230721 0.599012
796 2 0.204949 0.206057 0.601286
798 4 0.20837 0.181394 0.60356
1211 4 0.253839 0.176687 0.652339
858 4 0.306189 0.176517 0.600262
3121 2 0.485215 0.215993 0.627396
3122 4 0.495534 0.194443 0.620029
3357 4 0.502888 0.175749 0.623286
3123 4 0.474895 0.237544 0.634762
983 4 0.996783 0.327966 0.633426
982 2 0.019523 0.333767 0.642052
3263 4 0.0553992 0.32987 0.661818
984 4 0.0422631 0.339568 0.650679
807 4 0.336184 0.306688 0.586418
806 4 0.29583 0.334229 0.597082
805 2 0.316007 0.320458 0.59175
1239 4 0.355438 0.305689 0.59523
906 4 0.4523 0.290479 0.59809
905 4 0.46535 0.248431 0.621803
904 2 0.458825 0.269455 0.609946
953 4 0.457673 0.306249 0.609126
952 2 0.47468 0.323438 0.602764
1041 4 0.0616342 0.342081 0.648244
1039 2 0.0694013 0.365313 0.643231
1040 4 0.0771684 0.388545 0.638218
993 4 0.0709206 0.400144 0.623948
895 2 0.15897 0.398776 0.580905
896 4 0.179533 0.406465 0.592873
1028 4 0.189505 0.390004 0.650727
1027 2 0.190935 0.401135 0.628383
1029 4 0.192364 0.412265 0.60604
954 4 0.491687 0.340627 0.596402
1206 4 0.487287 0.410433 0.624054
3309 4 0.502096 0.397072 0.625136
3307 2 0.501459 0.377493 0.609598
3308 4 0.500822 0.357914 0.59406
991 2 0.0639258 0.42352 0.618488
992 4 0.056931 0.446896 0.613027
1191 4 0.197959 0.410844 0.587476
1172 4 0.185895 0.42449 0.593321
1160 4 0.186045 0.491023 0.611247
1171 2 0.188659 0.448074 0.601153
1173 4 0.191422 0.471658 0.608985
1187 4 0.193454 0.48113 0.625839
1186 2 0.185567 0.483875 0.649407
1268 4 0.447609 0.492593 0.651472
1267 2 0.441238 0.471707 0.639291
1204 2 0.466107 0.423484 0.621546
1910 4 0.4361 0.450746 0.608786
1269 4 0.434867 0.450822 0.62711
1205 4 0.444928 0.436535 0.619039
2168 4 0.462875 0.497741 0.638113
1284 4 0.11118 0.0442814 0.729316
1282 2 0.121364 0.0637493 0.71738
2047 2 0.1507 0.0141124 0.745748
1283 4 0.131548 0.0832172 0.705444
2049 4 0.173577 0.0123669 0.73581
1225 2 0.169295 0.0815658 0.700041
1201 2 0.195111 0.0330244 0.718273
1202 4 0.190356 0.00959968 0.725611
1203 4 0.199865 0.0564491 0.710934
1226 4 0.191086 0.069378 0.6987
1148 4 0.210028 0.0717609 0.703659
1147 2 0.221613 0.0829282 0.722797
2256 4 0.186009 0.998194 0.740098
1032 4 0.318158 0.050357 0.676287
45 3 0.475721 0.0315649 0.675882
41 1 0.467635 0.0515734 0.668607
1163 4 0.499601 0.0779264 0.677899
44 3 0.482635 0.0685146 0.673744
42 3 0.447628 0.0559239 0.679092
1077 4 0.025743 0.13721 0.728302
1075 2 0.00547325 0.123159 0.724193
864 4 0.0404692 0.128248 0.741021
850 2 0.0705057 0.166782 0.716361
909 4 0.104214 0.145184 0.70312
907 2 0.117961 0.124312 0.703868
908 4 0.131707 0.103439 0.704617
1227 4 0.147504 0.0937536 0.701381
851 4 0.093643 0.160459 0.7093
1208 4 0.101595 0.159419 0.691248
1107 4 0.112769 0.162163 0.706582
1207 2 0.101872 0.163481 0.666579
829 2 0.323963 0.156039 0.698042
830 4 0.301439 0.162199 0.706982
886 2 0.273344 0.16344 0.674383
831 4 0.346486 0.14988 0.689101
1142 4 0.3626 0.143742 0.700752
1141 2 0.382962 0.157352 0.705786
3426 4 0.482576 0.0874163 0.678128
1025 4 0.460771 0.132379 0.708243
3424 2 0.479725 0.11049 0.687328
3425 4 0.476873 0.133564 0.696528
3269 4 0.478632 0.130186 0.715732
1024 2 0.440534 0.147018 0.707095
3268 2 0.485661 0.139489 0.737851
1026 4 0.420297 0.161658 0.705947
845 4 0.447884 0.105131 0.734209
852 4 0.0473684 0.173106 0.723422
1214 4 0.0355419 0.181227 0.709328
1213 2 0.0164128 0.195708 0.716368
1105 2 0.124404 0.173522 0.725576
1106 4 0.13604 0.184881 0.74457
1130 4 0.150901 0.198178 0.741641
887 4 0.288609 0.168382 0.693559
978 4 0.291666 0.178975 0.709609
976 2 0.296799 0.192031 0.730307
916 2 0.315521 0.239325 0.751979
1143 4 0.403324 0.170963 0.710819
1262 4 0.419811 0.176188 0.719145
1192 2 0.418711 0.198969 0.684029
1194 4 0.416156 0.17985 0.699938
1193 4 0.421267 0.218088 0.66812
1261 2 0.426888 0.186385 0.74085
3262 2 0.0661556 0.321309 0.682703
3264 4 0.076912 0.312748 0.703588
893 4 0.0770224 0.30834 0.722513
779 4 0.0895097 0.299862 0.710522
778 2 0.114278 0.29753 0.713025
780 4 0.139047 0.295198 0.715529
1065 4 0.233299 0.315855 0.688458
1064 4 0.280459 0.319815 0.704614
1063 2 0.256879 0.317835 0.696536
947 4 0.31372 0.273611 0.745402
946 2 0.302527 0.290634 0.730906
948 4 0.291334 0.307657 0.716411
917 4 0.325473 0.259257 0.740628
1008 4 0.443274 0.295134 0.717586
1006 2 0.452734 0.275897 0.730457
1007 4 0.462194 0.256661 0.743327
892 2 0.0724751 0.326784 0.738771
941 4 0.155036 0.402087 0.728148
1067 4 0.16784 0.397377 0.713892
1066 2 0.176957 0.390802 0.691557
1068 4 0.186074 0.384228 0.669223
884 4 0.0452688 0.479806 0.744464
1176 4 0.120289 0.484734 0.70393
1174 2 0.140695 0.491182 0.691
1175 4 0.161101 0.497631 0.67807
1188 4 0.17768 0.48662 0.672974
1139 4 0.326514 0.482453 0.67989
1138 2 0.326215 0.462681 0.695192
1140 4 0.325917 0.442909 0.710494
1989 4 0.317969 0.445507 0.727744
1229 4 0.328511 0.429367 0.724253
1019 4 0.387311 0.41503 0.739277
1230 4 0.376591 0.415631 0.723677
1100 4 0.394421 0.423979 0.723941
1228 2 0.352551 0.422499 0.723965
1099 2 0.413389 0.440261 0.723431
1101 4 0.432358 0.456543 0.722921
3330 4 0.449328 0.46555 0.718503
3328 2 0.468164 0.458084 0.703853
1251 4 0.444082 0.46277 0.737152
3329 4 0.487001 0.450617 0.689204
1249 2 0.437842 0.485673 0.745008
834 4 0.0374606 0.0664204 0.814348
785 4 0.0197012 0.0760493 0.817768
2048 4 0.127823 0.015858 0.755686
2390 4 0.110961 0.00882039 0.76532
844 2 0.445168 0.0890986 0.753203
2321 4 0.449248 0.0133731 0.798871
2322 4 0.45254 0.0610371 0.784106
2320 2 0.450894 0.0372051 0.791489
846 4 0.442453 0.0730658 0.772196
980 4 0.436602 0.0103834 0.812865
832 2 0.0502305 0.0860632 0.805615
862 2 0.0499858 0.125419 0.763969
863 4 0.0595023 0.12259 0.786917
833 4 0.0630003 0.105706 0.796881
1125 4 0.0718827 0.122051 0.802483
1123 2 0.0734624 0.139603 0.820221
1124 4 0.0750422 0.157154 0.837959
911 4 0.134051 0.110434 0.812216
1149 4 0.233197 0.0940954 0.741935
1257 4 0.233808 0.0993389 0.762304
1255 2 0.226391 0.115349 0.78002
921 4 0.202755 0.13893 0.806913
919 2 0.188674 0.156884 0.817139
840 4 0.220708 0.139783 0.814669
1256 4 0.218975 0.131358 0.797737
838 2 0.241067 0.146357 0.827609
1113 4 0.357209 0.084628 0.774349
1111 2 0.369985 0.0898744 0.795192
1112 4 0.382761 0.0951208 0.816035
3270 4 0.49269 0.148792 0.759969
1146 4 0.487796 0.15928 0.775047
34 3 0.115726 0.187794 0.815248
1277 4 0.148632 0.226669 0.804858
1276 2 0.158787 0.209158 0.819535
1129 2 0.151948 0.209426 0.763948
1131 4 0.152995 0.220673 0.786254
822 4 0.155099 0.239148 0.791595
977 4 0.301931 0.205087 0.751004
918 4 0.305569 0.219392 0.763329
1298 4 0.299474 0.201139 0.769868
1297 2 0.315351 0.192141 0.786959
1299 4 0.331229 0.183142 0.804051
1086 4 0.347759 0.182078 0.815307
50 3 0.402599 0.201725 0.795473
1044 4 0.474127 0.243308 0.750931
46 1 0.425197 0.199195 0.7942
49 3 0.435169 0.219533 0.789167
1043 4 0.445003 0.20933 0.773249
48 3 0.433406 0.191118 0.814344
47 3 0.430209 0.184133 0.777552
1263 4 0.433966 0.196582 0.762556
1145 4 0.448327 0.189901 0.772753
1144 2 0.468061 0.174591 0.7739
1042 2 0.459565 0.226319 0.76209
1022 4 0.45359 0.193425 0.818828
3187 2 0.0027437 0.279934 0.771506
3189 4 0.0145038 0.299299 0.782083
820 2 0.166377 0.260695 0.785789
821 4 0.177656 0.282242 0.779982
1236 4 0.226775 0.313305 0.765981
1234 2 0.229066 0.316651 0.790653
1098 4 0.245802 0.330527 0.823771
1235 4 0.231357 0.319997 0.815326
1166 4 0.478765 0.262529 0.75267
1165 2 0.494003 0.271057 0.770566
3275 4 0.0260741 0.363762 0.806021
894 4 0.0679277 0.345228 0.755029
3276 4 0.0560961 0.352252 0.767721
3274 2 0.0410851 0.358007 0.786871
816 4 0.0754682 0.349704 0.772072
940 2 0.13853 0.396871 0.74619
814 2 0.0966207 0.362973 0.773371
942 4 0.122025 0.391655 0.764233
815 4 0.117773 0.376241 0.774671
1080 4 0.126599 0.391168 0.783005