ITEM: TIMESTEP
3290000
ITEM: NUMBER OF ATOMS
4590
ITEM: BOX BOUNDS pp pp pp
-9.9985700000000008e+00 9.9985700000000008e+00
-9.9985700000000008e+00 9.9985700000000008e+00
-9.9985700000000008e+00 9.9985700000000008e+00
ITEM: ATOMS id type xs ys zs
1805 4 0.0579256 0.00184617 0.0792163
465 4 0.0780467 0.0799508 0.0375686
2576 4 0.0436687 1.24453e-05 0.0660079
700 2 0.116888 0.0733495 0.0289984
702 4 0.137775 0.0746967 0.0153189
566 4 0.15507 0.0684273 0.0115109
701 4 0.0960022 0.0720022 0.0426779
2265 4 0.28918 0.000771552 0.0117216
296 4 0.337216 0.0795317 0.0805266
746 4 0.486567 0.044773 0.0435563
2469 4 0.493762 0.0396523 0.060972
745 2 0.474574 0.0515175 0.0226791
747 4 0.46258 0.0582621 0.00180198
463 2 0.057209 0.0896197 0.0474418
464 4 0.0363713 0.0992886 0.0573151
590 4 0.0193418 0.108341 0.0588719
558 4 0.351763 0.121622 0.0541517
556 2 0.338074 0.108101 0.070119
866 4 0.343682 0.135236 0.0423979
865 2 0.348845 0.159184 0.0473988
827 4 0.354409 0.11999 0.0351846
826 2 0.376077 0.111665 0.0258888
986 4 0.409781 0.0907308 0.00504336
828 4 0.397744 0.103341 0.0165931
554 4 0.027447 0.207775 0.0357972
553 2 0.0521538 0.210885 0.0380519
555 4 0.0768606 0.213994 0.0403067
835 2 0.109415 0.213776 0.00910814
836 4 0.0942362 0.211264 0.0288181
666 4 0.326704 0.241624 0.0630923
664 2 0.340929 0.222125 0.0565626
665 4 0.355154 0.202627 0.0500329
867 4 0.354008 0.183132 0.0523998
2808 4 0.0501604 0.303056 0.0490026
2806 2 0.0279875 0.295031 0.0573184
2807 4 0.00581462 0.287007 0.0656343
573 4 0.313097 0.253593 0.0702801
356 4 0.302457 0.319472 0.0626409
572 4 0.295075 0.300125 0.0670106
355 2 0.303659 0.326095 0.0385603
571 2 0.304086 0.276859 0.0686453
357 4 0.304861 0.332717 0.0144797
1070 4 0.39433 0.271209 0.0689714
1069 2 0.417505 0.269179 0.078135
1071 4 0.44068 0.267149 0.0872987
507 4 0.12085 0.343202 0.0709416
505 2 0.138783 0.355859 0.0589678
506 4 0.156717 0.368516 0.0469941
483 4 0.172583 0.38015 0.0410764
481 2 0.189257 0.398696 0.0392991
482 4 0.205932 0.417243 0.0375217
902 4 0.29646 0.349495 0.00652182
608 4 0.267648 0.418011 0.0204933
741 4 0.404295 0.38374 0.0800916
671 4 0.494964 0.374079 0.0784957
280 2 0.499257 0.415119 0.0707177
281 4 0.497467 0.393088 0.0824064
552 4 0.0796972 0.46857 0.081522
1787 4 0.0663529 0.48056 0.0749311
609 4 0.217679 0.419882 0.0210786
244 2 0.237193 0.480167 0.0411692
245 4 0.224779 0.46634 0.0578988
627 4 0.226709 0.448743 0.0639121
625 2 0.211588 0.433827 0.077106
272 4 0.247008 0.494518 0.00477676
607 2 0.242663 0.418947 0.020786
252 4 0.270057 0.438575 0.0190456
250 2 0.292274 0.448061 0.0254965
251 4 0.314491 0.457546 0.0319474
2289 4 0.313191 0.47717 0.0274647
2287 2 0.328262 0.485677 0.00941865
226 2 0.470679 0.466022 0.0737918
227 4 0.488385 0.449375 0.0679105
228 4 0.452974 0.482669 0.0796731
282 4 0.501047 0.437149 0.0590291
563 4 0.444613 0.499548 0.0854724
525 4 0.434272 0.483842 0.0850241
16 1 0.0601171 0.0544147 0.142257
20 3 0.0560816 0.070161 0.126307
18 3 0.0520846 0.0338052 0.135248
19 3 0.0499175 0.0605321 0.162181
1806 4 0.0653061 0.0253861 0.122715
1804 2 0.0616158 0.0136161 0.100965
17 3 0.0827998 0.0527709 0.145713
652 2 0.323134 0.0215481 0.134338
654 4 0.30206 0.0197246 0.147672
653 4 0.344207 0.0233716 0.121005
484 2 0.374206 0.00717744 0.104663
297 4 0.34292 0.0386484 0.108753
485 4 0.357811 0.0259171 0.106939
295 2 0.340068 0.0590901 0.0946399
579 4 0.113157 0.138414 0.0899331
237 4 0.15653 0.139489 0.132245
577 2 0.131144 0.146061 0.105527
578 4 0.149131 0.153708 0.121121
235 2 0.166896 0.123466 0.1484
476 4 0.157903 0.157716 0.137893
236 4 0.177263 0.107442 0.164554
691 2 0.209195 0.090081 0.154261
692 4 0.230662 0.0899629 0.141443
737 4 0.16854 0.151367 0.122438
693 4 0.187728 0.0901991 0.16708
557 4 0.324384 0.0945797 0.0860863
582 4 0.249643 0.094418 0.139092
580 2 0.267206 0.110892 0.145825
581 4 0.284769 0.127366 0.152558
29 3 0.30207 0.160175 0.152636
26 1 0.306892 0.143945 0.168503
27 3 0.323712 0.130462 0.160474
771 4 0.417591 0.138122 0.10441
769 2 0.430965 0.159249 0.104345
475 2 0.14467 0.173922 0.151583
736 2 0.184065 0.166735 0.110274
738 4 0.19959 0.182104 0.0981097
285 4 0.31489 0.171452 0.142509
461 4 0.32543 0.243789 0.0823687
354 4 0.320136 0.237037 0.147639
462 4 0.32661 0.234692 0.131527
460 2 0.32602 0.23924 0.106948
352 2 0.299901 0.246136 0.159169
283 2 0.319079 0.196098 0.142083
284 4 0.323267 0.220745 0.141656
255 4 0.336497 0.231476 0.14585
253 2 0.355238 0.233796 0.162239
770 4 0.444339 0.180375 0.10428
1014 4 0.458259 0.1957 0.107444
1013 4 0.463764 0.245404 0.107319
1012 2 0.461012 0.220552 0.107382
455 4 0.0641821 0.330422 0.169147
300 4 0.116314 0.310197 0.164941
610 2 0.245968 0.328243 0.113697
756 4 0.245092 0.292996 0.12445
612 4 0.25494 0.304905 0.113795
754 2 0.257978 0.28023 0.141659
755 4 0.270865 0.267463 0.158868
323 4 0.456646 0.333381 0.0981581
322 2 0.450429 0.310205 0.0911299
324 4 0.444212 0.287029 0.0841018
519 4 0.467047 0.262224 0.116868
517 2 0.483078 0.267156 0.135412
518 4 0.499109 0.272088 0.153955
620 4 0.0147647 0.376435 0.0878404
647 4 0.0342362 0.383154 0.0902952
454 2 0.0665968 0.340849 0.14655
456 4 0.0690116 0.351276 0.123953
648 4 0.0703662 0.351484 0.104165
646 2 0.0523012 0.367319 0.09723
294 4 0.0827944 0.341159 0.115112
293 4 0.126054 0.344853 0.0902993
292 2 0.104424 0.343006 0.102706
626 4 0.196467 0.418912 0.0902998
536 4 0.202761 0.407049 0.10604
611 4 0.236996 0.351581 0.113599
535 2 0.2119 0.383778 0.106345
537 4 0.221038 0.360506 0.106651
739 2 0.396803 0.388697 0.103426
740 4 0.389312 0.393654 0.12676
385 2 0.350814 0.406464 0.126919
386 4 0.373499 0.400183 0.135353
495 4 0.391182 0.407146 0.140763
15 3 0.377105 0.381333 0.136429
11 1 0.387452 0.381422 0.156716
12 3 0.403175 0.36464 0.157277
14 3 0.398077 0.401771 0.160095
670 2 0.477506 0.36325 0.0927471
672 4 0.460047 0.352421 0.106998
550 2 0.0665556 0.447676 0.0855112
551 4 0.0534141 0.426782 0.0895005
242 4 0.0779741 0.485804 0.0899968
241 2 0.0971193 0.489321 0.10569
243 4 0.116265 0.492838 0.121383
1440 4 0.135569 0.492292 0.125712
1438 2 0.158694 0.492278 0.116204
1439 4 0.181819 0.492264 0.106696
639 4 0.195306 0.477718 0.104167
637 2 0.22017 0.477955 0.106791
638 4 0.245035 0.478193 0.109415
767 4 0.248557 0.495174 0.100711
387 4 0.32813 0.412746 0.118486
303 4 0.29446 0.458814 0.087268
768 4 0.294723 0.476541 0.0959945
301 2 0.309463 0.445323 0.102035
302 4 0.324467 0.431832 0.116802
766 2 0.27164 0.485858 0.0983529
493 2 0.401307 0.429891 0.138456
494 4 0.411432 0.452636 0.136149
524 4 0.411905 0.470264 0.12764
660 4 0.416496 0.46862 0.1467
523 2 0.423088 0.477053 0.106332
658 2 0.428649 0.482637 0.163463
675 4 0.0813758 0.0553894 0.165829
380 4 0.0660696 0.06632 0.17164
379 2 0.0577451 0.0799384 0.190886
673 2 0.103946 0.0534421 0.176411
674 4 0.126516 0.0514948 0.186993
450 4 0.140524 0.0600259 0.197823
1505 4 0.138807 0.0408469 0.198055
1504 2 0.148709 0.0225595 0.211937
448 2 0.154812 0.0756403 0.184511
1506 4 0.158612 0.00427218 0.225818
689 4 0.173239 0.00200022 0.214216
632 4 0.377208 0.0273144 0.244146
22 3 0.391918 0.0137205 0.212747
25 3 0.412565 0.00613502 0.242897
757 2 0.440354 0.0332725 0.221532
759 4 0.426437 0.0180119 0.235626
758 4 0.454271 0.0485332 0.207439
350 4 0.431073 0.00159987 0.244517
512 4 0.0479226 0.112066 0.216733
381 4 0.0494206 0.0935568 0.210132
511 2 0.057784 0.134316 0.211
513 4 0.0676453 0.156566 0.205266
449 4 0.1691 0.0912546 0.171198
30 3 0.2884 0.131277 0.17253
28 3 0.314056 0.153971 0.188164
339 4 0.0828084 0.16107 0.193366
477 4 0.131438 0.190128 0.165274
337 2 0.0982031 0.177691 0.182788
363 4 0.127135 0.208212 0.172884
338 4 0.113598 0.194313 0.17221
362 4 0.128889 0.243936 0.207834
361 2 0.128012 0.226074 0.190359
370 2 0.147478 0.248378 0.239352
723 4 0.237579 0.198764 0.240362
628 2 0.40093 0.208901 0.188246
630 4 0.379421 0.221563 0.189729
254 4 0.373978 0.236117 0.178627
765 4 0.382565 0.239888 0.19603
629 4 0.422439 0.196238 0.186763
311 4 0.478822 0.213218 0.184833
312 4 0.434346 0.198934 0.202683
310 2 0.456584 0.206076 0.193758
761 4 0.463699 0.194953 0.227219
760 2 0.453084 0.197936 0.249659
749 4 0.0505095 0.314797 0.174876
750 4 0.0548249 0.285615 0.215255
395 4 0.0393458 0.28938 0.226155
748 2 0.0526672 0.300206 0.195066
372 4 0.135116 0.257453 0.219603
298 2 0.121131 0.325333 0.184251
733 2 0.134489 0.330318 0.244934
353 4 0.279666 0.255235 0.1707
278 4 0.267659 0.268226 0.178958
277 2 0.264601 0.280707 0.200407
279 4 0.261543 0.293188 0.221855
401 4 0.279799 0.296053 0.227669
496 2 0.305847 0.316723 0.208178
498 4 0.296987 0.295199 0.21731
763 2 0.387692 0.264204 0.193269
764 4 0.392818 0.28852 0.190508
623 4 0.411175 0.296199 0.18621
528 4 0.472222 0.289169 0.20474
624 4 0.456954 0.304628 0.204485
622 2 0.434064 0.300414 0.195348
526 2 0.488811 0.279555 0.188691
527 4 0.5054 0.269941 0.172643
262 2 0.0594246 0.398344 0.211696
263 4 0.0805124 0.389964 0.201196
264 4 0.0383367 0.406724 0.222197
2618 4 0.0220888 0.411011 0.21288
2617 2 0.00785884 0.415262 0.232995
299 4 0.125949 0.340469 0.20356
734 4 0.125335 0.335866 0.222337
602 4 0.0993491 0.397748 0.205233
601 2 0.10898 0.375438 0.211122
603 4 0.118611 0.353127 0.21701
290 4 0.173982 0.416392 0.237395
497 4 0.314707 0.338247 0.199045
308 4 0.317663 0.35522 0.188687
307 2 0.338184 0.361656 0.175935
309 4 0.358705 0.368093 0.163182
13 3 0.371914 0.377709 0.173544
289 2 0.180559 0.417197 0.213286
291 4 0.187136 0.418003 0.189176
416 4 0.188104 0.437934 0.184738
415 2 0.198098 0.460598 0.181327
1430 4 0.215279 0.488588 0.196053
417 4 0.208092 0.483262 0.177917
597 4 0.482699 0.474752 0.218835
659 4 0.440802 0.496655 0.180226
595 2 0.466386 0.489737 0.207237
645 4 0.492498 0.459151 0.209611
232 2 0.00585082 0.0550922 0.308855
1799 4 0.010247 0.0139012 0.307023
233 4 0.0156631 0.0321373 0.310258
1402 2 0.0536228 0.0203974 0.313593
1403 4 0.0293484 0.0180943 0.308058
1404 4 0.0778971 0.0227005 0.319127
633 4 0.368455 0.0257137 0.293355
631 2 0.372832 0.0265141 0.268751
257 4 0.360132 0.0364991 0.307422
698 4 0.370286 0.0202721 0.311848
256 2 0.348582 0.0551049 0.319489
349 2 0.442696 0.000561446 0.26663
744 4 0.469402 0.0058054 0.300782
742 2 0.488572 0.0129456 0.315159
399 4 0.0731337 0.110441 0.3273
393 4 0.103113 0.1643 0.303441
398 4 0.101752 0.149726 0.315535
397 2 0.0874427 0.130083 0.321417
390 4 0.0892499 0.164083 0.317279
249 4 0.198034 0.134864 0.324867
404 4 0.207037 0.150337 0.314892
444 4 0.0442872 0.24549 0.320065
389 4 0.0730215 0.208278 0.334136
392 4 0.114534 0.171157 0.25524
391 2 0.108824 0.167729 0.279341
388 2 0.0811357 0.186181 0.325707
545 4 0.134897 0.176291 0.253041
544 2 0.15885 0.178903 0.25972
371 4 0.159839 0.239304 0.259101
403 2 0.19684 0.167682 0.300048
546 4 0.182803 0.181515 0.266399
721 2 0.218807 0.193269 0.255937
405 4 0.186643 0.185027 0.285204
722 4 0.200034 0.187775 0.271512
376 2 0.300136 0.238315 0.330377
377 4 0.299786 0.214841 0.321774
420 4 0.385753 0.21712 0.273887
717 4 0.383103 0.232546 0.28548
418 2 0.408534 0.209709 0.281052
331 2 0.460911 0.186104 0.301958
332 4 0.442128 0.186475 0.28546
419 4 0.431314 0.202299 0.288216
762 4 0.442468 0.200919 0.2721
333 4 0.479695 0.185734 0.318457
453 4 0.487462 0.195692 0.333077
394 2 0.0371433 0.291948 0.250929
442 2 0.0399084 0.266282 0.306887
364 2 0.0283225 0.325161 0.305031
396 4 0.0349408 0.294516 0.275703
443 4 0.0355295 0.287075 0.293708
365 4 0.037405 0.30625 0.291428
735 4 0.143643 0.32477 0.267531
677 4 0.15763 0.31139 0.274114
508 2 0.233357 0.329369 0.287695
676 2 0.179355 0.319655 0.283329
678 4 0.20108 0.327919 0.292543
510 4 0.254327 0.315848 0.286071
400 2 0.272615 0.300638 0.251175
402 4 0.265432 0.305224 0.274681
345 4 0.268688 0.305549 0.294427
343 2 0.280217 0.289413 0.309654
344 4 0.291747 0.273276 0.324881
715 2 0.378916 0.254228 0.297207
716 4 0.374728 0.27591 0.308934
542 4 0.377269 0.296212 0.306861
541 2 0.389153 0.30475 0.327136
751 2 0.483512 0.31397 0.334558
753 4 0.480174 0.325567 0.312659
407 4 0.0237732 0.362539 0.32594
366 4 0.01924 0.344072 0.318634
548 4 0.0182679 0.359774 0.307414
547 2 0.0231703 0.382253 0.297625
549 4 0.0280728 0.404732 0.287835
2493 4 0.00554715 0.357392 0.322624
777 4 0.0358381 0.415357 0.30341
509 4 0.212387 0.34289 0.289319
435 4 0.19852 0.343032 0.303539
433 2 0.19068 0.360131 0.320012
728 4 0.352495 0.411107 0.312613
2536 2 0.498012 0.358469 0.292909
2538 4 0.485864 0.337211 0.297982
2463 4 0.996103 0.486539 0.28764
775 2 0.0541779 0.424118 0.317973
776 4 0.0725177 0.432879 0.332536
1543 2 0.155934 0.481662 0.331164
1545 4 0.17931 0.474413 0.326046
1436 4 0.186793 0.49245 0.31838
727 2 0.358923 0.430657 0.326814
1771 2 0.00135527 0.00125725 0.384478
1772 4 0.00341279 0.0189326 0.402043
2236 2 0.00773171 0.0511252 0.416097
606 4 0.161821 0.00544402 0.361459
732 4 0.0875892 0.078426 0.381064
369 4 0.0977496 0.0631122 0.374502
367 2 0.0964117 0.0430244 0.38933
368 4 0.0950739 0.0229365 0.404158
604 2 0.165954 0.0264652 0.374351
1701 4 0.190146 0.0519081 0.384999
1699 2 0.20596 0.0658576 0.371564
605 4 0.170087 0.0474863 0.387244
1700 4 0.221775 0.0798071 0.358129
258 4 0.337032 0.0737107 0.331555
424 2 0.354402 0.0664661 0.371926
425 4 0.36706 0.0603832 0.392613
1580 4 0.37369 0.0434419 0.400411
426 4 0.341744 0.072549 0.351239
1579 2 0.380146 0.0202773 0.407259
730 2 0.0769225 0.0918446 0.362861
317 4 0.0564105 0.11864 0.333308
731 4 0.0662557 0.105263 0.344658
316 2 0.0346022 0.121192 0.345269
318 4 0.0127939 0.123744 0.35723
458 4 0.00920462 0.131089 0.375403
457 2 0.00410577 0.155257 0.379289
247 2 0.203135 0.11454 0.338509
248 4 0.208236 0.0942153 0.35215
319 2 0.318288 0.144942 0.389458
321 4 0.325884 0.156587 0.368676
320 4 0.310692 0.133296 0.410239
2642 4 0.492343 0.121027 0.338091
516 4 0.474007 0.159541 0.383242
575 4 0.460219 0.147739 0.391779
574 2 0.461657 0.131941 0.411106
2654 4 0.00742725 0.196321 0.38898
708 4 0.320811 0.174616 0.375098
707 4 0.303521 0.202959 0.337702
706 2 0.312166 0.188787 0.3564
600 4 0.269019 0.179451 0.422043
514 2 0.476153 0.169475 0.360397
515 4 0.478299 0.179409 0.337552
274 2 0.134304 0.312047 0.378316
276 4 0.14736 0.296709 0.39313
275 4 0.121249 0.327385 0.363501
375 4 0.152685 0.279774 0.383393
617 4 0.105429 0.322753 0.350206
373 2 0.176422 0.275425 0.389934
374 4 0.20016 0.271075 0.396475
473 4 0.211486 0.269512 0.414365
378 4 0.300485 0.26179 0.33898
267 4 0.338456 0.279474 0.413607
543 4 0.401037 0.313288 0.34741
467 4 0.385542 0.260457 0.367325
466 2 0.366088 0.265327 0.382258
468 4 0.346634 0.270197 0.397191
615 4 0.41965 0.315406 0.355415
613 2 0.425377 0.304916 0.377377
561 4 0.489977 0.317585 0.369816
752 4 0.486851 0.302374 0.356456
614 4 0.431103 0.294426 0.39934
406 2 0.0356787 0.358574 0.347567
408 4 0.0475842 0.35461 0.369194
347 4 0.0624269 0.349827 0.381434
346 2 0.0559733 0.357914 0.404196
618 4 0.0641092 0.348349 0.361965
616 2 0.084769 0.335551 0.356086
434 4 0.182841 0.37723 0.336484
504 4 0.285895 0.40835 0.404273
335 4 0.38673 0.397332 0.409525
334 2 0.365315 0.410239 0.409433
240 4 0.40244 0.408305 0.417228
414 4 0.08918 0.436557 0.344058
1544 4 0.132559 0.488912 0.336282
413 4 0.11564 0.478776 0.339791
412 2 0.10241 0.457666 0.341925
500 4 0.117685 0.497166 0.345825
502 2 0.307601 0.416348 0.413762
729 4 0.365351 0.450206 0.341016
437 4 0.355451 0.460441 0.355786
336 4 0.343901 0.423145 0.409341
436 2 0.37577 0.474446 0.359812
438 4 0.396088 0.48845 0.363838
3990 4 0.486969 0.47976 0.368851
1126 2 0.0149733 0.053527 0.47272
1127 4 0.0246022 0.0632307 0.451784
2237 4 0.0176238 0.06508 0.434334
720 4 0.0286255 0.079322 0.440534
1128 4 0.00534446 0.0438233 0.493655
1782 4 0.096515 0.00464699 0.412815
1780 2 0.0875957 0.000654762 0.43583
724 2 0.311124 0.0626477 0.482486
963 4 0.300203 0.0249517 0.492332
725 4 0.309797 0.0377166 0.481124
432 4 0.319187 0.0231243 0.490186
430 2 0.340158 0.0138345 0.50014
642 4 0.438493 0.0552189 0.437973
2878 2 0.435221 0.0214863 0.441646
2880 4 0.430248 0.0432531 0.4529
640 2 0.444111 0.0795829 0.437908
469 2 0.00810144 0.148639 0.465858
470 4 0.0299373 0.144669 0.454342
718 2 0.031818 0.104103 0.441477
719 4 0.0350104 0.128884 0.44242
939 4 0.100985 0.13617 0.48319
1033 2 0.135174 0.135942 0.464159
1035 4 0.15779 0.127013 0.458331
1034 4 0.112557 0.14487 0.469987
261 4 0.16817 0.145972 0.457044
259 2 0.181908 0.165278 0.465027
726 4 0.312451 0.0875789 0.483847
684 4 0.294948 0.132507 0.421819
682 2 0.280714 0.151146 0.430488
1181 4 0.312644 0.126698 0.428593
1182 4 0.317816 0.0942744 0.466311
1180 2 0.31523 0.110486 0.447452
576 4 0.463095 0.116143 0.430433
641 4 0.44973 0.103947 0.437844
306 4 0.447796 0.122828 0.4417
304 2 0.443656 0.131734 0.464694
305 4 0.439516 0.14064 0.487688
695 4 0.186885 0.201525 0.477645
260 4 0.195647 0.184583 0.47301
687 4 0.234242 0.224465 0.449291
686 4 0.192884 0.1985 0.460062
685 2 0.213563 0.211483 0.454676
474 4 0.240795 0.23726 0.438891
599 4 0.248544 0.221588 0.439535
411 4 0.249496 0.232247 0.453292
683 4 0.266479 0.169784 0.439158
598 2 0.258781 0.200519 0.430789
409 2 0.257045 0.231527 0.477118
488 4 0.258434 0.235921 0.438623
487 2 0.278605 0.249141 0.432023
472 2 0.22614 0.253386 0.426628
489 4 0.298775 0.262361 0.425422
266 4 0.331113 0.316444 0.446471
265 2 0.334785 0.297959 0.430039
348 4 0.0495196 0.366001 0.426959
2812 2 0.0103916 0.350707 0.433697
2813 4 0.0314773 0.364023 0.431893
326 4 0.0403867 0.380674 0.436167
325 2 0.0577184 0.393021 0.449295
327 4 0.0750501 0.405368 0.462423
7 3 0.0860935 0.396971 0.476568
6 1 0.101927 0.381994 0.483926
10 3 0.108691 0.369042 0.466458
8 3 0.119983 0.393776 0.492504
709 2 0.143883 0.417316 0.492155
813 4 0.284281 0.356582 0.466562
811 2 0.271944 0.351332 0.487667
680 4 0.0449229 0.497035 0.503276
679 2 0.0490165 0.474187 0.493982
681 4 0.0531102 0.451338 0.484689
383 4 0.068935 0.44017 0.492626
710 4 0.167795 0.42182 0.486397
774 4 0.185914 0.423559 0.491711
635 4 0.181055 0.431544 0.475422
636 4 0.18207 0.45393 0.430717
634 2 0.181563 0.442737 0.453069
668 4 0.339573 0.477844 0.443594
4 3 0.325204 0.489988 0.451477
503 4 0.329307 0.424346 0.423252
667 2 0.343385 0.454629 0.435128
669 4 0.347197 0.431413 0.426661
239 4 0.435488 0.440806 0.435994
238 2 0.418964 0.424556 0.426611
588 4 0.440773 0.452565 0.4519
586 2 0.437795 0.444694 0.475445
1184 4 0.0530431 0.0275701 0.559764
3077 4 0.046338 0.025984 0.540559
3076 2 0.0266795 0.0303569 0.52574
1183 2 0.061353 0.0069388 0.571187
3078 4 0.00702105 0.0347298 0.510921
1152 4 0.14921 0.0472242 0.542723
1150 2 0.142969 0.0629308 0.561149
1151 4 0.136727 0.0786375 0.579576
342 4 0.147038 0.027964 0.543101
340 2 0.168595 0.0189955 0.534153
2430 4 0.202946 0.0209394 0.536489
341 4 0.190151 0.0100269 0.525206
2428 2 0.221835 0.020407 0.520116
2429 4 0.240725 0.0198746 0.503742
962 4 0.256625 0.0104034 0.512082
961 2 0.278414 0.0176775 0.502207
841 2 0.394727 0.026176 0.527194
842 4 0.414912 0.0376485 0.536475
843 4 0.374542 0.0147036 0.517914
431 4 0.361129 0.00454462 0.510095
1217 4 0.428043 0.0216542 0.541432
1061 4 0.493569 0.0824521 0.531021
877 2 0.0388557 0.15615 0.541304
878 4 0.017815 0.149389 0.552998
938 4 0.0724371 0.150041 0.521833
1272 4 0.0767363 0.159054 0.538559
937 2 0.0867111 0.143105 0.502512
879 4 0.0598964 0.16291 0.529609
1199 4 0.00194811 0.155954 0.543395
1154 4 0.16259 0.136543 0.579115
1221 4 0.168015 0.155061 0.584493
3159 4 0.461239 0.140235 0.54149
3157 2 0.446763 0.146197 0.521994
1062 4 0.474231 0.12529 0.548099
1060 2 0.4839 0.103871 0.53956
3158 4 0.432287 0.152158 0.502498
1270 2 0.0893659 0.169246 0.55758
1258 2 0.126789 0.241998 0.53717
1260 4 0.141346 0.234682 0.518204
1271 4 0.101996 0.179438 0.576601
1244 4 0.110988 0.195701 0.584865
696 4 0.157245 0.230756 0.505353
694 2 0.172065 0.21614 0.491499
898 2 0.291661 0.240519 0.529878
899 4 0.312276 0.236935 0.543566
857 4 0.320998 0.222389 0.553616
791 4 0.330161 0.231248 0.539497
856 2 0.315818 0.202114 0.567301
900 4 0.271046 0.244103 0.516191
410 4 0.264595 0.230808 0.500943
858 4 0.310639 0.181839 0.580985
790 2 0.345403 0.246858 0.551711
1259 4 0.112232 0.249314 0.556137
651 4 0.294737 0.336135 0.553833
649 2 0.274165 0.336128 0.539622
650 4 0.253592 0.336122 0.52541
792 4 0.360645 0.262468 0.563926
872 4 0.372233 0.276037 0.555186
1238 4 0.367371 0.277963 0.573354
871 2 0.386513 0.287367 0.538071
1237 2 0.35075 0.295012 0.580985
873 4 0.400793 0.298696 0.520956
897 4 0.137077 0.379771 0.578858
9 3 0.0925589 0.3687 0.500477
711 4 0.119972 0.412813 0.497912
773 4 0.21867 0.410997 0.527347
1189 2 0.206141 0.410018 0.568469
1190 4 0.217436 0.407061 0.546359
803 4 0.21828 0.392766 0.533616
802 2 0.232619 0.373264 0.52735
804 4 0.246957 0.353762 0.521085
930 4 0.234309 0.403993 0.536541
772 2 0.202292 0.417278 0.509529
805 2 0.313099 0.33804 0.577165
806 4 0.306773 0.352377 0.557682
812 4 0.259608 0.346081 0.508772
925 2 0.41096 0.400203 0.505011
927 4 0.396559 0.380447 0.510253
2457 4 0.491867 0.339967 0.515303
1010 4 0.49538 0.347922 0.534151
384 4 0.114108 0.427141 0.509666
382 2 0.0915214 0.433656 0.501146
569 4 0.116295 0.430006 0.529071
568 2 0.131102 0.444011 0.543556
570 4 0.145909 0.458016 0.55804
538 2 0.11474 0.492688 0.517324
539 4 0.0960755 0.479742 0.527775
928 2 0.249223 0.424059 0.536863
929 4 0.264138 0.444124 0.537184
1951 2 0.264309 0.47554 0.523872
1953 4 0.251888 0.453851 0.52458
1952 4 0.276731 0.497228 0.523165
1001 4 0.413759 0.47964 0.561223
662 4 0.420427 0.467129 0.548081
1000 2 0.395285 0.492989 0.550941
1330 2 0.450841 0.494231 0.543514
661 2 0.424096 0.448364 0.53197
663 4 0.427766 0.429599 0.515858
926 4 0.425361 0.419959 0.499768
1911 4 0.427125 0.467479 0.566462
1332 4 0.431404 0.481677 0.552991
587 4 0.434817 0.436823 0.49899
2374 2 0.13258 0.00325952 0.627467
2375 4 0.12126 0.0253755 0.630284
1057 2 0.131324 0.0606469 0.616429
1058 4 0.129084 0.0437937 0.634763
1059 4 0.133564 0.0775002 0.598095
950 4 0.238841 0.999731 0.622964
949 2 0.250181 0.0211726 0.629033
2400 4 0.335934 0.0203794 0.638925
951 4 0.26152 0.0426146 0.635103
1031 4 0.263432 0.0580087 0.648444
1030 2 0.287706 0.0609625 0.653664
1032 4 0.311979 0.0639164 0.658885
43 3 0.45423 0.0582446 0.629767
45 3 0.482684 0.0390278 0.645218
41 1 0.465143 0.0528968 0.649533
44 3 0.472703 0.0722355 0.65989
1163 4 0.489404 0.0796873 0.665708
1155 4 0.145922 0.0911789 0.59196
1153 2 0.154256 0.113861 0.585537
810 4 0.477217 0.0893183 0.653199
808 2 0.481465 0.101129 0.631574
809 4 0.485713 0.11294 0.609949
3252 4 0.493832 0.12378 0.596153
1245 4 0.093121 0.184652 0.630246
1209 4 0.0853279 0.17526 0.64534
1243 2 0.102054 0.190176 0.607555
1211 4 0.239831 0.177875 0.646676
1219 2 0.185924 0.17213 0.588111
1220 4 0.203832 0.189199 0.591729
1210 2 0.229031 0.179662 0.624196
1212 4 0.218232 0.181448 0.601716
796 2 0.217834 0.225787 0.597324
798 4 0.215956 0.20116 0.601219
888 4 0.255155 0.177035 0.660928
3121 2 0.489803 0.201398 0.608249
3123 4 0.472835 0.218815 0.614075
905 4 0.464583 0.235894 0.605823
982 2 0.0325142 0.328145 0.659067
983 4 0.0102482 0.317963 0.653995
797 4 0.219711 0.250414 0.593429
807 4 0.319426 0.323702 0.596648
1239 4 0.334129 0.312062 0.588617
906 4 0.463418 0.285732 0.601887
904 2 0.464 0.260813 0.603855
953 4 0.465407 0.296716 0.617852
952 2 0.480222 0.313831 0.607234
984 4 0.0547803 0.338328 0.664138
1041 4 0.0657183 0.35391 0.659626
1039 2 0.0669772 0.376599 0.649196
1040 4 0.0682361 0.399289 0.638766
1137 4 0.123689 0.384568 0.593486
1135 2 0.108891 0.364577 0.590928
1136 4 0.0940928 0.344586 0.58837
895 2 0.15766 0.391783 0.586422
1028 4 0.193908 0.388335 0.651181
1027 2 0.190076 0.400889 0.629899
1029 4 0.186243 0.413442 0.608618
1191 4 0.194846 0.412975 0.590579
1068 4 0.181302 0.385372 0.665861
896 4 0.178244 0.403795 0.593986
1206 4 0.482664 0.412022 0.618041
3309 4 0.49286 0.399814 0.607363
954 4 0.495038 0.330946 0.596616
3307 2 0.493815 0.375215 0.602987
993 4 0.0607672 0.418339 0.633975
991 2 0.0515257 0.438105 0.621766
992 4 0.0422842 0.457871 0.609557
1172 4 0.178416 0.423204 0.593596
1160 4 0.1911 0.48972 0.596804
1171 2 0.180857 0.447809 0.597308
1173 4 0.183299 0.472415 0.601021
1187 4 0.17825 0.486174 0.611629
1186 2 0.170968 0.49549 0.63366
1909 2 0.431484 0.460475 0.590065
1268 4 0.444268 0.484583 0.660984
1267 2 0.441549 0.464664 0.646116
1204 2 0.460178 0.422885 0.616792
1910 4 0.435843 0.453472 0.613669
1269 4 0.438831 0.444746 0.631249
1205 4 0.437693 0.433749 0.615542
2168 4 0.46075 0.493552 0.653037
1284 4 0.0912997 0.0455363 0.715067
1282 2 0.107772 0.0642129 0.717308
1225 2 0.165967 0.0792895 0.708706
1283 4 0.124244 0.0828896 0.719549
1201 2 0.201055 0.0397576 0.72528
1203 4 0.201545 0.0621285 0.714123
1226 4 0.189688 0.0736322 0.703184
1148 4 0.209077 0.0768601 0.703564
1202 4 0.200566 0.0173866 0.736437
2049 4 0.184172 0.0190623 0.746222
42 3 0.450339 0.0422511 0.663556
1075 2 0.00952296 0.128418 0.715695
1077 4 0.0260638 0.139989 0.73045
850 2 0.0630419 0.148017 0.710073
852 4 0.0401209 0.150574 0.71973
864 4 0.040829 0.128625 0.738967
1207 2 0.0923966 0.164481 0.666765
1227 4 0.142246 0.0849468 0.714228
909 4 0.105076 0.141682 0.702268
907 2 0.118104 0.121196 0.708251
908 4 0.131131 0.100711 0.714233
851 4 0.0859629 0.145459 0.700416
1208 4 0.0994654 0.153702 0.68819
1107 4 0.0980022 0.159306 0.706933
1147 2 0.218812 0.0917844 0.721105
1149 4 0.228547 0.106709 0.738646
829 2 0.316476 0.144296 0.705238
830 4 0.297644 0.160079 0.709871
831 4 0.335307 0.128514 0.700605
1142 4 0.352107 0.131432 0.711228
1141 2 0.370842 0.146192 0.718732
1026 4 0.408808 0.157735 0.7234
1143 4 0.389577 0.160952 0.726235
3426 4 0.47354 0.0875585 0.672342
1025 4 0.441665 0.120231 0.719585
3424 2 0.463981 0.0967323 0.693547
3425 4 0.454421 0.105906 0.714751
3269 4 0.458288 0.117087 0.730049
1024 2 0.425236 0.138983 0.721493
3268 2 0.472559 0.129965 0.74604
845 4 0.443733 0.104678 0.73155
844 2 0.437837 0.0827415 0.742
1214 4 0.0287828 0.16688 0.72349
1213 2 0.0103682 0.183539 0.720567
1105 2 0.111667 0.17469 0.721138
1106 4 0.125333 0.190074 0.735343
1130 4 0.145102 0.186917 0.734438
1129 2 0.160856 0.200508 0.748305
887 4 0.282369 0.168 0.701897
886 2 0.268762 0.172517 0.681412
978 4 0.293853 0.179379 0.712571
976 2 0.307118 0.192787 0.728986
916 2 0.334066 0.242426 0.732881
977 4 0.320383 0.206195 0.7454
1262 4 0.402537 0.173597 0.732923
1194 4 0.399999 0.172432 0.71414
1193 4 0.41165 0.205887 0.678845
1192 2 0.405825 0.189159 0.696492
1261 2 0.41569 0.184775 0.751012
3262 2 0.0755581 0.327933 0.694346
893 4 0.0658874 0.309975 0.726705
3264 4 0.0815114 0.312195 0.712841
892 2 0.0615045 0.321692 0.748354
779 4 0.0839287 0.305965 0.729986
778 2 0.0995322 0.287271 0.724308
780 4 0.115136 0.268576 0.71863
1065 4 0.25209 0.310603 0.67538
1064 4 0.292527 0.320346 0.70314
1063 2 0.272309 0.315475 0.68926
946 2 0.314763 0.293669 0.715382
948 4 0.307751 0.317668 0.715191
947 4 0.321774 0.269669 0.715573
917 4 0.338892 0.261325 0.717237
1008 4 0.457743 0.288708 0.699265
1006 2 0.45832 0.278675 0.72216
1007 4 0.458898 0.268642 0.745056
3263 4 0.0696049 0.343671 0.675851
941 4 0.129334 0.381628 0.707912
1067 4 0.149329 0.382805 0.704225
940 2 0.122125 0.383861 0.731749
1066 2 0.165315 0.384088 0.685043
884 4 0.0633811 0.479447 0.747669
1139 4 0.306502 0.452825 0.686606
1138 2 0.318868 0.455483 0.708175
1140 4 0.331234 0.45814 0.729743
1989 4 0.326081 0.450407 0.746292
1229 4 0.338585 0.440492 0.735174
1230 4 0.387377 0.42963 0.736598
1100 4 0.397016 0.439678 0.750662
1228 2 0.362981 0.435061 0.735886
1099 2 0.417953 0.451063 0.743099
1101 4 0.43889 0.462448 0.735535
3330 4 0.454684 0.464607 0.725
3328 2 0.467295 0.460876 0.703734
1251 4 0.453645 0.471732 0.743349
3329 4 0.479907 0.457146 0.682469
1249 2 0.453283 0.496168 0.748635
834 4 0.0266909 0.078364 0.818225
785 4 0.0113322 0.0635779 0.817973
2048 4 0.139668 0.0105515 0.767382
2047 2 0.16192 0.0148069 0.756802
2254 2 0.216525 0.0158677 0.771575
2255 4 0.233162 0.0220623 0.789183
2256 4 0.199889 0.00967305 0.753967
1113 4 0.343519 0.062214 0.791919
1111 2 0.358221 0.0760076 0.80671
1112 4 0.372923 0.0898011 0.821501
2442 4 0.452908 0.000577728 0.812552
2321 4 0.449042 0.0185516 0.804235
2322 4 0.441891 0.0484644 0.764804
2320 2 0.445467 0.033508 0.784519
846 4 0.431942 0.0608047 0.752449
980 4 0.436736 0.0106915 0.816956
979 2 0.414518 0.0118639 0.828364
832 2 0.0428661 0.0960826 0.811183
862 2 0.046549 0.123745 0.762813
863 4 0.0522691 0.118865 0.78666
833 4 0.0590413 0.113801 0.80414
1125 4 0.0513186 0.131606 0.801272
1123 2 0.0619027 0.150311 0.814049
1124 4 0.0724869 0.169017 0.826827
34 3 0.115825 0.165602 0.817419
1257 4 0.222514 0.111063 0.758076
1255 2 0.21886 0.123684 0.77935
921 4 0.206951 0.135681 0.818207
919 2 0.191469 0.154763 0.822825
840 4 0.222412 0.147625 0.814751
1256 4 0.215206 0.136304 0.800623
838 2 0.24592 0.145869 0.823087
839 4 0.269428 0.144112 0.831423
818 4 0.385709 0.0996637 0.83393
817 2 0.382009 0.124288 0.831666
819 4 0.378309 0.148913 0.829402
3270 4 0.48683 0.142842 0.76203
1146 4 0.482422 0.16067 0.770168
33 3 0.106432 0.198772 0.833417
1131 4 0.17661 0.214099 0.762171
822 4 0.18085 0.232009 0.769194
1277 4 0.185008 0.21631 0.780177
1276 2 0.178451 0.204076 0.800974
920 4 0.175986 0.173846 0.827442
1278 4 0.171893 0.191842 0.821771
918 4 0.329241 0.223528 0.748525
1298 4 0.326852 0.211564 0.763373
1297 2 0.33419 0.192672 0.778016
1299 4 0.341529 0.173781 0.79266
1086 4 0.343765 0.184294 0.811341
50 3 0.403832 0.19817 0.805058
1084 2 0.362789 0.17569 0.825097
46 1 0.425855 0.201554 0.800347
49 3 0.428779 0.222489 0.790779
1043 4 0.439248 0.212289 0.777135
48 3 0.438451 0.199889 0.819763
47 3 0.432972 0.185518 0.785469
1263 4 0.428843 0.195953 0.769101
1145 4 0.446671 0.195319 0.774861
1144 2 0.464546 0.177994 0.772515
1042 2 0.448537 0.231282 0.763788
820 2 0.167035 0.252636 0.766218
821 4 0.153219 0.273263 0.763241
1236 4 0.244278 0.318654 0.777268
1234 2 0.235054 0.328268 0.798426
1044 4 0.457826 0.250275 0.75044
1166 4 0.466371 0.262849 0.762498
1165 2 0.487245 0.269288 0.774665
894 4 0.0571217 0.333409 0.770003
3275 4 0.00809509 0.353205 0.810981