ITEM: TIMESTEP
270000
ITEM: NUMBER OF ATOMS
4590
ITEM: BOX BOUNDS pp pp pp
-9.9985700000000008e+00 9.9985700000000008e+00
-9.9985700000000008e+00 9.9985700000000008e+00
-9.9985700000000008e+00 9.9985700000000008e+00
ITEM: ATOMS id type xs ys zs
463 2 0.0265083 0.0517596 0.0328305
465 4 0.02682 0.0760363 0.0388077
464 4 0.0261966 0.027483 0.0268533
1667 4 0.0610792 0.0107572 0.0673769
534 4 0.195334 0.0789681 0.00975722
490 2 0.27664 0.0381347 0.0443755
491 4 0.272194 0.0615768 0.0518512
492 4 0.281085 0.0146926 0.0368998
296 4 0.366381 0.0563603 0.0659916
557 4 0.368973 0.0716697 0.0526488
295 2 0.36241 0.0404775 0.08489
745 2 0.458366 0.0624813 0.0338295
746 4 0.45137 0.0701041 0.0565919
747 4 0.465362 0.0548585 0.0110671
589 2 0.0254731 0.121309 0.0751027
590 4 0.0224753 0.14313 0.0632683
3233 4 0.998796 0.132803 0.00784815
701 4 0.0741848 0.0806466 0.0266171
702 4 0.112251 0.0872907 0.0583585
700 2 0.093218 0.0839687 0.0424878
422 4 0.121595 0.151187 0.989206
421 2 0.105603 0.134884 0.999387
565 2 0.190875 0.110469 0.0403945
566 4 0.166259 0.106143 0.0396818
567 4 0.215491 0.114796 0.0411071
358 2 0.280571 0.120574 0.0183953
359 4 0.291105 0.116056 0.996174
360 4 0.270036 0.125091 0.0406168
556 2 0.370714 0.0963006 0.0565819
558 4 0.372455 0.120931 0.0605151
553 2 0.0542145 0.229284 0.0159624
554 4 0.0425382 0.233431 0.0376799
666 4 0.30286 0.215918 0.00833315
664 2 0.323096 0.201525 0.00540695
572 4 0.344535 0.245441 0.0467644
324 4 0.400145 0.25349 0.0618017
322 2 0.417324 0.2487 0.0793264
771 4 0.450779 0.179199 0.0663888
770 4 0.492826 0.171043 0.0405769
769 2 0.471802 0.175121 0.0534829
1013 4 0.505861 0.196928 0.00680852
292 2 0.127489 0.314217 0.0184247
294 4 0.114249 0.325132 0.000238491
293 4 0.140729 0.303302 0.0366109
506 4 0.188066 0.264273 0.0351215
483 4 0.22591 0.300013 0.0629054
505 2 0.173705 0.28448 0.0383838
507 4 0.159344 0.304686 0.0416462
481 2 0.247682 0.310765 0.0569432
357 4 0.21971 0.263137 0.00461812
571 2 0.32011 0.250719 0.045922
573 4 0.295684 0.255997 0.0450795
482 4 0.269454 0.321517 0.050981
1071 4 0.377546 0.256738 0.0188979
1069 2 0.401448 0.261011 0.0248656
956 4 0.370969 0.315113 0.998143
955 2 0.351044 0.327766 0.989891
1070 4 0.42535 0.265284 0.0308334
280 2 0.468192 0.334155 0.0237822
281 4 0.459888 0.325325 0.045651
330 4 0.0252604 0.405799 0.0427433
328 2 0.0161365 0.390406 0.0252793
455 4 0.10119 0.355334 0.0707786
286 2 0.155103 0.389172 0.0114425
287 4 0.159102 0.364566 0.0133706
552 4 0.101595 0.420628 0.0500105
252 4 0.279945 0.393345 0.0711961
250 2 0.277106 0.398019 0.0467979
251 4 0.274267 0.402693 0.0223998
608 4 0.295862 0.382481 0.0665828
671 4 0.452682 0.336478 0.0605546
550 2 0.079902 0.432261 0.0456222
551 4 0.0582089 0.443894 0.0412339
315 4 0.99215 0.420765 0.0744054
1788 4 0.0746389 0.502958 0.0866595
288 4 0.151103 0.413779 0.00951439
242 4 0.14615 0.502141 0.0504186
1786 2 0.095403 0.494451 0.0756293
1787 4 0.116167 0.485944 0.064599
1224 4 0.128664 0.467218 0.992719
245 4 0.221329 0.441693 0.0414556
244 2 0.238531 0.459835 0.0410601
246 4 0.255733 0.477976 0.0406647
272 4 0.272466 0.471042 0.0333826
271 2 0.292284 0.47947 0.0206784
273 4 0.312102 0.487898 0.00797424
227 4 0.478338 0.448799 0.0427153
562 2 0.438571 0.492463 0.0166255
563 4 0.452204 0.486909 0.996415
226 2 0.499285 0.462135 0.0397938
564 4 0.424938 0.498018 0.036836
1666 2 0.0823876 0.0148874 0.0797895
19 3 0.0429404 0.0538256 0.161496
20 3 0.0798866 0.0468009 0.163308
1422 4 0.99645 0.00489829 0.172038
1668 4 0.103696 0.0190176 0.092202
450 4 0.164774 0.0644935 0.134528
448 2 0.173074 0.0832373 0.148844
1506 4 0.23514 0.0076562 0.158982
652 2 0.303165 0.0337522 0.148011
653 4 0.300886 0.0407025 0.124101
297 4 0.358439 0.0245948 0.103788
758 4 0.419715 0.0605539 0.157182
1760 4 0.488415 0.00592666 0.156869
591 4 0.0284709 0.0994884 0.086937
476 4 0.128201 0.169645 0.111924
237 4 0.181407 0.165452 0.143375
449 4 0.181374 0.101981 0.163161
235 2 0.178322 0.140993 0.147547
236 4 0.175237 0.116534 0.15172
693 4 0.215798 0.103717 0.15196
582 4 0.297997 0.105849 0.147926
312 4 0.429367 0.12204 0.162526
475 2 0.114277 0.175309 0.131904
477 4 0.100353 0.180973 0.151885
737 4 0.183786 0.199338 0.108655
736 2 0.20839 0.196508 0.105218
738 4 0.232993 0.193677 0.10178
354 4 0.265561 0.212368 0.126288
352 2 0.269717 0.234605 0.115638
460 2 0.333947 0.212654 0.0954323
461 4 0.314028 0.226902 0.0903928
255 4 0.354988 0.178129 0.10191
462 4 0.353866 0.198406 0.100472
630 4 0.41229 0.177363 0.109962
254 4 0.403768 0.176167 0.0910772
253 2 0.379378 0.177148 0.0964939
629 4 0.459936 0.162289 0.111793
628 2 0.436113 0.169826 0.110878
517 2 0.496092 0.244275 0.105906
518 4 0.490651 0.225215 0.121148
339 4 0.0659192 0.253554 0.124831
620 4 0.0162837 0.3266 0.127769
337 2 0.0735259 0.245738 0.147331
353 4 0.273873 0.256843 0.104989
754 2 0.274473 0.295983 0.115576
755 4 0.278429 0.275926 0.10118
756 4 0.270517 0.31604 0.129973
278 4 0.272648 0.270391 0.167711
612 4 0.283841 0.32799 0.13892
741 4 0.34882 0.306075 0.0900566
622 2 0.38741 0.272156 0.154709
624 4 0.407113 0.256979 0.152141
739 2 0.352345 0.328954 0.0995056
623 4 0.367706 0.287334 0.157276
323 4 0.434503 0.24391 0.0968511
672 4 0.447054 0.327816 0.109483
670 2 0.449868 0.332147 0.0850189
621 4 0.0129117 0.364963 0.0958692
619 2 0.0145977 0.345782 0.111819
647 4 0.0697441 0.37023 0.150325
454 2 0.113927 0.365225 0.0898866
456 4 0.126664 0.375116 0.108995
537 4 0.162627 0.34148 0.130268
535 2 0.181691 0.346307 0.14571
626 4 0.218253 0.413942 0.122202
536 4 0.200755 0.351133 0.161152
609 4 0.307996 0.34659 0.0992223
607 2 0.301929 0.364536 0.0829026
610 2 0.268707 0.338464 0.155844
740 4 0.355871 0.351834 0.108955
387 4 0.33752 0.398218 0.138313
15 3 0.382692 0.36247 0.132776
385 2 0.351397 0.378489 0.131729
386 4 0.365275 0.358759 0.125146
11 1 0.405116 0.366375 0.132039
13 3 0.414481 0.36272 0.152952
12 3 0.414818 0.351996 0.116931
302 4 0.346676 0.396838 0.156953
14 3 0.409133 0.388202 0.125267
495 4 0.424468 0.392706 0.138114
493 2 0.43452 0.41383 0.129287
595 2 0.485422 0.402826 0.154757
313 2 0.00497363 0.440904 0.0818319
314 4 0.0177976 0.461042 0.0892584
625 2 0.222612 0.422464 0.0991035
627 4 0.226971 0.430987 0.0760049
637 2 0.262929 0.485389 0.13699
638 4 0.275841 0.47173 0.15348
525 4 0.342091 0.490395 0.124324
523 2 0.338406 0.495998 0.100236
658 2 0.391115 0.469669 0.144557
659 4 0.371243 0.484815 0.145507
660 4 0.410987 0.454524 0.143606
494 4 0.444571 0.434954 0.12046
16 1 0.0614307 0.0523614 0.175437
17 3 0.0648224 0.0727863 0.185461
18 3 0.0576923 0.0364511 0.191908
2480 4 0.997605 0.0252812 0.169569
673 2 0.136111 0.0500748 0.218692
674 4 0.154597 0.0619869 0.206795
675 4 0.117624 0.0381628 0.230588
1505 4 0.211342 0.0468536 0.17893
1504 2 0.223241 0.0272549 0.168956
689 4 0.218035 0.0136004 0.205329
688 2 0.202759 0.0150676 0.225069
692 4 0.228615 0.082029 0.195158
654 4 0.305445 0.0268019 0.17192
1784 4 0.416515 0.992216 0.18054
21 1 0.373898 0.0424488 0.234549
23 3 0.380959 0.0220606 0.243084
24 3 0.350842 0.0423837 0.231934
25 3 0.383979 0.046396 0.214513
759 4 0.394182 0.0492706 0.198673
22 3 0.379657 0.059099 0.249339
757 2 0.406948 0.0549122 0.177928
742 2 0.465328 0.0562397 0.225548
743 4 0.48326 0.0736538 0.226162
744 4 0.447396 0.0388255 0.224934
379 2 0.00984577 0.140377 0.179519
381 4 0.0203203 0.155622 0.196344
511 2 0.0470475 0.154612 0.22763
513 4 0.0514726 0.153171 0.252197
579 4 0.0975608 0.0888028 0.208331
577 2 0.0976077 0.113643 0.211188
578 4 0.0976546 0.138482 0.214044
723 4 0.203133 0.106399 0.237108
691 2 0.222207 0.0928731 0.173559
721 2 0.18346 0.121577 0.239897
722 4 0.163786 0.136755 0.242687
580 2 0.294175 0.103571 0.172531
581 4 0.290352 0.101293 0.197135
30 3 0.29648 0.117361 0.207417
26 1 0.303503 0.115857 0.229028
28 3 0.285818 0.109596 0.242683
27 3 0.32005 0.0999482 0.230528
29 3 0.312062 0.136263 0.236009
333 4 0.419101 0.152931 0.234482
310 2 0.438238 0.117632 0.185483
311 4 0.44711 0.113223 0.208441
512 4 0.0426224 0.156053 0.203064
338 4 0.0811326 0.237922 0.16983
284 4 0.287303 0.226358 0.170524
283 2 0.27541 0.204906 0.165673
285 4 0.263517 0.183454 0.160822
764 4 0.352257 0.21046 0.19907
763 2 0.373018 0.220272 0.208963
765 4 0.393779 0.230085 0.218856
520 2 0.472126 0.218612 0.256814
521 4 0.451205 0.232249 0.258046
522 4 0.493047 0.204975 0.255582
395 4 0.0302059 0.272119 0.203381
394 2 0.018572 0.268293 0.22518
750 4 0.073399 0.295616 0.233737
396 4 0.00693812 0.264467 0.246979
363 4 0.0865344 0.24492 0.188269
361 2 0.108921 0.251915 0.196935
362 4 0.131307 0.25891 0.205601
372 4 0.147638 0.266257 0.212425
300 4 0.110722 0.337807 0.231224
277 2 0.2487 0.277261 0.169828
370 2 0.171148 0.264017 0.220635
371 4 0.194659 0.261776 0.228845
279 4 0.224752 0.284132 0.171946
343 2 0.25383 0.283533 0.243888
344 4 0.27541 0.274704 0.234856
307 2 0.315551 0.270682 0.2202
309 4 0.305735 0.289186 0.206546
308 4 0.325367 0.252177 0.233853
528 4 0.460268 0.250986 0.185343
526 2 0.476253 0.267441 0.1754
263 4 0.0753301 0.438641 0.224679
646 2 0.080921 0.352971 0.164551
648 4 0.0920978 0.335711 0.178777
298 2 0.130634 0.345809 0.244055
611 4 0.253573 0.348938 0.172769
303 4 0.330954 0.404693 0.20377
301 2 0.338815 0.400766 0.180362
729 4 0.314572 0.369326 0.251117
597 4 0.461884 0.39439 0.15485
643 2 0.455691 0.37503 0.18941
644 4 0.46167 0.36108 0.209281
645 4 0.449713 0.38898 0.16954
447 4 0.467137 0.362931 0.227716
262 2 0.0505615 0.441902 0.223647
264 4 0.0257929 0.445162 0.222615
417 4 0.134054 0.441663 0.204182
415 2 0.159036 0.44218 0.20327
416 4 0.184017 0.442697 0.202358
291 4 0.199673 0.439027 0.191669
289 2 0.21863 0.435737 0.207637
290 4 0.237587 0.432447 0.223605
768 4 0.244041 0.486614 0.212634
766 2 0.258426 0.481225 0.192906
767 4 0.272811 0.475836 0.173177
229 2 0.408711 0.497669 0.227347
231 4 0.414598 0.490115 0.204251
108 3 0.492617 0.410587 0.220322
232 2 0.0237685 0.0427978 0.285244
233 4 0.044316 0.0286688 0.287074
1402 2 0.067555 0.00810161 0.280463
1403 4 0.0636344 0.0273798 0.295895
234 4 0.00322101 0.0569269 0.283414
429 4 0.0898639 0.995003 0.326817
731 4 0.132315 0.0811014 0.309755
690 4 0.187482 0.0165348 0.244808
1701 4 0.23763 0.0203017 0.323163
1699 2 0.249407 0.027222 0.30222
1700 4 0.261183 0.0341424 0.281277
257 4 0.397043 0.0629428 0.336489
698 4 0.380882 0.0503266 0.337841
478 2 0.473023 0.0472028 0.325301
480 4 0.4668 0.0232849 0.321507
351 4 0.450135 0.0581705 0.262558
349 2 0.451135 0.0725997 0.282953
529 2 0.994249 0.138154 0.264531
530 4 0.0171041 0.133655 0.273619
398 4 0.0512697 0.128584 0.31264
397 2 0.0725574 0.115951 0.316166
546 4 0.167283 0.15349 0.253241
544 2 0.15478 0.169804 0.267478
399 4 0.093845 0.103318 0.319692
248 4 0.236116 0.0828879 0.292076
249 4 0.229844 0.130193 0.307029
247 2 0.23298 0.106541 0.299553
403 2 0.219705 0.160851 0.28947
600 4 0.207202 0.138169 0.330431
404 4 0.237096 0.143234 0.292988
632 4 0.358771 0.10783 0.301417
631 2 0.379224 0.0975301 0.311455
633 4 0.399677 0.0872304 0.321493
331 2 0.438285 0.154535 0.250438
332 4 0.457468 0.156139 0.266394
350 4 0.452134 0.0870289 0.303349
444 4 0.00952904 0.259112 0.310532
392 4 0.126607 0.188287 0.269125
391 2 0.10241 0.18868 0.275412
393 4 0.078213 0.189073 0.2817
545 4 0.142276 0.186118 0.281714
405 4 0.202315 0.178469 0.285951
401 4 0.187295 0.258826 0.285406
706 2 0.319292 0.181464 0.3148
708 4 0.312975 0.17196 0.337048
707 4 0.325609 0.190968 0.292553
762 4 0.468039 0.171188 0.275096
418 2 0.431211 0.214678 0.309254
419 4 0.439052 0.201801 0.329201
761 4 0.475074 0.170083 0.324593
760 2 0.471557 0.170636 0.299844
420 4 0.42337 0.227555 0.289307
443 4 0.0194968 0.264379 0.261812
442 2 0.0145129 0.261746 0.286172
390 4 0.0642064 0.266693 0.318857
748 2 0.085362 0.275929 0.243459
749 4 0.0973251 0.256243 0.253181
388 2 0.0837124 0.25737 0.331418
345 4 0.232251 0.292362 0.252919
400 2 0.207694 0.257523 0.299806
402 4 0.228093 0.256219 0.314206
508 2 0.239772 0.310119 0.329403
510 4 0.223857 0.291218 0.325575
496 2 0.313551 0.301171 0.293628
497 4 0.33342 0.287692 0.286649
498 4 0.293683 0.314651 0.300608
543 4 0.404299 0.32209 0.319301
615 4 0.38783 0.332206 0.315784
541 2 0.428138 0.325243 0.31245
542 4 0.451977 0.328396 0.305598
366 4 0.00550733 0.347056 0.271199
364 2 0.0255005 0.342114 0.285377
365 4 0.0454937 0.337172 0.299556
602 4 0.0653016 0.404939 0.296913
601 2 0.0855685 0.390901 0.292746
299 4 0.150547 0.35381 0.256887
603 4 0.105835 0.376863 0.28858
734 4 0.150662 0.371994 0.263842
733 2 0.159005 0.365343 0.286455
735 4 0.167347 0.358692 0.309068
677 4 0.176114 0.370484 0.323154
509 4 0.255687 0.32902 0.333231
433 2 0.316386 0.38873 0.323947
613 2 0.372007 0.339781 0.3336
727 2 0.325036 0.389208 0.262089
728 4 0.3355 0.40909 0.273061
434 4 0.331363 0.392664 0.304316
445 2 0.459942 0.371334 0.250139
446 4 0.452746 0.379737 0.272562
549 4 0.0354681 0.436439 0.322288
547 2 0.0551276 0.427008 0.334524
777 4 0.0867507 0.445946 0.2787
775 2 0.0942349 0.459238 0.298512
776 4 0.101719 0.472529 0.318324
414 4 0.140869 0.47387 0.287145
412 2 0.156222 0.461358 0.302406
413 4 0.171574 0.448846 0.317668
436 2 0.291877 0.453242 0.282256
437 4 0.289487 0.452974 0.257368
438 4 0.294267 0.45351 0.307144
230 4 0.402824 0.505222 0.250444
713 4 0.406378 0.464848 0.285704
2861 4 0.493291 0.48022 0.268188
712 2 0.430796 0.469719 0.287996
714 4 0.455213 0.474589 0.290288
316 2 0.0461038 0.0720895 0.342885
317 4 0.0499503 0.0563632 0.36194
428 4 0.0734071 0.0284172 0.360185
427 2 0.0816355 0.0117102 0.343501
1782 4 0.140748 0.0161655 0.384325
1780 2 0.127386 0.998056 0.39522
606 4 0.175028 0.0709909 0.377261
604 2 0.195578 0.0655884 0.364083
605 4 0.216129 0.060186 0.350905
683 4 0.291432 0.0666583 0.369095
682 2 0.28083 0.0826975 0.38508
697 2 0.365681 0.0312211 0.343235
699 4 0.350481 0.0121156 0.348629
256 2 0.411456 0.0614995 0.35687
424 2 0.405981 0.0303447 0.402798
479 4 0.479245 0.0711207 0.329095
258 4 0.425868 0.0600562 0.377251
426 4 0.419401 0.0466555 0.389417
318 4 0.0422574 0.0878157 0.323831
732 4 0.121556 0.0955062 0.356419
730 2 0.126935 0.0883038 0.333087
685 2 0.151749 0.151133 0.402496
598 2 0.191473 0.155148 0.33989
686 4 0.171405 0.16466 0.395021
684 4 0.270228 0.0987367 0.401065
452 4 0.501964 0.147437 0.371906
451 2 0.479042 0.153434 0.379893
453 4 0.45612 0.159432 0.38788
514 2 0.423777 0.142408 0.407241
515 4 0.439483 0.147057 0.38835
2653 2 0.0179778 0.221549 0.3714
2654 4 0.041099 0.215106 0.378405
599 4 0.175744 0.172128 0.34935
474 4 0.231574 0.21588 0.356713
274 2 0.201768 0.245328 0.397405
275 4 0.178331 0.244915 0.388702
472 2 0.255251 0.209237 0.352194
473 4 0.278929 0.202594 0.347674
488 4 0.296141 0.216538 0.384254
487 2 0.288034 0.233475 0.400764
715 2 0.35357 0.245183 0.356028
716 4 0.339488 0.235936 0.374505
304 2 0.4888 0.201711 0.417755
305 4 0.49144 0.185773 0.398672
616 2 0.0707591 0.321948 0.373344
618 4 0.0665793 0.303746 0.389969
347 4 0.0522914 0.314735 0.400577
389 4 0.103218 0.248047 0.343979
375 4 0.164307 0.328577 0.393352
276 4 0.225204 0.245741 0.406108
373 2 0.18784 0.320378 0.395388
374 4 0.211373 0.312179 0.397424
376 2 0.290068 0.286287 0.347602
377 4 0.31452 0.281086 0.348039
378 4 0.265615 0.291489 0.347166
489 4 0.279927 0.250412 0.417274
717 4 0.367652 0.254429 0.337552
268 2 0.499292 0.268756 0.398012
408 4 0.0768618 0.42134 0.412879
548 4 0.0747872 0.417576 0.34676
617 4 0.0749389 0.340151 0.35672
676 2 0.190515 0.354208 0.335519
678 4 0.204916 0.337933 0.347884
503 4 0.277412 0.404956 0.403585
435 4 0.301408 0.384796 0.343578
614 4 0.356183 0.347356 0.351416
336 4 0.37655 0.37782 0.392028
561 4 0.468255 0.394659 0.395431
752 4 0.482506 0.404317 0.383562
559 2 0.474391 0.380458 0.415075
751 2 0.461051 0.409368 0.371757
406 2 0.0817922 0.419932 0.388406
407 4 0.0867225 0.418524 0.363934
499 2 0.103493 0.476367 0.376379
500 4 0.114868 0.477644 0.35415
501 4 0.0921177 0.475091 0.398609
570 4 0.165118 0.480712 0.420219
5 3 0.300896 0.442953 0.365921
1 1 0.313631 0.460862 0.371898
2 3 0.300295 0.479563 0.37315
4 3 0.323288 0.457133 0.392664
3 3 0.330154 0.464481 0.356014
594 4 0.381638 0.479027 0.366585
592 2 0.396838 0.477244 0.346812
117 3 0.494428 0.447001 0.344954
593 4 0.412039 0.475461 0.32704
753 4 0.439596 0.41442 0.359953
718 2 0.0566392 0.0615821 0.479571
720 4 0.0439044 0.0451584 0.493473
719 4 0.069374 0.0780058 0.465669
367 2 0.119809 0.0538936 0.443275
369 4 0.11647 0.074467 0.457087
368 4 0.123149 0.0333201 0.429464
340 2 0.184113 0.0520911 0.493209
341 4 0.183859 0.0271018 0.494015
1181 4 0.243101 0.0558159 0.479217
2430 4 0.202912 0.0189778 0.494913
1180 2 0.24735 0.0793305 0.486578
441 4 0.275695 0.0312978 0.425949
439 2 0.282275 0.00967931 0.415247
726 4 0.31478 0.068262 0.458637
425 4 0.392562 0.0140339 0.416179
2878 2 0.488914 0.0775091 0.446788
458 4 0.0350766 0.159483 0.426436
687 4 0.132094 0.137606 0.409971
1152 4 0.189483 0.0920255 0.501923
320 4 0.286159 0.103318 0.41142
321 4 0.262407 0.141501 0.433297
319 2 0.274283 0.12241 0.422358
1182 4 0.251599 0.102845 0.493939
724 2 0.337428 0.0777813 0.453986
725 4 0.360076 0.0873006 0.449336
574 2 0.400738 0.149571 0.461369
575 4 0.413525 0.150964 0.439927
516 4 0.40807 0.137759 0.426132
576 4 0.387951 0.148177 0.48281
642 4 0.468171 0.105386 0.466996
2880 4 0.47407 0.0847455 0.465562
640 2 0.471655 0.119376 0.487424
457 2 0.0135876 0.171785 0.429906
471 4 0.017203 0.164825 0.481283
469 2 0.0245633 0.188701 0.48226
470 4 0.0319237 0.212577 0.483237
260 4 0.110107 0.195517 0.424124
261 4 0.122682 0.180041 0.469984
259 2 0.116395 0.187779 0.447054
1035 4 0.112713 0.177489 0.486869
695 4 0.117432 0.244734 0.473272
468 4 0.328463 0.164344 0.433054
411 4 0.265448 0.204334 0.47303
409 2 0.289096 0.196332 0.474425
410 4 0.312744 0.188331 0.47582
467 4 0.37747 0.171267 0.425909
466 2 0.352966 0.167806 0.429482
872 4 0.404196 0.243549 0.485987
306 4 0.48616 0.21765 0.436839
346 2 0.0449027 0.300207 0.419538
348 4 0.037514 0.28568 0.4385
327 4 0.110701 0.348758 0.47693
694 2 0.11438 0.264334 0.488494
696 4 0.111329 0.283934 0.503716
10 3 0.172855 0.322261 0.480302
651 4 0.249176 0.261369 0.444265
649 2 0.252537 0.283167 0.456044
650 4 0.255897 0.304964 0.467823
266 4 0.324435 0.290049 0.446278
812 4 0.301757 0.310531 0.488292
267 4 0.357481 0.252962 0.452036
265 2 0.340958 0.271506 0.449157
270 4 0.484826 0.250152 0.406368
583 2 0.458769 0.283151 0.459995
584 4 0.483716 0.283782 0.458439
585 4 0.433822 0.28252 0.461551
681 4 0.0538646 0.419386 0.445004
383 4 0.08047 0.418859 0.459089
325 2 0.101476 0.341764 0.454768
6 1 0.161329 0.336181 0.494159
326 4 0.0922516 0.334769 0.432606
7 3 0.138797 0.332095 0.491975
711 4 0.165531 0.378283 0.485407
504 4 0.23958 0.398089 0.435558
709 2 0.183506 0.382443 0.468533
710 4 0.201482 0.386603 0.451658
774 4 0.237661 0.411792 0.485405
8 3 0.165531 0.35828 0.488467
502 2 0.258496 0.401523 0.419572
334 2 0.373707 0.382009 0.416514
238 2 0.391381 0.37766 0.470709
240 4 0.376555 0.370288 0.451974
335 4 0.370864 0.386197 0.441
239 4 0.406206 0.385032 0.489445
560 4 0.480527 0.366258 0.434719
934 2 0.00516356 0.453684 0.509828
680 4 0.0246849 0.454973 0.425438
1381 2 0.0249594 0.489469 0.445407
1383 4 0.0215028 0.475207 0.425162
679 2 0.0392748 0.43718 0.435221
539 4 0.0726702 0.491393 0.495065
540 4 0.121701 0.488868 0.504571
568 2 0.151629 0.46528 0.434539
569 4 0.138139 0.449849 0.44886
382 2 0.100029 0.43174 0.45033
384 4 0.119589 0.44462 0.441572
538 2 0.0971854 0.49013 0.499818
1557 4 0.243443 0.504762 0.413131
636 4 0.252136 0.47496 0.460278
634 2 0.247333 0.452005 0.468949
635 4 0.242531 0.42905 0.47762
669 4 0.300933 0.416156 0.464661
667 2 0.299634 0.436864 0.450707
668 4 0.298335 0.457571 0.436754
1401 4 0.338775 0.49963 0.439319
586 2 0.394217 0.436637 0.43647
588 4 0.372731 0.442351 0.425029
663 4 0.458919 0.469704 0.469621
587 4 0.415702 0.430922 0.44791
661 2 0.475461 0.480782 0.484747
1126 2 0.0451702 0.0460093 0.531311
1127 4 0.0456563 0.0346001 0.509067
1128 4 0.0446841 0.0574185 0.553554
2237 4 0.0312662 0.0305256 0.495429
2236 2 0.0274781 0.00611602 0.499302
1058 4 0.121599 0.0701151 0.552403
2428 2 0.202856 0.00472403 0.515456
342 4 0.184367 0.0770804 0.492403
1030 2 0.255638 0.0790268 0.569184
961 2 0.284628 0.0343541 0.519114
963 4 0.304733 0.0488001 0.522616
962 4 0.264522 0.0199082 0.515613
432 4 0.301793 0.0639231 0.51033
430 2 0.324642 0.074058 0.5097
1217 4 0.407438 0.0494893 0.545226
1216 2 0.404591 0.0275621 0.556899
841 2 0.383175 0.0659195 0.524068
842 4 0.407164 0.0604159 0.528474
1218 4 0.401745 0.00563482 0.568573
1062 4 0.484121 0.0184308 0.515886
938 4 0.0815321 0.120474 0.541143
1057 2 0.130964 0.086728 0.568573
937 2 0.103757 0.13059 0.546519
939 4 0.125982 0.140706 0.551894
1151 4 0.18989 0.140628 0.513686
1150 2 0.189687 0.116327 0.507804
1032 4 0.258163 0.100247 0.556203
899 4 0.328128 0.145799 0.555977
843 4 0.359186 0.0714232 0.519662
431 4 0.347491 0.084193 0.50907
641 4 0.475139 0.133366 0.507853
877 2 0.0598923 0.21453 0.583301
878 4 0.0352806 0.210269 0.584433
1199 4 0.0157895 0.188252 0.576488
1034 4 0.11058 0.176844 0.536827
879 4 0.0845041 0.218791 0.582168
1033 2 0.111647 0.177166 0.511848
856 2 0.235573 0.201708 0.545648
1221 4 0.190621 0.188537 0.57808
857 4 0.213864 0.206486 0.5342
797 4 0.218935 0.229952 0.584896
898 2 0.325288 0.166807 0.542718
858 4 0.257282 0.19693 0.557096
900 4 0.322448 0.187814 0.529458
791 4 0.30295 0.231447 0.563807
871 2 0.391739 0.252835 0.505578
905 4 0.484613 0.224193 0.568725
1258 2 0.139141 0.28995 0.533005
1260 4 0.116527 0.290133 0.522341
1259 4 0.161756 0.289767 0.54367
9 3 0.167546 0.332355 0.516184
811 2 0.32148 0.304211 0.502301
804 4 0.296293 0.333693 0.522126
792 4 0.318415 0.272418 0.587951
790 2 0.310682 0.251932 0.575879
813 4 0.341202 0.29789 0.516309
873 4 0.379283 0.26212 0.525169
983 4 0.0339875 0.349333 0.556436
982 2 0.0307923 0.3454 0.580921
1189 2 0.229055 0.365739 0.557542
773 4 0.247702 0.376444 0.519322
1190 4 0.241772 0.369819 0.536404
1191 4 0.216337 0.361658 0.57868
772 2 0.242681 0.394118 0.502363
802 2 0.278678 0.349071 0.53098
803 4 0.261062 0.364448 0.539833
930 4 0.321877 0.388087 0.575502
928 2 0.340887 0.382978 0.560084
929 4 0.359896 0.377869 0.544666
925 2 0.457486 0.393489 0.526959
927 4 0.475229 0.404969 0.540323
926 4 0.439744 0.382009 0.513596
936 4 0.0126758 0.463415 0.531601
1161 4 0.168486 0.454606 0.564167
1171 2 0.233625 0.452297 0.57593
1173 4 0.209678 0.457119 0.570594
1172 4 0.257572 0.447476 0.581266
882 4 0.320011 0.456381 0.531963
880 2 0.343993 0.462422 0.528283
881 4 0.367975 0.468463 0.524603
1952 4 0.34195 0.482217 0.563219
1951 2 0.361903 0.493802 0.572854
1000 2 0.427376 0.437699 0.574126
1001 4 0.437221 0.453059 0.557029
662 4 0.492003 0.49186 0.499873
1083 4 0.0619536 0.0931035 0.625157
945 4 0.0643816 0.00969417 0.668319
825 4 0.128802 0.0194494 0.636236
823 2 0.150243 0.00660396 0.636921
951 4 0.249119 0.0417501 0.591868
1031 4 0.253114 0.057807 0.582166
949 2 0.27008 0.0289173 0.596467
950 4 0.291041 0.0160846 0.601065
1092 4 0.326875 0.0170512 0.651585
809 4 0.481589 0.0846904 0.613467
808 2 0.475128 0.0798595 0.637133
810 4 0.468666 0.0750286 0.660799
1082 4 0.0351025 0.109465 0.664042
1081 2 0.048528 0.101284 0.644599
1154 4 0.175722 0.151024 0.573824
1059 4 0.140328 0.103341 0.584744
1153 2 0.167913 0.128101 0.580048
1155 4 0.160104 0.105178 0.586272
909 4 0.136271 0.137376 0.658956
1284 4 0.163162 0.0996197 0.62604
1283 4 0.20435 0.0953443 0.654075
1282 2 0.183756 0.097482 0.640058
1272 4 0.102542 0.216121 0.588504
1270 2 0.125214 0.223743 0.595789
1271 4 0.147886 0.231366 0.603073
1210 2 0.23741 0.189828 0.647364
1212 4 0.21361 0.19408 0.640989
1219 2 0.202436 0.191784 0.599876
1220 4 0.214251 0.195032 0.621671
796 2 0.237713 0.2329 0.60114
798 4 0.256491 0.235848 0.617384
947 4 0.19139 0.250208 0.609604
1211 4 0.261211 0.185575 0.65374
888 4 0.267069 0.199148 0.666692
1193 4 0.360465 0.230844 0.664111
904 2 0.462146 0.217441 0.577376
906 4 0.439679 0.21069 0.586027
1024 2 0.449359 0.190122 0.667354
1025 4 0.450341 0.192318 0.642466
1243 2 0.0616056 0.247183 0.633698
1244 4 0.057961 0.245545 0.609015
1245 4 0.0652503 0.24882 0.65838
946 2 0.187148 0.268832 0.625738
948 4 0.182905 0.287456 0.641873
1238 4 0.314187 0.291881 0.587188
1237 2 0.308614 0.313248 0.598918
954 4 0.43034 0.285567 0.600582
952 2 0.455046 0.284395 0.604242
953 4 0.479753 0.283222 0.607903
984 4 0.0275971 0.341466 0.605406
1040 4 0.0797382 0.389788 0.645079
1039 2 0.0608828 0.378423 0.633226
1041 4 0.0420274 0.367058 0.621373
3263 4 0.0261085 0.354429 0.621403
3262 2 0.0048194 0.358894 0.633732
1137 4 0.117027 0.398575 0.580302
897 4 0.159598 0.38252 0.591318
1136 4 0.108774 0.355215 0.603808
1135 2 0.112901 0.376895 0.592055
991 2 0.12139 0.401647 0.651467
993 4 0.0966047 0.40077 0.648291
896 4 0.206841 0.366569 0.595115
895 2 0.18322 0.374545 0.593216
1239 4 0.30304 0.334614 0.610648
806 4 0.320118 0.362001 0.661209
1029 4 0.255733 0.392052 0.667055
1204 2 0.409292 0.401118 0.645158
1205 4 0.428338 0.385591 0.640542
992 4 0.146176 0.402525 0.654643
1159 2 0.176427 0.446932 0.5866
1187 4 0.228087 0.479319 0.598051
1160 4 0.184368 0.439258 0.609033
1186 2 0.217253 0.4929 0.616033
889 2 0.314449 0.449202 0.600524
891 4 0.290296 0.451824 0.594613
1206 4 0.390245 0.416646 0.649775
890 4 0.338602 0.44658 0.606436
1002 4 0.417531 0.422338 0.591223
1269 4 0.436472 0.456555 0.664315
944 4 0.0792697 0.0564306 0.678053
943 2 0.0718256 0.0330624 0.673186
1147 2 0.207393 0.062242 0.738269
1090 2 0.336422 0.0241029 0.673592
1091 4 0.34597 0.0311547 0.695598
1003 2 0.335981 0.0804275 0.694651
1004 4 0.337961 0.0752052 0.719023
1163 4 0.481342 0.0606127 0.666786
1162 2 0.499909 0.0468072 0.676266
42 3 0.427941 0.062428 0.69658
2320 2 0.484258 0.0176526 0.736698
2283 4 0.43798 0.000722137 0.685736
1076 4 0.0377997 0.124764 0.676868
864 4 0.0651325 0.112369 0.730704
1075 2 0.0422934 0.116892 0.700171
1077 4 0.0467871 0.109019 0.723473
907 2 0.14817 0.143757 0.680001
908 4 0.160069 0.150137 0.701045
1227 4 0.173662 0.135992 0.706005
1148 4 0.201134 0.0828488 0.725566
1225 2 0.180209 0.115607 0.718919
1226 4 0.186757 0.0952226 0.731833
1005 4 0.334001 0.0856497 0.67028
829 2 0.337809 0.161107 0.702294
831 4 0.354698 0.143024 0.698688
45 3 0.416732 0.0906764 0.674918
43 3 0.441147 0.0970516 0.702862
41 1 0.434362 0.0820767 0.686488
1142 4 0.401392 0.147645 0.71471
44 3 0.451946 0.0776727 0.672004
3425 4 0.503823 0.143421 0.704625
851 4 0.0804954 0.194727 0.702449
852 4 0.0324458 0.182582 0.695783
850 2 0.0564706 0.188655 0.699116
1213 2 0.024321 0.227736 0.744127
1215 4 0.00393585 0.230736 0.729962
1209 4 0.0798154 0.239588 0.667557
1107 4 0.0856013 0.184137 0.718308
1105 2 0.0963939 0.177761 0.739942
1207 2 0.101886 0.244537 0.678214
1208 4 0.123956 0.249487 0.688871
1130 4 0.18727 0.176832 0.748414
830 4 0.320921 0.179189 0.705899
886 2 0.285414 0.191993 0.682102
887 4 0.303759 0.184838 0.697511
976 2 0.285223 0.199468 0.738562
978 4 0.286978 0.174688 0.735723
977 4 0.283469 0.224247 0.741401
1192 2 0.361346 0.213533 0.682131
1194 4 0.362228 0.196221 0.700151
1143 4 0.426921 0.188513 0.728078
1141 2 0.414157 0.168079 0.721394
1026 4 0.448377 0.187926 0.692242
1261 2 0.451577 0.223191 0.715768
1263 4 0.467893 0.241271 0.710104
1262 4 0.435261 0.205111 0.721432
820 2 0.184776 0.282723 0.739917
821 4 0.172886 0.302159 0.729617
1065 4 0.221444 0.285765 0.699804
1063 2 0.233647 0.288957 0.678215
1064 4 0.245849 0.292149 0.656626
3123 4 0.466861 0.280224 0.686814
3121 2 0.486053 0.264471 0.683869
3274 2 0.00687159 0.397926 0.733898
892 2 0.0523117 0.374277 0.711517
893 4 0.0625325 0.365313 0.690532
894 4 0.042091 0.383242 0.732501
3276 4 0.025603 0.383898 0.742703
940 2 0.13552 0.400132 0.741463
941 4 0.157394 0.406567 0.731202
942 4 0.113645 0.393698 0.751723
1067 4 0.164644 0.397682 0.715677
1028 4 0.219972 0.418802 0.689557
1066 2 0.182361 0.4067 0.700512
1068 4 0.200078 0.415718 0.685348
1027 2 0.237853 0.405427 0.678306
805 2 0.32891 0.347782 0.679802
807 4 0.337703 0.333563 0.698395
1019 4 0.38406 0.367799 0.725619
1018 2 0.381751 0.370183 0.750401
1281 4 0.0319807 0.458531 0.696137
1280 4 0.0770642 0.440404 0.707953
1279 2 0.0545225 0.449468 0.702045
1983 4 0.0341355 0.498123 0.730092
1981 2 0.0231451 0.4858 0.748867
1176 4 0.219393 0.471112 0.726403
1174 2 0.216441 0.48608 0.706593
1139 4 0.271668 0.421136 0.715312
1138 2 0.28236 0.440224 0.703208
1140 4 0.293053 0.459312 0.691104
1228 2 0.364789 0.457054 0.713084
1229 4 0.357212 0.480874 0.713681
1230 4 0.372367 0.433234 0.712487
1989 4 0.354716 0.496263 0.725751
1268 4 0.455649 0.500733 0.677779
1267 2 0.446061 0.478644 0.671047
1100 4 0.430365 0.45174 0.713132
1099 2 0.448707 0.43607 0.706562
1101 4 0.467049 0.420399 0.699992
1294 2 0.011205 0.0226706 0.802513
911 4 0.0605079 0.0698561 0.81505
1296 4 0.00819659 0.0287514 0.826579
1295 4 0.0142135 0.0165898 0.778448
1203 4 0.112831 0.0836175 0.759925
1201 2 0.105353 0.061556 0.76901
1202 4 0.0978749 0.0394945 0.778096
2049 4 0.0936692 0.0205047 0.782631
910 2 0.0798428 0.0836456 0.822872
1149 4 0.213652 0.0416352 0.750972
1255 2 0.269219 0.0596161 0.82291
1257 4 0.255183 0.0466569 0.806779
975 4 0.366391 0.00572639 0.819382
1113 4 0.426397 0.0443462 0.784415
1112 4 0.419232 0.0474997 0.833806
844 2 0.480534 0.0648127 0.763241
1111 2 0.422815 0.045923 0.809111
845 4 0.460454 0.0602947 0.777438
862 2 0.0536407 0.113508 0.752881
863 4 0.0421489 0.114647 0.775058
832 2 0.0100261 0.12735 0.796597
833 4 0.0290793 0.129289 0.780522
34 3 0.0980432 0.147799 0.823529
31 1 0.100623 0.16327 0.806429
33 3 0.120055 0.158795 0.794564
35 3 0.0826443 0.162496 0.792472
912 4 0.0991777 0.0974352 0.830695
839 4 0.237058 0.11942 0.819665
838 2 0.259933 0.129045 0.822706
840 4 0.282809 0.138671 0.825748
1086 4 0.313335 0.155814 0.797525
1084 2 0.329375 0.142584 0.811412
1085 4 0.345416 0.129354 0.825299
3468 4 0.487715 0.159755 0.825322
1214 4 0.0447061 0.224736 0.758291
1073 4 0.0865375 0.230922 0.77731
32 3 0.10219 0.184305 0.815606