ITEM: TIMESTEP
3060000
ITEM: NUMBER OF ATOMS
4590
ITEM: BOX BOUNDS pp pp pp
-9.9985700000000008e+00 9.9985700000000008e+00
-9.9985700000000008e+00 9.9985700000000008e+00
-9.9985700000000008e+00 9.9985700000000008e+00
ITEM: ATOMS id type xs ys zs
465 4 0.0743373 0.077246 0.00687376
463 2 0.0575953 0.0885799 0.0215852
701 4 0.0849633 0.0619466 0.0159254
700 2 0.109314 0.0653151 0.0204945
702 4 0.133665 0.0686836 0.0250636
566 4 0.151159 0.0693435 0.0155435
746 4 0.48941 0.0507325 0.035298
2469 4 0.488732 0.0341376 0.0468414
745 2 0.473629 0.0527828 0.0160123
2467 2 0.49916 0.0145006 0.0582793
464 4 0.0408533 0.0999138 0.0362967
590 4 0.0382237 0.109978 0.0531113
589 2 0.019017 0.105657 0.0685259
558 4 0.369457 0.117543 0.0371559
556 2 0.365394 0.104216 0.0579173
866 4 0.370657 0.136235 0.0295253
865 2 0.36487 0.160297 0.0259574
827 4 0.367587 0.120845 0.0180369
557 4 0.36133 0.0908877 0.0786786
826 2 0.379182 0.108848 0.999414
554 4 0.0299803 0.222023 0.0282522
553 2 0.054892 0.220014 0.0289965
555 4 0.0798037 0.218006 0.0297408
835 2 0.119156 0.209654 0.0164302
836 4 0.0969548 0.210432 0.0279052
837 4 0.141357 0.208877 0.00495528
573 4 0.329468 0.246997 0.0666104
666 4 0.340199 0.230567 0.0677836
664 2 0.350683 0.212435 0.0541283
665 4 0.361168 0.194302 0.040473
867 4 0.359083 0.184358 0.0223894
1070 4 0.424827 0.237429 0.0740975
2808 4 0.0521504 0.289533 0.0353811
2806 2 0.0271585 0.290007 0.0359815
2807 4 0.00216666 0.290481 0.0365818
292 2 0.0968474 0.327505 0.0853017
356 4 0.309893 0.309757 0.0547779
572 4 0.305706 0.288924 0.0532614
355 2 0.310272 0.328273 0.0379794
571 2 0.317587 0.26796 0.0599359
1069 2 0.439232 0.256855 0.0804474
323 4 0.45323 0.33073 0.0776257
620 4 0.0117309 0.374574 0.078521
647 4 0.0171817 0.354668 0.0759858
293 4 0.113172 0.342886 0.0742505
507 4 0.12015 0.349868 0.0576143
505 2 0.138763 0.366138 0.0538698
483 4 0.161314 0.401315 0.0462533
506 4 0.157376 0.382408 0.0501252
481 2 0.182083 0.411573 0.036841
607 2 0.248001 0.415085 0.0302751
357 4 0.310651 0.346789 0.0211809
902 4 0.306512 0.361144 0.00708693
608 4 0.272718 0.411768 0.0284759
671 4 0.491937 0.375393 0.0698738
280 2 0.495212 0.41124 0.0590012
670 2 0.472124 0.362405 0.0778665
672 4 0.45231 0.349416 0.0858592
550 2 0.0581323 0.444431 0.0815647
552 4 0.0760209 0.456638 0.0690674
1787 4 0.0776612 0.468672 0.0538442
1786 2 0.0739535 0.473763 0.0296468
1788 4 0.0702458 0.478854 0.00544942
242 4 0.0941051 0.4628 0.0634599
241 2 0.110877 0.473937 0.0782876
626 4 0.18598 0.423448 0.0872332
482 4 0.202852 0.421832 0.0274286
609 4 0.223284 0.418401 0.0320743
246 4 0.244128 0.480144 0.0267175
244 2 0.241244 0.473828 0.0507377
245 4 0.23836 0.467512 0.0747579
272 4 0.24189 0.487191 0.00769818
627 4 0.221319 0.45663 0.0749536
625 2 0.20365 0.440039 0.0810934
1778 4 0.252833 0.495733 0.0213764
252 4 0.28246 0.429895 0.0264887
250 2 0.29638 0.450241 0.0223113
251 4 0.3103 0.470587 0.0181339
2289 4 0.325364 0.483155 0.021093
957 4 0.397775 0.413212 0.00701501
525 4 0.431189 0.493331 0.0803973
226 2 0.457557 0.466587 0.0631608
227 4 0.469295 0.445348 0.0571355
228 4 0.445818 0.487826 0.0691861
282 4 0.486322 0.434259 0.0549689
16 1 0.0724035 0.0400504 0.137619
20 3 0.0702316 0.0490388 0.116807
18 3 0.0627837 0.0189421 0.13817
19 3 0.062221 0.0538074 0.153286
1806 4 0.0577849 0.0133598 0.120783
380 4 0.0782003 0.0588613 0.165509
17 3 0.0947443 0.0381778 0.14277
675 4 0.0959411 0.0512909 0.159424
673 2 0.120773 0.0541516 0.160042
674 4 0.145604 0.0570124 0.160661
652 2 0.321944 0.023672 0.149335
654 4 0.302985 0.0167627 0.1641
653 4 0.340902 0.0305813 0.13457
484 2 0.366312 0.0101053 0.121679
297 4 0.348711 0.0457856 0.125536
485 4 0.360096 0.031773 0.132498
295 2 0.353894 0.0589955 0.10495
296 4 0.359078 0.0722054 0.0843632
2625 4 0.00891277 0.101749 0.149141
579 4 0.100322 0.143274 0.0947733
237 4 0.145467 0.162962 0.139096
577 2 0.116825 0.154977 0.109465
235 2 0.15616 0.146188 0.154245
236 4 0.166852 0.129414 0.169393
693 4 0.185154 0.12243 0.165517
691 2 0.208202 0.118523 0.156646
692 4 0.23125 0.114616 0.147775
582 4 0.245794 0.100821 0.14212
580 2 0.267235 0.113653 0.14123
581 4 0.288677 0.126485 0.14034
30 3 0.299211 0.136178 0.15431
29 3 0.324675 0.16064 0.16738
771 4 0.406482 0.162173 0.0952411
578 4 0.133329 0.16668 0.124157
737 4 0.152299 0.172649 0.123655
476 4 0.13991 0.180906 0.136052
475 2 0.126884 0.196617 0.150498
736 2 0.168481 0.187919 0.112245
738 4 0.184662 0.203189 0.100835
354 4 0.318829 0.231804 0.147623
285 4 0.329653 0.17412 0.152468
462 4 0.327143 0.231803 0.131338
460 2 0.332501 0.236864 0.107446
352 2 0.295306 0.239866 0.150245
353 4 0.271784 0.247928 0.152867
461 4 0.337858 0.241924 0.0835527
283 2 0.33184 0.198731 0.148628
284 4 0.334027 0.223341 0.144788
255 4 0.333568 0.240797 0.145096
253 2 0.354239 0.246202 0.158082
769 2 0.42738 0.174853 0.100501
770 4 0.448278 0.187532 0.10576
1014 4 0.461184 0.188616 0.121848
1013 4 0.467335 0.237666 0.129398
1012 2 0.464259 0.213141 0.125623
294 4 0.080523 0.312125 0.096353
456 4 0.0635685 0.319103 0.105419
455 4 0.0627063 0.322427 0.155308
454 2 0.0631374 0.320765 0.130364
648 4 0.0602598 0.335322 0.0924405
749 4 0.0448673 0.321217 0.16455
610 2 0.228589 0.332727 0.126316
612 4 0.230532 0.311111 0.138733
756 4 0.247129 0.304676 0.129352
754 2 0.252456 0.282727 0.140077
755 4 0.257782 0.260777 0.150803
322 2 0.455929 0.309208 0.090063
1071 4 0.453637 0.276281 0.0867973
324 4 0.458628 0.287686 0.1025
519 4 0.498602 0.272245 0.108939
646 2 0.0387207 0.344995 0.0842131
536 4 0.197049 0.409803 0.0988853
611 4 0.226646 0.354342 0.1139
535 2 0.204463 0.386012 0.100936
537 4 0.211877 0.362221 0.102986
387 4 0.335953 0.41392 0.125776
739 2 0.399251 0.376243 0.109943
740 4 0.392659 0.388336 0.13081
385 2 0.357605 0.403701 0.132982
386 4 0.379258 0.393482 0.140189
495 4 0.395834 0.400844 0.144955
15 3 0.383474 0.374106 0.141202
741 4 0.405843 0.364149 0.0890746
11 1 0.39079 0.376703 0.162612
12 3 0.404898 0.359338 0.167957
14 3 0.402396 0.396693 0.164643
551 4 0.0402437 0.432225 0.0940621
1466 4 0.00150624 0.491399 0.108055
1791 4 0.00803031 0.502466 0.121729
243 4 0.127649 0.485073 0.0931154
1440 4 0.141731 0.497243 0.103297
1438 2 0.164413 0.492437 0.112657
1439 4 0.187095 0.487632 0.122017
639 4 0.20043 0.494913 0.110391
637 2 0.225063 0.498316 0.113003
303 4 0.319747 0.476499 0.10646
768 4 0.301872 0.486471 0.108042
301 2 0.322262 0.453962 0.116994
302 4 0.324776 0.431426 0.127528
493 2 0.40844 0.422005 0.140654
660 4 0.412241 0.460835 0.142481
494 4 0.421045 0.443166 0.136353
524 4 0.42299 0.498222 0.129485
523 2 0.427089 0.495776 0.104941
658 2 0.422489 0.474556 0.160698
379 2 0.0670666 0.079582 0.173986
450 4 0.153374 0.0639481 0.176724
1505 4 0.15594 0.0453576 0.17221
1504 2 0.164426 0.0231501 0.179956
1506 4 0.172912 0.000942557 0.187701
757 2 0.46566 0.031648 0.20858
25 3 0.437737 0.0153155 0.233262
759 4 0.455739 0.0226625 0.229699
758 4 0.475581 0.0406334 0.187462
350 4 0.451194 0.0161091 0.247635
512 4 0.0667037 0.115764 0.187752
381 4 0.0559328 0.100303 0.182464
511 2 0.0756105 0.138407 0.193511
513 4 0.0845173 0.161049 0.19927
448 2 0.161653 0.0869684 0.171557
449 4 0.169932 0.109989 0.166389
26 1 0.314603 0.139995 0.170656
28 3 0.304363 0.139391 0.191469
27 3 0.330747 0.12363 0.169832
521 4 0.497624 0.132338 0.225694
339 4 0.0749136 0.17786 0.204802
337 2 0.0883739 0.194729 0.192176
477 4 0.113858 0.212328 0.164943
363 4 0.112794 0.227292 0.177294
338 4 0.101834 0.211598 0.179549
362 4 0.134755 0.246048 0.218118
361 2 0.123775 0.23667 0.197706
370 2 0.161164 0.245057 0.24106
628 2 0.39509 0.214694 0.184813
629 4 0.405273 0.19296 0.191823
630 4 0.384907 0.236427 0.177804
312 4 0.421845 0.198767 0.181059
311 4 0.470389 0.186936 0.179003
310 2 0.446117 0.192851 0.180031
750 4 0.0545131 0.295964 0.206621
395 4 0.0393511 0.29532 0.217444
748 2 0.0496902 0.308591 0.185585
394 2 0.0305899 0.289791 0.2402
372 4 0.148984 0.258945 0.22421
300 4 0.119974 0.317154 0.178259
298 2 0.122719 0.328535 0.200352
278 4 0.262503 0.254142 0.16884
277 2 0.266429 0.259019 0.193047
279 4 0.270355 0.263897 0.217254
401 4 0.263634 0.325704 0.23023
496 2 0.297744 0.335392 0.213777
497 4 0.316084 0.333113 0.196936
254 4 0.374911 0.251608 0.171068
308 4 0.336905 0.328574 0.198646
765 4 0.387665 0.253622 0.185962
763 2 0.406018 0.269956 0.190604
528 4 0.494607 0.313471 0.201675
764 4 0.424371 0.286291 0.195245
624 4 0.478971 0.301354 0.203447
622 2 0.45403 0.301572 0.205205
623 4 0.429089 0.30179 0.206963
262 2 0.0613709 0.412431 0.212803
264 4 0.0366107 0.414229 0.215783
263 4 0.0861312 0.410633 0.209824
299 4 0.125464 0.339915 0.222446
734 4 0.116973 0.341281 0.239605
602 4 0.102966 0.403596 0.218628
601 2 0.111589 0.380734 0.223934
603 4 0.120211 0.357871 0.22924
290 4 0.168278 0.388692 0.218652
289 2 0.168255 0.407497 0.202174
498 4 0.279405 0.337671 0.230619
307 2 0.35352 0.342881 0.186627
309 4 0.370134 0.357188 0.174608
13 3 0.372763 0.376491 0.17722
2617 2 0.00318786 0.425057 0.241605
2618 4 0.0242331 0.422904 0.228277
291 4 0.168233 0.426303 0.185695
416 4 0.171018 0.445311 0.178709
415 2 0.182299 0.465195 0.188834
1430 4 0.213698 0.485179 0.202003
417 4 0.19358 0.48508 0.19896
597 4 0.491407 0.46241 0.187227
596 4 0.451599 0.492266 0.182262
659 4 0.432736 0.488278 0.178916
595 2 0.471503 0.477338 0.184744
1799 4 0.0135595 0.0166109 0.302455
233 4 0.0119762 0.0347065 0.295963
1402 2 0.0519175 0.0252557 0.309191
1403 4 0.0273269 0.0290657 0.306748
1404 4 0.0765081 0.0214458 0.311633
1798 2 0.00167012 0.00325218 0.319929
633 4 0.375152 0.0273387 0.28557
631 2 0.38738 0.0401946 0.267952
257 4 0.368333 0.0290704 0.304261
698 4 0.366905 0.0122319 0.294293
256 2 0.362915 0.0501868 0.316506
258 4 0.357498 0.0713032 0.328751
632 4 0.399608 0.0530506 0.250334
349 2 0.450212 0.0186673 0.272488
744 4 0.466557 0.0131481 0.300883
742 2 0.478849 0.022312 0.320634
351 4 0.449231 0.0212256 0.297341
393 4 0.0843804 0.151067 0.307302
398 4 0.0885951 0.138057 0.319739
390 4 0.0886612 0.156733 0.32577
392 4 0.118578 0.155362 0.271069
391 2 0.101479 0.153214 0.289185
545 4 0.130193 0.171727 0.268618
403 2 0.200992 0.155521 0.306923
404 4 0.205549 0.137557 0.323707
249 4 0.201637 0.120506 0.331953
444 4 0.0133048 0.242472 0.307642
544 2 0.154208 0.172798 0.275497
371 4 0.173344 0.231169 0.257911
546 4 0.178223 0.17387 0.282376
723 4 0.226121 0.222081 0.26688
721 2 0.208502 0.205616 0.273487
405 4 0.196434 0.173485 0.290139
722 4 0.190884 0.189151 0.280095
376 2 0.306532 0.227758 0.314994
378 4 0.306048 0.246565 0.298524
377 4 0.307015 0.208951 0.331463
420 4 0.391122 0.232046 0.284327
717 4 0.373391 0.233463 0.294745
418 2 0.413555 0.221497 0.281064
761 4 0.488529 0.218849 0.249322
331 2 0.450319 0.205003 0.319738
332 4 0.441087 0.206558 0.296553
419 4 0.435989 0.210949 0.277801
760 2 0.471165 0.212792 0.266262
762 4 0.453801 0.206735 0.283202
442 2 0.0197476 0.262995 0.294896
364 2 0.0230474 0.316424 0.289508
396 4 0.0218288 0.284262 0.262956
443 4 0.0261904 0.283518 0.28215
365 4 0.0295345 0.300067 0.271745
407 4 0.0114819 0.331879 0.325993
735 4 0.149461 0.320117 0.271185
733 2 0.133217 0.330699 0.255395
677 4 0.163326 0.326621 0.283968
676 2 0.186246 0.328093 0.29385
508 2 0.238703 0.316391 0.305341
509 4 0.218862 0.322506 0.319274
678 4 0.209167 0.329565 0.303733
510 4 0.258544 0.310275 0.291408
400 2 0.260408 0.313718 0.251936
402 4 0.257183 0.301733 0.273641
345 4 0.265753 0.292281 0.289059
343 2 0.284118 0.278129 0.298421
344 4 0.302482 0.263977 0.307783
715 2 0.363473 0.25611 0.298477
716 4 0.353554 0.278757 0.302208
542 4 0.373867 0.28572 0.303447
541 2 0.38475 0.306112 0.312981
543 4 0.395633 0.326504 0.322516
751 2 0.478833 0.318814 0.323054
753 4 0.472281 0.326056 0.300037
2538 4 0.489054 0.332495 0.292438
366 4 0.0165603 0.332781 0.307272
548 4 0.0217507 0.346643 0.319254
547 2 0.0315527 0.369352 0.315588
549 4 0.0413547 0.39206 0.311922
777 4 0.0440319 0.407156 0.323983
2493 4 0.00326541 0.345006 0.314891
435 4 0.21461 0.341232 0.317208
728 4 0.357975 0.396873 0.287375
727 2 0.366787 0.412481 0.304808
1543 2 0.143199 0.481274 0.312209
1545 4 0.1641 0.481341 0.298486
1544 4 0.122298 0.481206 0.325932
1436 4 0.179652 0.493557 0.304514
729 4 0.375598 0.42809 0.322241
437 4 0.363183 0.439039 0.332795
730 2 0.0813105 0.0706984 0.365773
2238 4 0.00381863 0.047922 0.393574
2236 2 0.0133789 0.0492098 0.416642
732 4 0.0951245 0.0502171 0.369629
369 4 0.0810497 0.0356379 0.371383
367 2 0.0854571 0.0257693 0.39393
604 2 0.1679 0.0177042 0.388033
1701 4 0.196566 0.0487146 0.404304
1699 2 0.19433 0.0721282 0.39582
605 4 0.184208 0.0349817 0.395827
424 2 0.372178 0.0608084 0.369107
425 4 0.386038 0.0530618 0.388422
1580 4 0.399342 0.0392823 0.389623
426 4 0.358318 0.068555 0.349792
1579 2 0.391132 0.0160594 0.393921
743 4 0.491142 0.0314759 0.340385
478 2 0.485556 0.0444343 0.378569
480 4 0.473299 0.0529041 0.398649
479 4 0.497814 0.0359645 0.35849
397 2 0.0761509 0.121626 0.333894
399 4 0.0637067 0.105196 0.348049
317 4 0.0527138 0.102985 0.363812
731 4 0.0674965 0.0911797 0.361917
316 2 0.029765 0.112807 0.362375
318 4 0.00681624 0.122629 0.360938
247 2 0.200962 0.104621 0.35125
248 4 0.200286 0.0887353 0.370547
1700 4 0.192093 0.0955419 0.387336
319 2 0.320362 0.136028 0.40183
708 4 0.331765 0.153303 0.367038
321 4 0.332622 0.137475 0.380086
516 4 0.456901 0.156023 0.37531
575 4 0.459651 0.138785 0.385017
574 2 0.460759 0.123535 0.4048
2654 4 0.000537727 0.199025 0.374075
389 4 0.0761225 0.200704 0.346019
388 2 0.0823918 0.178718 0.335894
600 4 0.243231 0.177774 0.40535
707 4 0.317437 0.194662 0.342855
706 2 0.324601 0.173982 0.354946
489 4 0.296354 0.245552 0.405767
467 4 0.355839 0.23779 0.355485
333 4 0.459551 0.203447 0.342923
453 4 0.479175 0.20093 0.340552
515 4 0.471149 0.200999 0.35873
514 2 0.464025 0.178511 0.36702
406 2 0.0287083 0.325124 0.34281
408 4 0.0459348 0.318368 0.359626
347 4 0.0593814 0.332789 0.366189
274 2 0.148483 0.310838 0.36415
276 4 0.165195 0.294178 0.372415
373 2 0.189595 0.277734 0.399051
375 4 0.168721 0.278565 0.385312
374 4 0.21047 0.276902 0.412789
466 2 0.356091 0.25419 0.374357
615 4 0.407707 0.323524 0.338985
267 4 0.341238 0.279761 0.402414
468 4 0.356343 0.270589 0.39323
613 2 0.421685 0.309225 0.353995
752 4 0.485386 0.311571 0.346071
614 4 0.435664 0.294926 0.369006
561 4 0.501291 0.307002 0.359314
346 2 0.0566121 0.340671 0.389756
618 4 0.0752996 0.339416 0.357248
348 4 0.0538428 0.348553 0.413323
275 4 0.131771 0.327499 0.355885
617 4 0.12188 0.333426 0.34007
616 2 0.0985898 0.336421 0.348659
433 2 0.209399 0.347035 0.340964
434 4 0.204188 0.352837 0.36472
504 4 0.280834 0.413079 0.386547
240 4 0.399715 0.404718 0.400548
335 4 0.380081 0.407804 0.397187
334 2 0.357414 0.410719 0.407329
336 4 0.334746 0.413633 0.417472
775 2 0.0504958 0.427781 0.336553
776 4 0.0569596 0.448406 0.349123
414 4 0.0666076 0.464105 0.357695
413 4 0.112491 0.470463 0.338853
412 2 0.0895493 0.467284 0.348274
500 4 0.115276 0.490179 0.340885
502 2 0.300252 0.419573 0.400897
503 4 0.319671 0.426068 0.415247
436 2 0.373592 0.454939 0.349045
438 4 0.384001 0.470838 0.365294
593 4 0.394269 0.48754 0.364961
3990 4 0.471667 0.484006 0.358812
1126 2 0.0093222 0.0464951 0.478577
1127 4 0.0239178 0.0526437 0.459229
2237 4 0.0229392 0.0504976 0.43971
720 4 0.0288033 0.0675646 0.447745
368 4 0.0898645 0.0159008 0.416477
1782 4 0.107522 0.0139333 0.424653
1780 2 0.0957296 0.000681597 0.442274
2429 4 0.249795 0.0301063 0.493476
341 4 0.188476 0.0287599 0.497628
962 4 0.255136 0.0117856 0.494808
961 2 0.279172 0.0186699 0.494582
724 2 0.309397 0.0648668 0.493003
726 4 0.317717 0.0865947 0.483845
963 4 0.303208 0.0255542 0.494356
2879 4 0.410239 0.000403352 0.457099
642 4 0.438037 0.0550234 0.448709
2878 2 0.418113 0.0239073 0.460376
2880 4 0.425986 0.0474113 0.463654
640 2 0.45087 0.0760519 0.444434
469 2 0.00931128 0.145901 0.474012
470 4 0.0284213 0.135717 0.461511
718 2 0.0289513 0.0923981 0.450652
719 4 0.0290992 0.117232 0.453559
937 2 0.0839579 0.162665 0.491556
939 4 0.0924446 0.152012 0.470588
1033 2 0.136071 0.141245 0.470534
1035 4 0.160819 0.137703 0.470142
1034 4 0.111323 0.144788 0.470927
261 4 0.179732 0.140834 0.466695
259 2 0.185273 0.163591 0.475447
683 4 0.250646 0.162231 0.416576
320 4 0.308103 0.134582 0.423573
684 4 0.288537 0.130144 0.422524
682 2 0.269591 0.146188 0.41955
1181 4 0.299915 0.122379 0.436142
1182 4 0.324784 0.0916576 0.466776
1180 2 0.31235 0.107018 0.451459
576 4 0.461866 0.108285 0.424584
641 4 0.463704 0.0970804 0.440158
306 4 0.456598 0.115711 0.441399
304 2 0.44987 0.132114 0.45903
3158 4 0.434415 0.151073 0.493968
305 4 0.443141 0.148518 0.47666
695 4 0.190242 0.203589 0.493518
260 4 0.190813 0.186348 0.4842
687 4 0.236548 0.219363 0.449904
686 4 0.196583 0.202252 0.474617
685 2 0.216565 0.210807 0.46226
474 4 0.242141 0.232755 0.439776
599 4 0.247743 0.216415 0.43677
598 2 0.245487 0.197095 0.42106
411 4 0.252934 0.225045 0.451214
409 2 0.267626 0.226229 0.471411
488 4 0.258708 0.229988 0.434772
487 2 0.277531 0.23777 0.42027
410 4 0.282318 0.227414 0.491608
2814 4 0.999641 0.32845 0.445169
2812 2 0.0222599 0.331965 0.43511
472 2 0.230904 0.254541 0.434848
473 4 0.219667 0.276327 0.429921
266 4 0.327679 0.309001 0.440649
265 2 0.334459 0.294381 0.421531
2813 4 0.0448792 0.335481 0.425051
326 4 0.0505365 0.352767 0.432308
325 2 0.0627149 0.37062 0.444882
327 4 0.0748933 0.388474 0.457456
7 3 0.089249 0.392026 0.469694
6 1 0.103946 0.382172 0.484392
709 2 0.148227 0.411192 0.498343
10 3 0.121113 0.372828 0.472701
8 3 0.11211 0.398389 0.498841
9 3 0.0927069 0.365801 0.496395
813 4 0.280498 0.347574 0.473219
811 2 0.264562 0.346215 0.492439
238 2 0.412104 0.408283 0.421972
239 4 0.424493 0.411848 0.443396
1383 4 0.0552787 0.4843 0.456363
680 4 0.0493616 0.482715 0.475615
679 2 0.0598785 0.471686 0.495438
634 2 0.177833 0.439097 0.455433
636 4 0.1772 0.454796 0.435982
635 4 0.178467 0.423398 0.474883
774 4 0.188585 0.421701 0.49126
710 4 0.171232 0.4114 0.488548
4 3 0.326199 0.496772 0.442103
667 2 0.332838 0.45393 0.435255
668 4 0.332045 0.477464 0.443663
588 4 0.41107 0.42573 0.446765
669 4 0.33363 0.430395 0.426848
586 2 0.417445 0.431106 0.470337
587 4 0.423821 0.436481 0.493908
1184 4 0.0220123 0.0115104 0.565899
3077 4 0.0118255 0.00190272 0.552153
3076 2 0.00746077 0.0156252 0.531712
3078 4 0.00309599 0.0293477 0.511272
1152 4 0.136329 0.059128 0.520508
1150 2 0.133982 0.0715454 0.542083
1151 4 0.131635 0.0839629 0.563658
342 4 0.15293 0.0494647 0.526062
1059 4 0.140057 0.0882365 0.581356
340 2 0.170703 0.0391123 0.511845
2428 2 0.226391 0.0281749 0.502062
2430 4 0.202988 0.0262435 0.510648
430 2 0.322627 0.0216709 0.529761
432 4 0.30419 0.0277756 0.514013
725 4 0.301077 0.0431389 0.50216
841 2 0.37934 0.0362003 0.554748
842 4 0.401344 0.0479417 0.556523
843 4 0.357336 0.0244589 0.552972
431 4 0.341064 0.0155662 0.545508
2195 4 0.355481 0.00512525 0.553152
1217 4 0.418413 0.0380927 0.559422
1216 2 0.429427 0.0191256 0.547418
877 2 0.038459 0.156324 0.525299
878 4 0.0145463 0.150285 0.529409
938 4 0.0754713 0.173318 0.512524
1155 4 0.134807 0.102041 0.56934
1153 2 0.148479 0.120494 0.579226
3159 4 0.460923 0.133025 0.532338
3157 2 0.447669 0.142049 0.513153
1062 4 0.478693 0.125222 0.533482
1060 2 0.489096 0.102821 0.529588
1061 4 0.499499 0.0804202 0.525694
879 4 0.0623717 0.162363 0.521189
1272 4 0.0715992 0.176453 0.531144
1270 2 0.0797874 0.180851 0.554356
1271 4 0.0879755 0.185249 0.577568
1258 2 0.142812 0.233913 0.54431
1259 4 0.131796 0.222813 0.563819
1260 4 0.153827 0.245013 0.5248
696 4 0.154676 0.235736 0.507741
694 2 0.172459 0.219662 0.50063
898 2 0.28728 0.232828 0.525509
899 4 0.299424 0.225415 0.54607
857 4 0.300903 0.217346 0.563253
791 4 0.316929 0.225268 0.554787
900 4 0.275135 0.24024 0.504949
856 2 0.288124 0.200632 0.576763
790 2 0.334726 0.242359 0.558827
651 4 0.287402 0.317387 0.561773
649 2 0.271754 0.326631 0.544601
792 4 0.352523 0.259451 0.562867
872 4 0.370212 0.264724 0.555224
1238 4 0.36803 0.261529 0.574628
871 2 0.381772 0.2737 0.534951
873 4 0.393333 0.282676 0.514679
1135 2 0.108647 0.364842 0.575898
1136 4 0.102831 0.340552 0.577054
1137 4 0.114463 0.389133 0.574741
897 4 0.132996 0.386013 0.567716
895 2 0.152638 0.398467 0.576896
711 4 0.125223 0.410984 0.508138
773 4 0.225831 0.416853 0.524274
1189 2 0.20499 0.409668 0.56274
1190 4 0.218661 0.412908 0.542057
803 4 0.228928 0.399024 0.532611
802 2 0.240488 0.377011 0.529964
804 4 0.252048 0.354999 0.527317
930 4 0.237903 0.414895 0.539736
650 4 0.256106 0.335875 0.527429
812 4 0.248627 0.344857 0.511658
925 2 0.423174 0.401591 0.515952
927 4 0.422493 0.377208 0.521447
539 4 0.0850498 0.492781 0.522642
383 4 0.0810964 0.446317 0.503752
681 4 0.0703955 0.460658 0.51526
384 4 0.118243 0.420209 0.524709
382 2 0.0996696 0.433263 0.51423
569 4 0.128396 0.431876 0.536559
568 2 0.146783 0.4482 0.541101
570 4 0.165169 0.464525 0.545643
772 2 0.207208 0.419277 0.507767
928 2 0.257135 0.430869 0.540124
929 4 0.276367 0.446843 0.540511
1951 2 0.294296 0.471733 0.540236
1953 4 0.292482 0.448849 0.550146
1952 4 0.29611 0.494617 0.530325
663 4 0.410528 0.440276 0.50793
661 2 0.412488 0.456893 0.526509
1001 4 0.415309 0.490911 0.554726
662 4 0.414447 0.473511 0.545089
1330 2 0.448402 0.501278 0.540679
926 4 0.423856 0.425973 0.510457
1911 4 0.42848 0.476799 0.558309
1332 4 0.428675 0.485922 0.541144
1909 2 0.432366 0.464823 0.579911
2374 2 0.144398 0.0060829 0.613034
2375 4 0.144322 0.030959 0.610514
1057 2 0.14095 0.068978 0.597277
1058 4 0.141842 0.0497196 0.613199
950 4 0.233783 0.0194128 0.602665
2398 2 0.327861 0.00784318 0.661401
2400 4 0.315905 0.0243507 0.646919
949 2 0.252193 0.028089 0.61719
951 4 0.270604 0.0367652 0.631715
1031 4 0.26643 0.0553893 0.63453
1030 2 0.288128 0.0607231 0.645752
1032 4 0.309825 0.066057 0.656975
43 3 0.470389 0.0513012 0.641705
810 4 0.486927 0.0772289 0.655486
1154 4 0.162152 0.138947 0.589112
1221 4 0.181407 0.140818 0.586312
1219 2 0.193417 0.15956 0.5977
808 2 0.490921 0.0913486 0.635241
809 4 0.494916 0.105468 0.614996
3250 2 0.497166 0.140259 0.608075
3251 4 0.49372 0.163826 0.615685
3252 4 0.500611 0.116692 0.600465
3008 4 0.500022 0.0970431 0.598664
1244 4 0.084138 0.19881 0.59269
1209 4 0.108627 0.176063 0.638547
1207 2 0.105861 0.168877 0.662336
1245 4 0.0902541 0.171488 0.634124
1243 2 0.0871961 0.185149 0.613407
1220 4 0.205426 0.178302 0.609089
1210 2 0.23148 0.174748 0.638951
1212 4 0.223562 0.175214 0.615239
797 4 0.18965 0.233981 0.604751
796 2 0.20378 0.21355 0.607598
798 4 0.217909 0.193119 0.610444
1211 4 0.239398 0.174282 0.662663
888 4 0.25933 0.177141 0.660676
858 4 0.275345 0.183917 0.590273
3121 2 0.480952 0.206376 0.616066
3122 4 0.491763 0.183883 0.614528
3123 4 0.470142 0.22887 0.617603
905 4 0.4706 0.24851 0.620827
806 4 0.297513 0.314111 0.579847
805 2 0.321655 0.314577 0.586339
1237 2 0.365698 0.283337 0.586634
807 4 0.345796 0.315043 0.592831
1239 4 0.363365 0.305145 0.59864
906 4 0.452995 0.283496 0.589734
904 2 0.461797 0.266003 0.605281
953 4 0.465692 0.297864 0.596946
952 2 0.480562 0.317881 0.595107
3263 4 0.0625563 0.338441 0.666868
982 2 0.0240345 0.340157 0.64811
984 4 0.0479138 0.335695 0.65403
1041 4 0.060083 0.350345 0.651517
1039 2 0.0667923 0.373245 0.644051
993 4 0.0710827 0.394898 0.616443
1040 4 0.0735017 0.396145 0.636585
896 4 0.17228 0.410921 0.586076
1028 4 0.184288 0.384322 0.646595
1027 2 0.183792 0.394497 0.623761
1029 4 0.183297 0.404673 0.600927
1191 4 0.191318 0.406428 0.583423
1068 4 0.180755 0.385805 0.667572
954 4 0.495433 0.337897 0.593268
1206 4 0.486309 0.411484 0.620775
3309 4 0.496104 0.395659 0.625978
3307 2 0.499256 0.376028 0.610817
3308 4 0.502408 0.356396 0.595656
991 2 0.06504 0.41869 0.61169
992 4 0.0589973 0.442483 0.606937
1172 4 0.186325 0.422134 0.593271
1160 4 0.176266 0.482528 0.61049
1171 2 0.18809 0.445199 0.602762
1173 4 0.189855 0.468264 0.612253
1187 4 0.185279 0.479463 0.627738
1186 2 0.179319 0.478199 0.651988
1268 4 0.452293 0.496748 0.646703
1267 2 0.445109 0.476481 0.633944
1204 2 0.468423 0.428346 0.616197
1910 4 0.436252 0.452847 0.601513
1269 4 0.437925 0.456213 0.621184
1205 4 0.450537 0.445208 0.61162
2168 4 0.470549 0.496209 0.638289
1284 4 0.10955 0.0415863 0.716996
1282 2 0.122416 0.0622079 0.711132
2047 2 0.155833 0.0105755 0.745082
1283 4 0.135282 0.0828294 0.705267
2048 4 0.130904 0.0093946 0.74661
2049 4 0.180762 0.0117563 0.743553
1201 2 0.198205 0.0431564 0.72979
1202 4 0.196838 0.0234908 0.745171
1203 4 0.199572 0.062822 0.714409
1226 4 0.194239 0.0759747 0.70082
1148 4 0.211655 0.0777145 0.710395
45 3 0.484743 0.0322407 0.670831
41 1 0.472388 0.0503977 0.664805
1163 4 0.498436 0.080966 0.670639
44 3 0.48245 0.0697786 0.672649
42 3 0.451384 0.0486681 0.674024
1077 4 0.0258253 0.136444 0.733363
1075 2 0.00810117 0.121288 0.724344
864 4 0.0438137 0.138575 0.740574
850 2 0.0750621 0.161238 0.710591
909 4 0.109925 0.145459 0.695158
907 2 0.121569 0.123677 0.699051
908 4 0.133212 0.101895 0.702944
1227 4 0.147583 0.0926261 0.693989
851 4 0.0991475 0.158608 0.704414
1208 4 0.103095 0.16169 0.686124
1107 4 0.11771 0.163005 0.698351
1225 2 0.170911 0.0843004 0.697405
1147 2 0.220005 0.0976973 0.722891
1149 4 0.228355 0.11768 0.735387
829 2 0.319934 0.154314 0.700391
830 4 0.29857 0.164042 0.709001
887 4 0.28075 0.162572 0.70345
831 4 0.341298 0.144585 0.691781
1142 4 0.358256 0.143 0.704104
1141 2 0.380473 0.154353 0.705748
1143 4 0.40269 0.165705 0.707393
3426 4 0.48096 0.0892715 0.669711
1025 4 0.454194 0.12327 0.719062
3424 2 0.475496 0.104444 0.688819
3425 4 0.470032 0.119617 0.707927
3269 4 0.471576 0.118105 0.727381
1024 2 0.437816 0.141407 0.713769
3268 2 0.483457 0.133009 0.743563
1026 4 0.421439 0.159544 0.708476
845 4 0.466553 0.103266 0.740011
844 2 0.45336 0.0852255 0.751222
852 4 0.0509767 0.163868 0.716768
1214 4 0.0329707 0.171815 0.720307
1213 2 0.0109023 0.182958 0.724051
1105 2 0.131194 0.1766 0.714429
1106 4 0.144678 0.190195 0.730508
1130 4 0.164878 0.19431 0.733499
886 2 0.27004 0.169857 0.682063
978 4 0.2843 0.171495 0.720213
976 2 0.296246 0.186889 0.735881
916 2 0.316898 0.239637 0.742736
1192 2 0.413661 0.198915 0.689069
1194 4 0.417128 0.177338 0.701218
1262 4 0.41543 0.173819 0.720369
1193 4 0.410194 0.220492 0.67692
1261 2 0.422806 0.183999 0.741983
1044 4 0.463413 0.245176 0.74755
3262 2 0.0706126 0.326025 0.68702
3264 4 0.0786689 0.313609 0.707173
893 4 0.0834581 0.307456 0.725737
892 2 0.075239 0.324786 0.741777
779 4 0.0918967 0.300664 0.710036
778 2 0.116241 0.296615 0.714051
780 4 0.140586 0.292566 0.718066
1065 4 0.249327 0.286671 0.688358
1064 4 0.293755 0.308094 0.696599
1063 2 0.271541 0.297382 0.692478
947 4 0.322701 0.274483 0.742235
946 2 0.314057 0.292874 0.727667
948 4 0.305413 0.311265 0.713099
917 4 0.327536 0.25851 0.730252
1008 4 0.457329 0.302325 0.719445
1006 2 0.461568 0.283089 0.734846
1007 4 0.465806 0.263852 0.750246
941 4 0.142133 0.408958 0.721652
1067 4 0.154849 0.400631 0.707694
940 2 0.133231 0.399054 0.742814
1066 2 0.167802 0.393218 0.687633
1019 4 0.392569 0.410777 0.74762
1230 4 0.382434 0.417169 0.731735
1176 4 0.118478 0.489113 0.702471
1174 2 0.139084 0.490555 0.688382
1175 4 0.15969 0.491997 0.674293
1188 4 0.173359 0.476935 0.676238
1139 4 0.315646 0.487095 0.691248
1138 2 0.319619 0.466246 0.704467
1140 4 0.323592 0.445398 0.717686
1989 4 0.318931 0.435879 0.734695
1229 4 0.335183 0.432514 0.726022
1100 4 0.398743 0.425774 0.737661
1228 2 0.358808 0.424842 0.728878
1099 2 0.412292 0.446028 0.732059
1101 4 0.42584 0.466282 0.726458
3330 4 0.443445 0.459981 0.720685
3328 2 0.465224 0.451088 0.712214
1251 4 0.440678 0.467336 0.738175
3329 4 0.487004 0.442194 0.703744
834 4 0.0339423 0.0701633 0.813609
2256 4 0.197523 0.00646958 0.752734
1113 4 0.359706 0.0767858 0.784707
2321 4 0.440488 0.0143897 0.803928
2322 4 0.446562 0.0578514 0.779951
2320 2 0.443525 0.0361206 0.791939
846 4 0.440167 0.0671854 0.762432
980 4 0.433606 0.011079 0.821054
785 4 0.0236196 0.0847521 0.823863
832 2 0.0473563 0.0876136 0.801746
862 2 0.0552013 0.129884 0.761067
863 4 0.0665888 0.121194 0.781561
833 4 0.0607702 0.105064 0.789883
1125 4 0.0567594 0.122801 0.797719
1123 2 0.0654166 0.13929 0.814403
1124 4 0.0740738 0.155779 0.831087
911 4 0.16181 0.117875 0.82089
1257 4 0.219405 0.105898 0.750125
1255 2 0.218743 0.117175 0.772431
921 4 0.206839 0.138638 0.807174
919 2 0.193487 0.15772 0.816274
840 4 0.225986 0.138463 0.809885
1256 4 0.218081 0.128451 0.794738
838 2 0.248465 0.141073 0.820517
839 4 0.270945 0.143682 0.831149
1111 2 0.374376 0.0875922 0.80183
1112 4 0.389046 0.0983986 0.818953
3270 4 0.495338 0.147914 0.759746
1146 4 0.488408 0.162892 0.770913
34 3 0.11508 0.172986 0.81747
1277 4 0.155598 0.223257 0.795126
1276 2 0.167158 0.209511 0.812521
1129 2 0.162665 0.203919 0.756477
1131 4 0.160452 0.213527 0.779454
822 4 0.161601 0.233321 0.779108
920 4 0.180136 0.176802 0.825374
1278 4 0.178717 0.195765 0.829916
977 4 0.308192 0.202284 0.751548
918 4 0.306261 0.220765 0.75522
1298 4 0.318109 0.211883 0.766035
1297 2 0.33466 0.198632 0.779288
1299 4 0.35121 0.185381 0.792542
1086 4 0.353672 0.196316 0.80812
50 3 0.398437 0.201762 0.791076
1084 2 0.360262 0.183241 0.828388
46 1 0.420818 0.198686 0.793953
49 3 0.432137 0.218502 0.789753
1043 4 0.441347 0.207963 0.77263
48 3 0.425109 0.191548 0.81561
47 3 0.428213 0.182634 0.779229
1263 4 0.430181 0.194179 0.763596
1145 4 0.445776 0.188853 0.77396
1144 2 0.467092 0.175872 0.772436
1042 2 0.45238 0.22657 0.76009
1022 4 0.443635 0.199186 0.817003
3187 2 0.0123632 0.280109 0.766087
3189 4 0.0320352 0.295542 0.766193
820 2 0.172314 0.255906 0.778546
821 4 0.183027 0.278492 0.777985
1236 4 0.229366 0.299512 0.774694
1234 2 0.237778 0.308567 0.796429
1098 4 0.237021 0.330795 0.828856
1235 4 0.24619 0.317623 0.818164
1166 4 0.476746 0.250996 0.760808
1165 2 0.493099 0.26066 0.777067
3275 4 0.0186645 0.34737 0.790946
894 4 0.0670198 0.342116 0.757817
3276 4 0.0664124 0.340724 0.777654
3274 2 0.0425385 0.344047 0.7843
816 4 0.0746092 0.355215 0.76911