ITEM: TIMESTEP
340000
ITEM: NUMBER OF ATOMS
4590
ITEM: BOX BOUNDS pp pp pp
-9.9985700000000008e+00 9.9985700000000008e+00
-9.9985700000000008e+00 9.9985700000000008e+00
-9.9985700000000008e+00 9.9985700000000008e+00
ITEM: ATOMS id type xs ys zs
463 2 0.0337144 0.0609881 0.0479428
465 4 0.0215867 0.082756 0.0458792
464 4 0.045842 0.0392203 0.0500065
1667 4 0.0713159 0.0292126 0.0729623
701 4 0.0706365 0.0784289 0.0433276
1666 2 0.0927882 0.0177406 0.0786642
1668 4 0.114261 0.0062686 0.0843662
534 4 0.199214 0.0777521 0.0156005
490 2 0.272458 0.0324519 0.0321712
491 4 0.282119 0.0554825 0.0309726
492 4 0.262797 0.00942132 0.0333697
296 4 0.38381 0.0528044 0.0604021
557 4 0.370636 0.0687026 0.0592441
295 2 0.372411 0.0368232 0.0758892
1608 4 0.394154 0.0143025 0.0232693
745 2 0.459482 0.0681621 0.0307865
747 4 0.459089 0.0554338 0.00926868
589 2 0.0286483 0.133826 0.0667375
590 4 0.0111584 0.141341 0.0505262
702 4 0.116873 0.0918853 0.0298426
700 2 0.0937546 0.0851571 0.0365851
566 4 0.162071 0.0906643 0.0543609
423 4 0.0851809 0.13373 0.00662915
565 2 0.18468 0.101042 0.0518495
567 4 0.207289 0.111419 0.049338
358 2 0.281468 0.119826 0.00638294
360 4 0.279714 0.130179 0.0290749
556 2 0.360615 0.0902597 0.051495
558 4 0.350594 0.111817 0.043746
746 4 0.459875 0.0808905 0.0523042
770 4 0.475158 0.162609 0.0469914
553 2 0.0490656 0.212603 0.0140467
554 4 0.0307358 0.216236 0.03066
555 4 0.0673954 0.208971 0.997433
738 4 0.2202 0.204244 0.0803994
666 4 0.327273 0.228958 0.0153232
664 2 0.331419 0.207289 0.00355782
461 4 0.321708 0.218408 0.0752997
324 4 0.413425 0.23796 0.0627456
1071 4 0.399202 0.234128 0.00554617
322 2 0.428038 0.236909 0.0830075
771 4 0.470862 0.204779 0.0735244
769 2 0.47301 0.183694 0.0602579
1012 2 0.492765 0.202309 0.00745205
1014 4 0.467984 0.201771 0.0107333
292 2 0.128293 0.318183 0.03131
294 4 0.110386 0.324728 0.0151336
293 4 0.146201 0.311638 0.0474864
507 4 0.165202 0.308164 0.0451469
506 4 0.183682 0.261699 0.0446731
483 4 0.215519 0.293923 0.0732171
505 2 0.174442 0.284931 0.04491
481 2 0.231333 0.31024 0.08365
357 4 0.243058 0.277943 0.0156936
355 2 0.248871 0.257118 0.00313505
571 2 0.318334 0.25742 0.0498467
573 4 0.296492 0.247361 0.0566958
572 4 0.340177 0.267479 0.0429977
1069 2 0.401827 0.255629 0.0180367
1070 4 0.404451 0.277129 0.0305273
281 4 0.456457 0.324105 0.0425266
671 4 0.45955 0.340154 0.0535105
330 4 0.0228047 0.403223 0.0500708
328 2 0.0101854 0.382648 0.0435426
329 4 0.997566 0.362074 0.0370143
455 4 0.0996591 0.34208 0.0816586
286 2 0.156539 0.3843 0.0164725
287 4 0.148348 0.360701 0.0175582
288 4 0.164729 0.407899 0.0153868
252 4 0.296481 0.387495 0.0572677
250 2 0.27845 0.390612 0.0402283
251 4 0.260419 0.39373 0.0231889
608 4 0.302754 0.394556 0.0754679
280 2 0.472417 0.333835 0.02592
670 2 0.461841 0.341793 0.0783548
282 4 0.488377 0.343566 0.00931343
550 2 0.0794313 0.429606 0.0347761
551 4 0.0596995 0.437763 0.0217649
313 2 0.000734832 0.458417 0.0844316
552 4 0.0991632 0.421449 0.0477873
242 4 0.128161 0.493113 0.0681886
1787 4 0.109562 0.498511 0.063574
241 2 0.149974 0.497682 0.0795246
245 4 0.21878 0.468664 0.0677834
244 2 0.239964 0.469251 0.0545139
627 4 0.214962 0.45054 0.0759751
243 4 0.171787 0.502251 0.0908606
246 4 0.261148 0.469838 0.0412444
272 4 0.257696 0.468266 0.0225475
271 2 0.279794 0.465777 0.0111164
273 4 0.301891 0.463289 0.999685
524 4 0.339842 0.481083 0.0623049
227 4 0.47907 0.465778 0.0619746
562 2 0.454093 0.494047 0.00814777
226 2 0.501678 0.471261 0.0528103
19 3 0.0211499 0.0726767 0.169392
20 3 0.0577801 0.0770764 0.161874
450 4 0.15995 0.0594258 0.146314
448 2 0.172755 0.0797301 0.153309
1505 4 0.236811 0.0521763 0.155983
652 2 0.296337 0.0323887 0.150088
653 4 0.309002 0.0437186 0.131748
297 4 0.361013 0.020842 0.0913762
1760 4 0.482887 0.000622623 0.137958
2724 4 0.488958 0.018802 0.142897
2723 4 0.499284 0.0643228 0.124954
2722 2 0.494121 0.0415624 0.133925
591 4 0.0461382 0.126311 0.0829488
380 4 0.00969773 0.133323 0.149091
237 4 0.194272 0.156518 0.15581
449 4 0.185561 0.100034 0.160305
235 2 0.182283 0.134638 0.157455
236 4 0.170295 0.112758 0.159099
693 4 0.199448 0.0925142 0.17205
254 4 0.402782 0.161192 0.103552
339 4 0.0505776 0.242048 0.148728
2625 4 0.997925 0.194596 0.0982763
476 4 0.138913 0.201356 0.130842
475 2 0.116213 0.204993 0.140674
477 4 0.0935136 0.208629 0.150506
737 4 0.186532 0.228942 0.107917
736 2 0.203366 0.216593 0.0941581
354 4 0.295237 0.221339 0.130759
352 2 0.28129 0.240832 0.123637
285 4 0.280488 0.197608 0.152916
283 2 0.265815 0.211442 0.167697
460 2 0.339873 0.208276 0.0891776
255 4 0.356484 0.178569 0.0961225
462 4 0.358037 0.198145 0.103055
253 2 0.379633 0.16988 0.0998372
630 4 0.413476 0.177446 0.108231
629 4 0.460322 0.183121 0.124783
628 2 0.436899 0.180283 0.116507
518 4 0.478179 0.228587 0.0912224
323 4 0.442651 0.235858 0.103269
620 4 0.0235505 0.31299 0.142866
337 2 0.0731642 0.250513 0.155314
621 4 0.00706654 0.329819 0.0987552
619 2 0.0153085 0.321404 0.120811
338 4 0.0957508 0.258978 0.161899
277 2 0.241822 0.265667 0.151833
482 4 0.247148 0.326556 0.094083
353 4 0.267344 0.260324 0.116516
754 2 0.281007 0.298667 0.115047
755 4 0.279214 0.274348 0.109517
756 4 0.282801 0.322985 0.120577
278 4 0.253184 0.267274 0.129618
612 4 0.278336 0.325163 0.140776
741 4 0.334809 0.313516 0.0918401
622 2 0.394662 0.277917 0.159524
739 2 0.349225 0.331142 0.102169
623 4 0.390981 0.26502 0.138422
517 2 0.490359 0.250241 0.0940399
519 4 0.502539 0.271894 0.0968574
647 4 0.06405 0.353706 0.130225
646 2 0.084377 0.35025 0.144368
454 2 0.117339 0.350234 0.0973459
456 4 0.13502 0.358389 0.113033
648 4 0.104704 0.346794 0.158512
537 4 0.175765 0.361763 0.133643
535 2 0.197652 0.35391 0.142834
626 4 0.220481 0.40851 0.102502
536 4 0.219539 0.346056 0.152025
609 4 0.314953 0.349398 0.0931499
607 2 0.308854 0.371977 0.0843089
610 2 0.265136 0.339033 0.156856
387 4 0.332216 0.385116 0.159519
740 4 0.363642 0.348767 0.112498
15 3 0.379053 0.357288 0.119464
385 2 0.347144 0.371625 0.144674
386 4 0.362071 0.358135 0.12983
11 1 0.400841 0.359452 0.12573
13 3 0.402444 0.359608 0.148877
14 3 0.409664 0.379077 0.117046
12 3 0.412879 0.341633 0.117562
672 4 0.464132 0.343433 0.103199
495 4 0.418005 0.389026 0.131994
493 2 0.423711 0.412968 0.136399
597 4 0.470225 0.40071 0.154323
645 4 0.465994 0.383522 0.161842
1467 4 0.0135657 0.492351 0.134556
315 4 0.00661638 0.435248 0.0917658
1465 2 0.0341962 0.500306 0.14623
625 2 0.217721 0.429525 0.0892385
637 2 0.25521 0.488784 0.122848
638 4 0.264705 0.471101 0.137759
767 4 0.258872 0.478154 0.15587
525 4 0.344355 0.491654 0.110973
523 2 0.342098 0.486369 0.0866391
658 2 0.402363 0.467863 0.145681
659 4 0.382848 0.480252 0.155214
660 4 0.421877 0.455473 0.136149
595 2 0.486871 0.419259 0.152312
494 4 0.429416 0.43691 0.140805
16 1 0.0427695 0.0689236 0.176936
17 3 0.0456032 0.0797104 0.197054
18 3 0.046236 0.0461938 0.180058
673 2 0.122783 0.0490203 0.22621
674 4 0.13707 0.0691378 0.222165
675 4 0.108497 0.0289027 0.230255
689 4 0.207059 0.0070498 0.22623
1506 4 0.223009 0.0097759 0.178621
1504 2 0.22991 0.0309761 0.167302
654 4 0.283671 0.0210587 0.168429
21 1 0.371008 0.0372926 0.238943
24 3 0.349316 0.0363685 0.230757
25 3 0.385717 0.0311283 0.222686
759 4 0.392477 0.0421655 0.206081
757 2 0.4045 0.0602424 0.193676
22 3 0.375568 0.0588639 0.245503
758 4 0.416522 0.0783192 0.181272
742 2 0.483202 0.0528137 0.230104
743 4 0.496667 0.0722252 0.238294
744 4 0.469737 0.0334021 0.221914
379 2 0.0122412 0.146807 0.169993
381 4 0.0147847 0.160291 0.190895
511 2 0.0388067 0.152446 0.218216
512 4 0.0288699 0.146797 0.195978
513 4 0.0487436 0.158094 0.240454
579 4 0.0852156 0.105396 0.217674
577 2 0.094186 0.127037 0.208935
578 4 0.103156 0.148679 0.200196
692 4 0.242656 0.107154 0.192532
723 4 0.186526 0.103107 0.229785
691 2 0.221052 0.0998343 0.182291
721 2 0.189167 0.12365 0.243793
582 4 0.293023 0.0836624 0.167781
580 2 0.291752 0.10151 0.185246
581 4 0.29048 0.119357 0.202712
30 3 0.303019 0.110138 0.217018
26 1 0.314187 0.107952 0.236745
27 3 0.334613 0.0981181 0.232838
312 4 0.427544 0.122291 0.17064
333 4 0.432695 0.15457 0.224956
310 2 0.442578 0.118678 0.19029
311 4 0.457612 0.115065 0.20994
362 4 0.133521 0.23065 0.205366
361 2 0.114505 0.241378 0.193181
372 4 0.152561 0.228326 0.203531
370 2 0.173024 0.241081 0.210146
284 4 0.251141 0.225276 0.182478
764 4 0.378378 0.203135 0.188345
763 2 0.390556 0.216778 0.205396
765 4 0.402734 0.230421 0.222447
522 4 0.502717 0.202328 0.252415
395 4 0.0637566 0.278654 0.232775
394 2 0.0396407 0.275672 0.238667
750 4 0.0820734 0.302787 0.228983
396 4 0.0155247 0.272691 0.244558
363 4 0.0954898 0.252106 0.180995
748 2 0.0936355 0.284773 0.241904
371 4 0.193487 0.253836 0.216761
279 4 0.230459 0.26406 0.174048
344 4 0.263334 0.274882 0.236155
307 2 0.322954 0.266989 0.220603
309 4 0.305022 0.267481 0.203185
624 4 0.398344 0.290813 0.180626
308 4 0.340886 0.266497 0.23802
528 4 0.468001 0.252093 0.217513
527 4 0.492922 0.281402 0.185565
526 2 0.480461 0.266747 0.201539
300 4 0.107833 0.344685 0.224047
298 2 0.119822 0.361727 0.237868
299 4 0.131811 0.378768 0.25169
290 4 0.225183 0.416515 0.231054
611 4 0.251937 0.352903 0.172936
302 4 0.326622 0.384707 0.177866
303 4 0.346809 0.403315 0.219662
301 2 0.336715 0.394011 0.198764
643 2 0.460521 0.375657 0.184936
644 4 0.455048 0.367792 0.208031
447 4 0.447707 0.366717 0.226861
108 3 0.495693 0.402499 0.229724
445 2 0.469375 0.369004 0.239127
263 4 0.0667042 0.44032 0.216759
262 2 0.0453397 0.447585 0.227527
264 4 0.0239751 0.454851 0.238294
417 4 0.136363 0.456559 0.200303
415 2 0.159425 0.447287 0.20301
1430 4 0.172902 0.488273 0.202232
416 4 0.182488 0.438014 0.205716
291 4 0.196466 0.431927 0.193126
289 2 0.210824 0.424221 0.21209
768 4 0.255559 0.472983 0.205498
766 2 0.257215 0.475569 0.180684
231 4 0.411772 0.485854 0.200554
232 2 0.0318823 0.0501485 0.284704
233 4 0.0413262 0.0297388 0.295632
1402 2 0.0717819 0.0072102 0.275852
1403 4 0.0502062 0.0162888 0.284641
234 4 0.0224384 0.0705583 0.273775
731 4 0.104876 0.0626739 0.328178
1699 2 0.241615 0.0432688 0.310771
1700 4 0.250176 0.0426861 0.287286
23 3 0.373154 0.0232584 0.257296
633 4 0.375612 0.0737909 0.332448
478 2 0.47057 0.0457977 0.328423
351 4 0.447838 0.0530677 0.27299
349 2 0.451603 0.0775986 0.276029
479 4 0.481137 0.0677095 0.322645
318 4 0.0337842 0.0915925 0.336208
398 4 0.0590583 0.131611 0.302202
397 2 0.0811372 0.124751 0.311723
399 4 0.103216 0.117892 0.321244
722 4 0.191808 0.144193 0.2578
546 4 0.18152 0.15754 0.267803
248 4 0.237032 0.0871538 0.291416
249 4 0.241118 0.136243 0.300035
247 2 0.239075 0.111698 0.295726
404 4 0.229906 0.151494 0.297644
28 3 0.302053 0.0945251 0.251266
29 3 0.317613 0.128836 0.246259
632 4 0.36894 0.114845 0.304685
631 2 0.372276 0.0943178 0.318567
331 2 0.439813 0.163414 0.247234
350 4 0.455368 0.10213 0.279069
392 4 0.134992 0.199919 0.270569
391 2 0.110285 0.196825 0.272842
393 4 0.0855773 0.193732 0.275114
545 4 0.155259 0.199929 0.271581
389 4 0.0895433 0.24592 0.317079
403 2 0.227638 0.174148 0.287307
544 2 0.168389 0.178735 0.269692
405 4 0.225369 0.196801 0.276971
706 2 0.323341 0.190842 0.324841
707 4 0.32336 0.192297 0.29988
473 4 0.26487 0.195811 0.33648
420 4 0.398022 0.205455 0.299664
332 4 0.44693 0.172259 0.269511
520 2 0.482773 0.214397 0.261456
521 4 0.462829 0.226466 0.270497
762 4 0.462467 0.173415 0.28118
418 2 0.421573 0.208056 0.307648
419 4 0.445124 0.210658 0.315633
761 4 0.495496 0.176057 0.318635
760 2 0.478982 0.174736 0.299908
444 4 0.0177195 0.261087 0.312274
443 4 0.010875 0.268064 0.263232
442 2 0.0142973 0.264575 0.287753
390 4 0.0741495 0.292784 0.325297
388 2 0.0818464 0.269352 0.321188
749 4 0.105198 0.266758 0.254826
401 4 0.199211 0.260192 0.268902
345 4 0.237037 0.282914 0.277924
400 2 0.20783 0.261629 0.292329
402 4 0.216449 0.263066 0.315756
508 2 0.231882 0.303854 0.325194
510 4 0.228167 0.280122 0.318256
343 2 0.250186 0.278898 0.25704
496 2 0.325849 0.313825 0.282318
498 4 0.306556 0.329583 0.284472
497 4 0.345142 0.298068 0.280163
543 4 0.402709 0.315397 0.318826
717 4 0.368883 0.27013 0.324476
541 2 0.425794 0.323726 0.314042
542 4 0.44888 0.332054 0.309258
366 4 0.00911622 0.344509 0.267838
364 2 0.0211517 0.336493 0.288235
365 4 0.0331872 0.328476 0.308633
602 4 0.0735377 0.399898 0.28756
601 2 0.093807 0.392447 0.274957
603 4 0.114076 0.384997 0.262355
734 4 0.14725 0.376611 0.264009
733 2 0.1626 0.37355 0.283507
735 4 0.17795 0.370489 0.303005
677 4 0.187467 0.382259 0.315223
676 2 0.206532 0.370957 0.326797
729 4 0.318642 0.354977 0.257749
433 2 0.308758 0.388825 0.322615
434 4 0.319091 0.411097 0.317885
435 4 0.298424 0.366554 0.327345
615 4 0.400202 0.333177 0.325494
727 2 0.333874 0.374306 0.262172
613 2 0.377217 0.34286 0.327252
728 4 0.349106 0.393635 0.266594
614 4 0.354231 0.352543 0.329011
2538 4 0.49483 0.354879 0.291973
446 4 0.491043 0.371291 0.251393
549 4 0.0333752 0.424483 0.312858
777 4 0.0731351 0.458384 0.283039
547 2 0.0471603 0.41851 0.332845
775 2 0.0890082 0.445246 0.297204
776 4 0.104881 0.432109 0.311368
414 4 0.14286 0.454901 0.291863
412 2 0.161334 0.465156 0.305232
413 4 0.179807 0.475411 0.318602
436 2 0.300287 0.450497 0.28697
437 4 0.287964 0.454135 0.26552
438 4 0.312609 0.44686 0.30842
713 4 0.3987 0.48392 0.280992
2861 4 0.495801 0.483918 0.258936
712 2 0.421901 0.479204 0.272951
714 4 0.445101 0.474487 0.264909
316 2 0.0428435 0.0725367 0.349624
317 4 0.0519029 0.0534809 0.36304
428 4 0.0645746 0.0201091 0.368165
427 2 0.0770835 0.00244094 0.355653
1782 4 0.119383 0.99761 0.379153
368 4 0.122434 0.0337358 0.406264
1701 4 0.233054 0.0438514 0.334256
606 4 0.183178 0.0754467 0.378835
604 2 0.184159 0.0651424 0.356074
605 4 0.18514 0.0548382 0.333314
683 4 0.302956 0.0748836 0.369738
441 4 0.289118 0.0207111 0.400273
439 2 0.298265 0.999376 0.409565
257 4 0.389901 0.0677055 0.34465
698 4 0.379427 0.0547886 0.33407
697 2 0.363918 0.0351831 0.334581
699 4 0.348409 0.0155775 0.335092
256 2 0.407652 0.0609802 0.360925
424 2 0.408033 0.0265241 0.408859
426 4 0.418946 0.0419771 0.39251
480 4 0.460003 0.0238859 0.334202
258 4 0.425403 0.0542548 0.377199
730 2 0.113367 0.0836613 0.33879
732 4 0.121859 0.104649 0.349401
685 2 0.154599 0.15911 0.407121
599 4 0.15978 0.171066 0.342255
687 4 0.133664 0.146642 0.412728
600 4 0.193421 0.137927 0.358709
598 2 0.1766 0.154496 0.350482
682 2 0.296865 0.0914275 0.387469
684 4 0.290773 0.107971 0.4052
452 4 0.500212 0.15467 0.381088
451 2 0.475694 0.155458 0.385932
453 4 0.451177 0.156247 0.390775
515 4 0.444662 0.15421 0.408849
2655 4 0.00658114 0.234589 0.377851
2653 2 0.0204063 0.213766 0.378514
2654 4 0.0342315 0.192943 0.379177
686 4 0.175534 0.171579 0.401514
474 4 0.239219 0.227532 0.365403
276 4 0.227794 0.239661 0.391016
472 2 0.252044 0.211671 0.350942
708 4 0.323322 0.189387 0.349803
488 4 0.282926 0.224143 0.384258
487 2 0.279382 0.239744 0.403474
305 4 0.468877 0.194638 0.406702
616 2 0.064419 0.324006 0.373058
618 4 0.0640985 0.30482 0.389088
347 4 0.0561851 0.293295 0.40519
375 4 0.161179 0.324166 0.405326
509 4 0.235598 0.327587 0.332133
274 2 0.208371 0.255277 0.388992
275 4 0.188949 0.270892 0.386969
373 2 0.185223 0.325763 0.398654
374 4 0.209267 0.327359 0.391981
376 2 0.291423 0.277497 0.343518
377 4 0.314133 0.287834 0.341919
378 4 0.268712 0.267161 0.345116
716 4 0.342588 0.242399 0.35673
715 2 0.355735 0.256264 0.340603
268 2 0.491863 0.279059 0.40612
270 4 0.488065 0.254833 0.401236
617 4 0.0647395 0.343192 0.357027
408 4 0.0718685 0.403608 0.40677
548 4 0.0609455 0.412537 0.352832
406 2 0.0749113 0.412944 0.383775
678 4 0.225598 0.359656 0.338372
502 2 0.248078 0.409408 0.419435
336 4 0.361648 0.376782 0.391309
334 2 0.360362 0.378082 0.416246
561 4 0.465512 0.379979 0.385845
752 4 0.473236 0.381797 0.368371
559 2 0.479444 0.375224 0.406055
751 2 0.459113 0.40037 0.359381
753 4 0.444991 0.418942 0.350392
407 4 0.0779541 0.422279 0.36078
2463 4 0.0160529 0.479862 0.340189
499 2 0.107682 0.481706 0.36774
500 4 0.120351 0.474813 0.347315
501 4 0.0950128 0.488598 0.388164
503 4 0.264851 0.418026 0.403016
5 3 0.296411 0.437279 0.378971
1 1 0.311232 0.453827 0.383986
2 3 0.300873 0.469514 0.397244
4 3 0.329327 0.445017 0.395534
3 3 0.318515 0.464106 0.3645
594 4 0.380662 0.478133 0.362517
592 2 0.400817 0.464755 0.356193
593 4 0.420972 0.451378 0.349868
117 3 0.497094 0.432111 0.35844
1772 4 0.0270431 0.00524443 0.434345
718 2 0.0529809 0.060816 0.476489
720 4 0.0443468 0.0443291 0.493187
719 4 0.061615 0.077303 0.459792
2237 4 0.0324458 0.0297578 0.496047
2236 2 0.0198632 0.00887596 0.490497
367 2 0.127506 0.0466987 0.427034
369 4 0.132578 0.0596615 0.447805
341 4 0.186455 0.0348023 0.48935
1181 4 0.241156 0.0452409 0.4773
1180 2 0.249262 0.0649578 0.490365
726 4 0.337959 0.0426163 0.44642
425 4 0.397119 0.0110711 0.425208
724 2 0.334621 0.0668069 0.451792
2879 4 0.49542 0.061045 0.43514
2878 2 0.490921 0.0817161 0.448468
457 2 0.0117046 0.164583 0.431098
320 4 0.288392 0.112258 0.425222
321 4 0.280529 0.161583 0.42767
319 2 0.284461 0.136921 0.426446
1182 4 0.257368 0.0846746 0.503431
725 4 0.331284 0.0909976 0.457163
574 2 0.399007 0.140121 0.47258
575 4 0.410135 0.14909 0.452064
516 4 0.401449 0.15201 0.433919
576 4 0.387878 0.131153 0.493096
514 2 0.423056 0.15311 0.421384
642 4 0.476644 0.11981 0.459992
2880 4 0.486421 0.102387 0.461796
640 2 0.473199 0.123116 0.484536
458 4 0.0311723 0.166785 0.446633
471 4 0.0194852 0.180615 0.50073
469 2 0.0288502 0.195375 0.482852
470 4 0.0382152 0.210136 0.464975
260 4 0.104328 0.191511 0.426012
261 4 0.112736 0.183517 0.474655
259 2 0.108532 0.187514 0.450333
1035 4 0.125754 0.194709 0.484682
695 4 0.0844279 0.247915 0.465545
411 4 0.259421 0.182088 0.460932
409 2 0.282823 0.183161 0.469669
410 4 0.306226 0.184233 0.478407
468 4 0.340964 0.196551 0.432008
467 4 0.390225 0.188502 0.428968
466 2 0.365595 0.192527 0.430488
304 2 0.470263 0.215326 0.420676
306 4 0.471649 0.236014 0.43465
346 2 0.047725 0.302082 0.427017
348 4 0.0392649 0.310869 0.448843
326 4 0.0687872 0.324664 0.447929
694 2 0.0988006 0.257344 0.483703
7 3 0.140597 0.326207 0.482388
327 4 0.115254 0.335007 0.463245
325 2 0.0920205 0.329835 0.455587
10 3 0.177673 0.322612 0.480085
651 4 0.252769 0.278574 0.442245
489 4 0.275838 0.255344 0.42269
650 4 0.281537 0.31064 0.46764
649 2 0.267153 0.294607 0.454942
266 4 0.323098 0.285164 0.445839
267 4 0.349383 0.25838 0.47889
265 2 0.336241 0.271772 0.462365
583 2 0.468249 0.281329 0.461772
584 4 0.489245 0.289432 0.472666
585 4 0.447253 0.273226 0.450878
6 1 0.160785 0.336035 0.487384
8 3 0.161917 0.35665 0.476794
711 4 0.167631 0.375728 0.469496
709 2 0.18713 0.390681 0.464873
710 4 0.206629 0.405634 0.460251
774 4 0.228414 0.411096 0.489708
504 4 0.231304 0.400791 0.435854
238 2 0.377692 0.381925 0.469795
240 4 0.359247 0.392076 0.456307
335 4 0.359077 0.379382 0.441183
239 4 0.396137 0.371775 0.483283
560 4 0.493377 0.370468 0.426265
935 4 0.0199833 0.45281 0.49349
681 4 0.0593392 0.434461 0.442639
383 4 0.0744349 0.427028 0.453902
680 4 0.029597 0.470577 0.424983
1383 4 0.0282904 0.480536 0.442893
679 2 0.0444681 0.452519 0.433811
384 4 0.12134 0.444255 0.45193
568 2 0.152247 0.465411 0.44491
569 4 0.139224 0.448337 0.457718
382 2 0.0978873 0.435642 0.452916
570 4 0.165271 0.482485 0.432101
635 4 0.222118 0.431117 0.49031
634 2 0.238167 0.444204 0.476298
669 4 0.307285 0.434212 0.475231
636 4 0.254216 0.45729 0.462285
668 4 0.304361 0.450839 0.428159
667 2 0.305823 0.442525 0.451695
587 4 0.405509 0.434823 0.483469
586 2 0.393256 0.444588 0.463983
588 4 0.381002 0.454353 0.444498
663 4 0.467691 0.455437 0.485255
661 2 0.476829 0.47831 0.489555
1126 2 0.0224308 0.0514154 0.529096
1127 4 0.0294059 0.0457028 0.505775
1128 4 0.0154557 0.057128 0.552418
1058 4 0.123642 0.0554746 0.56236
1057 2 0.128357 0.0751541 0.577046
2428 2 0.203233 0.00506937 0.515589
342 4 0.182021 0.0778742 0.514368
2430 4 0.187532 0.0218844 0.505796
340 2 0.184238 0.0563382 0.501859
1030 2 0.25208 0.0745141 0.569406
961 2 0.283259 0.0255909 0.518077
963 4 0.305646 0.0307674 0.527937
962 4 0.260872 0.0204143 0.508218
432 4 0.313479 0.0442903 0.51411
430 2 0.327907 0.0645656 0.51654
950 4 0.278413 0.00244054 0.590578
1217 4 0.403125 0.040417 0.546031
1216 2 0.403866 0.0185381 0.558112
841 2 0.380847 0.0716521 0.52797
842 4 0.399424 0.0599341 0.539918
431 4 0.342336 0.0848409 0.518971
1062 4 0.479085 0.0413242 0.525179
938 4 0.0770267 0.114572 0.553878
937 2 0.0906189 0.132035 0.542238
939 4 0.104211 0.149497 0.530598
1153 2 0.150026 0.12914 0.570236
1154 4 0.163587 0.146168 0.557935
1152 4 0.18461 0.0813733 0.53342
1151 4 0.173104 0.128211 0.520208
1150 2 0.178857 0.104792 0.526814
1032 4 0.263571 0.0891161 0.552675
843 4 0.36227 0.0833701 0.516022
641 4 0.469754 0.126422 0.509079
878 4 0.0368433 0.206023 0.576659
1199 4 0.0214398 0.210086 0.563238
1034 4 0.116956 0.176783 0.530529
1033 2 0.121355 0.185746 0.507605
856 2 0.237628 0.204461 0.541792
857 4 0.217855 0.213942 0.529781
898 2 0.318996 0.169107 0.526744
858 4 0.257402 0.19498 0.553804
900 4 0.306493 0.168125 0.505113
791 4 0.290622 0.223225 0.569454
790 2 0.299548 0.24658 0.569204
899 4 0.331499 0.17009 0.548375
871 2 0.383421 0.234916 0.515948
873 4 0.361566 0.232343 0.52782
872 4 0.405275 0.237489 0.504076
905 4 0.484269 0.229333 0.57066
1258 2 0.137661 0.274279 0.527747
1260 4 0.113682 0.2739 0.520675
1259 4 0.161641 0.274659 0.534819
696 4 0.113173 0.266773 0.50186
811 2 0.305019 0.305773 0.506976
804 4 0.273218 0.322656 0.513022
792 4 0.308475 0.269934 0.568954
1238 4 0.318216 0.283374 0.58058
812 4 0.290447 0.326049 0.505664
813 4 0.31959 0.285497 0.508287
983 4 0.0340286 0.342161 0.560791
982 2 0.038697 0.349972 0.58408
9 3 0.162276 0.338845 0.510369
1189 2 0.226949 0.385694 0.561418
773 4 0.243525 0.37673 0.522745
1190 4 0.240274 0.376444 0.54239
1191 4 0.213624 0.394945 0.580446
772 2 0.235969 0.393913 0.506227
802 2 0.261697 0.342329 0.523289
803 4 0.250176 0.362002 0.533556
930 4 0.343954 0.38989 0.577113
928 2 0.345094 0.382017 0.553409
929 4 0.346234 0.374143 0.529705
925 2 0.45469 0.406708 0.523989
927 4 0.473625 0.396662 0.536863
926 4 0.435756 0.416755 0.511116
3309 4 0.495912 0.408038 0.561824
934 2 0.00247387 0.458339 0.510462
539 4 0.0828138 0.463717 0.508373
2243 4 0.158344 0.495431 0.554586
538 2 0.09675 0.484313 0.510977
1161 4 0.157149 0.483816 0.571011
1159 2 0.170281 0.467084 0.584156
882 4 0.304567 0.460502 0.521385
891 4 0.285477 0.444872 0.584883
880 2 0.329087 0.459717 0.526212
889 2 0.308914 0.452889 0.581477
890 4 0.332351 0.460906 0.578072
881 4 0.353608 0.458931 0.531039
1952 4 0.362691 0.474038 0.541167
1951 2 0.3723 0.486123 0.560833
1002 4 0.408905 0.427911 0.576419
1953 4 0.381909 0.498209 0.5805
1000 2 0.426174 0.442732 0.566061
1001 4 0.443443 0.457554 0.555702
945 4 0.0723873 0.0024351 0.651248
943 2 0.076105 0.0268437 0.655195
825 4 0.119647 0.0220155 0.608081
823 2 0.135829 0.0075536 0.620497
1031 4 0.240589 0.059912 0.586136
951 4 0.252433 0.0446134 0.583706
949 2 0.265423 0.023527 0.587142
1092 4 0.340292 0.0215454 0.656693
808 2 0.478054 0.0820401 0.631783
810 4 0.472372 0.081063 0.656112
1083 4 0.0611442 0.101135 0.627075
1082 4 0.0259108 0.114032 0.660135
1081 2 0.0435275 0.107584 0.643605
1155 4 0.136466 0.112111 0.582537
1059 4 0.133072 0.0948336 0.591732
909 4 0.142666 0.139773 0.666855
1284 4 0.162197 0.0932214 0.63914
1282 2 0.178012 0.0890741 0.658058
809 4 0.483736 0.0830172 0.607453
877 2 0.060187 0.213783 0.581136
879 4 0.0835307 0.221542 0.585613
1245 4 0.0690985 0.252331 0.65016
1209 4 0.0884684 0.249132 0.648072
1272 4 0.0993044 0.224367 0.59653
1270 2 0.121565 0.229294 0.606794
1271 4 0.143826 0.23422 0.617058
1221 4 0.172528 0.192315 0.593806
797 4 0.221411 0.232963 0.616685
1210 2 0.23506 0.187277 0.647373
1212 4 0.210424 0.185797 0.651378
1219 2 0.185455 0.186967 0.614529
1220 4 0.198382 0.181619 0.635253
796 2 0.241927 0.224553 0.605129
947 4 0.183255 0.240492 0.632068
798 4 0.262443 0.216143 0.593573
1211 4 0.259696 0.188758 0.643367
888 4 0.262943 0.192997 0.662106
904 2 0.464951 0.219227 0.582903
906 4 0.445633 0.209122 0.595145
1025 4 0.457197 0.195886 0.653539
1244 4 0.0543163 0.245604 0.602864
1243 2 0.0617074 0.248968 0.626512
946 2 0.191572 0.26227 0.641108
948 4 0.199889 0.284048 0.650147
1064 4 0.214455 0.291439 0.661678
1237 2 0.306485 0.302754 0.591162
1239 4 0.294754 0.322134 0.601744
954 4 0.457932 0.289573 0.582392
952 2 0.471332 0.288614 0.60348
953 4 0.484732 0.287655 0.624568
984 4 0.0433653 0.357783 0.607369
1039 2 0.0716938 0.37263 0.635953
1041 4 0.053282 0.361037 0.623634
3263 4 0.0355255 0.351659 0.623912
3262 2 0.0136761 0.362237 0.629902
1137 4 0.134243 0.377207 0.592041
1040 4 0.0901055 0.384224 0.648273
897 4 0.152637 0.381427 0.583976
1136 4 0.0850652 0.368147 0.592403
1135 2 0.109654 0.372677 0.592222
991 2 0.121539 0.401805 0.655906
993 4 0.0994293 0.401352 0.644238
992 4 0.143648 0.402257 0.667573
896 4 0.201765 0.381252 0.59331
895 2 0.177201 0.38134 0.588643
1029 4 0.238834 0.389352 0.667237
1204 2 0.413211 0.402383 0.662121
1205 4 0.432965 0.389281 0.654165
1171 2 0.219957 0.437629 0.58498
1173 4 0.19523 0.440989 0.583417
1172 4 0.244685 0.43427 0.586543
1187 4 0.221861 0.498085 0.600901
1160 4 0.183412 0.450352 0.597301
1186 2 0.21717 0.497265 0.625447
1269 4 0.458594 0.462447 0.662041
944 4 0.0798227 0.0512522 0.659142
1283 4 0.193826 0.0849268 0.676976
1147 2 0.204143 0.0559185 0.743196
1149 4 0.212832 0.0327508 0.739601
1003 2 0.33731 0.0800011 0.694779
1090 2 0.336751 0.0224315 0.681429
1091 4 0.333211 0.0233176 0.706165
1004 4 0.345048 0.0651291 0.713329
1163 4 0.479438 0.0684805 0.66937
1162 2 0.494896 0.0512073 0.678743
42 3 0.424046 0.068503 0.677653
2320 2 0.48589 0.0092409 0.750558
44 3 0.460462 0.0729739 0.669498
846 4 0.494127 0.0790733 0.745108
1076 4 0.0331673 0.119082 0.676558
864 4 0.0493799 0.130341 0.727459
1075 2 0.0486522 0.123923 0.695583
1077 4 0.0641371 0.128763 0.714609
907 2 0.162386 0.134663 0.681354
1148 4 0.195453 0.0790863 0.74679
908 4 0.182105 0.129552 0.695852
1227 4 0.180286 0.137106 0.715335
1225 2 0.18191 0.115046 0.726994
1226 4 0.183535 0.092987 0.738652
1005 4 0.329571 0.0948731 0.676228
831 4 0.35716 0.16103 0.682626
1142 4 0.397419 0.155792 0.729372
45 3 0.436783 0.102204 0.667912
41 1 0.441849 0.0830017 0.679058
43 3 0.445972 0.0876737 0.70141
851 4 0.0689247 0.185269 0.712612
852 4 0.0206943 0.180077 0.700463
850 2 0.0448095 0.182673 0.706538
1213 2 0.0145798 0.217628 0.744478
1107 4 0.075119 0.17326 0.728276
1105 2 0.0986521 0.174199 0.736672
1207 2 0.100725 0.240927 0.668262
1208 4 0.112982 0.232722 0.688452
1106 4 0.122185 0.175139 0.745068
1130 4 0.187557 0.200126 0.720177
1129 2 0.192437 0.219383 0.735361
830 4 0.313035 0.178386 0.698513
886 2 0.280575 0.191825 0.679795
887 4 0.298208 0.190654 0.697484
976 2 0.298688 0.194806 0.732648
978 4 0.298936 0.17924 0.713081
1193 4 0.375769 0.244499 0.689926
829 2 0.335097 0.169708 0.69057
1192 2 0.375163 0.220304 0.696203
1194 4 0.374557 0.196109 0.70248
1141 2 0.410149 0.175784 0.721408
1298 4 0.368197 0.208899 0.75075
1024 2 0.44592 0.197085 0.675822
1143 4 0.422879 0.195776 0.713443
1026 4 0.434643 0.198284 0.698106
1261 2 0.441244 0.234001 0.718314
1262 4 0.429632 0.213586 0.709738
3357 4 0.489736 0.245982 0.700415
3122 4 0.494922 0.248785 0.680861
820 2 0.182352 0.273495 0.737042
821 4 0.169965 0.288847 0.721678
1065 4 0.219501 0.277419 0.709414
1063 2 0.216978 0.284429 0.685546
822 4 0.19474 0.258144 0.752406
3123 4 0.470922 0.289924 0.665618
1263 4 0.452857 0.254416 0.72689
3121 2 0.482922 0.269355 0.67324
3274 2 0.00878488 0.385077 0.739078
892 2 0.0494335 0.366914 0.705116
893 4 0.051788 0.360402 0.681091
894 4 0.0470791 0.373427 0.729142
3276 4 0.0312871 0.374225 0.740104
816 4 0.0477239 0.377537 0.748634
940 2 0.133433 0.390939 0.742536
941 4 0.156175 0.394769 0.732877
1067 4 0.159332 0.393621 0.71374
1066 2 0.171427 0.410293 0.699565
1027 2 0.218724 0.403321 0.6723
806 4 0.306785 0.354339 0.680047
805 2 0.329072 0.347902 0.689375
1139 4 0.279567 0.408658 0.682213
807 4 0.351358 0.341464 0.698704
1019 4 0.383648 0.368266 0.740644
1281 4 0.0391699 0.47343 0.718482
1280 4 0.0701897 0.454156 0.684321
1279 2 0.0546798 0.463793 0.701402
1983 4 0.0196742 0.478379 0.723989
1981 2 0.0209782 0.485335 0.74797
1028 4 0.198613 0.417289 0.677363
1068 4 0.183521 0.426965 0.68539
1175 4 0.217363 0.490552 0.670017
1176 4 0.228684 0.491189 0.718722
1174 2 0.223024 0.49087 0.69437
1138 2 0.284917 0.427016 0.698324
1140 4 0.290267 0.445373 0.714434
1987 2 0.333187 0.496759 0.738012
1206 4 0.393457 0.415485 0.670076
1228 2 0.3748 0.463978 0.723052
1229 4 0.36306 0.481627 0.709793
1230 4 0.386541 0.446328 0.736312
1989 4 0.350273 0.492303 0.720309
1267 2 0.45099 0.485272 0.668852
1101 4 0.473373 0.429985 0.694897
1100 4 0.436023 0.455567 0.716141
1099 2 0.454698 0.442776 0.705519
1294 2 0.0266796 0.00532391 0.80271
911 4 0.0597976 0.0653764 0.811702
1296 4 0.035116 0.0158161 0.823779
910 2 0.0744789 0.0752293 0.829382
1203 4 0.11802 0.0700177 0.753152
1201 2 0.109478 0.0524708 0.768783
1202 4 0.100937 0.0349239 0.784414
2049 4 0.0987447 0.0142773 0.784005
1257 4 0.24082 0.0504132 0.80706
1255 2 0.259651 0.061559 0.819157
1256 4 0.278482 0.0727049 0.831254
975 4 0.361418 0.00410004 0.819969
1113 4 0.400004 0.0201771 0.802498
1111 2 0.399624 0.0382167 0.819807
844 2 0.472227 0.0740311 0.756069
845 4 0.450327 0.0689889 0.76703
2322 4 0.49615 0.0282695 0.763121
862 2 0.0521338 0.125516 0.751838
863 4 0.0548877 0.120691 0.776216
832 2 0.0164758 0.110655 0.791837
833 4 0.0410101 0.110799 0.787018
34 3 0.0876899 0.145777 0.82367
31 1 0.0981234 0.165314 0.816752
33 3 0.120446 0.16112 0.812007
839 4 0.229511 0.106589 0.829817
838 2 0.253055 0.114998 0.829448
840 4 0.276599 0.123408 0.829079
1086 4 0.304408 0.145272 0.811805
1084 2 0.327502 0.139347 0.819337
1085 4 0.350596 0.133421 0.826868
3269 4 0.494248 0.135234 0.76356
3468 4 0.492649 0.155827 0.826608
1214 4 0.0322494 0.212283 0.761342