ITEM: TIMESTEP
360000
ITEM: NUMBER OF ATOMS
4590
ITEM: BOX BOUNDS pp pp pp
-9.9985700000000008e+00 9.9985700000000008e+00
-9.9985700000000008e+00 9.9985700000000008e+00
-9.9985700000000008e+00 9.9985700000000008e+00
ITEM: ATOMS id type xs ys zs
463 2 0.0396434 0.0608456 0.0565051
465 4 0.0432095 0.0853431 0.0529927
464 4 0.0360772 0.0363482 0.0600174
1667 4 0.0680676 0.0217499 0.079454
701 4 0.0857356 0.0803169 0.0414281
1666 2 0.0882918 0.00716703 0.0775832
1668 4 0.108516 0.992584 0.0757124
534 4 0.198611 0.0866837 0.00188743
490 2 0.273363 0.0254161 0.0338112
491 4 0.282812 0.0467002 0.0247063
492 4 0.263915 0.00413195 0.0429161
296 4 0.383204 0.0520415 0.0640405
557 4 0.36981 0.0601971 0.0525385
295 2 0.368017 0.0347065 0.0737361
1608 4 0.402286 0.0172167 0.030659
745 2 0.463472 0.0666375 0.0271744
747 4 0.464652 0.0576288 0.00388002
589 2 0.0328893 0.141955 0.0644062
590 4 0.0228756 0.158723 0.0487944
702 4 0.131699 0.091246 0.0250376
700 2 0.108717 0.0857814 0.0332328
566 4 0.152312 0.097372 0.0562814
423 4 0.0905643 0.141352 0.0116035
565 2 0.175266 0.106149 0.0516711
567 4 0.19822 0.114926 0.0470607
358 2 0.273987 0.117626 0.00189139
360 4 0.268198 0.131987 0.021524
556 2 0.362804 0.0834957 0.0467697
558 4 0.355799 0.106794 0.0410009
746 4 0.462291 0.0756462 0.0504688
770 4 0.477381 0.162556 0.0440709
553 2 0.0506936 0.210257 0.00999277
554 4 0.0300718 0.207357 0.0238317
555 4 0.0713153 0.213156 0.996154
738 4 0.221688 0.213065 0.0878861
666 4 0.333937 0.218269 0.0165871
664 2 0.328016 0.197965 0.00324913
461 4 0.330618 0.236491 0.0807442
324 4 0.415438 0.243901 0.0603698
1071 4 0.398193 0.234415 0.00844136
322 2 0.428644 0.244892 0.0815779
771 4 0.455326 0.194999 0.0750834
769 2 0.466354 0.178778 0.0595772
1012 2 0.496164 0.195083 0.00790323
1014 4 0.472026 0.188575 0.00748954
292 2 0.135327 0.325058 0.0203097
294 4 0.116895 0.331803 0.00481907
293 4 0.153758 0.318312 0.0358004
507 4 0.170607 0.313746 0.0466673
506 4 0.189524 0.267468 0.045568
483 4 0.209018 0.293708 0.0744135
505 2 0.180065 0.290607 0.0461177
481 2 0.228227 0.306987 0.0833487
357 4 0.257326 0.277919 0.0154701
355 2 0.25318 0.254222 0.00865243
571 2 0.323118 0.253485 0.0451775
573 4 0.321828 0.236743 0.0637037
572 4 0.324407 0.270227 0.0266514
1069 2 0.40029 0.258048 0.016333
1070 4 0.402388 0.28168 0.0242247
281 4 0.466514 0.330644 0.0456912
671 4 0.457754 0.344816 0.0578833
330 4 0.0205372 0.408475 0.0506871
328 2 0.00828141 0.390077 0.0390046
329 4 0.996026 0.371679 0.0273221
455 4 0.0986197 0.35381 0.0714405
286 2 0.159861 0.380419 0.0166275
287 4 0.168432 0.360795 0.0295341
288 4 0.151289 0.400044 0.003721
252 4 0.295876 0.388826 0.055648
250 2 0.284691 0.391217 0.0334141
251 4 0.273505 0.393608 0.0111802
608 4 0.291105 0.387772 0.0746562
280 2 0.476783 0.340622 0.0251936
670 2 0.461005 0.342015 0.0825158
282 4 0.487052 0.350601 0.00469593
550 2 0.0827467 0.42567 0.0347768
551 4 0.0665666 0.431196 0.0165328
313 2 0.000441261 0.453614 0.0914523
552 4 0.0989268 0.420144 0.0530208
242 4 0.131192 0.494369 0.0591461
1787 4 0.120694 0.5013 0.0755893
241 2 0.152897 0.499523 0.0704389
245 4 0.220857 0.467399 0.063568
244 2 0.243399 0.465975 0.0528444
627 4 0.219499 0.447226 0.0677912
243 4 0.174601 0.504677 0.0817316
246 4 0.265941 0.464552 0.0421207
272 4 0.257731 0.467662 0.0234705
271 2 0.279166 0.47549 0.0132517
273 4 0.300601 0.483319 0.00303303
524 4 0.328792 0.478118 0.0675912
227 4 0.476961 0.468488 0.0617876
562 2 0.454159 0.495555 0.0133564
226 2 0.499583 0.470918 0.0514199
19 3 0.021079 0.0775122 0.168821
20 3 0.0568272 0.0891683 0.166858
450 4 0.166193 0.0540949 0.146842
448 2 0.177163 0.0760672 0.151537
1505 4 0.234482 0.0427459 0.162497
652 2 0.295509 0.0343829 0.150593
653 4 0.304024 0.037743 0.127325
297 4 0.352829 0.0173715 0.0834318
1760 4 0.487951 0.000798074 0.138909
2724 4 0.497614 0.017234 0.141181
2723 4 0.499953 0.0657039 0.129102
2722 2 0.498783 0.041469 0.135141
591 4 0.042903 0.125186 0.0800179
380 4 0.00987584 0.132682 0.143966
237 4 0.191178 0.161299 0.163552
449 4 0.188134 0.0980396 0.156232
235 2 0.183552 0.137493 0.162996
236 4 0.175925 0.113687 0.16244
693 4 0.208246 0.0989236 0.158886
254 4 0.399321 0.170571 0.100507
339 4 0.0496031 0.243472 0.143243
2625 4 0.984719 0.202336 0.0971558
476 4 0.137598 0.212834 0.119577
475 2 0.116303 0.212025 0.132654
477 4 0.0950071 0.211217 0.145731
737 4 0.183559 0.22942 0.115804
736 2 0.202623 0.221243 0.101845
354 4 0.292832 0.219454 0.113676
352 2 0.283477 0.242447 0.116674
285 4 0.270137 0.189819 0.142696
283 2 0.270617 0.204348 0.163039
460 2 0.335272 0.216552 0.0950949
255 4 0.351362 0.184651 0.0989682
462 4 0.339925 0.196612 0.109446
253 2 0.375341 0.177611 0.0997374
630 4 0.415366 0.174631 0.11163
629 4 0.46422 0.165978 0.117878
628 2 0.439793 0.170305 0.114754
518 4 0.49169 0.222655 0.103216
323 4 0.441851 0.245883 0.102786
620 4 0.0203154 0.317655 0.13943
337 2 0.0695209 0.246823 0.157981
621 4 0.00417938 0.334498 0.0951958
619 2 0.0122474 0.326077 0.117313
338 4 0.0894388 0.250174 0.17272
277 2 0.249705 0.26781 0.154913
482 4 0.247437 0.320267 0.0922839
353 4 0.274122 0.26544 0.119671
754 2 0.282721 0.304799 0.114473
755 4 0.286827 0.280249 0.1121
756 4 0.278616 0.329349 0.116846
278 4 0.267031 0.264083 0.137275
612 4 0.26562 0.325032 0.132312
741 4 0.344386 0.314732 0.0893034
622 2 0.392895 0.280691 0.166034
739 2 0.357041 0.333222 0.100401
623 4 0.389418 0.274799 0.141985
517 2 0.491621 0.246747 0.0965269
519 4 0.491552 0.270839 0.089838
647 4 0.0511297 0.344978 0.134809
646 2 0.0723467 0.343846 0.14799
454 2 0.113119 0.357881 0.0913996
456 4 0.127619 0.361951 0.111359
648 4 0.0935637 0.342713 0.161171
537 4 0.165602 0.350769 0.136983
535 2 0.188859 0.353167 0.145846
626 4 0.214229 0.406797 0.0967471
536 4 0.212116 0.355565 0.154708
609 4 0.317838 0.351006 0.0954962
607 2 0.304471 0.369389 0.0850762
610 2 0.258159 0.335594 0.153711
387 4 0.336627 0.380486 0.163868
740 4 0.369697 0.351711 0.111498
15 3 0.37759 0.367648 0.120072
385 2 0.347479 0.371978 0.14301
386 4 0.35833 0.363471 0.122152
11 1 0.399596 0.361995 0.121632
13 3 0.403458 0.35061 0.141478
14 3 0.412755 0.381087 0.120762
12 3 0.405171 0.348311 0.104003
672 4 0.464256 0.339213 0.107148
495 4 0.42392 0.397079 0.121219
493 2 0.42732 0.419804 0.131079
597 4 0.472378 0.401574 0.169216
645 4 0.460033 0.387497 0.163312
1467 4 0.0145261 0.496627 0.140643
315 4 0.0111531 0.431817 0.0973964
1465 2 0.0372488 0.501733 0.149742
625 2 0.216864 0.427011 0.0822692
637 2 0.256227 0.491258 0.12992
638 4 0.271325 0.478471 0.145207
767 4 0.260337 0.484544 0.161642
525 4 0.350891 0.472707 0.112123
523 2 0.339842 0.475412 0.0898571
658 2 0.39962 0.467428 0.148719
659 4 0.375514 0.473181 0.152036
660 4 0.423726 0.461676 0.145403
595 2 0.490936 0.418242 0.167494
494 4 0.43072 0.442528 0.14094
16 1 0.0421805 0.0760608 0.178361
17 3 0.0410053 0.0833337 0.200153
18 3 0.0494533 0.0540272 0.178189
673 2 0.116591 0.0439995 0.217713
674 4 0.117289 0.0624565 0.20086
675 4 0.115892 0.0255426 0.234566
689 4 0.208755 0.999031 0.215691
1506 4 0.216094 0.00432939 0.188703
1504 2 0.225288 0.0235377 0.1756
654 4 0.286994 0.0310228 0.17386
21 1 0.371744 0.0390413 0.229616
24 3 0.351025 0.0289212 0.227023
25 3 0.384732 0.0349432 0.211364
759 4 0.39136 0.0379795 0.192416
757 2 0.400934 0.0604035 0.186877
22 3 0.368711 0.0617375 0.231815
758 4 0.410509 0.0828275 0.181339
742 2 0.475951 0.0468304 0.22679
743 4 0.495922 0.0617926 0.228356
744 4 0.455979 0.0318683 0.225224
379 2 0.0143338 0.140834 0.167179
381 4 0.0187917 0.148986 0.190392
511 2 0.0450048 0.15741 0.219285
512 4 0.0325934 0.143303 0.202788
513 4 0.0574162 0.171517 0.235781
579 4 0.0839374 0.113777 0.21672
577 2 0.0938746 0.133389 0.204813
578 4 0.103812 0.153001 0.192905
692 4 0.247321 0.10772 0.188827
723 4 0.192097 0.10413 0.239575
691 2 0.227784 0.103322 0.173856
721 2 0.191865 0.12818 0.246413
582 4 0.285244 0.0875 0.171711
580 2 0.286384 0.104151 0.190329
581 4 0.287525 0.120802 0.208946
30 3 0.300449 0.117212 0.224896
26 1 0.311167 0.11724 0.24499
27 3 0.330945 0.105657 0.243043
312 4 0.427208 0.128334 0.170542
333 4 0.445093 0.159731 0.223435
310 2 0.443623 0.121493 0.188118
311 4 0.460038 0.114652 0.205694
362 4 0.12839 0.226198 0.200784
361 2 0.106563 0.237609 0.196481
372 4 0.148863 0.230285 0.199439
370 2 0.167689 0.242863 0.210047
284 4 0.271096 0.218878 0.183382
764 4 0.375693 0.199847 0.193977
763 2 0.387152 0.215065 0.210172
765 4 0.398611 0.230283 0.226367
522 4 0.497744 0.202942 0.254895
395 4 0.0659488 0.273051 0.230815
394 2 0.0426215 0.26989 0.239243
750 4 0.0925835 0.301569 0.224267
396 4 0.0192941 0.266729 0.24767
363 4 0.0847355 0.249021 0.192177
748 2 0.0962119 0.283737 0.241414
371 4 0.186516 0.25544 0.220655
279 4 0.23238 0.271537 0.172552
344 4 0.27026 0.291412 0.247643
307 2 0.322074 0.270214 0.217711
309 4 0.314792 0.280067 0.195915
624 4 0.396372 0.286583 0.190084
308 4 0.329357 0.260362 0.239508
528 4 0.475327 0.247747 0.213478
527 4 0.494883 0.288433 0.191963
526 2 0.485105 0.26809 0.202721
300 4 0.1144 0.342927 0.218312
298 2 0.121708 0.360917 0.234064
299 4 0.129016 0.378907 0.249816
290 4 0.227701 0.42437 0.23777
611 4 0.250697 0.346157 0.17511
302 4 0.343138 0.37309 0.180561
303 4 0.350459 0.404308 0.218935
301 2 0.346799 0.388699 0.199748
643 2 0.45385 0.374403 0.183696
644 4 0.447668 0.361309 0.204079
447 4 0.445359 0.370291 0.223503
108 3 0.509847 0.410421 0.235671
445 2 0.466281 0.371714 0.23712
263 4 0.0699739 0.444645 0.228009
262 2 0.0470853 0.449098 0.237034
264 4 0.0241967 0.45355 0.24606
417 4 0.141507 0.461841 0.207827
415 2 0.161078 0.447702 0.201327
1430 4 0.164044 0.495065 0.202793
416 4 0.180649 0.433564 0.194828
291 4 0.200304 0.437763 0.198137
289 2 0.214002 0.431066 0.217954
768 4 0.265832 0.470466 0.209311
766 2 0.263085 0.477505 0.185477
231 4 0.417354 0.492116 0.197754
232 2 0.0308062 0.0486962 0.286611
233 4 0.0430052 0.0312757 0.299759
1402 2 0.0711672 0.0119279 0.276141
1403 4 0.0487402 0.0170305 0.285947
234 4 0.0186072 0.0661167 0.273462
731 4 0.10051 0.077696 0.316756
1699 2 0.238958 0.0407513 0.312815
1700 4 0.25503 0.047925 0.295055
23 3 0.382162 0.03098 0.248718
633 4 0.38761 0.0701299 0.326053
478 2 0.469616 0.0415679 0.325966
351 4 0.465132 0.0568716 0.261621
349 2 0.451765 0.0727465 0.275567
479 4 0.46777 0.0606283 0.309889
318 4 0.0327887 0.0748624 0.322052
398 4 0.0743739 0.137566 0.289164
397 2 0.0852518 0.127079 0.309085
399 4 0.0961296 0.116592 0.329007
722 4 0.191634 0.152229 0.253251
546 4 0.189291 0.168405 0.265319
248 4 0.243435 0.0903415 0.300242
249 4 0.233779 0.139406 0.299905
247 2 0.238607 0.114874 0.300073
404 4 0.227322 0.154482 0.290048
28 3 0.297962 0.106895 0.261021
29 3 0.315841 0.139034 0.251439
632 4 0.368503 0.112255 0.307049
631 2 0.378056 0.0911923 0.316551
331 2 0.448998 0.16094 0.248102
350 4 0.438398 0.0886215 0.289513
392 4 0.128585 0.201362 0.270811
391 2 0.10375 0.199628 0.273141
393 4 0.0789162 0.197894 0.275471
545 4 0.149114 0.197295 0.272518
389 4 0.0936128 0.246411 0.3222
403 2 0.228158 0.179021 0.285323
544 2 0.169202 0.18285 0.268918
405 4 0.228994 0.20356 0.280597
706 2 0.324844 0.190939 0.327252
707 4 0.324246 0.206293 0.307526
473 4 0.251119 0.179936 0.34709
420 4 0.404261 0.201723 0.30015
332 4 0.452902 0.162149 0.272769
520 2 0.479739 0.215957 0.266366
521 4 0.461733 0.228971 0.277838
762 4 0.468622 0.165972 0.285162
418 2 0.424901 0.203454 0.314157
419 4 0.44554 0.205184 0.328164
761 4 0.501468 0.171258 0.322497
760 2 0.485045 0.168615 0.30383
444 4 0.0284353 0.248177 0.304922
443 4 0.00698155 0.267892 0.264281
442 2 0.0177084 0.258034 0.284602
390 4 0.056917 0.276642 0.337698
388 2 0.0752649 0.261526 0.329949
749 4 0.0998404 0.265905 0.258561
401 4 0.190858 0.256906 0.275446
345 4 0.228407 0.296614 0.274512
400 2 0.205489 0.268887 0.291802
402 4 0.220121 0.280869 0.308159
508 2 0.225768 0.3112 0.322008
510 4 0.233439 0.287435 0.320762
343 2 0.249333 0.294013 0.261077
496 2 0.322888 0.305532 0.282154
498 4 0.308593 0.326046 0.282017
497 4 0.337183 0.285018 0.282291
543 4 0.409118 0.320958 0.330899
717 4 0.368821 0.270399 0.31875
541 2 0.427608 0.330616 0.317115
542 4 0.446099 0.340274 0.303331
366 4 0.00291439 0.343329 0.283867
364 2 0.0210689 0.333966 0.298287
365 4 0.0392235 0.324603 0.312707
602 4 0.0774785 0.400427 0.289984
601 2 0.0947878 0.390549 0.274885
603 4 0.112097 0.38067 0.259786
734 4 0.144946 0.374907 0.261428
733 2 0.15922 0.377042 0.281845
735 4 0.173494 0.379177 0.302263
677 4 0.192389 0.381422 0.309869
676 2 0.203605 0.371646 0.329963
729 4 0.322347 0.360906 0.257048
433 2 0.309966 0.385407 0.32026
434 4 0.317998 0.408778 0.316456
435 4 0.301934 0.362036 0.324063
615 4 0.391241 0.32842 0.3254
727 2 0.335742 0.380694 0.264411
613 2 0.371072 0.343124 0.323922
728 4 0.349137 0.400481 0.271773
614 4 0.350904 0.357829 0.322444
2538 4 0.486999 0.356634 0.289849
446 4 0.487203 0.373137 0.250737
549 4 0.0357346 0.415008 0.314694
777 4 0.0769854 0.452689 0.282299
547 2 0.0495897 0.416115 0.335478
775 2 0.0895335 0.439539 0.299469
776 4 0.102082 0.42639 0.316639
414 4 0.147754 0.449953 0.291462
412 2 0.159332 0.461391 0.310444
413 4 0.17091 0.472828 0.329426
436 2 0.29486 0.449651 0.283699
437 4 0.279538 0.456336 0.265105
438 4 0.310182 0.442967 0.302293
713 4 0.409514 0.481473 0.281708
2861 4 0.494223 0.470642 0.262495
712 2 0.430951 0.484345 0.269162
714 4 0.452388 0.487216 0.256617
316 2 0.0490237 0.0672886 0.339494
317 4 0.0652586 0.0597147 0.356937
428 4 0.070385 0.0274798 0.37374
427 2 0.0739122 0.00713118 0.359645
1782 4 0.123719 0.998604 0.382398
368 4 0.118037 0.0314663 0.411996
1701 4 0.222886 0.0335775 0.330575
606 4 0.185793 0.0731663 0.390265
604 2 0.187968 0.0704309 0.365507
605 4 0.190143 0.0676954 0.340749
683 4 0.302832 0.0749861 0.370451
441 4 0.282469 0.0219956 0.402352
439 2 0.295932 0.00180866 0.408386
257 4 0.392504 0.0542713 0.337316
698 4 0.374306 0.0577069 0.330352
697 2 0.355571 0.0412671 0.332329
699 4 0.336836 0.0248274 0.334306
256 2 0.407753 0.0552014 0.357109
424 2 0.413715 0.0331278 0.408518
426 4 0.424101 0.0519621 0.395768
480 4 0.471462 0.0225075 0.342043
258 4 0.423003 0.0561316 0.376902
730 2 0.112685 0.0822719 0.338111
732 4 0.124859 0.0868478 0.359466
685 2 0.156741 0.161212 0.410744
599 4 0.159423 0.176563 0.352854
687 4 0.137197 0.150458 0.422038
600 4 0.187529 0.135217 0.354019
598 2 0.173476 0.15589 0.353437
682 2 0.293852 0.0915672 0.386871
684 4 0.284872 0.108148 0.403291
452 4 0.492564 0.149613 0.373736
451 2 0.471324 0.145033 0.386108
453 4 0.450084 0.140452 0.39848
515 4 0.43229 0.149821 0.400823
2655 4 0.00567109 0.2374 0.373554
2653 2 0.0144671 0.214095 0.371384
2654 4 0.0232631 0.190791 0.369214
686 4 0.176285 0.171966 0.399449
474 4 0.263609 0.226304 0.361043
276 4 0.229566 0.261005 0.390509
472 2 0.257364 0.20312 0.354066
708 4 0.325443 0.175586 0.346977
488 4 0.271731 0.228585 0.38037
487 2 0.276826 0.243441 0.399825
305 4 0.477389 0.19191 0.41065
616 2 0.0575396 0.325161 0.375676
618 4 0.0561825 0.312532 0.397213
347 4 0.0629699 0.296563 0.408171
375 4 0.172698 0.325707 0.419361
509 4 0.218097 0.334965 0.323254
274 2 0.205592 0.262719 0.383615
275 4 0.181619 0.264434 0.376721
373 2 0.191819 0.329185 0.40363
374 4 0.210941 0.332663 0.3879
376 2 0.288607 0.279072 0.339513
377 4 0.310873 0.283459 0.350009
378 4 0.266341 0.274685 0.329017
716 4 0.339455 0.241256 0.34684
715 2 0.354138 0.255828 0.332795
268 2 0.498522 0.275695 0.406508
270 4 0.493768 0.25376 0.417526
617 4 0.0588968 0.33779 0.354139
408 4 0.0840756 0.40003 0.408318
548 4 0.0634448 0.417222 0.356263
406 2 0.0708391 0.412508 0.391164
678 4 0.214822 0.36187 0.350058
502 2 0.245028 0.418096 0.423551
336 4 0.350737 0.382104 0.392869
334 2 0.352819 0.383001 0.41777
561 4 0.462688 0.370339 0.395747
752 4 0.467382 0.385803 0.379787
559 2 0.476497 0.367195 0.416354
751 2 0.455343 0.402729 0.365868
753 4 0.443304 0.419655 0.351949
407 4 0.0576026 0.424986 0.374009
2463 4 0.015168 0.48294 0.333827
499 2 0.10944 0.491605 0.369132
500 4 0.118319 0.496607 0.3463
501 4 0.100562 0.486603 0.391965
503 4 0.261934 0.422215 0.405595
5 3 0.29341 0.438712 0.376635
1 1 0.308569 0.4482 0.390735
2 3 0.298439 0.465248 0.402393
4 3 0.316334 0.432375 0.405823
3 3 0.326304 0.456929 0.378582
594 4 0.385627 0.486932 0.367521
592 2 0.402519 0.473698 0.354689
593 4 0.419412 0.460464 0.341856
117 3 0.499706 0.437871 0.363869
1772 4 0.029118 0.00137585 0.443278
718 2 0.0523952 0.0618313 0.469323
720 4 0.0447428 0.0441898 0.485304
719 4 0.0600476 0.0794728 0.453342
2237 4 0.0346063 0.0302067 0.492889
2236 2 0.022141 0.010165 0.484635
367 2 0.125466 0.0492402 0.427936
369 4 0.132895 0.0670141 0.443875
341 4 0.182777 0.0353522 0.493884
1181 4 0.233896 0.0550225 0.468153
1180 2 0.24605 0.0705068 0.48357
726 4 0.339796 0.0453303 0.44752
425 4 0.403329 0.0142936 0.421269
724 2 0.338427 0.0702945 0.447827
2879 4 0.505253 0.0583302 0.430952
2878 2 0.496197 0.0753798 0.446842
457 2 0.0169885 0.164911 0.42876
320 4 0.297451 0.115775 0.416364
321 4 0.278002 0.152435 0.444266
319 2 0.287726 0.134105 0.430315
1182 4 0.258204 0.085991 0.498988
725 4 0.337058 0.0952587 0.448134
574 2 0.402174 0.14299 0.472976
575 4 0.409061 0.145656 0.449088
516 4 0.395347 0.147771 0.434465
576 4 0.395287 0.140323 0.496864
514 2 0.413818 0.148796 0.417644
642 4 0.492861 0.106174 0.475435
2880 4 0.487142 0.0924293 0.462732
640 2 0.477614 0.12196 0.487415
458 4 0.0360791 0.172533 0.442995
471 4 0.0120993 0.190474 0.485165
469 2 0.0313674 0.203705 0.476284
470 4 0.0506356 0.216936 0.467404
260 4 0.103512 0.201267 0.430868
261 4 0.119414 0.187209 0.476148
259 2 0.111463 0.194238 0.453508
1035 4 0.1216 0.193297 0.495316
695 4 0.0932203 0.246116 0.461376
411 4 0.248777 0.191551 0.467749
409 2 0.27177 0.187849 0.476847
410 4 0.294763 0.184146 0.485946
468 4 0.340634 0.194581 0.432094
467 4 0.390626 0.195799 0.432064
466 2 0.36563 0.19519 0.432079
304 2 0.470653 0.210935 0.425409
306 4 0.463916 0.229961 0.440169
346 2 0.0478568 0.304951 0.426238
348 4 0.0327437 0.313339 0.444304
326 4 0.0812005 0.322063 0.452538
694 2 0.106125 0.261758 0.476004
7 3 0.138741 0.329508 0.482751
327 4 0.121769 0.350865 0.45758
325 2 0.101485 0.336464 0.455059
10 3 0.175523 0.326576 0.477149
651 4 0.25494 0.274178 0.442504
489 4 0.281921 0.258297 0.419281
650 4 0.274483 0.312989 0.467252
649 2 0.264712 0.293584 0.454878
266 4 0.325624 0.282754 0.443339
267 4 0.3495 0.261115 0.48158
265 2 0.337562 0.271935 0.462459
583 2 0.471496 0.28952 0.459394
584 4 0.493413 0.301436 0.461084
585 4 0.449579 0.277605 0.457704
6 1 0.159028 0.340081 0.48516
8 3 0.158584 0.359973 0.473221
711 4 0.168691 0.377459 0.477091
709 2 0.186892 0.394555 0.478374
710 4 0.205093 0.411651 0.479657
774 4 0.21912 0.409767 0.49296
504 4 0.228123 0.413978 0.441507
238 2 0.379388 0.383985 0.471515
240 4 0.359172 0.392605 0.45959
335 4 0.354902 0.383898 0.442671
239 4 0.399603 0.375365 0.48344
560 4 0.490306 0.364051 0.43696
935 4 0.0165902 0.448845 0.498318
681 4 0.0637485 0.435965 0.453347
383 4 0.0796588 0.434444 0.465601
680 4 0.0327095 0.46454 0.4265
1383 4 0.0158512 0.472097 0.436054
679 2 0.048229 0.450253 0.439923
384 4 0.123915 0.455952 0.456684
568 2 0.155156 0.468587 0.446744
569 4 0.14267 0.453825 0.462599
382 2 0.101787 0.445198 0.461143
570 4 0.167642 0.483349 0.430889
635 4 0.213951 0.42781 0.487392
634 2 0.229754 0.443645 0.476225
669 4 0.29167 0.444706 0.466345
636 4 0.245557 0.45948 0.465058
668 4 0.318382 0.435365 0.425114
667 2 0.305026 0.440035 0.44573
587 4 0.400065 0.437122 0.476942
586 2 0.393775 0.444211 0.453804
588 4 0.387484 0.4513 0.430667
663 4 0.463315 0.45577 0.49588
661 2 0.473449 0.478287 0.499813
1126 2 0.0289538 0.0500361 0.52574
1127 4 0.0376576 0.0465759 0.502557
1128 4 0.0202501 0.0534964 0.548923
1058 4 0.127678 0.0530834 0.566007
1057 2 0.130387 0.0755629 0.576614
2428 2 0.204559 0.00554442 0.516526
342 4 0.180349 0.0763642 0.522394
2430 4 0.189526 0.0238966 0.508627
340 2 0.181563 0.0558582 0.508139
1030 2 0.251571 0.0848903 0.56489
961 2 0.280613 0.0308361 0.516726
963 4 0.304423 0.0371006 0.521083
962 4 0.256802 0.0245716 0.512368
432 4 0.313473 0.0409354 0.503599
430 2 0.32836 0.0597978 0.510511
950 4 0.275192 0.0128714 0.583686
1217 4 0.401266 0.0496406 0.554728
1216 2 0.405197 0.024954 0.555274
841 2 0.38349 0.0696675 0.526979
842 4 0.403975 0.0616485 0.538864
431 4 0.343246 0.0786602 0.517424
1062 4 0.48725 0.0497734 0.51976
938 4 0.056169 0.117301 0.540004
937 2 0.0760855 0.132403 0.539326
939 4 0.0960019 0.147504 0.538647
1153 2 0.154054 0.126028 0.572617
1154 4 0.165814 0.148049 0.574022
1152 4 0.194265 0.0878995 0.531772
1151 4 0.16772 0.129831 0.525625
1150 2 0.180993 0.108865 0.528699
1032 4 0.264341 0.0986121 0.548342
843 4 0.363006 0.0776865 0.515094
641 4 0.462368 0.137746 0.499396
878 4 0.0366218 0.211063 0.572012
1199 4 0.0229976 0.199322 0.563509
1034 4 0.101818 0.166991 0.532964
1033 2 0.111709 0.180144 0.51414
856 2 0.241946 0.201077 0.538861
857 4 0.2231 0.197625 0.522795
898 2 0.319183 0.179425 0.521758
858 4 0.260791 0.204528 0.554926
900 4 0.308955 0.186012 0.499914
791 4 0.28647 0.229318 0.560808
790 2 0.294662 0.252205 0.566658
899 4 0.329412 0.172837 0.543603
871 2 0.38017 0.236427 0.513867
873 4 0.359883 0.244334 0.526159
872 4 0.400457 0.228521 0.501574
905 4 0.483734 0.216174 0.561274
1258 2 0.133112 0.273635 0.525832
1260 4 0.117775 0.284253 0.509182
1259 4 0.148449 0.263017 0.542482
696 4 0.119031 0.277399 0.490632
811 2 0.306144 0.306581 0.503102
804 4 0.270378 0.326164 0.514258
792 4 0.302853 0.275093 0.572508
1238 4 0.314147 0.283729 0.586545
812 4 0.285018 0.319891 0.501813
813 4 0.327271 0.29327 0.504392
983 4 0.033809 0.337457 0.556776
982 2 0.0399688 0.343688 0.580194
9 3 0.162593 0.344433 0.507671
1189 2 0.226777 0.377517 0.560627
773 4 0.246417 0.37894 0.521337
1190 4 0.23663 0.375079 0.537776
1191 4 0.216925 0.379956 0.583478
772 2 0.232769 0.394353 0.507149
802 2 0.262309 0.347179 0.525142
803 4 0.25424 0.368193 0.536027
930 4 0.341632 0.38671 0.575928
928 2 0.341209 0.383244 0.551169
929 4 0.340786 0.379777 0.526411
925 2 0.461832 0.406614 0.516483
927 4 0.482921 0.39514 0.523468
926 4 0.440743 0.418087 0.509499
3309 4 0.490019 0.401877 0.559533
934 2 0.994943 0.453464 0.509948
539 4 0.0890756 0.463348 0.507517
2243 4 0.160702 0.502978 0.55602
538 2 0.0996429 0.485198 0.513526
1161 4 0.161373 0.487646 0.568595
1159 2 0.172156 0.469107 0.581449
882 4 0.311045 0.440938 0.5128
891 4 0.281804 0.452245 0.572081
880 2 0.331877 0.451986 0.521115
889 2 0.306017 0.451181 0.578227
890 4 0.33023 0.450117 0.584374
881 4 0.352709 0.463034 0.52943
1952 4 0.36176 0.470897 0.545256
1951 2 0.371948 0.486616 0.561818
1002 4 0.418518 0.426702 0.570891
1953 4 0.382135 0.502335 0.578381
1000 2 0.437041 0.443028 0.566951
1001 4 0.455565 0.459354 0.563012
945 4 0.0821949 0.999209 0.660636
943 2 0.0810658 0.0237806 0.656148
825 4 0.11601 0.0216843 0.606693
823 2 0.136203 0.0106292 0.616451
1031 4 0.238801 0.0711684 0.581437
951 4 0.251159 0.0566313 0.586548
949 2 0.263176 0.0347513 0.585117
1092 4 0.329476 0.0206105 0.652882
808 2 0.484744 0.0790761 0.635417
810 4 0.475735 0.073248 0.658002
1083 4 0.0603886 0.105189 0.630729
1082 4 0.0247093 0.115699 0.664154
1081 2 0.042549 0.110444 0.647442
1155 4 0.142295 0.104007 0.571212
1059 4 0.133095 0.0980423 0.587222
909 4 0.141996 0.129956 0.658922
1284 4 0.15963 0.0826557 0.634888
1282 2 0.17271 0.0799799 0.656029
809 4 0.493753 0.0849043 0.612833
877 2 0.0576405 0.215486 0.584812
879 4 0.0786592 0.219909 0.597612
1245 4 0.0794967 0.25537 0.646949
1209 4 0.0928347 0.241043 0.65007
1272 4 0.0970951 0.218971 0.592733
1270 2 0.117985 0.225765 0.604676
1271 4 0.138874 0.232559 0.616619
1221 4 0.174101 0.185686 0.591393
797 4 0.214766 0.234464 0.61857
1210 2 0.230852 0.187414 0.644347
1212 4 0.205988 0.188462 0.646766
1219 2 0.180784 0.186245 0.61548
1220 4 0.187468 0.186804 0.639567
796 2 0.234219 0.227748 0.60437
947 4 0.183627 0.241904 0.625979
798 4 0.253672 0.221033 0.59017
1211 4 0.255716 0.186366 0.641928
888 4 0.258977 0.183465 0.6623
904 2 0.466022 0.220247 0.578446
906 4 0.44831 0.224319 0.595618
1025 4 0.453501 0.193545 0.657074
1244 4 0.041755 0.241996 0.616992
1243 2 0.0606259 0.248683 0.63197
946 2 0.189865 0.262174 0.639223
948 4 0.196102 0.282444 0.652467
1064 4 0.213004 0.283286 0.663286
1237 2 0.309484 0.305527 0.597871
1239 4 0.304821 0.327325 0.609197
954 4 0.463894 0.300886 0.576951
952 2 0.471867 0.299096 0.600581
953 4 0.479839 0.297306 0.624212
984 4 0.0461285 0.349918 0.603613
1039 2 0.0714623 0.367976 0.632466
1041 4 0.0530319 0.356126 0.620421
3263 4 0.0338296 0.350871 0.618139
3262 2 0.0119 0.358828 0.627136
1137 4 0.131654 0.37355 0.585292
1040 4 0.0898927 0.379826 0.64451
897 4 0.148435 0.383773 0.590878
1136 4 0.0819771 0.375798 0.590569
1135 2 0.106816 0.374674 0.587931
991 2 0.123674 0.405734 0.652195
993 4 0.100952 0.395989 0.648462
992 4 0.146395 0.41548 0.655927
896 4 0.198094 0.387632 0.586433
895 2 0.173264 0.385702 0.588655
1029 4 0.23848 0.406078 0.659132
1204 2 0.414358 0.407582 0.661098
1205 4 0.435527 0.399192 0.65077
1171 2 0.218085 0.434151 0.584641
1173 4 0.193128 0.435537 0.585273
1172 4 0.243042 0.432765 0.584008
1187 4 0.209081 0.495549 0.603086
1160 4 0.18294 0.450569 0.594302
1186 2 0.209509 0.492488 0.627898
1269 4 0.452507 0.467248 0.649797
944 4 0.0799367 0.0483522 0.651659
1283 4 0.18579 0.077304 0.677169
1147 2 0.201228 0.0500167 0.741757
1149 4 0.207527 0.0263081 0.736919
1003 2 0.329229 0.0851651 0.701346
1090 2 0.329054 0.0228335 0.677783
1091 4 0.328631 0.0250565 0.702683
1004 4 0.346249 0.0809099 0.71916
1163 4 0.47287 0.0582734 0.669247
1162 2 0.492755 0.0482346 0.680605
42 3 0.433244 0.062926 0.679497
2320 2 0.494943 0.014478 0.755314
44 3 0.46812 0.0764119 0.675689
846 4 0.493018 0.083382 0.746552
1076 4 0.0322199 0.126257 0.678068
864 4 0.0515917 0.122652 0.730878
1075 2 0.0471047 0.129249 0.697934
1077 4 0.0619895 0.132242 0.717801
907 2 0.157355 0.134104 0.678211
1148 4 0.194929 0.0737253 0.746595
908 4 0.172715 0.138251 0.6975
1227 4 0.172284 0.12892 0.71528
1225 2 0.18319 0.10794 0.72341
1226 4 0.194095 0.0869605 0.731539
1005 4 0.312208 0.0894204 0.683531
831 4 0.360329 0.168074 0.683644
1142 4 0.394031 0.158726 0.729145
45 3 0.438416 0.0968972 0.664933
41 1 0.446085 0.0819928 0.68035
43 3 0.444556 0.0911197 0.701628
851 4 0.0763097 0.181708 0.715167
852 4 0.0300704 0.194871 0.701405
850 2 0.0531901 0.18829 0.708286
1213 2 0.00909854 0.227566 0.753983
1107 4 0.0844268 0.168332 0.727564
1105 2 0.10407 0.176089 0.740949
1207 2 0.105247 0.233549 0.67044
1208 4 0.117659 0.226056 0.690811
1106 4 0.123713 0.183847 0.754333
1130 4 0.179478 0.207251 0.719181
1129 2 0.185353 0.223806 0.736974
830 4 0.313792 0.176384 0.699953
886 2 0.278373 0.184939 0.678009
887 4 0.29777 0.186413 0.693718
976 2 0.299081 0.199912 0.729602
978 4 0.299584 0.181773 0.7124
1193 4 0.375449 0.244907 0.69183
829 2 0.33706 0.172229 0.691798
1192 2 0.374755 0.22105 0.699281
1194 4 0.374062 0.197192 0.706731
1141 2 0.409111 0.177831 0.723418
1298 4 0.364829 0.211189 0.748057
1024 2 0.445424 0.19329 0.680736
1143 4 0.42419 0.196936 0.717691
1026 4 0.437346 0.193034 0.704397
1261 2 0.445711 0.231574 0.71949
1262 4 0.434357 0.211842 0.709149
3357 4 0.504954 0.244095 0.699139
3122 4 0.498633 0.248382 0.681269
820 2 0.187725 0.278935 0.740272
821 4 0.187739 0.298611 0.724844
1065 4 0.221706 0.284224 0.712521
1063 2 0.217355 0.283755 0.687904
822 4 0.187711 0.259259 0.7557
3123 4 0.460696 0.280472 0.675641
1263 4 0.457064 0.251305 0.729831
3121 2 0.479664 0.264427 0.678455
3274 2 0.00576592 0.390336 0.740446
892 2 0.0458298 0.362682 0.712209
893 4 0.046863 0.345532 0.694043
894 4 0.0447966 0.379831 0.730375
3276 4 0.0284677 0.379897 0.741354
816 4 0.0453885 0.388192 0.748076
940 2 0.133524 0.385213 0.741105
941 4 0.155321 0.385603 0.728861
1067 4 0.161557 0.402555 0.717851
1066 2 0.172023 0.418371 0.701557
1027 2 0.219071 0.414602 0.672392
806 4 0.312626 0.350727 0.680544
805 2 0.330776 0.34142 0.695004
1139 4 0.276238 0.411001 0.687082
807 4 0.348927 0.332112 0.709465
1019 4 0.397953 0.373291 0.741019
1281 4 0.0446128 0.47393 0.731662
1280 4 0.0687996 0.460838 0.689897
1279 2 0.0567062 0.467384 0.710779
1983 4 0.0260845 0.481179 0.725141
1981 2 0.0255876 0.484593 0.749905
1028 4 0.199662 0.423126 0.685652
1068 4 0.18249 0.434187 0.685263
1175 4 0.205964 0.496489 0.670947
1176 4 0.238202 0.495644 0.709166
1174 2 0.222083 0.496067 0.690057
1138 2 0.278104 0.425935 0.707049
1140 4 0.279971 0.440869 0.727015
1987 2 0.339982 0.489721 0.744767
1206 4 0.393189 0.415971 0.671425
1228 2 0.376331 0.458451 0.715533
1229 4 0.362649 0.479367 0.714814
1230 4 0.390012 0.437535 0.716252
1989 4 0.354384 0.494201 0.724825
1267 2 0.453485 0.48638 0.665866
1101 4 0.466865 0.43842 0.693607
1100 4 0.427331 0.45915 0.716148
1099 2 0.447098 0.448785 0.704877
1294 2 0.0285901 0.00734369 0.806129
911 4 0.0529584 0.0777252 0.813659
1296 4 0.037153 0.0105913 0.829395
910 2 0.073441 0.0777227 0.828
1203 4 0.123815 0.0696078 0.759437
1201 2 0.114504 0.0504433 0.772521
1202 4 0.105193 0.0312789 0.785606
2049 4 0.10324 0.0115195 0.784659
1257 4 0.243541 0.043407 0.804785
1255 2 0.256138 0.0599732 0.818643
1256 4 0.268735 0.0765395 0.832502
975 4 0.373435 0.00245248 0.820495
1113 4 0.3998 0.0234144 0.799508
1111 2 0.40389 0.0383014 0.819176
844 2 0.470254 0.0753176 0.753029
845 4 0.44749 0.0672532 0.759505
2322 4 0.506955 0.0353142 0.76215
862 2 0.0529066 0.122399 0.755846
863 4 0.0542215 0.122147 0.780814
832 2 0.017355 0.110427 0.8014
833 4 0.0398937 0.118083 0.793747
34 3 0.0848397 0.155611 0.828089
31 1 0.100162 0.170275 0.818677
33 3 0.121654 0.161845 0.821001
839 4 0.217332 0.123794 0.819481
838 2 0.240413 0.115582 0.824483
840 4 0.263495 0.107371 0.829484
1086 4 0.319688 0.15404 0.806314
1084 2 0.338274 0.142031 0.817957
1085 4 0.356859 0.130023 0.829601
3269 4 0.506104 0.148203 0.764528
3468 4 0.484832 0.163246 0.825457
1214 4 0.0280367 0.222083 0.76936