ITEM: TIMESTEP
980000
ITEM: NUMBER OF ATOMS
4590
ITEM: BOX BOUNDS pp pp pp
-9.9985700000000008e+00 9.9985700000000008e+00
-9.9985700000000008e+00 9.9985700000000008e+00
-9.9985700000000008e+00 9.9985700000000008e+00
ITEM: ATOMS id type xs ys zs
464 4 0.0177821 0.0682119 0.0235928
701 4 0.0676803 0.0725797 0.0406739
567 4 0.164819 0.0724416 0.0750556
1668 4 0.0799902 0.971651 0.0700157
565 2 0.141096 0.0786981 0.0702351
566 4 0.117373 0.0849546 0.0654145
491 4 0.292862 0.0182866 0.0301184
2264 4 0.285777 0.0292325 0.0149662
558 4 0.366981 0.0664168 0.0371862
556 2 0.358682 0.0512377 0.0552386
557 4 0.350382 0.0360586 0.073291
745 2 0.474943 0.0530342 0.00822157
746 4 0.485902 0.0507116 0.0305751
2467 2 0.494277 0.0139443 0.0430821
2469 4 0.485047 0.0371697 0.0438385
463 2 0.0421668 0.0737178 0.0230944
465 4 0.0665515 0.0792237 0.022596
589 2 0.00858094 0.12669 0.0805167
590 4 0.0262081 0.122844 0.0632057
554 4 0.0664729 0.161992 0.0121727
700 2 0.0839708 0.0774766 0.0589992
423 4 0.100026 0.106478 0.999503
421 2 0.110377 0.126693 0.00996191
702 4 0.100261 0.0823735 0.0773246
422 4 0.120729 0.146908 0.0204207
359 4 0.258986 0.13837 0.0169928
770 4 0.44562 0.151775 0.0827619
553 2 0.070309 0.186521 0.0151449
836 4 0.0779973 0.224411 0.0323342
555 4 0.0741451 0.211049 0.0181171
835 2 0.0970181 0.239484 0.026318
666 4 0.329801 0.219856 0.0328477
664 2 0.330436 0.214151 0.00851187
573 4 0.316219 0.231382 0.039411
461 4 0.324129 0.217666 0.0514703
460 2 0.323472 0.219055 0.0764266
769 2 0.434902 0.172408 0.0735654
1012 2 0.485062 0.20389 0.042313
771 4 0.424184 0.193041 0.0643689
1014 4 0.471488 0.207581 0.0629844
1013 4 0.498636 0.200199 0.0216416
837 4 0.116039 0.254557 0.0203018
915 4 0.131475 0.256328 0.00807088
292 2 0.113185 0.299304 0.0590175
294 4 0.0930363 0.301189 0.0443321
507 4 0.144848 0.28492 0.0632802
293 4 0.133333 0.297419 0.0737029
505 2 0.169372 0.284711 0.068151
481 2 0.217046 0.32118 0.0689936
506 4 0.193895 0.284502 0.0730218
483 4 0.205521 0.299989 0.0755713
482 4 0.228572 0.342371 0.0624158
355 2 0.284932 0.301366 0.0163941
571 2 0.307623 0.25486 0.0390899
356 4 0.306072 0.291708 0.025613
572 4 0.299026 0.278337 0.0387688
1069 2 0.420978 0.245748 0.0423789
1070 4 0.415886 0.240756 0.0184139
957 4 0.366518 0.310764 0.0208608
1071 4 0.426071 0.250741 0.0663438
324 4 0.428953 0.26926 0.0619274
322 2 0.441931 0.29008 0.0667478
672 4 0.44859 0.323589 0.0565429
323 4 0.45491 0.310901 0.0715683
620 4 0.0150557 0.355633 0.0762427
455 4 0.102337 0.388852 0.0883915
609 4 0.237744 0.357821 0.0684048
252 4 0.280917 0.400002 0.0357124
608 4 0.273994 0.382647 0.0445244
607 2 0.255869 0.370234 0.0564646
670 2 0.460808 0.343847 0.0646371
671 4 0.473025 0.364105 0.0727313
281 4 0.484185 0.379178 0.0782121
280 2 0.489173 0.393407 0.0582659
551 4 0.0701372 0.444758 0.0609332
550 2 0.0865248 0.463211 0.0649444
552 4 0.102912 0.481665 0.0689556
1787 4 0.101358 0.499564 0.061224
242 4 0.1193 0.491347 0.0638256
241 2 0.140841 0.491779 0.0765135
250 2 0.288595 0.423368 0.0402174
244 2 0.254117 0.46713 0.0580656
251 4 0.296273 0.446733 0.0447224
271 2 0.274813 0.47946 0.0100487
246 4 0.257296 0.484853 0.0407168
272 4 0.271119 0.493396 0.0304768
245 4 0.250938 0.449407 0.0754144
525 4 0.338196 0.505693 0.0604245
226 2 0.48632 0.464403 0.051448
228 4 0.467392 0.448808 0.0563185
563 4 0.436708 0.475957 0.0120385
562 2 0.441412 0.499772 0.00604582
2576 4 0.00984239 0.0256619 0.0906617
16 1 0.0563709 0.0620024 0.158937
17 3 0.0710872 0.0673454 0.142084
1804 2 0.0760238 0.0122817 0.135633
20 3 0.0373176 0.0534729 0.149834
1667 4 0.0904662 0.00968271 0.100749
1666 2 0.0852282 0.990667 0.0853823
448 2 0.17914 0.0760314 0.148587
450 4 0.173766 0.0517155 0.15083
1505 4 0.173387 0.0329705 0.159306
652 2 0.303753 0.0141886 0.138481
653 4 0.289268 0.0297879 0.125365
296 4 0.357186 0.0457373 0.0890491
295 2 0.370124 0.0336602 0.10671
297 4 0.383062 0.0215831 0.124372
485 4 0.380793 0.0026606 0.125675
579 4 0.110325 0.096704 0.16192
237 4 0.134564 0.141555 0.164316
235 2 0.155066 0.129513 0.156582
236 4 0.175569 0.117471 0.148848
693 4 0.195141 0.116285 0.152014
449 4 0.184514 0.100347 0.146344
284 4 0.27449 0.158269 0.168531
312 4 0.440729 0.134454 0.156973
337 2 0.0548917 0.209659 0.154142
339 4 0.0312848 0.202723 0.158589
338 4 0.0784986 0.216595 0.149694
476 4 0.127736 0.208124 0.11682
475 2 0.111299 0.207575 0.135654
477 4 0.0948625 0.207026 0.154487
737 4 0.147821 0.209922 0.120511
738 4 0.193347 0.230602 0.12114
736 2 0.170584 0.220262 0.120826
283 2 0.280785 0.173306 0.149572
285 4 0.28708 0.188344 0.130614
255 4 0.335735 0.206811 0.109315
462 4 0.322814 0.220445 0.101383
254 4 0.376535 0.205596 0.138205
253 2 0.356135 0.206204 0.12376
630 4 0.390922 0.213456 0.15005
628 2 0.409916 0.21301 0.133795
518 4 0.485917 0.254021 0.138039
629 4 0.42891 0.212564 0.117541
352 2 0.315232 0.28283 0.125595
353 4 0.297335 0.286104 0.142746
754 2 0.28421 0.32422 0.15613
755 4 0.289682 0.29987 0.154605
278 4 0.285742 0.280605 0.157186
354 4 0.333129 0.279557 0.108444
2895 4 0.495469 0.251883 0.155076
519 4 0.483728 0.296787 0.112213
517 2 0.484822 0.275404 0.125126
647 4 0.0157843 0.35493 0.0971413
646 2 0.0392835 0.349675 0.103876
648 4 0.0627826 0.34442 0.110611
456 4 0.0809843 0.34712 0.105805
454 2 0.0916606 0.367986 0.0970981
537 4 0.222564 0.368818 0.152371
535 2 0.204472 0.362055 0.136493
536 4 0.186379 0.355291 0.120615
611 4 0.236064 0.381515 0.143299
756 4 0.278737 0.348569 0.157655
612 4 0.283303 0.368002 0.152606
610 2 0.259683 0.374758 0.147953
387 4 0.327997 0.393741 0.159146
741 4 0.363918 0.342306 0.0835201
739 2 0.365735 0.354832 0.105083
740 4 0.367553 0.367358 0.126647
15 3 0.38239 0.358978 0.135419
385 2 0.348682 0.381482 0.152287
386 4 0.369367 0.369224 0.145428
11 1 0.40083 0.365392 0.147144
14 3 0.40688 0.386988 0.141193
495 4 0.40719 0.406549 0.135101
12 3 0.418241 0.351176 0.142253
2651 4 0.491148 0.361365 0.0799152
1467 4 0.0177981 0.461983 0.118529
1465 2 0.0278323 0.477056 0.135771
1466 4 0.0378666 0.492129 0.153014
243 4 0.162382 0.492211 0.0892013
625 2 0.218072 0.45737 0.103531
626 4 0.197558 0.465591 0.115227
627 4 0.238585 0.44915 0.0918358
638 4 0.252484 0.497476 0.162851
523 2 0.346703 0.483382 0.0678425
524 4 0.355209 0.461071 0.0752606
493 2 0.401386 0.429026 0.14439
660 4 0.40521 0.469147 0.14739
494 4 0.395581 0.451503 0.153679
658 2 0.411603 0.493097 0.150666
1673 4 0.441704 0.491688 0.09634
18 3 0.0662561 0.0462499 0.172813
2480 4 0.0173196 0.0182282 0.184984
19 3 0.0514741 0.0812154 0.170991
380 4 0.0422272 0.0812152 0.188675
1806 4 0.0782682 0.00928963 0.160355
673 2 0.126269 0.0675804 0.192394
674 4 0.117979 0.0751039 0.214752
675 4 0.134559 0.0600569 0.170037
1506 4 0.178828 0.0259134 0.208513
1504 2 0.176108 0.0294419 0.183909
689 4 0.185986 0.00822353 0.206567
21 1 0.400082 0.0182693 0.238293
25 3 0.412009 0.029621 0.22256
759 4 0.408115 0.0504595 0.222479
757 2 0.395009 0.0647329 0.206678
22 3 0.378215 0.0164673 0.231383
758 4 0.381902 0.0790064 0.190878
744 4 0.474015 0.010696 0.242727
351 4 0.470135 0.0250965 0.230107
349 2 0.449002 0.0381957 0.227466
350 4 0.427869 0.0512949 0.224825
512 4 0.0376169 0.148244 0.19959
379 2 0.0447105 0.105558 0.193818
381 4 0.0471938 0.1299 0.198961
511 2 0.0580424 0.159668 0.208391
578 4 0.0950625 0.14207 0.1764
577 2 0.102694 0.119387 0.16916
546 4 0.157765 0.153781 0.251414
691 2 0.210699 0.123177 0.170335
692 4 0.226257 0.130068 0.188655
723 4 0.203783 0.154661 0.201088
721 2 0.188658 0.155517 0.22098
582 4 0.238951 0.129912 0.204295
580 2 0.259402 0.117538 0.211632
581 4 0.279853 0.105165 0.218968
30 3 0.282636 0.102918 0.240669
26 1 0.304789 0.105378 0.245338
28 3 0.317212 0.090101 0.233061
27 3 0.311419 0.126652 0.239628
310 2 0.434015 0.137087 0.180914
311 4 0.4273 0.139721 0.204855
513 4 0.078468 0.171092 0.217192
363 4 0.0843455 0.215903 0.168275
362 4 0.115517 0.236074 0.201774
361 2 0.0999314 0.225988 0.185025
372 4 0.131131 0.231932 0.213116
370 2 0.155495 0.229375 0.218125
722 4 0.173533 0.156374 0.240872
371 4 0.179858 0.226819 0.223133
279 4 0.285345 0.253629 0.199291
765 4 0.386453 0.216022 0.170022
763 2 0.389825 0.239063 0.179126
308 4 0.349252 0.242275 0.233426
520 2 0.494709 0.20285 0.232906
521 4 0.483217 0.223452 0.241192
395 4 0.0492358 0.296247 0.218833
750 4 0.0596097 0.280152 0.212525
748 2 0.0681183 0.283138 0.189204
749 4 0.0766269 0.286124 0.165883
394 2 0.0329516 0.28689 0.235339
277 2 0.285544 0.267117 0.178239
309 4 0.331352 0.278656 0.204157
307 2 0.340302 0.260465 0.218792
764 4 0.393197 0.262105 0.188229
623 4 0.402065 0.280435 0.18798
622 2 0.423096 0.293618 0.184967
624 4 0.444128 0.306801 0.181954
528 4 0.455225 0.291967 0.189266
527 4 0.491736 0.262441 0.172064
526 2 0.47348 0.277204 0.180665
262 2 0.0654526 0.411479 0.220372
264 4 0.0571784 0.403049 0.198334
263 4 0.0737268 0.41991 0.242409
300 4 0.133561 0.332097 0.227009
298 2 0.137355 0.354584 0.237263
603 4 0.138642 0.396212 0.250375
299 4 0.141149 0.377071 0.247517
290 4 0.212005 0.386695 0.225535
289 2 0.200371 0.408619 0.222505
302 4 0.311983 0.387139 0.168719
301 2 0.3066 0.410737 0.174991
13 3 0.396484 0.364372 0.169914
645 4 0.471424 0.412522 0.171237
643 2 0.47605 0.394929 0.188391
644 4 0.480676 0.377336 0.205545
447 4 0.472426 0.374023 0.223445
445 2 0.490339 0.36763 0.239676
417 4 0.179771 0.49762 0.204839
415 2 0.179721 0.472996 0.209178
291 4 0.188737 0.430543 0.219475
416 4 0.179672 0.448372 0.213517
767 4 0.263123 0.482233 0.153257
303 4 0.301218 0.434335 0.181263
766 2 0.274579 0.461896 0.162218
768 4 0.286036 0.441558 0.171179
597 4 0.455699 0.424144 0.173837
595 2 0.461454 0.448447 0.172639
596 4 0.467209 0.47275 0.171441
1568 4 0.480782 0.486535 0.17664
2861 4 0.455486 0.459821 0.248852
1799 4 0.0316654 0.0241498 0.31664
233 4 0.027961 0.0226097 0.297134
1402 2 0.0605106 0.0244144 0.285291
1403 4 0.0446754 0.0303907 0.303695
232 2 0.00534041 0.028849 0.2885
1404 4 0.0763457 0.018438 0.266887
1699 2 0.215253 0.0580116 0.306291
1701 4 0.202279 0.038266 0.298108
23 3 0.400656 0.0297327 0.258459
1516 2 0.368814 0.00516847 0.29469
697 2 0.381243 0.0550097 0.319398
699 4 0.394005 0.0419248 0.302336
1518 4 0.380835 0.0267047 0.298797
742 2 0.48427 0.0083326 0.265408
478 2 0.467117 0.0446852 0.316013
479 4 0.479129 0.0273889 0.302532
480 4 0.455105 0.0619815 0.329494
545 4 0.109194 0.159708 0.261732
398 4 0.0639499 0.132207 0.31685
544 2 0.13348 0.156745 0.256573
1700 4 0.228227 0.0777573 0.314474
248 4 0.225055 0.0965017 0.308417
249 4 0.196804 0.136981 0.300419
247 2 0.21093 0.116741 0.304418
404 4 0.199121 0.157783 0.29724
403 2 0.185308 0.162578 0.276957
405 4 0.171494 0.167372 0.256675
29 3 0.3085 0.102198 0.268021
632 4 0.340232 0.121011 0.333245
631 2 0.356358 0.102782 0.338973
333 4 0.445269 0.118254 0.310239
331 2 0.447488 0.14308 0.308257
332 4 0.449708 0.167906 0.306275
393 4 0.0941932 0.210849 0.301988
444 4 0.0280364 0.256349 0.31082
392 4 0.111676 0.17734 0.269244
391 2 0.102935 0.194095 0.285616
390 4 0.103806 0.222816 0.313709
378 4 0.2856 0.218312 0.316109
376 2 0.306253 0.204262 0.317225
707 4 0.339073 0.195562 0.333144
377 4 0.326906 0.190212 0.318341
420 4 0.420831 0.224042 0.323194
418 2 0.428488 0.200438 0.320127
419 4 0.436144 0.176834 0.317059
760 2 0.476852 0.195548 0.293574
762 4 0.468957 0.173619 0.302629
396 4 0.0166674 0.277533 0.251845
442 2 0.0225749 0.2702 0.290733
443 4 0.0171135 0.28405 0.270645
364 2 0.996731 0.313257 0.267659
365 4 0.0104233 0.295303 0.25692
401 4 0.190226 0.258682 0.278481
345 4 0.239041 0.299324 0.305888
400 2 0.208107 0.273835 0.287188
402 4 0.225988 0.288988 0.295896
510 4 0.220191 0.304028 0.307835
343 2 0.26397 0.29786 0.304623
344 4 0.288898 0.296396 0.303358
498 4 0.387424 0.291675 0.304265
496 2 0.366755 0.291291 0.2902
497 4 0.346085 0.290908 0.276135
543 4 0.420295 0.338192 0.298807
541 2 0.427727 0.317685 0.31103
542 4 0.43516 0.297179 0.323254
2493 4 0.988873 0.347297 0.290349
602 4 0.0907861 0.409328 0.24417
601 2 0.114714 0.40277 0.247272
734 4 0.146409 0.386116 0.264605
733 2 0.160091 0.387818 0.285464
508 2 0.218053 0.324398 0.322176
735 4 0.173774 0.38952 0.306323
677 4 0.181249 0.395596 0.323124
676 2 0.199496 0.378677 0.325568
509 4 0.215914 0.344768 0.336517
678 4 0.217742 0.361757 0.328012
728 4 0.31415 0.400069 0.291131
438 4 0.261961 0.414731 0.26085
727 2 0.336652 0.397567 0.28052
729 4 0.359153 0.395065 0.269908
615 4 0.403253 0.348088 0.304507
613 2 0.397513 0.363936 0.322975
2536 2 0.493782 0.399841 0.298884
2537 4 0.492738 0.408188 0.275338
2862 4 0.488892 0.42652 0.26546
753 4 0.494919 0.376457 0.335348
549 4 0.0413373 0.445026 0.324842
777 4 0.0820614 0.440025 0.300087
775 2 0.0972264 0.450769 0.316813
776 4 0.112391 0.461514 0.333539
414 4 0.128344 0.471234 0.328009
437 4 0.255149 0.436853 0.305178
436 2 0.258555 0.425792 0.283014
713 4 0.34757 0.494179 0.255507
2860 2 0.472189 0.443171 0.257156
593 4 0.440664 0.449716 0.315517
592 2 0.430935 0.471632 0.322601
1798 2 0.0238497 0.0148651 0.338501
369 4 0.070752 0.0492425 0.395367
1800 4 0.0160341 0.00558051 0.360362
367 2 0.0841259 0.0281221 0.394871
368 4 0.0974998 0.00700168 0.394375
605 4 0.14103 0.0606745 0.365177
604 2 0.161533 0.0587642 0.379359
606 4 0.182037 0.0568539 0.39354
698 4 0.368482 0.0680946 0.33646
256 2 0.391925 0.0618633 0.373277
257 4 0.381038 0.0696919 0.352173
633 4 0.372484 0.0845523 0.344702
258 4 0.402811 0.0540346 0.394381
426 4 0.418133 0.0423918 0.396009
424 2 0.425882 0.0245254 0.411691
318 4 0.0120277 0.135606 0.385924
316 2 0.0334043 0.129698 0.374377
317 4 0.054781 0.12379 0.362831
397 2 0.0773737 0.120332 0.334284
730 2 0.0969265 0.0977043 0.387624
399 4 0.0907976 0.108457 0.351719
731 4 0.101273 0.113688 0.368894
600 4 0.207047 0.163115 0.368991
598 2 0.19901 0.174614 0.389688
683 4 0.282352 0.099064 0.368037
682 2 0.278217 0.109638 0.390314
684 4 0.274082 0.120212 0.412592
516 4 0.409472 0.141712 0.368867
575 4 0.397624 0.141673 0.38553
574 2 0.404996 0.152321 0.406919
451 2 0.4976 0.144684 0.358867
514 2 0.433021 0.141841 0.360467
453 4 0.475572 0.137757 0.349278
515 4 0.456571 0.141969 0.352066
2653 2 0.991594 0.216195 0.380555
459 4 0.00545642 0.190171 0.400702
2654 4 0.0103386 0.199901 0.383435
457 2 0.00120313 0.165534 0.400378
388 2 0.103229 0.222165 0.338698
389 4 0.102651 0.221513 0.363686
685 2 0.157701 0.209322 0.408312
687 4 0.170905 0.188199 0.410471
686 4 0.144498 0.230445 0.406153
599 4 0.190973 0.186113 0.410385
473 4 0.234357 0.200366 0.37881
472 2 0.256664 0.190749 0.384734
474 4 0.278971 0.181132 0.390657
488 4 0.29776 0.185861 0.394921
487 2 0.306771 0.209148 0.396213
489 4 0.315783 0.232436 0.397505
706 2 0.361535 0.200098 0.343147
708 4 0.383997 0.204634 0.353149
715 2 0.403522 0.241906 0.354966
717 4 0.410915 0.222547 0.340976
347 4 0.0742526 0.31352 0.413147
618 4 0.074717 0.333039 0.412016
275 4 0.139399 0.317135 0.393642
274 2 0.157875 0.305471 0.381487
276 4 0.176351 0.293806 0.369332
373 2 0.215981 0.273675 0.379863
374 4 0.238108 0.263573 0.385652
375 4 0.193854 0.283777 0.374073
716 4 0.396128 0.261265 0.368957
406 2 0.0447423 0.389528 0.396088
407 4 0.0336971 0.409227 0.385358
408 4 0.0557874 0.369829 0.406818
616 2 0.083986 0.334112 0.388819
617 4 0.0932551 0.335185 0.365622
435 4 0.229256 0.358673 0.343237
434 4 0.274509 0.379951 0.343011
433 2 0.251882 0.369312 0.343124
503 4 0.269261 0.40711 0.411554
614 4 0.391773 0.379785 0.341443
561 4 0.462435 0.371779 0.392608
752 4 0.463285 0.376858 0.374076
559 2 0.478404 0.368131 0.411499
751 2 0.479102 0.376658 0.354712
548 4 0.0355799 0.418274 0.366697
547 2 0.0384586 0.43165 0.345769
412 2 0.152007 0.476898 0.333767
499 2 0.165212 0.496701 0.385394
501 4 0.149146 0.496394 0.40455
413 4 0.175671 0.482562 0.339524
668 4 0.305583 0.463465 0.407163
1 1 0.322662 0.489765 0.410567
3 3 0.333796 0.483265 0.391275
594 4 0.421205 0.493548 0.329685
1524 4 0.0601989 0.985807 0.494585
718 2 0.0302723 0.0790116 0.448999
720 4 0.0319553 0.0603681 0.465575
2237 4 0.0284643 0.04291 0.474365
2236 2 0.0282791 0.0201242 0.464072
1127 4 0.0186874 0.0591793 0.479687
1522 2 0.0829805 0.99045 0.485386
1523 4 0.105762 0.995092 0.476187
340 2 0.181717 0.0528326 0.495922
2430 4 0.197256 0.0142537 0.500348
341 4 0.184819 0.028428 0.500391
1182 4 0.251073 0.0782802 0.478988
726 4 0.316149 0.0414826 0.437904
724 2 0.304599 0.0386459 0.459898
725 4 0.293049 0.0358093 0.481892
432 4 0.304933 0.0368589 0.497529
963 4 0.291837 0.0221752 0.495937
425 4 0.433632 0.00665897 0.427373
2878 2 0.464799 0.0703565 0.48002
2879 4 0.461175 0.0496187 0.493511
719 4 0.0285893 0.0976551 0.432423
732 4 0.0925804 0.0817205 0.406354
1033 2 0.124315 0.145594 0.476802
1034 4 0.120007 0.14156 0.501099
1035 4 0.128624 0.149628 0.452505
1152 4 0.181683 0.0949307 0.498685
320 4 0.284903 0.109419 0.426843
1180 2 0.264058 0.0889777 0.460491
1181 4 0.277043 0.0996751 0.441995
321 4 0.31694 0.141065 0.44859
319 2 0.300922 0.125242 0.437716
576 4 0.412367 0.162968 0.428307
2880 4 0.468424 0.0910943 0.46653
642 4 0.46227 0.105375 0.454052
640 2 0.452213 0.125008 0.44228
641 4 0.442155 0.144641 0.430509
306 4 0.433192 0.16371 0.433432
471 4 0.0120323 0.212329 0.473547
469 2 0.0208483 0.189854 0.46704
470 4 0.0296642 0.167379 0.460534
260 4 0.118302 0.217258 0.447773
261 4 0.124679 0.167736 0.445006
259 2 0.121491 0.192497 0.446389
695 4 0.110737 0.235469 0.448313
411 4 0.254323 0.187702 0.444949
409 2 0.27256 0.197327 0.459088
410 4 0.290797 0.206953 0.473228
900 4 0.279135 0.211569 0.48954
265 2 0.330631 0.257735 0.464137
468 4 0.380147 0.231483 0.430741
466 2 0.376838 0.207247 0.435922
467 4 0.373529 0.183011 0.441103
267 4 0.351816 0.249848 0.453452
3157 2 0.501991 0.172345 0.483815
3159 4 0.499165 0.177841 0.508042
305 4 0.472803 0.194228 0.432842
304 2 0.452997 0.178969 0.433137
346 2 0.0751768 0.311617 0.438061
326 4 0.0752653 0.328612 0.469847
348 4 0.076101 0.309713 0.462975
694 2 0.106973 0.251513 0.467118
1260 4 0.104477 0.281495 0.499853
696 4 0.103209 0.267557 0.485922
266 4 0.309445 0.265621 0.474821
811 2 0.274583 0.308652 0.485717
813 4 0.286144 0.308633 0.463547
584 4 0.478456 0.263876 0.486204
583 2 0.462758 0.268573 0.467318
585 4 0.447059 0.27327 0.448433
2812 2 0.00384469 0.358889 0.449705
2813 4 0.0261376 0.369308 0.454138
325 2 0.0898443 0.348428 0.474317
327 4 0.104423 0.368243 0.478786
10 3 0.139914 0.334594 0.471371
7 3 0.124114 0.366165 0.483476
6 1 0.143384 0.353601 0.483426
8 3 0.160439 0.366064 0.473825
681 4 0.0825818 0.415199 0.450528
383 4 0.100559 0.417754 0.459072
9 3 0.148874 0.348202 0.505315
711 4 0.173457 0.371877 0.460113
635 4 0.207704 0.412152 0.478769
504 4 0.229772 0.396567 0.440367
709 2 0.190524 0.383469 0.474237
710 4 0.207592 0.395061 0.488361
774 4 0.214607 0.412006 0.496217
336 4 0.286353 0.404599 0.421945
502 2 0.249517 0.401839 0.42596
334 2 0.307112 0.391251 0.425958
335 4 0.32787 0.377903 0.429972
239 4 0.388891 0.380159 0.436873
238 2 0.36532 0.3859 0.430819
240 4 0.341749 0.39164 0.424766
588 4 0.403606 0.39379 0.442632
587 4 0.429663 0.388783 0.48502
560 4 0.494373 0.364484 0.430389
586 2 0.416634 0.391287 0.463826
1382 4 0.0499151 0.502233 0.424582
680 4 0.0424904 0.435145 0.428268
1383 4 0.0424906 0.453932 0.435191
1381 2 0.0462028 0.478083 0.429886
679 2 0.0625361 0.425172 0.439398
539 4 0.0861059 0.507229 0.466928
568 2 0.164791 0.479864 0.457324
382 2 0.12181 0.430924 0.459402
384 4 0.143062 0.444094 0.459733
569 4 0.15552 0.458882 0.467273
634 2 0.218913 0.428468 0.463493
570 4 0.174063 0.500846 0.447375
636 4 0.230123 0.444783 0.448218
4 3 0.315586 0.471049 0.422316
669 4 0.279247 0.422208 0.417407
667 2 0.292415 0.442837 0.412285
880 2 0.342538 0.50151 0.487167
882 4 0.345456 0.488871 0.465791
1002 4 0.397991 0.509325 0.512955
663 4 0.447909 0.429215 0.504098
1057 2 0.159448 0.0712454 0.571587
1058 4 0.156412 0.0518373 0.587055
342 4 0.178616 0.0772373 0.491453
430 2 0.315163 0.0535592 0.513073
431 4 0.325392 0.0702596 0.528618
961 2 0.273601 0.00630341 0.502317
962 4 0.255365 0.990432 0.508698
843 4 0.342486 0.0693711 0.539983
1217 4 0.397376 0.0332599 0.533533
1216 2 0.408265 0.0134812 0.544276
842 4 0.384378 0.0426045 0.545397
841 2 0.363432 0.0559878 0.54269
1218 4 0.419153 0.993703 0.55502
938 4 0.0828214 0.175866 0.54821
937 2 0.0941925 0.161948 0.530828
1151 4 0.156697 0.101986 0.541424
1059 4 0.162485 0.0906535 0.556118
1155 4 0.156121 0.108714 0.559782
939 4 0.105564 0.14803 0.513445
1150 2 0.16919 0.0984582 0.520054
1153 2 0.165992 0.126076 0.574826
878 4 0.0271756 0.20345 0.545607
1199 4 0.0215628 0.222861 0.548831
877 2 0.0475887 0.191341 0.553471
879 4 0.0680018 0.179231 0.561336
858 4 0.266723 0.187981 0.568904
857 4 0.303162 0.221192 0.560542
856 2 0.284942 0.204586 0.564723
898 2 0.295048 0.215974 0.508316
791 4 0.311446 0.230698 0.543769
899 4 0.310961 0.220379 0.527092
790 2 0.313437 0.250994 0.558236
3353 4 0.00833363 0.289673 0.524677
1258 2 0.113887 0.29303 0.519943
1259 4 0.123296 0.304565 0.540032
649 2 0.227295 0.288896 0.506914
651 4 0.210184 0.271957 0.500171
650 4 0.244406 0.305834 0.513658
804 4 0.252557 0.323265 0.516563
792 4 0.315427 0.27129 0.572703
1238 4 0.330066 0.285042 0.577193
812 4 0.263022 0.30867 0.507888
873 4 0.414261 0.257867 0.546597
1239 4 0.330202 0.328713 0.55283
871 2 0.401564 0.264726 0.526178
1237 2 0.330134 0.306877 0.565011
872 4 0.388868 0.271585 0.505759
935 4 0.00942353 0.383073 0.51495
1137 4 0.14104 0.377063 0.580356
1189 2 0.231765 0.384967 0.570182
773 4 0.240595 0.385407 0.529651
1190 4 0.244357 0.381865 0.548804
772 2 0.227601 0.398706 0.512934
803 4 0.250243 0.369655 0.535092
802 2 0.2514 0.34646 0.525827
930 4 0.294071 0.354351 0.577448
928 2 0.292793 0.370999 0.558836
929 4 0.291516 0.387646 0.540224
927 4 0.405249 0.395233 0.547977
925 2 0.41375 0.397135 0.52454
926 4 0.42225 0.399037 0.501102
1161 4 0.166019 0.500759 0.555764
1159 2 0.179157 0.485672 0.570763
889 2 0.314592 0.479866 0.545797
890 4 0.31263 0.501621 0.533628
891 4 0.316554 0.458112 0.557966
1000 2 0.417323 0.495916 0.52142
1953 4 0.378373 0.489136 0.559385
1951 2 0.366935 0.50047 0.540257
1001 4 0.436655 0.482508 0.529884
662 4 0.452826 0.47332 0.527148
661 2 0.450367 0.451267 0.515623
1911 4 0.449741 0.483192 0.543663
1909 2 0.443588 0.476033 0.566816
1332 4 0.4532 0.492316 0.527202
2319 4 0.045858 0.0100951 0.632652
945 4 0.0649443 0.0131309 0.638501
2375 4 0.111058 0.0110528 0.600274
943 2 0.0865382 0.0224095 0.647032
944 4 0.108132 0.0316881 0.655564
825 4 0.123692 0.0202433 0.659032
823 2 0.141575 0.00987498 0.644966
1030 2 0.254048 0.0801644 0.607624
950 4 0.317983 0.0357314 0.596498
949 2 0.297684 0.0439027 0.608595
951 4 0.277384 0.052074 0.620693
1031 4 0.276246 0.0689973 0.6104
43 3 0.435382 0.101052 0.665623
810 4 0.477445 0.0813227 0.666405
1081 2 0.0396995 0.117328 0.661727
3179 4 0.0292398 0.150356 0.648415
1083 4 0.0455028 0.137067 0.647517
3178 2 0.00644156 0.15947 0.643687
1282 2 0.161278 0.105568 0.660764
1154 4 0.175862 0.143438 0.589869
1032 4 0.231849 0.0913315 0.604848
1284 4 0.171516 0.0990547 0.638902
1221 4 0.194413 0.148291 0.594632
808 2 0.486118 0.0856824 0.643363
809 4 0.494791 0.0900422 0.620321
1272 4 0.065979 0.182276 0.58076
1243 2 0.0789423 0.231281 0.626409
1244 4 0.0563882 0.230627 0.615636
1270 2 0.0897301 0.187071 0.58693
1271 4 0.113481 0.191865 0.593101
1209 4 0.102563 0.2379 0.656078
1245 4 0.101496 0.231935 0.637183
1210 2 0.234665 0.190771 0.660695
1212 4 0.216694 0.193107 0.643468
1219 2 0.202661 0.164294 0.611983
1220 4 0.210909 0.180297 0.629334
796 2 0.189057 0.217222 0.625161
798 4 0.205501 0.198666 0.628394
797 4 0.172614 0.235778 0.621928
888 4 0.263497 0.172269 0.670441
906 4 0.484002 0.24736 0.585676
904 2 0.469252 0.242356 0.605235
905 4 0.454501 0.237352 0.624794
3123 4 0.466385 0.238225 0.640804
3121 2 0.482007 0.239648 0.660274
983 4 0.0350459 0.332554 0.600191
982 2 0.0435539 0.332862 0.623701
3263 4 0.0647901 0.326955 0.660917
984 4 0.052062 0.333171 0.64721
947 4 0.185118 0.27625 0.636975
946 2 0.191333 0.266338 0.659073
952 2 0.483695 0.327936 0.59486
953 4 0.464584 0.329044 0.610944
1041 4 0.061468 0.34631 0.657831
1039 2 0.069373 0.369533 0.652996
897 4 0.152709 0.370065 0.596583
1135 2 0.125472 0.396605 0.579388
1040 4 0.077278 0.392756 0.64816
993 4 0.0816158 0.404225 0.631871
1136 4 0.109903 0.416146 0.57842
896 4 0.199653 0.387278 0.595714
895 2 0.176181 0.378671 0.596149
1191 4 0.219174 0.388068 0.591559
1172 4 0.209383 0.404163 0.594775
807 4 0.344723 0.321283 0.643251
1206 4 0.484019 0.407876 0.660405
3309 4 0.497685 0.403749 0.579847
991 2 0.0826073 0.428734 0.636718
992 4 0.0835987 0.453243 0.641565
1160 4 0.192294 0.470585 0.585761
1175 4 0.22196 0.497948 0.651439
1173 4 0.19803 0.451676 0.58408
1171 2 0.203706 0.42792 0.589428
1188 4 0.208761 0.489105 0.640291
1187 4 0.203664 0.462158 0.598474
1186 2 0.206212 0.475631 0.619383
1910 4 0.437434 0.468874 0.589969
1204 2 0.472371 0.427712 0.650605
1205 4 0.460722 0.447548 0.640805
1269 4 0.446924 0.455993 0.654784
1267 2 0.430412 0.474561 0.652003
2255 4 0.227903 0.99256 0.745823
2254 2 0.20875 0.00579542 0.736703
2256 4 0.189598 0.0190308 0.727583
1003 2 0.318734 0.0548587 0.716705
1005 4 0.305485 0.0742897 0.708215
1004 4 0.331983 0.0354277 0.725195
45 3 0.430403 0.0645391 0.673348
42 3 0.433337 0.0891793 0.701225
41 1 0.440658 0.0837145 0.680114
1163 4 0.478606 0.069677 0.681808
44 3 0.463645 0.080611 0.680716
1162 2 0.492692 0.0493371 0.68542
1082 4 0.0338963 0.0975902 0.675936
1076 4 0.0265073 0.0852711 0.68956
1075 2 0.0256765 0.0915145 0.713757
1077 4 0.0248456 0.0977579 0.737954
850 2 0.0674322 0.158779 0.71456
852 4 0.0438082 0.15992 0.722671
909 4 0.0925299 0.148246 0.688317
907 2 0.113155 0.134111 0.688312
908 4 0.13378 0.119976 0.688307
1283 4 0.151039 0.112082 0.682625
1227 4 0.149984 0.124135 0.697881
851 4 0.0910562 0.157638 0.70645
1225 2 0.160667 0.109896 0.71544
1107 4 0.105503 0.169277 0.712771
1226 4 0.171349 0.0956574 0.732999
1148 4 0.186146 0.0839546 0.724046
1147 2 0.209554 0.0855919 0.73268
1149 4 0.232962 0.0872292 0.741315
887 4 0.29909 0.152244 0.699301
831 4 0.364401 0.142089 0.69232
1141 2 0.403449 0.159121 0.706768
829 2 0.340641 0.145129 0.69949
1025 4 0.479862 0.14282 0.684592
3424 2 0.491247 0.10288 0.70095
3426 4 0.481132 0.0884389 0.683221
1024 2 0.462547 0.154764 0.69811
1143 4 0.426401 0.165378 0.714465
1026 4 0.445232 0.166707 0.711627
1215 4 0.00740548 0.213086 0.722449
1213 2 0.0229247 0.194548 0.728828
1214 4 0.0384439 0.176011 0.735207
1074 4 0.0815181 0.236031 0.739107
1178 4 0.00196024 0.221682 0.739296
1177 2 0.999077 0.246132 0.743664
1207 2 0.111718 0.239063 0.679316
1208 4 0.120872 0.240227 0.702554
1106 4 0.14069 0.175144 0.747817
1105 2 0.123097 0.17221 0.730294
1130 4 0.152256 0.180853 0.762565
1211 4 0.252636 0.188434 0.677921
948 4 0.197548 0.256425 0.681171
830 4 0.316881 0.148168 0.706661
886 2 0.281293 0.162256 0.684871
976 2 0.303497 0.175859 0.735369
978 4 0.30432 0.158351 0.717537
1194 4 0.331895 0.238233 0.662724
1142 4 0.380497 0.152864 0.699072
1193 4 0.343938 0.215934 0.705834
1192 2 0.337916 0.227084 0.684279
1261 2 0.44935 0.191044 0.741909
1262 4 0.438105 0.174098 0.727364
1263 4 0.460594 0.20799 0.756455
3262 2 0.0489308 0.326495 0.680241
3264 4 0.0330715 0.326034 0.699566
893 4 0.0162846 0.327188 0.709924
821 4 0.170547 0.273045 0.719798
820 2 0.174317 0.259248 0.740307
1064 4 0.209126 0.248287 0.696449
1065 4 0.234373 0.281773 0.723689
1063 2 0.22175 0.26503 0.710069
805 2 0.326926 0.31796 0.660496
806 4 0.309129 0.314637 0.677741
3274 2 0.0172644 0.398659 0.756068
892 2 0.02049 0.348156 0.722878
894 4 0.0246953 0.369125 0.735833
3276 4 0.0297816 0.388109 0.737168
814 2 0.0617179 0.383028 0.723966
816 4 0.0374383 0.377176 0.72277
815 4 0.0859975 0.38888 0.725162
941 4 0.133396 0.419934 0.7372
940 2 0.115884 0.402115 0.738179
1066 2 0.160789 0.417778 0.706775
942 4 0.0983713 0.384295 0.739159
1068 4 0.170162 0.420844 0.683799
1019 4 0.384569 0.39356 0.720192
1018 2 0.361248 0.387829 0.727152
1020 4 0.337927 0.382099 0.734113
1280 4 0.050977 0.493926 0.697376
1279 2 0.0303625 0.499309 0.710462
1067 4 0.151415 0.414712 0.729751
1029 4 0.237256 0.412774 0.680077
1027 2 0.213479 0.420438 0.681133
1028 4 0.189703 0.428102 0.682188
1140 4 0.28007 0.476329 0.710913
1138 2 0.265182 0.469878 0.729937
1139 4 0.250293 0.463428 0.748961
1230 4 0.409505 0.438956 0.734846
3328 2 0.494988 0.466544 0.698441
1100 4 0.420703 0.433845 0.719868
1101 4 0.460196 0.464483 0.721395
1099 2 0.44045 0.449164 0.720632
1251 4 0.472971 0.471243 0.735223
3330 4 0.478348 0.470173 0.716746
1249 2 0.475065 0.484445 0.756354
1294 2 0.996059 0.0191416 0.797948
1296 4 0.0114226 0.0172866 0.817588
2047 2 0.151743 0.00404888 0.778731
1203 4 0.141651 0.0858429 0.748804
1201 2 0.147245 0.0623899 0.755425
1202 4 0.152839 0.0389369 0.762047
2049 4 0.146653 0.0202473 0.760376
1255 2 0.261193 0.0832594 0.772961
1256 4 0.274896 0.0772079 0.792981
1113 4 0.411871 0.0527669 0.834786
1111 2 0.394994 0.0710726 0.832489
2321 4 0.45381 0.00951472 0.792959
2322 4 0.467078 0.0544458 0.775469
2320 2 0.460444 0.0319803 0.784214
846 4 0.479355 0.0706093 0.775813
864 4 0.0337134 0.109643 0.749306
862 2 0.0379062 0.107823 0.773888
863 4 0.0420991 0.106003 0.79847
832 2 0.0161988 0.102834 0.832086
833 4 0.0291003 0.110207 0.811977
1125 4 0.038719 0.124579 0.801816
1123 2 0.0381543 0.148861 0.807755
31 1 0.1332 0.142601 0.805413
35 3 0.15304 0.131908 0.802146
33 3 0.11659 0.132521 0.792729
32 3 0.127435 0.141249 0.827641
1257 4 0.24749 0.0893109 0.752942
840 4 0.286553 0.0788397 0.811494
838 2 0.292382 0.0993271 0.824588
1112 4 0.378118 0.0893783 0.830192
844 2 0.464414 0.0904985 0.778334
845 4 0.449473 0.110388 0.780856
1072 2 0.0667323 0.245027 0.757152
1124 4 0.0375895 0.173142 0.813694
34 3 0.135192 0.164957 0.799528
822 4 0.178087 0.245451 0.760816
1129 2 0.162281 0.203759 0.762517
1131 4 0.172305 0.226665 0.762469
920 4 0.21872 0.197073 0.834459
1277 4 0.188307 0.231966 0.771234
1276 2 0.192499 0.234949 0.795703
919 2 0.195395 0.189175 0.83879