ITEM: TIMESTEP
1530000
ITEM: NUMBER OF ATOMS
4590
ITEM: BOX BOUNDS pp pp pp
-9.9985700000000008e+00 9.9985700000000008e+00
-9.9985700000000008e+00 9.9985700000000008e+00
-9.9985700000000008e+00 9.9985700000000008e+00
ITEM: ATOMS id type xs ys zs
463 2 0.0437664 0.0765121 0.0133276
465 4 0.0591383 0.056806 0.0125832
701 4 0.0699045 0.0416259 0.0203871
2576 4 0.0436922 0.021721 0.0767275
700 2 0.0917944 0.0505208 0.0285658
702 4 0.113684 0.0594157 0.0367446
566 4 0.122249 0.0655813 0.0189386
565 2 0.143447 0.0746018 0.0286573
491 4 0.268466 0.00713011 0.0447719
2264 4 0.252836 0.0165818 0.0380277
2263 2 0.262319 0.0321898 0.0209505
2265 4 0.271803 0.0477978 0.00387338
653 4 0.327742 0.00702902 0.0756578
557 4 0.334122 0.069807 0.0698769
745 2 0.464522 0.041174 0.00880802
746 4 0.467176 0.0344469 0.032743
2469 4 0.485754 0.0269191 0.0286241
2467 2 0.496661 0.00508765 0.0340638
464 4 0.0283945 0.0962182 0.0140719
590 4 0.0158267 0.121988 0.041824
589 2 0.00329115 0.122283 0.0634562
422 4 0.118028 0.120705 0.995228
567 4 0.164645 0.0836223 0.0383761
558 4 0.322158 0.115762 0.0542022
556 2 0.32814 0.0927845 0.0620395
865 2 0.348828 0.147194 0.0179644
866 4 0.35808 0.124374 0.0136241
827 4 0.366874 0.120222 0.996574
771 4 0.449835 0.142148 0.0647405
769 2 0.466245 0.159053 0.0731138
554 4 0.0424003 0.223122 0.0317823
553 2 0.0598531 0.233491 0.0171855
555 4 0.0773059 0.243859 0.00258861
665 4 0.330802 0.18556 0.0139942
666 4 0.332336 0.220501 0.0497364
664 2 0.331569 0.203031 0.0318653
573 4 0.335243 0.239681 0.0473242
461 4 0.332302 0.231457 0.0650047
867 4 0.339576 0.170013 0.0223047
1070 4 0.372119 0.22247 0.0685563
1069 2 0.391136 0.233869 0.0569977
1071 4 0.410153 0.245268 0.045439
1012 2 0.494313 0.219141 0.0763742
770 4 0.482656 0.175957 0.0814871
1014 4 0.483887 0.196432 0.0755036
294 4 0.0699305 0.289138 0.0485377
2808 4 0.00257612 0.280428 0.0142288
836 4 0.0939812 0.256065 0.996546
292 2 0.0896017 0.284764 0.0337358
507 4 0.119943 0.297082 0.0138705
293 4 0.109273 0.280391 0.018934
505 2 0.141169 0.300723 0.0265734
506 4 0.162395 0.304364 0.0392763
483 4 0.165237 0.324332 0.0457032
571 2 0.325755 0.262335 0.0426377
356 4 0.317451 0.306187 0.0331987
572 4 0.316268 0.284989 0.0379513
355 2 0.297935 0.312665 0.0189743
324 4 0.417532 0.261924 0.0543076
322 2 0.432914 0.278519 0.0649474
672 4 0.441491 0.315058 0.076457
323 4 0.448295 0.295113 0.0755871
670 2 0.458562 0.332868 0.0723871
620 4 0.0046623 0.369219 0.0671293
647 4 0.0221636 0.369328 0.0768873
646 2 0.0397299 0.35174 0.0795777
648 4 0.0572963 0.334151 0.082268
481 2 0.183142 0.341694 0.0439294
609 4 0.216012 0.374045 0.0400293
607 2 0.237069 0.384664 0.0483371
482 4 0.201047 0.359056 0.0421555
608 4 0.258126 0.395283 0.0566449
252 4 0.26964 0.412253 0.0570292
957 4 0.373099 0.364467 0.00924802
671 4 0.475633 0.350678 0.0683172
280 2 0.481427 0.391686 0.064993
2651 4 0.486643 0.355117 0.0836059
281 4 0.486694 0.367705 0.0697225
552 4 0.101032 0.489375 0.0769951
1787 4 0.1045 0.497483 0.060111
551 4 0.0878196 0.446508 0.0990986
550 2 0.0944257 0.467941 0.0880469
244 2 0.248251 0.489277 0.0460036
245 4 0.24087 0.469971 0.0600749
627 4 0.244414 0.451362 0.0671945
625 2 0.230727 0.443226 0.0864725
626 4 0.217039 0.43509 0.105751
250 2 0.283648 0.430642 0.0474996
251 4 0.297655 0.449031 0.03797
523 2 0.360294 0.493921 0.0428113
525 4 0.368793 0.481455 0.0627501
282 4 0.47616 0.415666 0.0602634
226 2 0.458559 0.452667 0.0468451
228 4 0.45286 0.476684 0.0428595
227 4 0.464257 0.42865 0.0508306
563 4 0.443672 0.490421 0.0316741
2575 2 0.0217454 0.0230744 0.0886306
16 1 0.054914 0.0636152 0.132372
20 3 0.0368922 0.0731015 0.12218
1806 4 0.0571594 0.0216624 0.134663
18 3 0.0516388 0.0407495 0.134571
17 3 0.073656 0.0672422 0.119537
1804 2 0.0681312 0.00633025 0.11824
19 3 0.0581536 0.0731982 0.153254
1505 4 0.166468 0.0475187 0.156456
450 4 0.176288 0.0615523 0.14488
448 2 0.185078 0.0848768 0.14291
652 2 0.321013 0.00927047 0.0996344
654 4 0.314285 0.0115119 0.123611
484 2 0.390423 0.00235819 0.109116
296 4 0.340604 0.0702046 0.0885124
295 2 0.358424 0.0529805 0.0918218
297 4 0.376244 0.0357564 0.0951312
485 4 0.386083 0.0269477 0.110419
237 4 0.149183 0.149908 0.123423
578 4 0.136939 0.134732 0.120587
577 2 0.117019 0.121271 0.127452
579 4 0.097098 0.107809 0.134317
235 2 0.168875 0.134538 0.124506
236 4 0.188567 0.119168 0.125589
693 4 0.203958 0.123666 0.136112
449 4 0.193868 0.108201 0.14094
691 2 0.22061 0.127314 0.154403
310 2 0.428736 0.147233 0.157365
312 4 0.413634 0.163996 0.146589
337 2 0.0850651 0.198418 0.15835
339 4 0.0640264 0.196125 0.145034
476 4 0.150896 0.168665 0.129762
475 2 0.13429 0.180656 0.144104
477 4 0.117685 0.192646 0.158445
737 4 0.160737 0.185071 0.120536
736 2 0.174934 0.204428 0.113541
738 4 0.189131 0.223785 0.106546
460 2 0.330495 0.234533 0.0897525
283 2 0.324598 0.207663 0.14163
462 4 0.328688 0.237609 0.1145
354 4 0.32612 0.245529 0.130086
285 4 0.318575 0.186667 0.153798
284 4 0.330621 0.228659 0.129462
255 4 0.342265 0.24147 0.125891
254 4 0.389356 0.246489 0.141952
253 2 0.36581 0.24398 0.133921
630 4 0.401994 0.23294 0.146517
628 2 0.406138 0.208417 0.14394
765 4 0.404272 0.250898 0.153293
629 4 0.410281 0.183895 0.141363
749 4 0.0749275 0.294889 0.153301
456 4 0.0732575 0.334362 0.0937446
612 4 0.256487 0.343898 0.154589
353 4 0.291503 0.278859 0.143925
754 2 0.277742 0.316315 0.149741
755 4 0.28122 0.291918 0.153964
278 4 0.280857 0.27289 0.159268
352 2 0.308812 0.262194 0.137006
756 4 0.274264 0.340713 0.145518
519 4 0.484254 0.294815 0.0963339
517 2 0.4971 0.287629 0.116546
455 4 0.11001 0.333732 0.12765
454 2 0.0916336 0.334047 0.110697
537 4 0.202525 0.373831 0.12826
535 2 0.203348 0.39691 0.118673
611 4 0.217761 0.371976 0.140007
610 2 0.237124 0.357937 0.147298
741 4 0.385151 0.367554 0.0894445
739 2 0.389441 0.37624 0.112495
740 4 0.393731 0.384926 0.135545
15 3 0.389888 0.372586 0.150521
385 2 0.360323 0.397856 0.153295
386 4 0.384302 0.391166 0.150967
495 4 0.403969 0.396296 0.146946
11 1 0.408312 0.374107 0.16382
493 2 0.408036 0.42008 0.140391
387 4 0.336343 0.404546 0.155624
12 3 0.422676 0.356835 0.158871
14 3 0.419194 0.394241 0.16
1467 4 0.995322 0.470912 0.125397
1465 2 0.00879214 0.485314 0.14077
536 4 0.20417 0.419988 0.109087
637 2 0.231186 0.501446 0.148677
767 4 0.249161 0.474375 0.14211
638 4 0.251162 0.493509 0.135904
766 2 0.256071 0.450794 0.146728
301 2 0.302896 0.423612 0.162281
768 4 0.262982 0.427212 0.151345
303 4 0.280711 0.433051 0.155655
494 4 0.412104 0.443863 0.133835
660 4 0.426253 0.449512 0.147836
658 2 0.434688 0.469844 0.159696
2480 4 0.0102418 0.0015041 0.205239
380 4 0.043987 0.0798425 0.167076
379 2 0.038955 0.0878205 0.190232
673 2 0.117343 0.0580512 0.19537
675 4 0.0929081 0.0618501 0.191671
674 4 0.141778 0.0542523 0.199068
1504 2 0.17576 0.031108 0.172874
689 4 0.188567 0.0138917 0.20944
1506 4 0.185051 0.0146973 0.189292
688 2 0.198564 0.992092 0.216511
21 1 0.392856 0.00651123 0.225945
25 3 0.409589 0.0219424 0.225225
22 3 0.376032 0.0129044 0.211618
23 3 0.384271 0.00513996 0.247458
757 2 0.414722 0.0536664 0.205768
759 4 0.422436 0.0350772 0.220605
351 4 0.474935 0.0225984 0.246694
349 2 0.451769 0.0209992 0.237422
350 4 0.428604 0.0193999 0.22815
758 4 0.407008 0.0722556 0.190932
512 4 0.0390962 0.109269 0.227093
381 4 0.033923 0.0957984 0.213388
511 2 0.0616955 0.119963 0.227389
513 4 0.0842948 0.130657 0.227684
692 4 0.237263 0.130962 0.172695
721 2 0.188746 0.138659 0.234745
723 4 0.187273 0.1219 0.216247
582 4 0.242771 0.111618 0.177049
580 2 0.266005 0.110061 0.186158
581 4 0.289238 0.108503 0.195267
30 3 0.296417 0.126734 0.192354
26 1 0.304583 0.144148 0.204549
29 3 0.314455 0.136248 0.224005
27 3 0.287285 0.158229 0.210174
28 3 0.320121 0.155986 0.192025
311 4 0.443838 0.13047 0.16814
338 4 0.106104 0.200711 0.171665
363 4 0.124455 0.200052 0.175534
362 4 0.127544 0.232481 0.213475
361 2 0.125999 0.216267 0.194504
372 4 0.136836 0.23115 0.231902
370 2 0.160935 0.23776 0.231052
371 4 0.185034 0.244369 0.230201
279 4 0.258524 0.252183 0.198931
521 4 0.465715 0.177805 0.228605
520 2 0.490273 0.173867 0.226041
394 2 0.0575783 0.30313 0.228939
396 4 0.0441719 0.301312 0.249966
750 4 0.085574 0.292633 0.202109
748 2 0.0802507 0.293761 0.177705
395 4 0.0709847 0.304947 0.207912
300 4 0.125158 0.324825 0.20843
277 2 0.26969 0.262536 0.179099
307 2 0.331059 0.293404 0.224761
309 4 0.317707 0.298109 0.204151
763 2 0.405033 0.265136 0.173834
308 4 0.344411 0.288698 0.245371
764 4 0.405795 0.279373 0.194374
623 4 0.417337 0.296209 0.19855
526 2 0.490691 0.285049 0.172924
528 4 0.480101 0.295796 0.192862
622 2 0.441955 0.295847 0.202907
624 4 0.466574 0.295484 0.207265
262 2 0.0433977 0.398359 0.246786
264 4 0.0230703 0.383801 0.246554
263 4 0.0637251 0.412916 0.247018
298 2 0.129078 0.341428 0.22671
299 4 0.132998 0.358031 0.244989
602 4 0.0746864 0.395814 0.246398
603 4 0.115891 0.367542 0.248304
601 2 0.0952885 0.381678 0.247351
290 4 0.177391 0.382186 0.228168
289 2 0.170154 0.40351 0.217302
302 4 0.325081 0.414173 0.168907
13 3 0.402122 0.372556 0.186129
2860 2 0.453962 0.420147 0.239173
2618 4 0.00576145 0.422212 0.222389
1757 4 0.0744499 0.50314 0.242836
416 4 0.16706 0.44346 0.214962
291 4 0.162916 0.424834 0.206435
1430 4 0.204615 0.489193 0.208678
417 4 0.185901 0.488296 0.203322
415 2 0.176481 0.465878 0.209142
713 4 0.352704 0.492534 0.235734
659 4 0.443122 0.490176 0.171556
597 4 0.492408 0.468438 0.213121
595 2 0.475234 0.47863 0.198077
596 4 0.45806 0.488822 0.183032
2861 4 0.446276 0.436511 0.221901
231 4 0.443952 0.502186 0.186626
1799 4 0.0214803 0.0138291 0.306299
233 4 0.0288699 0.0213342 0.289632
1402 2 0.062403 0.00609561 0.303981
1403 4 0.0406687 0.0184563 0.303882
232 2 0.0159312 0.0400793 0.279317
234 4 0.00299252 0.0588243 0.269003
1404 4 0.0841374 0.993735 0.304081
697 2 0.361921 0.0273875 0.326375
699 4 0.354873 0.00381489 0.32192
633 4 0.370121 0.0700249 0.325592
698 4 0.368968 0.05096 0.33083
743 4 0.478011 0.0313978 0.31155
744 4 0.465565 0.0275226 0.263272
742 2 0.471788 0.0294602 0.287411
479 4 0.479636 0.0426502 0.326367
2664 4 0.494694 0.0411007 0.31481
399 4 0.0724807 0.0959727 0.315464
398 4 0.103925 0.13429 0.30885
397 2 0.0882029 0.115131 0.312157
393 4 0.0978418 0.151638 0.301616
390 4 0.0966518 0.147888 0.320781
391 2 0.109352 0.166311 0.284961
722 4 0.190218 0.155417 0.253243
248 4 0.21055 0.0967486 0.328324
249 4 0.196517 0.144722 0.329839
247 2 0.203534 0.120735 0.329082
404 4 0.191951 0.160335 0.31725
403 2 0.192082 0.164474 0.292592
632 4 0.383626 0.0933178 0.283452
631 2 0.376874 0.0816714 0.304522
333 4 0.455859 0.144785 0.317439
331 2 0.456891 0.162494 0.299819
544 2 0.153309 0.178047 0.253837
545 4 0.130284 0.187568 0.251742
392 4 0.120863 0.180984 0.268306
546 4 0.176333 0.168525 0.255932
405 4 0.192213 0.168612 0.267933
420 4 0.404262 0.218403 0.283081
717 4 0.392752 0.234837 0.281128
332 4 0.457922 0.180204 0.282198
418 2 0.424388 0.204383 0.278228
419 4 0.444515 0.190363 0.273376
760 2 0.476941 0.213505 0.292311
762 4 0.457988 0.200135 0.282974
761 4 0.495894 0.226876 0.301649
444 4 0.0387724 0.252694 0.289746
443 4 0.0397264 0.29773 0.268031
365 4 0.0298373 0.311786 0.259482
364 2 0.0121543 0.32669 0.268989
442 2 0.0392494 0.275212 0.278889
401 4 0.206215 0.26748 0.269536
400 2 0.220045 0.273208 0.289563
402 4 0.233875 0.278935 0.30959
345 4 0.239749 0.277898 0.328481
510 4 0.242438 0.294256 0.318549
508 2 0.230502 0.316052 0.321313
496 2 0.315275 0.286279 0.276966
498 4 0.30257 0.28996 0.298184
343 2 0.258018 0.264982 0.339644
497 4 0.327981 0.282598 0.255747
715 2 0.405321 0.255729 0.286674
716 4 0.417889 0.276621 0.292219
542 4 0.419016 0.289252 0.309359
541 2 0.420115 0.313586 0.315001
366 4 0.994471 0.341593 0.278496
549 4 0.0405229 0.405717 0.314206
734 4 0.126273 0.360564 0.263046
733 2 0.133269 0.353873 0.2861
735 4 0.140265 0.347181 0.309153
677 4 0.154302 0.346055 0.324035
509 4 0.218567 0.337848 0.324078
676 2 0.178175 0.340636 0.329128
678 4 0.202047 0.335217 0.334221
728 4 0.380442 0.37086 0.30474
727 2 0.367445 0.39196 0.308062
729 4 0.354448 0.413061 0.311384
437 4 0.340332 0.421552 0.300694
615 4 0.411025 0.351478 0.330301
543 4 0.421214 0.33792 0.320642
613 2 0.418732 0.373331 0.320907
2538 4 0.475828 0.380617 0.321498
2536 2 0.471511 0.387766 0.29793
614 4 0.426439 0.395183 0.311512
2537 4 0.467193 0.394914 0.274362
2862 4 0.461649 0.403783 0.256445
777 4 0.0567428 0.416179 0.312162
775 2 0.0743445 0.433889 0.310856
414 4 0.10305 0.466003 0.319163
776 4 0.0919463 0.451599 0.309549
438 4 0.320242 0.459468 0.275015
436 2 0.330287 0.44051 0.287854
594 4 0.395932 0.469267 0.323979
1798 2 0.00816324 0.00382174 0.324945
1772 4 0.0208253 0.015795 0.402375
1771 2 0.0122919 0.00464397 0.381687
732 4 0.08407 0.0668037 0.371883
730 2 0.074571 0.0803736 0.353153
1782 4 0.0997327 0.00590427 0.410214
369 4 0.0886299 0.0479307 0.377977
367 2 0.0991741 0.0265318 0.385466
368 4 0.109718 0.00513284 0.392955
604 2 0.14154 0.0829508 0.392759
605 4 0.163233 0.0808189 0.38051
1701 4 0.17227 0.0650725 0.374183
1699 2 0.188375 0.0733071 0.356921
1700 4 0.204481 0.0815417 0.339659
256 2 0.395402 0.0565343 0.358031
257 4 0.377089 0.0639576 0.342711
258 4 0.413714 0.0491111 0.373352
426 4 0.414679 0.0491198 0.393591
1428 4 0.469883 0.997404 0.389513
478 2 0.469602 0.0640712 0.334469
480 4 0.459568 0.0854922 0.342571
458 4 0.0243214 0.160259 0.365896
318 4 0.0350576 0.152455 0.351743
316 2 0.0482721 0.132752 0.343847
317 4 0.0614865 0.113049 0.33595
731 4 0.0650721 0.0939435 0.334423
388 2 0.103473 0.15665 0.343183
606 4 0.119847 0.0850828 0.405008
600 4 0.224078 0.141174 0.392811
683 4 0.233573 0.12608 0.402362
682 2 0.255919 0.123823 0.413349
319 2 0.305897 0.116987 0.395596
320 4 0.288698 0.11037 0.412496
321 4 0.323095 0.123603 0.378695
708 4 0.312915 0.138086 0.369403
706 2 0.312964 0.158899 0.355546
516 4 0.414049 0.124258 0.362207
515 4 0.452895 0.14375 0.337474
575 4 0.412687 0.114341 0.379041
574 2 0.419998 0.118555 0.402578
514 2 0.433472 0.134004 0.34984
453 4 0.463436 0.159257 0.346512
457 2 0.00678737 0.171334 0.379863
389 4 0.110295 0.165412 0.365586
598 2 0.218854 0.163282 0.403259
599 4 0.213631 0.185389 0.413707
473 4 0.217228 0.235868 0.396184
374 4 0.202657 0.248445 0.391648
472 2 0.241039 0.228237 0.396168
378 4 0.271259 0.231954 0.352572
376 2 0.289586 0.215173 0.3498
377 4 0.307914 0.198392 0.347028
707 4 0.313013 0.179712 0.341689
474 4 0.26485 0.220605 0.396153
344 4 0.276287 0.252067 0.350807
451 2 0.482299 0.169031 0.359695
452 4 0.501163 0.178805 0.372879
347 4 0.0637569 0.314101 0.40903
618 4 0.0827725 0.309571 0.403128
275 4 0.134091 0.317813 0.381285
617 4 0.132358 0.306142 0.397626
616 2 0.107565 0.307856 0.400377
274 2 0.15779 0.312987 0.37494
276 4 0.181489 0.30816 0.368596
373 2 0.192245 0.270356 0.385591
375 4 0.181834 0.292267 0.379533
548 4 0.0131964 0.373822 0.341348
547 2 0.0268597 0.389769 0.327777
406 2 0.00683659 0.35021 0.364326
407 4 0.00962163 0.35305 0.339641
435 4 0.20788 0.352977 0.331401
433 2 0.226318 0.366986 0.340832
434 4 0.244757 0.380995 0.350262
334 2 0.328311 0.416996 0.40528
502 2 0.272722 0.404651 0.402244
504 4 0.254369 0.391555 0.413052
335 4 0.352323 0.410189 0.406786
240 4 0.36521 0.396485 0.411876
753 4 0.474968 0.36835 0.337494
561 4 0.478176 0.330155 0.394058
559 2 0.499827 0.337639 0.404076
752 4 0.470584 0.336608 0.375885
751 2 0.472776 0.352479 0.35669
2463 4 0.0295838 0.514151 0.357081
412 2 0.117843 0.473039 0.338053
413 4 0.132635 0.480076 0.356943
500 4 0.139174 0.496767 0.364665
1544 4 0.15157 0.48271 0.358982
1545 4 0.191922 0.498037 0.333733
1543 2 0.171746 0.490374 0.346358
636 4 0.204305 0.424112 0.407104
669 4 0.293048 0.436876 0.395063
336 4 0.304299 0.423804 0.403774
503 4 0.291076 0.417747 0.391435
667 2 0.290796 0.458896 0.406691
592 2 0.398785 0.490024 0.337624
3990 4 0.473078 0.493463 0.352746
2238 4 0.0175188 0.0347767 0.407622
1126 2 0.0016171 0.0552622 0.483377
2237 4 0.0156144 0.0694183 0.443637
2236 2 0.0165666 0.0520975 0.42563
1127 4 0.0112889 0.065967 0.462955
1780 2 0.0951318 0.998091 0.433515
726 4 0.285722 0.0819789 0.488527
724 2 0.2928 0.0580005 0.488876
725 4 0.299877 0.0340221 0.489225
424 2 0.40367 0.0382277 0.413222
1580 4 0.382302 0.0203893 0.448581
425 4 0.392662 0.0273356 0.432852
2878 2 0.479094 0.067813 0.487918
2880 4 0.484186 0.0750468 0.464531
642 4 0.466129 0.0800935 0.458158
720 4 0.0245746 0.0784105 0.458368
718 2 0.0387163 0.0953212 0.470167
719 4 0.0528581 0.112232 0.481966
1033 2 0.119787 0.134141 0.462297
1035 4 0.131486 0.146794 0.44418
1034 4 0.108089 0.121488 0.480414
261 4 0.135446 0.160081 0.459468
939 4 0.1009 0.119019 0.499965
1182 4 0.287224 0.0976942 0.476022
684 4 0.278266 0.121566 0.424337
1180 2 0.291393 0.106131 0.452857
1181 4 0.295562 0.114569 0.429692
641 4 0.443601 0.119059 0.436365
576 4 0.427309 0.122768 0.426115
640 2 0.454865 0.0995761 0.447262
306 4 0.443174 0.133971 0.423924
304 2 0.459092 0.153204 0.42255
471 4 0.0134281 0.204929 0.468202
260 4 0.158282 0.20338 0.449251
259 2 0.146864 0.181731 0.454359
695 4 0.160992 0.214057 0.465432
694 2 0.147375 0.23419 0.4713
687 4 0.214026 0.201813 0.424711
686 4 0.17293 0.214966 0.449986
685 2 0.193478 0.208389 0.437349
488 4 0.272683 0.222058 0.41536
487 2 0.292171 0.213064 0.428186
489 4 0.311659 0.20407 0.441012
467 4 0.391064 0.20471 0.433328
466 2 0.38276 0.228098 0.430291
468 4 0.374456 0.251486 0.427254
873 4 0.389251 0.247928 0.49358
305 4 0.47501 0.172437 0.421176
585 4 0.435251 0.243754 0.48012
1260 4 0.116335 0.257051 0.486365
696 4 0.133758 0.254323 0.477168
1259 4 0.0864934 0.294964 0.49951
1258 2 0.101414 0.276008 0.492937
813 4 0.240584 0.283159 0.477034
811 2 0.25085 0.303596 0.487141
266 4 0.331563 0.268792 0.467604
812 4 0.261116 0.324032 0.497247
267 4 0.371277 0.268089 0.437222
265 2 0.35142 0.268441 0.452413
2456 4 0.466884 0.304003 0.479834
584 4 0.450828 0.291274 0.480091
583 2 0.44304 0.267514 0.480106
346 2 0.0549958 0.33478 0.42002
348 4 0.0462347 0.35546 0.43101
326 4 0.0513041 0.369727 0.445029
325 2 0.0706622 0.368132 0.460774
681 4 0.0600534 0.409955 0.458208
383 4 0.0776682 0.41322 0.468076
382 2 0.102407 0.415189 0.471125
10 3 0.137824 0.347682 0.487107
327 4 0.0900203 0.366536 0.476518
7 3 0.109595 0.370542 0.478535
6 1 0.129327 0.368585 0.490196
711 4 0.160612 0.386566 0.496165
8 3 0.144302 0.384462 0.482318
635 4 0.208152 0.408429 0.454432
709 2 0.179984 0.395341 0.483016
772 2 0.23524 0.40336 0.488971
710 4 0.199357 0.404116 0.469867
238 2 0.38393 0.403281 0.426993
588 4 0.414592 0.405882 0.45702
679 2 0.0555234 0.43169 0.446709
680 4 0.0509935 0.453425 0.43521
1381 2 0.0641575 0.492242 0.425367
1383 4 0.0496339 0.473139 0.432391
538 2 0.115369 0.484616 0.489568
568 2 0.16153 0.446052 0.468303
384 4 0.127146 0.417159 0.474173
539 4 0.109633 0.465018 0.47514
569 4 0.142711 0.429662 0.469837
634 2 0.206228 0.41627 0.430768
570 4 0.18035 0.462443 0.466769
774 4 0.219158 0.406427 0.470072
668 4 0.288543 0.480917 0.418319
4 3 0.303765 0.489317 0.428292
5 3 0.287719 0.484036 0.461941
586 2 0.41487 0.417895 0.478947
239 4 0.402651 0.410077 0.44211
1059 4 0.140979 0.0751853 0.576327
340 2 0.195367 0.0459002 0.520905
342 4 0.183917 0.0672058 0.52724
2430 4 0.194013 0.0111343 0.509404
341 4 0.206817 0.0245945 0.514569
2428 2 0.214162 0.996331 0.509703
430 2 0.321939 0.0262371 0.52389
432 4 0.303938 0.0264641 0.506538
963 4 0.2852 0.0274341 0.499316
961 2 0.265899 0.0120179 0.503187
431 4 0.33994 0.0260101 0.541243
843 4 0.345348 0.0466579 0.54051
1217 4 0.408462 0.0521621 0.556992
842 4 0.389382 0.0526026 0.563453
841 2 0.367365 0.0496302 0.551982
1216 2 0.420578 0.0303705 0.558868
1218 4 0.432693 0.00857896 0.560743
2879 4 0.474002 0.0605793 0.511304
1272 4 0.0868562 0.149047 0.554197
938 4 0.0968868 0.151626 0.537667
1150 2 0.160668 0.0857146 0.54379
937 2 0.0988931 0.135322 0.518816
1151 4 0.149731 0.0890825 0.566021
1270 2 0.100732 0.149487 0.574992
1271 4 0.114608 0.149927 0.595787
1152 4 0.171605 0.0823467 0.521558
879 4 0.078006 0.156495 0.53799
877 2 0.0542266 0.161694 0.543708
878 4 0.0304473 0.166893 0.549426
1199 4 0.0240642 0.18428 0.541822
409 2 0.251441 0.19293 0.511357
411 4 0.232355 0.185167 0.497193
898 2 0.293955 0.221359 0.550063
791 4 0.32361 0.221985 0.578219
899 4 0.305167 0.226209 0.571879
900 4 0.282743 0.216508 0.528247
410 4 0.270527 0.200694 0.525521
871 2 0.37105 0.245159 0.510499
872 4 0.352849 0.24239 0.527417
790 2 0.334477 0.244451 0.576678
906 4 0.43397 0.247287 0.577952
649 2 0.271555 0.30817 0.537184
651 4 0.277485 0.298876 0.559626
650 4 0.265626 0.317464 0.514742
792 4 0.345344 0.266917 0.575137
2455 2 0.482459 0.315203 0.495869
935 4 0.000571795 0.37857 0.520081
9 3 0.12511 0.372166 0.51273
1137 4 0.15267 0.384935 0.581544
1135 2 0.134778 0.398501 0.570544
897 4 0.171096 0.387164 0.587452
1189 2 0.235183 0.405131 0.548794
895 2 0.189583 0.402949 0.581599
896 4 0.208069 0.418735 0.575745
1190 4 0.246147 0.400558 0.526792
1191 4 0.224219 0.409703 0.570795
804 4 0.261528 0.336366 0.512964
803 4 0.256506 0.385689 0.519501
802 2 0.259017 0.361027 0.516233
773 4 0.251322 0.400294 0.507869
930 4 0.26469 0.403697 0.52166
928 2 0.286734 0.414301 0.526839
929 4 0.308777 0.424905 0.532019
927 4 0.414717 0.388425 0.547319
925 2 0.419272 0.408354 0.532921
2457 4 0.498035 0.326404 0.511904
1136 4 0.116886 0.412068 0.559544
1172 4 0.224082 0.427537 0.580832
889 2 0.311501 0.488008 0.563696
891 4 0.331484 0.487478 0.548677
587 4 0.415147 0.429908 0.500874
1953 4 0.363475 0.440997 0.537681
1951 2 0.349893 0.461711 0.534274
1952 4 0.33631 0.482426 0.530868
881 4 0.343115 0.491218 0.514939
926 4 0.423826 0.428282 0.518523
663 4 0.429837 0.442302 0.506003
1001 4 0.426842 0.493851 0.541931
662 4 0.438409 0.478246 0.539697
661 2 0.434123 0.460274 0.52285
1911 4 0.436339 0.486621 0.557655
1909 2 0.43697 0.477943 0.581096
1332 4 0.446721 0.495227 0.543774
2319 4 0.0602378 0.001509 0.625345
945 4 0.0705144 0.010946 0.63977
1057 2 0.145328 0.0520527 0.584762
2375 4 0.135482 0.0195866 0.603614
1058 4 0.149678 0.0289202 0.593197
943 2 0.0944768 0.00739073 0.645962
1284 4 0.153525 0.0670774 0.655543
825 4 0.131349 0.00932432 0.66564
950 4 0.248999 0.00533432 0.643828
949 2 0.262923 0.023681 0.634096
951 4 0.276847 0.0420276 0.624365
1031 4 0.266176 0.0566281 0.632421
1030 2 0.274313 0.0793889 0.638818
45 3 0.441555 0.0590401 0.657478
3009 4 0.497355 0.0346799 0.583218
3178 2 0.00619845 0.152168 0.655318
1155 4 0.150904 0.0893639 0.58522
1153 2 0.161942 0.104528 0.601755
1154 4 0.172981 0.119691 0.61829
1221 4 0.168662 0.122943 0.638418
1219 2 0.185484 0.141235 0.635662
1032 4 0.28245 0.10215 0.645215
808 2 0.492007 0.0906506 0.64069
810 4 0.481347 0.0882904 0.663183
1243 2 0.0806516 0.203742 0.640224
1244 4 0.0800521 0.214558 0.617689
1245 4 0.0812512 0.192926 0.662759
797 4 0.164946 0.213631 0.632406
1220 4 0.202307 0.159526 0.632905
1212 4 0.202922 0.171867 0.647933
1210 2 0.223207 0.169979 0.662429
796 2 0.182436 0.195816 0.631028
798 4 0.199926 0.178 0.62965
857 4 0.308179 0.21868 0.589347
856 2 0.29056 0.208149 0.603624
858 4 0.27294 0.197618 0.617901
905 4 0.464637 0.226002 0.611227
3123 4 0.480471 0.228545 0.621932
904 2 0.449304 0.236644 0.594589
983 4 0.0383412 0.291572 0.600661
982 2 0.0370609 0.309978 0.617535
3263 4 0.0390791 0.32984 0.653218
984 4 0.0357807 0.328384 0.63441
947 4 0.300001 0.295833 0.673835
805 2 0.324237 0.331786 0.663804
807 4 0.332725 0.318813 0.644187
1238 4 0.346244 0.282363 0.588972
1237 2 0.337951 0.297316 0.607215
1239 4 0.329658 0.31227 0.625458
952 2 0.485973 0.325772 0.602289
953 4 0.467192 0.311409 0.610424
1041 4 0.0467906 0.342495 0.640405
1039 2 0.0526889 0.366551 0.643828
1040 4 0.0585872 0.390606 0.647251
993 4 0.0470227 0.405883 0.644002
991 2 0.0578465 0.418946 0.625634
1029 4 0.225871 0.393931 0.648313
1027 2 0.215437 0.402215 0.669471
1206 4 0.472931 0.403873 0.627042
992 4 0.0686703 0.43201 0.607266
1159 2 0.18265 0.493788 0.586273
1171 2 0.218132 0.451344 0.58563
1160 4 0.196329 0.479708 0.60176
1173 4 0.212181 0.47515 0.590428
1188 4 0.211449 0.475858 0.659456
1187 4 0.214084 0.477649 0.60955
1186 2 0.212767 0.476753 0.634503
890 4 0.291518 0.488537 0.578716
1204 2 0.462409 0.426332 0.623869
1910 4 0.437601 0.469264 0.604537
1269 4 0.440551 0.466538 0.62445
1267 2 0.437564 0.472235 0.648612
1205 4 0.451887 0.448791 0.620697
1282 2 0.139496 0.0777045 0.673304
1203 4 0.166042 0.0751889 0.751792
1148 4 0.182528 0.0849741 0.751644
1004 4 0.322156 0.019766 0.71529
1003 2 0.321891 0.043712 0.7081
1005 4 0.321626 0.0676581 0.700911
1162 2 0.493847 0.0600093 0.68971
42 3 0.443904 0.0651981 0.694213
1163 4 0.478445 0.0754844 0.677524
1083 4 0.0329086 0.136018 0.677318
1081 2 0.0277288 0.123703 0.698453
1082 4 0.022549 0.111389 0.719589
1076 4 0.0349095 0.0960758 0.716574
1075 2 0.0469818 0.086926 0.736467
850 2 0.0674932 0.158705 0.71474
1214 4 0.041287 0.164059 0.747511
3179 4 0.0232442 0.153849 0.673533
852 4 0.0464186 0.159817 0.72815
909 4 0.106475 0.150697 0.697534
907 2 0.118517 0.129044 0.694175
908 4 0.130559 0.10739 0.690816
1283 4 0.125468 0.0883316 0.691064
1227 4 0.130991 0.0974429 0.707634
851 4 0.0885678 0.157592 0.701331
1225 2 0.148496 0.0945608 0.725254
1107 4 0.104331 0.168687 0.705067
1226 4 0.166001 0.0916788 0.742873
1211 4 0.243491 0.168091 0.676925
888 4 0.262456 0.160774 0.678099
887 4 0.295101 0.168038 0.715277
886 2 0.278778 0.164406 0.696688
831 4 0.361226 0.155365 0.70457
1141 2 0.392901 0.154489 0.713715
829 2 0.337722 0.163013 0.70835
1142 4 0.371926 0.140965 0.712181
44 3 0.463518 0.0867307 0.670459
41 1 0.443652 0.0751249 0.673464
43 3 0.425682 0.0897641 0.67237
1025 4 0.469128 0.148212 0.704379
3424 2 0.48109 0.118667 0.687494
3426 4 0.477619 0.0946409 0.681506
3425 4 0.48456 0.142694 0.693482
3269 4 0.487102 0.147668 0.712336
3268 2 0.491783 0.162109 0.732204
1024 2 0.447579 0.160778 0.70267
1209 4 0.087966 0.19955 0.680426
1207 2 0.0863134 0.221248 0.692739
1213 2 0.022359 0.180251 0.749686
1215 4 0.00343096 0.196443 0.75186
1208 4 0.0846608 0.242947 0.705052
1105 2 0.124076 0.179048 0.716379
1106 4 0.143822 0.189408 0.72769
1130 4 0.136072 0.207675 0.730356
1129 2 0.150569 0.223096 0.743669
830 4 0.314219 0.170661 0.71213
978 4 0.30789 0.173272 0.730078
976 2 0.302679 0.185872 0.751037
1194 4 0.375603 0.219432 0.694298
1192 2 0.361317 0.219074 0.714815
1262 4 0.415026 0.186351 0.710829
1193 4 0.347032 0.218717 0.735333
1143 4 0.413876 0.168013 0.71525
1026 4 0.42603 0.173344 0.700961
1261 2 0.423275 0.201918 0.728572
1263 4 0.431524 0.217485 0.746314
3262 2 0.0410171 0.320415 0.676296
3264 4 0.0429551 0.31099 0.699375
779 4 0.0511219 0.308572 0.716199
893 4 0.0416429 0.32535 0.713134
778 2 0.0683504 0.295066 0.728279
780 4 0.085579 0.281559 0.74036
1065 4 0.21741 0.268915 0.723463
1063 2 0.240962 0.273504 0.716433
946 2 0.286193 0.279372 0.686623
948 4 0.272386 0.26291 0.699411
1064 4 0.264513 0.278094 0.709402
1008 4 0.447498 0.311375 0.723962
1006 2 0.443291 0.298943 0.745244
892 2 0.0417741 0.348163 0.723368
894 4 0.0419054 0.370976 0.733602
816 4 0.0378678 0.382721 0.749822
3276 4 0.0305301 0.365084 0.74788
1066 2 0.162963 0.400032 0.693578
1067 4 0.138007 0.399613 0.695064
940 2 0.114227 0.414456 0.727696
941 4 0.133902 0.409467 0.713096
942 4 0.0945511 0.419445 0.742296
1068 4 0.187919 0.400451 0.692092
1028 4 0.205002 0.410499 0.690629
806 4 0.315749 0.34476 0.683421
1019 4 0.411732 0.420111 0.738732
1176 4 0.150202 0.475107 0.681337
1175 4 0.198739 0.466913 0.672521
1174 2 0.17447 0.47101 0.676929
1140 4 0.289006 0.472182 0.700359
1138 2 0.311275 0.479637 0.691775
1139 4 0.333544 0.487092 0.683191
1230 4 0.400093 0.457116 0.735577
1228 2 0.382752 0.460785 0.753213
1100 4 0.408192 0.439625 0.73563
1268 4 0.434576 0.477932 0.672774
1101 4 0.458193 0.439791 0.736387
1099 2 0.433192 0.439708 0.736009
3330 4 0.47697 0.446009 0.73459
1251 4 0.466474 0.448727 0.751266
3328 2 0.492335 0.436615 0.717245
1295 4 0.0281282 0.000585823 0.787669
1296 4 0.0363361 0.0495498 0.793659
1294 2 0.0322321 0.0250678 0.790664
1077 4 0.0590541 0.0777762 0.75636
2049 4 0.172668 0.00847231 0.770516
2255 4 0.235731 0.0217304 0.770607
1201 2 0.167132 0.050875 0.757521
1202 4 0.168221 0.026561 0.76325
2254 2 0.211057 0.0205306 0.766745
2256 4 0.186383 0.0193309 0.762883
1113 4 0.379646 0.0472579 0.82073
1111 2 0.387078 0.0691289 0.830301
2442 4 0.478664 0.00477939 0.784891
980 4 0.460405 0.000676818 0.814171
2321 4 0.461628 0.00513425 0.795106
2322 4 0.45137 0.0537496 0.800766
2320 2 0.456499 0.0294419 0.797936
846 4 0.464601 0.069207 0.799302
864 4 0.063014 0.0943852 0.76832
862 2 0.0567663 0.109561 0.787184
863 4 0.0505185 0.124737 0.806047
832 2 0.0291969 0.128239 0.831794
833 4 0.037243 0.138257 0.810344
1125 4 0.0560891 0.143371 0.805808
1123 2 0.0651394 0.166639 0.804441
31 1 0.132018 0.129677 0.834323
35 3 0.123098 0.120329 0.815569
32 3 0.146932 0.114936 0.843778
34 3 0.143246 0.149232 0.828849
1149 4 0.230345 0.098865 0.74703
1147 2 0.206437 0.0919196 0.749337
1257 4 0.23934 0.0894075 0.761835
1255 2 0.259098 0.0877662 0.777071
1256 4 0.278855 0.0861248 0.792307
840 4 0.27792 0.105424 0.800207
838 2 0.278512 0.12422 0.816686
839 4 0.279104 0.143015 0.833166
844 2 0.465509 0.0912329 0.811101
845 4 0.466417 0.113259 0.8229
1124 4 0.0741896 0.189907 0.803074
1072 2 0.0711705 0.221522 0.812531
1073 4 0.0802481 0.199484 0.820085
1074 4 0.062093 0.243561 0.804977
1131 4 0.165066 0.238516 0.756982
1277 4 0.176344 0.239432 0.773034
1276 2 0.177008 0.229076 0.795783
1278 4 0.177672 0.21872 0.818532
920 4 0.182193 0.200056 0.817809
977 4 0.297468 0.198471 0.771996
916 2 0.284844 0.235419 0.760408
918 4 0.299249 0.218287 0.771552
1298 4 0.312256 0.207139 0.7816
1297 2 0.33566 0.205374 0.790218
1299 4 0.359065 0.203609 0.798837
50 3 0.40064 0.195713 0.780466
1086 4 0.362106 0.186858 0.809177
1043 4 0.399977 0.245536 0.788025
49 3 0.412643 0.230516 0.788359
1084 2 0.359946 0.172829 0.829761
3468 4 0.508046 0.185642 0.763507
1146 4 0.489505 0.18931 0.765963