ITEM: TIMESTEP
3140000
ITEM: NUMBER OF ATOMS
4590
ITEM: BOX BOUNDS pp pp pp
-9.9985700000000008e+00 9.9985700000000008e+00
-9.9985700000000008e+00 9.9985700000000008e+00
-9.9985700000000008e+00 9.9985700000000008e+00
ITEM: ATOMS id type xs ys zs
465 4 0.0768375 0.0806127 0.0228761
2576 4 0.0489313 0.99441 0.0578561
1805 4 0.0651996 0.999364 0.0670423
701 4 0.0872327 0.0634412 0.0222194
700 2 0.111237 0.0646271 0.0153211
702 4 0.13524 0.0658129 0.00842279
566 4 0.152264 0.0763974 0.00322314
296 4 0.351538 0.0777391 0.0906915
746 4 0.493391 0.0425288 0.04128
2469 4 0.489028 0.0371529 0.0609412
745 2 0.481019 0.047585 0.0201485
463 2 0.0555813 0.0859816 0.034898
464 4 0.034325 0.0913505 0.0469199
590 4 0.0185659 0.104508 0.0486939
589 2 0.00242371 0.106929 0.0676346
579 4 0.116956 0.144813 0.0784321
558 4 0.358737 0.116212 0.0357211
556 2 0.352333 0.104014 0.0565867
866 4 0.365434 0.131463 0.0254046
865 2 0.367697 0.1545 0.0348584
827 4 0.357067 0.117613 0.0159412
557 4 0.345929 0.0918164 0.0774524
826 2 0.377127 0.107812 0.00468415
771 4 0.409433 0.163775 0.0983229
554 4 0.029038 0.223218 0.0426109
553 2 0.0537019 0.219924 0.0401574
555 4 0.0783658 0.216629 0.0377039
835 2 0.117319 0.214188 0.0170383
836 4 0.0948793 0.210639 0.0274818
837 4 0.139758 0.217736 0.00659478
915 4 0.150468 0.226496 0.991177
461 4 0.33028 0.235179 0.0833971
666 4 0.334731 0.234915 0.0651227
664 2 0.34731 0.215374 0.0558972
665 4 0.359889 0.195834 0.0466717
867 4 0.36996 0.177536 0.0443123
1070 4 0.408025 0.249634 0.0518292
2808 4 0.0438036 0.269276 0.0585898
2806 2 0.0233028 0.281216 0.050695
2807 4 0.00280195 0.293156 0.0428002
573 4 0.326223 0.251157 0.0704503
356 4 0.314662 0.315539 0.0592374
572 4 0.310516 0.298631 0.0699399
355 2 0.317448 0.331351 0.0400697
571 2 0.31837 0.274894 0.0701951
1069 2 0.420353 0.257895 0.0719528
620 4 0.0135607 0.374263 0.0832692
647 4 0.0191277 0.355468 0.0763577
293 4 0.121538 0.340614 0.0707336
507 4 0.131139 0.34667 0.0542042
505 2 0.15019 0.362371 0.0502411
483 4 0.167037 0.397345 0.0423677
506 4 0.169241 0.378073 0.046278
481 2 0.189442 0.405979 0.0353943
609 4 0.224881 0.404918 0.0169457
357 4 0.320235 0.347163 0.020902
902 4 0.314688 0.351543 0.00241551
671 4 0.49503 0.373515 0.0814791
280 2 0.493603 0.415434 0.0703744
281 4 0.497809 0.392455 0.0792874
550 2 0.064877 0.443704 0.0630756
552 4 0.0723538 0.466591 0.0563324
1787 4 0.0665405 0.485518 0.0548197
1786 2 0.0624138 0.494274 0.0317659
551 4 0.0574002 0.420818 0.0698188
242 4 0.0789464 0.481115 0.068367
607 2 0.246102 0.41366 0.0268677
482 4 0.211848 0.414614 0.0284209
244 2 0.241646 0.475469 0.042262
245 4 0.233655 0.463519 0.0627206
608 4 0.267323 0.422401 0.0367896
246 4 0.249636 0.487418 0.0218035
272 4 0.259797 0.492051 0.00501311
252 4 0.275894 0.438551 0.0445167
250 2 0.295109 0.448597 0.0320647
251 4 0.314324 0.458644 0.0196128
2289 4 0.330815 0.47053 0.0264583
2287 2 0.333721 0.488359 0.00917079
957 4 0.408243 0.42021 0.0122921
226 2 0.463546 0.471995 0.0670901
227 4 0.478159 0.454466 0.0568744
228 4 0.448933 0.489525 0.0773059
282 4 0.489397 0.438413 0.0614615
16 1 0.06754 0.0467996 0.1323
20 3 0.0601311 0.0558012 0.112736
18 3 0.0647927 0.0237619 0.131956
19 3 0.0558308 0.0559083 0.150141
1806 4 0.0691052 0.0202592 0.112307
380 4 0.0718263 0.0640861 0.159183
1804 2 0.0671524 0.0098115 0.0896744
17 3 0.0898943 0.0515855 0.134856
675 4 0.089547 0.0552687 0.15514
673 2 0.113421 0.0540885 0.162476
674 4 0.137295 0.0529082 0.169812
652 2 0.324196 0.0233276 0.149233
654 4 0.306907 0.0124923 0.163686
653 4 0.341485 0.0341629 0.134781
484 2 0.373142 0.0083293 0.127939
297 4 0.354686 0.0483783 0.131049
485 4 0.360017 0.0292006 0.1321
295 2 0.353112 0.0630587 0.11087
237 4 0.149558 0.155247 0.134156
577 2 0.12922 0.153636 0.0983552
235 2 0.161459 0.138987 0.14896
236 4 0.17336 0.122727 0.163764
693 4 0.184448 0.108426 0.157725
691 2 0.207161 0.108466 0.147271
692 4 0.229874 0.108505 0.136816
582 4 0.248789 0.101418 0.141255
449 4 0.171744 0.104962 0.172057
580 2 0.268595 0.11542 0.147325
581 4 0.288402 0.129421 0.153395
30 3 0.30665 0.122184 0.153088
285 4 0.32476 0.162935 0.155711
578 4 0.141483 0.16246 0.118278
737 4 0.15723 0.171136 0.124847
476 4 0.140183 0.172732 0.13467
475 2 0.131778 0.189467 0.151237
477 4 0.123374 0.206203 0.167804
736 2 0.17715 0.176724 0.110807
738 4 0.197071 0.182311 0.0967664
354 4 0.315932 0.22311 0.147752
462 4 0.322405 0.224963 0.131712
460 2 0.326343 0.230071 0.107555
352 2 0.295472 0.234047 0.157078
353 4 0.275013 0.244984 0.166404
283 2 0.325665 0.186815 0.148355
284 4 0.32657 0.210695 0.140999
755 4 0.255913 0.247896 0.162629
255 4 0.333 0.226392 0.145556
253 2 0.354065 0.233031 0.157275
769 2 0.432187 0.174082 0.0994085
770 4 0.454942 0.184389 0.100494
1014 4 0.455533 0.191935 0.11894
1013 4 0.473288 0.238534 0.115196
1012 2 0.46441 0.215234 0.117068
311 4 0.46865 0.189079 0.174427
294 4 0.0793708 0.341044 0.0976122
456 4 0.0729181 0.338962 0.115795
455 4 0.0574444 0.331913 0.162822
454 2 0.0651812 0.335437 0.139309
648 4 0.0601954 0.342471 0.101759
610 2 0.232271 0.324246 0.125355
612 4 0.239404 0.300719 0.129916
756 4 0.233914 0.280796 0.132062
754 2 0.244914 0.264346 0.147346
323 4 0.442705 0.331881 0.0979997
322 2 0.442842 0.306887 0.0987078
1071 4 0.432681 0.266156 0.0920764
324 4 0.442979 0.281894 0.0994159
519 4 0.489014 0.251072 0.112345
517 2 0.496103 0.257987 0.135303
646 2 0.0396616 0.348969 0.0890584
292 2 0.100454 0.340829 0.0841729
626 4 0.205601 0.411513 0.0990257
536 4 0.1893 0.399756 0.1036
611 4 0.225138 0.347772 0.120793
535 2 0.19997 0.377359 0.106717
537 4 0.210639 0.354962 0.109833
387 4 0.3289 0.410193 0.13378
739 2 0.389603 0.386413 0.10291
740 4 0.389954 0.392051 0.127267
385 2 0.353156 0.404823 0.136602
386 4 0.377413 0.399454 0.139424
495 4 0.394601 0.407214 0.139647
15 3 0.380434 0.379888 0.139812
741 4 0.389252 0.380775 0.0785533
11 1 0.396749 0.380031 0.1557
12 3 0.411075 0.362416 0.152008
14 3 0.408766 0.399846 0.15453
670 2 0.474068 0.362239 0.0891372
672 4 0.453106 0.350964 0.0967954
1791 4 0.999408 0.497525 0.119372
241 2 0.0977497 0.482224 0.0848104
243 4 0.116553 0.483332 0.101254
1440 4 0.131809 0.480483 0.114662
1438 2 0.156063 0.478945 0.10878
627 4 0.223104 0.447641 0.0692069
625 2 0.214353 0.429577 0.0841163
1439 4 0.180316 0.477406 0.102898
639 4 0.198514 0.481227 0.11043
637 2 0.219809 0.492573 0.103876
303 4 0.314596 0.473344 0.111474
768 4 0.295815 0.470576 0.104433
301 2 0.320155 0.449518 0.116631
302 4 0.325714 0.425692 0.121788
766 2 0.277391 0.485443 0.0963886
493 2 0.404464 0.429554 0.134279
660 4 0.409312 0.465835 0.142333
494 4 0.414328 0.451895 0.128912
524 4 0.410792 0.469898 0.123259
525 4 0.431489 0.492746 0.083885
523 2 0.421141 0.481322 0.103572
658 2 0.422599 0.476469 0.160651
379 2 0.0619016 0.0811598 0.174518
450 4 0.156444 0.0573755 0.170602
1505 4 0.150551 0.0389996 0.172012
1504 2 0.157035 0.0310108 0.194801
448 2 0.164094 0.0811688 0.17133
1506 4 0.163519 0.0230219 0.217589
689 4 0.168197 0.00585145 0.226769
632 4 0.386967 0.0649262 0.258444
23 3 0.389753 0.00553545 0.245088
22 3 0.396643 0.018063 0.210329
21 1 0.405397 0.0061669 0.227963
757 2 0.458221 0.0269133 0.208987
25 3 0.424424 0.0163822 0.235193
759 4 0.441537 0.0192767 0.225972
758 4 0.474906 0.0345498 0.192002
350 4 0.440751 0.0202078 0.245627
512 4 0.0662801 0.111544 0.186656
381 4 0.0519768 0.0982335 0.189853
511 2 0.0691866 0.135447 0.193391
513 4 0.0720931 0.15935 0.200127
29 3 0.318682 0.153262 0.17061
26 1 0.318743 0.130059 0.170706
28 3 0.309777 0.122196 0.19061
27 3 0.340453 0.122672 0.168898
521 4 0.498265 0.146588 0.227259
339 4 0.0778399 0.177398 0.207903
337 2 0.0913958 0.190291 0.191315
363 4 0.114191 0.220184 0.178562
338 4 0.104952 0.203185 0.174727
362 4 0.129644 0.257526 0.208016
361 2 0.121917 0.238855 0.193289
278 4 0.262204 0.247879 0.181493
628 2 0.392514 0.210874 0.190583
629 4 0.40811 0.191848 0.195049
630 4 0.376917 0.2299 0.186116
254 4 0.375131 0.23967 0.168994
312 4 0.425861 0.199051 0.19831
310 2 0.447255 0.194065 0.186369
761 4 0.468194 0.2001 0.238421
749 4 0.0432237 0.331787 0.177298
750 4 0.0443747 0.289521 0.204
395 4 0.0381603 0.292303 0.222369
748 2 0.0437992 0.310654 0.190649
394 2 0.0253303 0.287661 0.243322
370 2 0.144135 0.246556 0.246589
372 4 0.135173 0.26053 0.227891
300 4 0.139182 0.320319 0.167808
298 2 0.131761 0.332995 0.188042
277 2 0.263683 0.262836 0.201475
279 4 0.265161 0.277794 0.221457
401 4 0.269795 0.312272 0.228814
496 2 0.298177 0.325737 0.204066
497 4 0.32111 0.33266 0.196899
498 4 0.275245 0.318814 0.211233
400 2 0.263493 0.305943 0.252168
765 4 0.37338 0.248824 0.186194
763 2 0.391432 0.265404 0.191133
764 4 0.409484 0.281984 0.196071
528 4 0.48497 0.316179 0.193454
624 4 0.472053 0.302494 0.200331
622 2 0.447308 0.299005 0.201187
623 4 0.422564 0.295517 0.202043
262 2 0.0561062 0.40066 0.234366
264 4 0.0311094 0.400162 0.234671
263 4 0.0811029 0.401159 0.23406
2618 4 0.0155984 0.391522 0.227295
299 4 0.12434 0.345672 0.208276
734 4 0.128832 0.340298 0.226255
602 4 0.100525 0.398868 0.230121
601 2 0.115202 0.379016 0.226166
603 4 0.129879 0.359163 0.22221
290 4 0.166846 0.385605 0.220072
289 2 0.166855 0.408289 0.209555
308 4 0.325731 0.345924 0.182397
307 2 0.346623 0.359357 0.179519
309 4 0.367514 0.37279 0.176641
13 3 0.387303 0.377729 0.176769
291 4 0.166864 0.430973 0.199038
416 4 0.180829 0.443567 0.203534
415 2 0.192361 0.462085 0.191316
1430 4 0.213548 0.487011 0.195503
417 4 0.203893 0.480602 0.179098
597 4 0.489614 0.464368 0.196947
596 4 0.449179 0.493353 0.191878
659 4 0.435886 0.487103 0.178969
595 2 0.469397 0.47886 0.194413
1799 4 0.999042 0.0108593 0.299955
233 4 0.996646 0.0300445 0.296112
1402 2 0.0389078 0.0266032 0.303278
1403 4 0.0140887 0.0237159 0.302353
1404 4 0.0637269 0.0294905 0.304203
633 4 0.368991 0.0255997 0.283565
631 2 0.377979 0.045263 0.271005
257 4 0.366998 0.0366317 0.300682
698 4 0.373575 0.0190599 0.300529
256 2 0.355933 0.0448607 0.32154
349 2 0.447756 0.015667 0.269196
744 4 0.472447 0.00278585 0.295119
742 2 0.483966 0.0138207 0.314373
351 4 0.45476 0.0111262 0.292765
393 4 0.0859472 0.157982 0.304044
398 4 0.0898052 0.142602 0.316071
392 4 0.124979 0.165264 0.273644
391 2 0.105463 0.161623 0.288844
397 2 0.0820967 0.123413 0.330127
403 2 0.17865 0.160039 0.313474
249 4 0.201963 0.133248 0.333861
390 4 0.0822396 0.159211 0.323253
444 4 0.0351781 0.246054 0.31531
545 4 0.134004 0.167313 0.25554
544 2 0.153574 0.1768 0.267876
371 4 0.153096 0.232582 0.265286
546 4 0.173145 0.186287 0.280212
723 4 0.233329 0.197951 0.271197
721 2 0.210723 0.194164 0.281188
405 4 0.173347 0.179736 0.299014
722 4 0.188118 0.190377 0.291179
376 2 0.306036 0.234747 0.334925
420 4 0.38508 0.239378 0.291355
717 4 0.366716 0.236101 0.286296
418 2 0.404837 0.224384 0.28819
331 2 0.449229 0.20077 0.320708
332 4 0.435958 0.202182 0.299565
419 4 0.424594 0.20939 0.285025
760 2 0.455629 0.201442 0.259996
762 4 0.443063 0.202785 0.281571
442 2 0.0228622 0.258426 0.29741
364 2 0.0204766 0.311651 0.292255
396 4 0.0125003 0.283018 0.264274
443 4 0.0105463 0.270799 0.27951
365 4 0.0189536 0.28928 0.281193
407 4 0.0200174 0.331041 0.322236
735 4 0.145382 0.326363 0.27134
733 2 0.137107 0.33333 0.248798
508 2 0.233491 0.311871 0.302034
509 4 0.217117 0.328447 0.311106
378 4 0.301398 0.258939 0.330632
510 4 0.249866 0.295295 0.292963
402 4 0.25719 0.299613 0.275522
345 4 0.261138 0.282033 0.284418
343 2 0.280795 0.275982 0.298637
344 4 0.300451 0.269931 0.312856
715 2 0.360066 0.257511 0.297368
716 4 0.353415 0.27892 0.30844
542 4 0.371945 0.286874 0.306415
541 2 0.389285 0.30027 0.318459
543 4 0.406625 0.313666 0.330503
751 2 0.485696 0.314047 0.320995
753 4 0.484907 0.321989 0.2973
366 4 0.0219995 0.334023 0.303317
548 4 0.0243654 0.348871 0.316603
547 2 0.0298628 0.373157 0.314332
549 4 0.0353602 0.397443 0.31206
777 4 0.0388292 0.416831 0.307344
2493 4 0.00676254 0.341717 0.312602
677 4 0.159786 0.331966 0.282868
676 2 0.180045 0.335645 0.297053
678 4 0.200303 0.339325 0.311239
435 4 0.214395 0.342576 0.324125
728 4 0.357499 0.397652 0.297215
727 2 0.373436 0.409004 0.312782
2538 4 0.481555 0.334367 0.283108
2536 2 0.495166 0.355157 0.28034
2861 4 0.49272 0.426959 0.317873
775 2 0.0501541 0.4312 0.324387
1543 2 0.138841 0.481075 0.31244
1545 4 0.15839 0.472397 0.299489
1544 4 0.119293 0.489753 0.32539
500 4 0.108538 0.502114 0.336086
1436 4 0.168639 0.488357 0.30117
1435 2 0.186755 0.501406 0.289913
729 4 0.389374 0.420355 0.328349
437 4 0.379162 0.434278 0.338827
2238 4 0.999255 0.0420827 0.40227
1772 4 0.00867241 0.0240715 0.399086
1771 2 0.00375032 0.00848462 0.380165
730 2 0.0832521 0.0711804 0.355575
732 4 0.0968003 0.0562661 0.37038
369 4 0.108065 0.0404889 0.36905
367 2 0.10724 0.034338 0.393271
606 4 0.151353 0.00440371 0.379951
604 2 0.172353 0.0170498 0.384876
1701 4 0.185098 0.0476301 0.384385
1699 2 0.199128 0.0683194 0.383847
605 4 0.193353 0.0296959 0.389801
258 4 0.344869 0.0530896 0.342397
424 2 0.371359 0.0484046 0.373363
425 4 0.387366 0.0564807 0.390792
1580 4 0.393859 0.0403934 0.401888
426 4 0.355353 0.0403284 0.355935
1579 2 0.397917 0.0173052 0.410586
478 2 0.497456 0.0464383 0.36003
480 4 0.492933 0.0501041 0.384347
399 4 0.0743883 0.104225 0.344182
317 4 0.0559794 0.0997643 0.344844
731 4 0.0697039 0.0860946 0.34077
316 2 0.0324574 0.108016 0.346792
318 4 0.00893532 0.116268 0.348741
458 4 0.00758838 0.135878 0.349852
457 2 0.0074236 0.154817 0.366177
404 4 0.183952 0.140341 0.327933
247 2 0.209141 0.114659 0.348965
248 4 0.216319 0.0960705 0.364068
1700 4 0.213158 0.0890087 0.383309
319 2 0.324668 0.142045 0.403338
708 4 0.33282 0.162148 0.370087
321 4 0.3378 0.146706 0.382577
516 4 0.46479 0.140389 0.370836
575 4 0.466976 0.133007 0.388994
574 2 0.465418 0.128038 0.41345
514 2 0.468803 0.162205 0.359298
459 4 0.00725882 0.173755 0.382501
389 4 0.0777828 0.197497 0.355113
388 2 0.0800112 0.178354 0.339183
377 4 0.310675 0.210556 0.339218
600 4 0.250571 0.172238 0.410589
707 4 0.305966 0.202299 0.357146
706 2 0.319393 0.182223 0.363616
467 4 0.354067 0.223742 0.373456
466 2 0.35168 0.245832 0.384924
451 2 0.50283 0.211058 0.338954
333 4 0.462501 0.199358 0.341852
453 4 0.481254 0.202071 0.347836
515 4 0.472816 0.184021 0.347759
406 2 0.0292194 0.329503 0.345434
408 4 0.0384213 0.327966 0.368632
347 4 0.0583514 0.331918 0.372054
274 2 0.145233 0.310416 0.360487
276 4 0.156811 0.291755 0.372442
275 4 0.133655 0.329077 0.348533
373 2 0.185832 0.285199 0.404365
375 4 0.16644 0.287026 0.388688
489 4 0.296369 0.246983 0.40866
615 4 0.405282 0.297831 0.344265
468 4 0.349292 0.267922 0.396392
613 2 0.41592 0.308227 0.364363
752 4 0.486485 0.306106 0.344691
614 4 0.426559 0.318623 0.384461
561 4 0.505685 0.306049 0.349564
346 2 0.0528572 0.338221 0.395618
618 4 0.068678 0.339228 0.355551
348 4 0.047363 0.344524 0.419182
617 4 0.115654 0.330557 0.340758
616 2 0.0921658 0.334893 0.348154
433 2 0.21132 0.354257 0.346017
434 4 0.208244 0.365937 0.36791
504 4 0.278369 0.424619 0.396721
240 4 0.407083 0.416623 0.400887
335 4 0.386209 0.411028 0.402296
776 4 0.061479 0.445568 0.34143
414 4 0.0779644 0.446756 0.352211
413 4 0.109814 0.483806 0.341554
412 2 0.0938892 0.465281 0.346882
502 2 0.301903 0.422791 0.404969
503 4 0.325436 0.420963 0.413217
334 2 0.364061 0.416851 0.412333
436 2 0.386487 0.454498 0.351581
438 4 0.393811 0.474718 0.364335
593 4 0.387134 0.49357 0.361361
3990 4 0.454685 0.483584 0.366735
2236 2 0.0111676 0.0464328 0.423819
1126 2 0.0123098 0.0379621 0.484484
1127 4 0.0218673 0.048518 0.463932
2237 4 0.0230806 0.050783 0.445367
720 4 0.0326729 0.0635834 0.457493
1780 2 0.0736328 0.0084162 0.439597
368 4 0.106416 0.0281872 0.417492
1782 4 0.0886461 0.0236164 0.426607
2429 4 0.242234 0.0097279 0.490424
962 4 0.261642 0.00903863 0.482715
961 2 0.284317 0.0168448 0.489791
724 2 0.323957 0.0558747 0.486875
963 4 0.306992 0.0246509 0.496867
432 4 0.322194 0.0139865 0.501378
725 4 0.324649 0.0328504 0.4966
1581 4 0.401974 0.994217 0.419284
2879 4 0.414045 0.0237884 0.47402
642 4 0.444174 0.0637025 0.454809
2878 2 0.426287 0.0377269 0.457256
2880 4 0.438529 0.0516653 0.440492
469 2 0.0002388 0.146063 0.466772
470 4 0.0143114 0.130699 0.452949
718 2 0.025671 0.0875606 0.456377
719 4 0.018669 0.111538 0.45526
937 2 0.0870012 0.158279 0.501453
939 4 0.0967239 0.152787 0.479081
1033 2 0.132974 0.141826 0.461887
1035 4 0.157448 0.137425 0.459271
1034 4 0.108501 0.146226 0.464502
261 4 0.175689 0.143945 0.459583
259 2 0.179976 0.165222 0.471996
726 4 0.323264 0.078899 0.47715
683 4 0.254631 0.155253 0.42045
320 4 0.311537 0.137384 0.424099
684 4 0.295221 0.127011 0.427907
682 2 0.274926 0.141132 0.424179
1181 4 0.309692 0.127837 0.441445
1182 4 0.327985 0.0841222 0.457418
1180 2 0.318839 0.105979 0.449432
640 2 0.447018 0.0866437 0.445281
576 4 0.463861 0.123068 0.437905
641 4 0.449862 0.109585 0.435753
306 4 0.445448 0.127892 0.440094
304 2 0.437577 0.139912 0.460557
3158 4 0.425496 0.153266 0.500999
305 4 0.429705 0.151931 0.481021
695 4 0.186005 0.205335 0.488595
260 4 0.184263 0.186499 0.484409
687 4 0.236326 0.2155 0.449667
686 4 0.19827 0.196572 0.476015
685 2 0.217298 0.206036 0.462841
474 4 0.24139 0.229404 0.439564
599 4 0.249417 0.214034 0.438021
472 2 0.226344 0.247313 0.430729
694 2 0.162532 0.211112 0.494987
598 2 0.249994 0.193136 0.424305
411 4 0.252287 0.223916 0.452158
409 2 0.262969 0.230712 0.47372
488 4 0.259188 0.228192 0.436321
487 2 0.277779 0.237587 0.422491
410 4 0.273651 0.237507 0.495281
374 4 0.205225 0.283371 0.420042
473 4 0.211298 0.265223 0.421894
267 4 0.345652 0.270194 0.417462
266 4 0.333125 0.307849 0.44789
265 2 0.339388 0.289021 0.432676
2812 2 0.0188245 0.339014 0.442026
2813 4 0.0419338 0.347585 0.437821
326 4 0.0467379 0.361993 0.425838
325 2 0.0567867 0.378673 0.441522
327 4 0.0668355 0.395353 0.457206
7 3 0.0835857 0.397613 0.469733
6 1 0.104717 0.389256 0.473308
709 2 0.153667 0.414431 0.488257
10 3 0.114089 0.383746 0.453297
8 3 0.117519 0.405489 0.483844
9 3 0.103158 0.370424 0.486773
813 4 0.278476 0.360102 0.467873
811 2 0.273032 0.35172 0.490792
1383 4 0.0621357 0.500259 0.478482
680 4 0.0540807 0.491818 0.495315
679 2 0.0620239 0.468863 0.501244
710 4 0.176058 0.419248 0.478226
774 4 0.191485 0.419582 0.489649
634 2 0.190637 0.448266 0.460637
636 4 0.188565 0.471162 0.450807
635 4 0.192709 0.425369 0.470467
669 4 0.330183 0.438124 0.421511
668 4 0.336967 0.48235 0.443844
667 2 0.333575 0.460237 0.432678
4 3 0.329002 0.496372 0.454658
336 4 0.341914 0.422675 0.42237
586 2 0.43999 0.440931 0.477865
588 4 0.446493 0.437667 0.453944
238 2 0.423531 0.424197 0.418129
239 4 0.439978 0.431772 0.435371
1184 4 0.0353539 0.0181868 0.559292
3077 4 0.0239367 0.00523684 0.549406
3076 2 0.00661688 0.0138885 0.533584
1183 2 0.0476816 0.999055 0.569645
1152 4 0.152693 0.066595 0.528794
1150 2 0.15081 0.0739256 0.552624
1151 4 0.148927 0.0812562 0.576455
342 4 0.154352 0.0559596 0.511985
340 2 0.16901 0.0358224 0.514178
2428 2 0.217948 0.00713029 0.495776
2430 4 0.193663 0.00453267 0.501128
341 4 0.183668 0.0156852 0.51637
430 2 0.341783 0.00967272 0.516306
841 2 0.382201 0.0282774 0.547979
842 4 0.402611 0.0426898 0.547035
843 4 0.361791 0.0138649 0.548923
431 4 0.361372 0.00535899 0.531234
1217 4 0.41572 0.0294906 0.541404
1216 2 0.43099 0.00991372 0.538449
1061 4 0.499301 0.0864054 0.5375
877 2 0.0335252 0.16325 0.526629
878 4 0.00894478 0.164268 0.531095
879 4 0.0581056 0.162233 0.522163
1155 4 0.142805 0.0994298 0.581602
3159 4 0.458705 0.128811 0.52928
3157 2 0.4421 0.141039 0.51514
1062 4 0.476846 0.127915 0.520964
1060 2 0.488073 0.10716 0.529232
938 4 0.0772786 0.16377 0.523824
1272 4 0.0664237 0.178515 0.529736
1270 2 0.0770099 0.18425 0.55165
1258 2 0.138201 0.228681 0.544233
1259 4 0.132515 0.237387 0.566972
1260 4 0.143887 0.219975 0.521494
696 4 0.13906 0.216889 0.50138
898 2 0.294876 0.232488 0.528266
899 4 0.309111 0.220347 0.544853
857 4 0.307644 0.216527 0.563902
791 4 0.322614 0.227424 0.556352
900 4 0.28064 0.244629 0.511679
856 2 0.295827 0.196845 0.573808
858 4 0.28401 0.177162 0.583714
790 2 0.341563 0.243725 0.555723
651 4 0.291157 0.318391 0.560805
649 2 0.280236 0.335147 0.545799
806 4 0.306642 0.330557 0.566884
805 2 0.32999 0.324784 0.573719
792 4 0.360512 0.260026 0.555094
872 4 0.370723 0.274418 0.547602
1238 4 0.375025 0.266259 0.565492
871 2 0.380143 0.282991 0.526086
873 4 0.389563 0.291564 0.50457
1237 2 0.367752 0.285614 0.579551
1137 4 0.116706 0.382518 0.572656
897 4 0.128148 0.399122 0.571861
895 2 0.149162 0.403498 0.584684
711 4 0.131276 0.409614 0.498287
773 4 0.217827 0.40561 0.529794
1189 2 0.202976 0.405593 0.567991
1190 4 0.219751 0.402898 0.549648
803 4 0.224319 0.389223 0.537163
802 2 0.238084 0.36951 0.530302
804 4 0.251849 0.349796 0.523441
930 4 0.23521 0.405165 0.53835
650 4 0.269315 0.351902 0.530793
812 4 0.267587 0.343337 0.51371
925 2 0.431782 0.403233 0.518926
927 4 0.431445 0.381061 0.530479
539 4 0.0821977 0.491013 0.522482
681 4 0.0699671 0.445908 0.507173
383 4 0.0845237 0.438742 0.52043
384 4 0.130727 0.420566 0.51446
382 2 0.107625 0.429654 0.517445
569 4 0.143617 0.430383 0.525281
568 2 0.156865 0.447027 0.53842
570 4 0.170113 0.463671 0.55156
772 2 0.204656 0.412596 0.509722
928 2 0.25518 0.420203 0.538841
929 4 0.27515 0.435241 0.539333
1951 2 0.278505 0.475479 0.524578
1953 4 0.276987 0.450536 0.52373
1952 4 0.280023 0.500423 0.525427
663 4 0.416791 0.43764 0.509966
661 2 0.415578 0.456277 0.526591
1001 4 0.415759 0.485062 0.560016
662 4 0.414364 0.474913 0.543216
1330 2 0.452468 0.494708 0.543537
926 4 0.43212 0.425405 0.507373
1911 4 0.422901 0.467208 0.558494
1332 4 0.431377 0.482319 0.548721
1909 2 0.429134 0.457876 0.580838
587 4 0.433487 0.444195 0.501787
2374 2 0.134932 0.00969778 0.620314
2375 4 0.123222 0.0316561 0.622741
1057 2 0.1267 0.0662877 0.605495
1058 4 0.114735 0.0486103 0.618516
950 4 0.236165 0.00835283 0.599211
949 2 0.247507 0.0270891 0.611272
2398 2 0.32563 0.000505767 0.657105
2400 4 0.313689 0.0146167 0.640268
951 4 0.25885 0.0458254 0.623334
1031 4 0.273649 0.0448519 0.636511
1030 2 0.291562 0.0597785 0.645538
1032 4 0.309475 0.0747051 0.654566
43 3 0.461114 0.054711 0.639858
45 3 0.483754 0.0334107 0.661104
41 1 0.471472 0.0525798 0.660512
44 3 0.485178 0.0708885 0.664427
1059 4 0.138664 0.0839652 0.592474
1153 2 0.150718 0.122368 0.587634
1154 4 0.158632 0.145307 0.593666
1209 4 0.0954125 0.16793 0.640656
1207 2 0.0990904 0.166282 0.665332
1221 4 0.17051 0.160971 0.587362
888 4 0.251771 0.1625 0.668932
810 4 0.491502 0.0879779 0.656468
808 2 0.491237 0.0969984 0.633149
809 4 0.490973 0.106019 0.609831
3250 2 0.500419 0.139495 0.593949
3252 4 0.49326 0.115543 0.593472
3008 4 0.497745 0.0962763 0.594377
1271 4 0.0875961 0.189986 0.573563
1244 4 0.0894681 0.189746 0.592811
1243 2 0.0831027 0.182271 0.615806
1245 4 0.0767374 0.174796 0.638801
1219 2 0.189619 0.174168 0.596629
1220 4 0.208727 0.187365 0.605897
1210 2 0.238657 0.177096 0.628917
1212 4 0.227279 0.182069 0.607215
797 4 0.217284 0.250045 0.618064
796 2 0.219465 0.225569 0.613445
798 4 0.221645 0.201093 0.608826
1211 4 0.250035 0.172123 0.65062
3121 2 0.481199 0.198154 0.597151
3122 4 0.494955 0.177344 0.595441
3123 4 0.467444 0.218964 0.598861
905 4 0.475892 0.238212 0.599065
807 4 0.353338 0.319012 0.580554
1239 4 0.360479 0.30497 0.59361
906 4 0.46113 0.285816 0.603152
904 2 0.468511 0.262014 0.601109
953 4 0.463928 0.305247 0.606835
952 2 0.480318 0.322104 0.598328
982 2 0.0192268 0.338486 0.650784
984 4 0.0386984 0.348625 0.662753
1041 4 0.0564242 0.357679 0.662487
1039 2 0.063949 0.371025 0.642728
993 4 0.0737821 0.400283 0.60979
1040 4 0.0714739 0.384371 0.622968
1135 2 0.103707 0.367482 0.587826
1136 4 0.0907067 0.352447 0.602996
896 4 0.170177 0.407873 0.597506
1028 4 0.182025 0.393722 0.653594
1027 2 0.184431 0.397349 0.628972
1029 4 0.186837 0.400976 0.60435
1191 4 0.1862 0.408288 0.586335
1068 4 0.182632 0.406143 0.669635
954 4 0.496708 0.338961 0.589821
1206 4 0.488603 0.413424 0.624213
3309 4 0.491542 0.396153 0.616886
3307 2 0.499331 0.375134 0.605809
991 2 0.0671253 0.424375 0.60913
992 4 0.0604685 0.448467 0.60847
1159 2 0.172331 0.507072 0.592178
1172 4 0.184678 0.420515 0.601421
1160 4 0.173838 0.484498 0.602823
1171 2 0.18587 0.445436 0.603057
1173 4 0.187062 0.470358 0.604693
1187 4 0.175206 0.475677 0.619655
1186 2 0.169955 0.482236 0.643205
1268 4 0.448026 0.490982 0.646533
1267 2 0.440019 0.470525 0.634591
1204 2 0.467385 0.425862 0.619712
1910 4 0.435367 0.448545 0.603182
1269 4 0.432011 0.450069 0.622649
1205 4 0.446167 0.4383 0.615211
2168 4 0.467005 0.49567 0.64221
1284 4 0.100529 0.0469887 0.716669
1282 2 0.114478 0.066945 0.710981
2047 2 0.15512 0.00223046 0.740375
1225 2 0.16439 0.0885795 0.701562
2049 4 0.178911 0.00950554 0.73787
1201 2 0.190205 0.0434595 0.729703
1203 4 0.185578 0.0661916 0.720374
1226 4 0.186949 0.0784696 0.705313
1148 4 0.199964 0.0795223 0.719579
42 3 0.455327 0.0517428 0.676876
1077 4 0.0160514 0.12669 0.735677
864 4 0.0300985 0.132842 0.748768
850 2 0.0694822 0.165988 0.711642
852 4 0.045019 0.164222 0.716501
1214 4 0.0259336 0.165535 0.717863
1283 4 0.128427 0.0869013 0.705293
909 4 0.102795 0.150781 0.703048
907 2 0.113289 0.128089 0.702689
908 4 0.123784 0.105397 0.702331
1227 4 0.141831 0.0986895 0.697812
851 4 0.0939455 0.167755 0.706783
1208 4 0.102768 0.164634 0.690009
1107 4 0.113611 0.166812 0.705895
1147 2 0.218424 0.0951088 0.726021
1149 4 0.236883 0.110695 0.732463
1257 4 0.245038 0.118198 0.749034
829 2 0.323586 0.151315 0.702399
830 4 0.300918 0.161841 0.701684
831 4 0.346255 0.140789 0.703114
1142 4 0.355345 0.154176 0.715217
1141 2 0.378969 0.161214 0.711025
1026 4 0.418678 0.158586 0.711281
3426 4 0.478838 0.0884138 0.671057
1025 4 0.448375 0.119525 0.720928
3424 2 0.470751 0.0982882 0.692557
3425 4 0.462664 0.108163 0.714058
3269 4 0.466013 0.11868 0.729409
1024 2 0.433527 0.139055 0.716105
3268 2 0.478367 0.131648 0.746856
845 4 0.454339 0.10318 0.730554
844 2 0.447284 0.0819286 0.741679
1213 2 0.00703487 0.179262 0.726784
1105 2 0.135664 0.178568 0.705091
1106 4 0.157717 0.190324 0.704288
1130 4 0.159935 0.201767 0.720121
1129 2 0.157859 0.210053 0.74362
887 4 0.286862 0.175219 0.702212
886 2 0.269316 0.16886 0.685572
978 4 0.293931 0.167974 0.719328
976 2 0.296039 0.188162 0.733928
916 2 0.319819 0.244871 0.743896
918 4 0.310247 0.221782 0.744555
1143 4 0.402592 0.168252 0.706833
1262 4 0.410015 0.170231 0.723807
1192 2 0.421155 0.190008 0.687755
1194 4 0.420091 0.177636 0.709457
1193 4 0.422219 0.202381 0.666053
1261 2 0.418321 0.182721 0.743812
1044 4 0.461335 0.246449 0.746105
3262 2 0.0706095 0.32617 0.682122
3264 4 0.0858466 0.313535 0.697398
892 2 0.0765428 0.331159 0.736728
893 4 0.0822149 0.323541 0.713599
779 4 0.0993171 0.314117 0.712059
778 2 0.120982 0.30164 0.712402
780 4 0.142648 0.289163 0.712745
1065 4 0.271008 0.276415 0.679534
1064 4 0.28417 0.314389 0.709292
1063 2 0.277589 0.295402 0.694413
946 2 0.321228 0.297555 0.730882
948 4 0.303015 0.309258 0.718373
917 4 0.32939 0.267961 0.743237
947 4 0.339442 0.285851 0.74339
1008 4 0.462532 0.307419 0.713667
1006 2 0.46322 0.28463 0.723931
1007 4 0.463908 0.26184 0.734194
1166 4 0.476175 0.259368 0.74855
3263 4 0.0553725 0.338806 0.666846
941 4 0.13172 0.402449 0.707576
1067 4 0.137698 0.413122 0.690442
940 2 0.124981 0.398808 0.731378
1066 2 0.160165 0.409633 0.680038
1176 4 0.112727 0.513037 0.69423
1174 2 0.136125 0.507549 0.687329
1175 4 0.159522 0.502061 0.680429
1188 4 0.164704 0.488794 0.666755
1139 4 0.307129 0.484759 0.687138
1138 2 0.310947 0.466898 0.704214
1140 4 0.314764 0.449037 0.72129
1989 4 0.309023 0.445544 0.740036
1229 4 0.32603 0.438263 0.733295
1230 4 0.374474 0.425858 0.733442
1100 4 0.39196 0.430522 0.740966
1228 2 0.350252 0.43206 0.733369
1099 2 0.413192 0.442303 0.734999
1101 4 0.434423 0.454085 0.729032
3330 4 0.447826 0.464048 0.719005
3328 2 0.463373 0.450096 0.705263
1251 4 0.439434 0.471311 0.73532
3329 4 0.478919 0.436144 0.691522
1249 2 0.44396 0.490797 0.75032
834 4 0.0366741 0.0586222 0.807505
785 4 0.0225121 0.0631222 0.820808
1202 4 0.194832 0.0207274 0.739031
2256 4 0.193941 0.00447396 0.749791
1113 4 0.355824 0.0693317 0.783542
2321 4 0.452067 0.0198638 0.807462
2322 4 0.450496 0.0480439 0.766181
2320 2 0.451282 0.0339538 0.786822
846 4 0.440229 0.0606768 0.752804
980 4 0.439639 0.0101206 0.818268
979 2 0.418249 0.0125206 0.830991
832 2 0.0498156 0.0792861 0.802457
862 2 0.045766 0.122724 0.765421
863 4 0.0614335 0.112606 0.782075
833 4 0.0629572 0.09995 0.797409
1125 4 0.0658021 0.118805 0.800162
1123 2 0.0709761 0.13653 0.81702
1124 4 0.0761501 0.154256 0.833879
34 3 0.119235 0.17073 0.80809
911 4 0.169541 0.116833 0.829148
1255 2 0.234404 0.125824 0.770339
921 4 0.213631 0.144071 0.802976
919 2 0.198057 0.161286 0.812264
840 4 0.233093 0.147815 0.801555
1256 4 0.223769 0.133449 0.791645
838 2 0.252434 0.150899 0.817098
839 4 0.271775 0.153983 0.832642
1111 2 0.373263 0.0843974 0.793243
1112 4 0.390701 0.0994631 0.802944
818 4 0.398015 0.110682 0.817499
3270 4 0.490721 0.144617 0.764302
1146 4 0.483308 0.160638 0.771843
1131 4 0.155784 0.21834 0.767119
822 4 0.156529 0.237382 0.771635
31 1 0.111145 0.17405 0.829582
1277 4 0.159035 0.222943 0.785678
1276 2 0.173733 0.20956 0.800845
920 4 0.182484 0.178501 0.821552
1278 4 0.188431 0.196177 0.816012
977 4 0.298147 0.20835 0.748529
1298 4 0.31591 0.206067 0.755327
1297 2 0.329237 0.199832 0.775543
959 4 0.272565 0.173421 0.834311
1299 4 0.342565 0.193597 0.795758
1086 4 0.350557 0.197726 0.815277
50 3 0.397564 0.203882 0.793895
1084 2 0.361514 0.179211 0.828016
46 1 0.420321 0.203097 0.793517
49 3 0.428755 0.222489 0.783967
1043 4 0.438018 0.209857 0.770966
48 3 0.428518 0.200677 0.815089
47 3 0.427072 0.185064 0.780931
1263 4 0.426627 0.195211 0.763816
1145 4 0.443356 0.190708 0.772458
1144 2 0.463332 0.175673 0.77215
1042 2 0.449677 0.228153 0.758536
1022 4 0.435668 0.189217 0.829261
3189 4 0.996967 0.302984 0.780043
820 2 0.160766 0.262004 0.770631
821 4 0.165003 0.286625 0.769626