ITEM: TIMESTEP
790000
ITEM: NUMBER OF ATOMS
4590
ITEM: BOX BOUNDS pp pp pp
-9.9985700000000008e+00 9.9985700000000008e+00
-9.9985700000000008e+00 9.9985700000000008e+00
-9.9985700000000008e+00 9.9985700000000008e+00
ITEM: ATOMS id type xs ys zs
463 2 0.0484999 0.0769018 0.0228299
464 4 0.033777 0.0614599 0.00979297
491 4 0.267148 0.016368 0.0454027
558 4 0.34425 0.0602275 0.0303745
556 2 0.34951 0.0581521 0.0547302
557 4 0.354771 0.0560767 0.0790859
745 2 0.472957 0.049409 0.00855079
746 4 0.478987 0.0443993 0.0322936
2469 4 0.494801 0.0341664 0.0375027
465 4 0.0632229 0.0923437 0.0358669
701 4 0.0748724 0.0804334 0.0480678
589 2 0.0118208 0.1514 0.0674444
591 4 0.988176 0.159456 0.0685435
421 2 0.0898353 0.141808 0.0115882
422 4 0.0813634 0.16494 0.00731049
700 2 0.091531 0.0982108 0.0536922
702 4 0.10819 0.115988 0.0593165
566 4 0.128483 0.114303 0.0617952
565 2 0.151055 0.104981 0.0564318
423 4 0.0983071 0.118675 0.0158658
567 4 0.173628 0.09566 0.0510684
360 4 0.266986 0.148642 0.025323
358 2 0.274995 0.127405 0.014834
359 4 0.283003 0.106167 0.00434496
770 4 0.439093 0.135734 0.0761011
769 2 0.452706 0.156707 0.0762485
553 2 0.0431558 0.196345 0.0200097
554 4 0.0280425 0.184056 0.035686
836 4 0.0760024 0.204605 0.99786
555 4 0.058269 0.208634 0.00433338
835 2 0.0979921 0.213907 0.00528321
837 4 0.119982 0.223209 0.0127062
666 4 0.330218 0.217454 0.0376894
664 2 0.33349 0.202712 0.0177608
573 4 0.325018 0.236683 0.037909
461 4 0.325154 0.226601 0.0541152
460 2 0.342374 0.222795 0.0718399
1069 2 0.410451 0.246276 0.0217777
1013 4 0.494239 0.174166 0.0433522
1014 4 0.474991 0.215438 0.0226923
1012 2 0.484615 0.194802 0.0330222
1071 4 0.418102 0.247062 0.045569
292 2 0.126731 0.303225 0.0528345
293 4 0.140116 0.289402 0.0688007
294 4 0.113345 0.317049 0.0368684
507 4 0.156478 0.301591 0.0656923
505 2 0.179461 0.300716 0.0754992
355 2 0.252055 0.290584 0.017834
357 4 0.233071 0.303051 0.00737617
481 2 0.234203 0.316387 0.0777201
506 4 0.202444 0.299841 0.0853062
571 2 0.304042 0.249985 0.0350442
356 4 0.271039 0.278117 0.0282918
572 4 0.283065 0.263287 0.0321794
482 4 0.256682 0.324689 0.0848612
324 4 0.406281 0.255491 0.0592649
957 4 0.382722 0.325803 0.00226278
322 2 0.423435 0.268475 0.0720066
670 2 0.453708 0.31885 0.0644386
519 4 0.472978 0.265637 0.0676059
672 4 0.441356 0.298935 0.0731573
287 4 0.130868 0.350635 0.000689918
455 4 0.129944 0.378198 0.0609699
454 2 0.109031 0.374458 0.0741553
609 4 0.263342 0.344441 0.083542
252 4 0.300641 0.391397 0.0550318
608 4 0.287877 0.376546 0.0540807
607 2 0.27561 0.360494 0.0688114
741 4 0.359374 0.334754 0.0787154
671 4 0.46606 0.338764 0.0557199
281 4 0.467546 0.358566 0.0556827
280 2 0.476953 0.372177 0.0369364
282 4 0.486359 0.385789 0.01819
551 4 0.0817601 0.424979 0.0585675
550 2 0.0853742 0.448776 0.065338
552 4 0.0889882 0.472572 0.0721086
1787 4 0.0998616 0.490121 0.0717983
625 2 0.20872 0.442455 0.0809371
245 4 0.247264 0.466894 0.0801631
626 4 0.187054 0.429978 0.0805929
627 4 0.230385 0.454932 0.0812813
250 2 0.295392 0.41467 0.0475486
244 2 0.257486 0.480053 0.0615205
251 4 0.290143 0.437943 0.0400655
271 2 0.279151 0.486245 0.00204331
272 4 0.268346 0.494012 0.0232118
246 4 0.267707 0.493211 0.0428779
525 4 0.361496 0.471043 0.0484514
523 2 0.366637 0.471343 0.0729189
227 4 0.474414 0.479641 0.0723952
16 1 0.0370496 0.0725541 0.153922
17 3 0.059308 0.0771804 0.150413
18 3 0.0328816 0.050592 0.147701
1804 2 0.0867766 0.00622717 0.143654
2576 4 0.00501654 0.0369144 0.0835873
1667 4 0.101401 0.0149729 0.10234
1805 4 0.0940958 0.0112959 0.120289
652 2 0.302978 0.0062555 0.147893
653 4 0.283124 0.0210901 0.144589
296 4 0.365043 0.0613178 0.0955191
295 2 0.365007 0.038153 0.10493
297 4 0.364971 0.0149882 0.114341
485 4 0.377153 0.00173077 0.105746
20 3 0.0243759 0.0867215 0.141379
590 4 0.0354655 0.143344 0.0663453
237 4 0.138189 0.145191 0.158758
235 2 0.158516 0.13147 0.153888
236 4 0.178843 0.117749 0.149017
693 4 0.194986 0.111061 0.157834
283 2 0.269679 0.156285 0.139121
284 4 0.281542 0.135698 0.146905
312 4 0.440419 0.127629 0.150745
337 2 0.0624686 0.22782 0.140623
339 4 0.0398851 0.232127 0.130794
363 4 0.0799244 0.232988 0.167039
338 4 0.0850521 0.223514 0.150453
476 4 0.13413 0.199997 0.108526
475 2 0.117393 0.210341 0.123955
477 4 0.100656 0.220685 0.139385
737 4 0.152888 0.202423 0.116318
738 4 0.201764 0.210225 0.12346
736 2 0.177326 0.206324 0.119889
285 4 0.257815 0.176873 0.131337
462 4 0.359594 0.218989 0.0895646
254 4 0.386825 0.209627 0.132335
255 4 0.348786 0.206373 0.100037
253 2 0.367806 0.208 0.116186
630 4 0.40346 0.20232 0.122164
765 4 0.337614 0.21886 0.172104
771 4 0.466318 0.17768 0.0763958
629 4 0.442464 0.217058 0.149772
628 2 0.422962 0.209689 0.135968
2895 4 0.495956 0.236383 0.11016
518 4 0.486478 0.253101 0.114096
483 4 0.211725 0.308086 0.070579
354 4 0.303615 0.25055 0.104225
352 2 0.30418 0.264513 0.124959
353 4 0.304745 0.278476 0.145693
754 2 0.300708 0.323331 0.143554
755 4 0.302511 0.298403 0.142819
278 4 0.289248 0.28794 0.15206
323 4 0.440589 0.281459 0.0847483
517 2 0.479728 0.259369 0.0908509
620 4 0.0146936 0.347743 0.104169
647 4 0.0320528 0.358527 0.100837
646 2 0.0519761 0.363076 0.115244
648 4 0.0718994 0.367624 0.12965
456 4 0.0881183 0.370718 0.0873407
537 4 0.224207 0.38171 0.166122
535 2 0.209876 0.382174 0.145639
536 4 0.195545 0.382638 0.125155
611 4 0.244387 0.37917 0.168545
756 4 0.298905 0.348258 0.144288
612 4 0.287293 0.365199 0.14699
610 2 0.26584 0.372185 0.157767
387 4 0.329024 0.393069 0.14902
739 2 0.364863 0.341542 0.102146
740 4 0.370352 0.34833 0.125576
15 3 0.386144 0.359829 0.129804
385 2 0.348282 0.379095 0.141334
386 4 0.36754 0.365122 0.133648
11 1 0.404521 0.371838 0.135866
14 3 0.399065 0.394325 0.137597
495 4 0.388371 0.408815 0.12925
12 3 0.420823 0.369355 0.119828
13 3 0.412707 0.364088 0.156147
1467 4 0.0168802 0.463494 0.118267
1465 2 0.0306357 0.484356 0.117406
1466 4 0.0443911 0.505218 0.116545
242 4 0.116023 0.490998 0.0845908
524 4 0.371778 0.471644 0.0973864
658 2 0.407669 0.476424 0.154113
493 2 0.391387 0.432753 0.122692
660 4 0.398139 0.463827 0.134731
494 4 0.394404 0.456692 0.116134
226 2 0.483041 0.462849 0.0887897
228 4 0.491668 0.446057 0.105184
2480 4 0.000918151 0.0121052 0.183744
1404 4 0.0689132 0.00266034 0.238053
19 3 0.0322424 0.0754586 0.176435
673 2 0.131045 0.0791441 0.224623
674 4 0.139512 0.0727314 0.247258
675 4 0.122579 0.0855568 0.201987
1506 4 0.235051 0.0229446 0.168195
1504 2 0.211445 0.0304636 0.171571
450 4 0.176584 0.0541144 0.174111
1505 4 0.187839 0.0379827 0.174947
448 2 0.177487 0.0783578 0.16806
689 4 0.189034 0.0240513 0.233075
28 3 0.314996 0.0786758 0.240177
758 4 0.409406 0.0704644 0.173185
21 1 0.375289 0.02163 0.23285
25 3 0.394413 0.0327316 0.227406
759 4 0.391857 0.039582 0.208384
757 2 0.400632 0.0550232 0.190785
22 3 0.365463 0.013603 0.213662
24 3 0.38021 0.00375378 0.246801
23 3 0.360484 0.0360598 0.243387
744 4 0.471427 0.0369008 0.242882
351 4 0.45104 0.0397209 0.246551
349 2 0.438443 0.059351 0.237543
350 4 0.425847 0.0789812 0.228534
380 4 0.0223055 0.0862623 0.190074
512 4 0.0329463 0.152109 0.1845
379 2 0.0256852 0.110949 0.192156
381 4 0.0290648 0.135635 0.194237
579 4 0.0820416 0.0987191 0.181549
577 2 0.0916525 0.121565 0.178251
578 4 0.101263 0.144411 0.174952
449 4 0.178391 0.102601 0.162008
691 2 0.213821 0.122823 0.169327
692 4 0.232655 0.134586 0.18082
723 4 0.192497 0.123419 0.213724
721 2 0.191738 0.140759 0.231722
722 4 0.190979 0.158099 0.24972
582 4 0.250659 0.132528 0.187704
580 2 0.268132 0.119678 0.200145
581 4 0.285604 0.106828 0.212585
30 3 0.306023 0.107551 0.217742
26 1 0.317758 0.101378 0.236258
29 3 0.310504 0.113532 0.254645
27 3 0.340099 0.105672 0.232849
310 2 0.437588 0.131739 0.175246
311 4 0.434756 0.135848 0.199746
511 2 0.0482386 0.167073 0.197439
513 4 0.063531 0.182036 0.210378
362 4 0.10709 0.228121 0.208741
361 2 0.0935075 0.230554 0.18789
372 4 0.123814 0.218788 0.20287
370 2 0.14076 0.221332 0.221079
371 4 0.157705 0.223877 0.239287
763 2 0.356174 0.230702 0.183956
764 4 0.374734 0.242544 0.195808
520 2 0.491614 0.206627 0.227573
521 4 0.470242 0.214714 0.237722
395 4 0.0468981 0.270464 0.229905
750 4 0.0658814 0.270429 0.220559
748 2 0.0741344 0.292134 0.211288
749 4 0.0823873 0.31384 0.202017
279 4 0.267541 0.267288 0.192098
277 2 0.278395 0.277614 0.172079
307 2 0.318529 0.259123 0.222989
308 4 0.32104 0.246914 0.244664
309 4 0.316018 0.271333 0.201314
623 4 0.389962 0.254774 0.195791
622 2 0.406555 0.273329 0.193436
624 4 0.423148 0.291885 0.19108
528 4 0.437296 0.300543 0.202559
527 4 0.482399 0.278964 0.201651
526 2 0.459847 0.289754 0.202105
263 4 0.0762146 0.410486 0.251193
262 2 0.0592674 0.413739 0.2331
300 4 0.136318 0.346347 0.217325
298 2 0.141105 0.363402 0.234972
603 4 0.130171 0.391696 0.250781
290 4 0.234181 0.406094 0.224464
302 4 0.326395 0.398354 0.169623
301 2 0.308507 0.405632 0.185505
303 4 0.290619 0.41291 0.201387
645 4 0.456476 0.406624 0.173452
643 2 0.453002 0.38679 0.188276
644 4 0.449528 0.366957 0.2031
447 4 0.459822 0.360005 0.219823
445 2 0.484055 0.358158 0.225696
264 4 0.0423202 0.416991 0.215006
417 4 0.168965 0.476101 0.187946
1430 4 0.172505 0.494553 0.191346
415 2 0.177099 0.458201 0.203392
289 2 0.218823 0.425825 0.224342
291 4 0.203466 0.445556 0.224221
416 4 0.185234 0.4403 0.218837
766 2 0.263325 0.493125 0.17223
768 4 0.256185 0.471308 0.18214
659 4 0.417199 0.48902 0.173496
597 4 0.472584 0.419244 0.172221
595 2 0.469502 0.443272 0.178414
231 4 0.417542 0.494753 0.191408
596 4 0.466421 0.467299 0.184608
1568 4 0.472931 0.485469 0.187215
1798 2 0.0255563 0.00918031 0.315099
1799 4 0.0303553 0.0155729 0.291407
233 4 0.025515 0.026206 0.275245
1402 2 0.0560208 0.0106622 0.257926
1403 4 0.0431284 0.0186641 0.277799
232 2 0.00364617 0.0371174 0.269965
1699 2 0.205538 0.0567685 0.307659
1701 4 0.194716 0.040166 0.292413
1700 4 0.21636 0.0733711 0.322904
1516 2 0.385921 0.00630615 0.294803
697 2 0.387724 0.0608619 0.314847
699 4 0.387358 0.0480312 0.29339
1518 4 0.379589 0.0304941 0.294669
742 2 0.487132 0.0213324 0.254551
478 2 0.459358 0.0322754 0.311824
479 4 0.478814 0.0247892 0.298019
480 4 0.439901 0.0397616 0.32563
398 4 0.0898439 0.136674 0.323687
248 4 0.221026 0.0875423 0.309479
249 4 0.22234 0.135566 0.295597
247 2 0.221683 0.111554 0.302538
404 4 0.218791 0.155441 0.299853
546 4 0.174309 0.167726 0.249181
403 2 0.20337 0.163317 0.281816
333 4 0.424967 0.146726 0.299711
331 2 0.446719 0.152889 0.289031
332 4 0.46847 0.159051 0.278351
544 2 0.150218 0.173697 0.252206
393 4 0.0891962 0.229274 0.275798
392 4 0.125815 0.197272 0.264152
391 2 0.107506 0.213273 0.269975
545 4 0.126127 0.179668 0.255231
405 4 0.187948 0.171192 0.263779
378 4 0.289306 0.230838 0.31914
377 4 0.333881 0.209107 0.32559
376 2 0.311593 0.219972 0.322365
418 2 0.410146 0.193176 0.322393
419 4 0.405677 0.173866 0.307151
760 2 0.493254 0.183325 0.282763
762 4 0.471232 0.174805 0.290984
394 2 0.0373862 0.26973 0.253017
396 4 0.0278743 0.268997 0.276129
442 2 0.0107692 0.259658 0.315244
443 4 0.0204143 0.269931 0.29459
364 2 0.0143352 0.309945 0.282549
365 4 0.0189126 0.285373 0.283204
366 4 0.00975777 0.334518 0.281894
401 4 0.186279 0.268523 0.274268
345 4 0.223823 0.304367 0.30205
400 2 0.197289 0.282059 0.292177
402 4 0.208299 0.295594 0.310087
510 4 0.208745 0.31496 0.308858
508 2 0.206463 0.331918 0.327089
343 2 0.247254 0.308639 0.294439
344 4 0.270684 0.312912 0.286828
498 4 0.393932 0.280474 0.30717
496 2 0.370817 0.288554 0.302115
497 4 0.347701 0.296634 0.29706
543 4 0.408446 0.330137 0.317406
542 4 0.448353 0.307947 0.297015
541 2 0.428399 0.319042 0.30721
602 4 0.089856 0.419112 0.261904
2493 4 0.99737 0.343634 0.294726
299 4 0.145892 0.380456 0.252619
601 2 0.110014 0.405404 0.256342
734 4 0.143236 0.394519 0.265036
733 2 0.164522 0.401268 0.276286
735 4 0.185807 0.408017 0.287536
677 4 0.190942 0.406156 0.308219
676 2 0.196289 0.386119 0.322186
509 4 0.204181 0.348877 0.34532
435 4 0.241867 0.360897 0.325687
727 2 0.325443 0.381053 0.282055
728 4 0.310725 0.374221 0.301078
438 4 0.282088 0.41483 0.264274
729 4 0.340162 0.387886 0.263033
615 4 0.40823 0.345424 0.305415
613 2 0.391037 0.359977 0.316268
614 4 0.373843 0.37453 0.32712
2538 4 0.484428 0.397479 0.32751
2536 2 0.480471 0.406205 0.304416
2537 4 0.476513 0.414932 0.281321
753 4 0.466726 0.389439 0.329464
549 4 0.0357728 0.439083 0.312126
547 2 0.0300507 0.422155 0.329615
777 4 0.0988351 0.442154 0.294636
775 2 0.11929 0.456429 0.292908
776 4 0.139744 0.470705 0.29118
414 4 0.140898 0.473015 0.310895
412 2 0.152445 0.489599 0.325618
413 4 0.163993 0.506184 0.340342
437 4 0.257555 0.454073 0.283218
436 2 0.269821 0.434451 0.273746
2860 2 0.486166 0.457138 0.249495
2862 4 0.463772 0.456521 0.260599
594 4 0.40498 0.461959 0.308464
592 2 0.414878 0.476034 0.326605
1800 4 0.0207574 0.00278776 0.33879
367 2 0.0858254 0.0127727 0.41388
605 4 0.179099 0.0629319 0.355845
604 2 0.189412 0.0590173 0.378284
606 4 0.199724 0.0551027 0.400723
441 4 0.322681 0.00812562 0.371368
698 4 0.38809 0.0736926 0.336305
256 2 0.40745 0.0671493 0.372326
257 4 0.399673 0.0783575 0.351372
258 4 0.415227 0.0559411 0.39328
426 4 0.42335 0.0402125 0.4043
318 4 0.0364887 0.0901774 0.338482
316 2 0.0496266 0.10204 0.356142
317 4 0.0627645 0.113902 0.373802
457 2 0.0337224 0.145803 0.397187
458 4 0.0381073 0.12155 0.401396
732 4 0.101687 0.0925544 0.411147
730 2 0.110971 0.0943126 0.387998
397 2 0.100245 0.124423 0.342842
399 4 0.110646 0.112171 0.361996
731 4 0.120256 0.0960708 0.364848
599 4 0.175652 0.166275 0.387986
600 4 0.203961 0.135706 0.36033
598 2 0.189807 0.15099 0.374158
683 4 0.275367 0.0900621 0.363591
682 2 0.28792 0.0943368 0.384789
684 4 0.300473 0.0986116 0.405986
632 4 0.334846 0.10133 0.349503
631 2 0.358946 0.0946877 0.349009
633 4 0.383046 0.0880456 0.348514
516 4 0.40614 0.148878 0.369583
575 4 0.401124 0.147555 0.389266
574 2 0.400751 0.146447 0.414242
451 2 0.483609 0.157759 0.365062
514 2 0.427898 0.155559 0.359231
459 4 0.0293375 0.170057 0.392979
2653 2 0.00603144 0.204956 0.383131
2654 4 0.0224335 0.188851 0.39297
388 2 0.0886699 0.239062 0.357799
389 4 0.0830083 0.215002 0.361576
685 2 0.15128 0.188616 0.40816
687 4 0.171803 0.174641 0.405206
473 4 0.241404 0.195086 0.357693
472 2 0.247738 0.197767 0.381732
474 4 0.254073 0.200448 0.40577
488 4 0.270296 0.213511 0.407584
487 2 0.292011 0.225007 0.402949
489 4 0.313725 0.236504 0.398314
717 4 0.410173 0.230157 0.348317
707 4 0.341622 0.213757 0.34386
420 4 0.414616 0.212486 0.337635
706 2 0.351909 0.191151 0.346745
708 4 0.362197 0.168545 0.349631
715 2 0.392049 0.246303 0.354317
466 2 0.378048 0.227958 0.413404
468 4 0.386279 0.249955 0.404828
515 4 0.449655 0.16224 0.348879
453 4 0.461502 0.169122 0.362355
444 4 0.00112401 0.249385 0.335899
390 4 0.0943315 0.263121 0.354023
618 4 0.0687458 0.303061 0.388527
347 4 0.0528764 0.298934 0.401004
616 2 0.0794133 0.321919 0.376047
275 4 0.132108 0.301805 0.406352
274 2 0.151135 0.29641 0.391054
276 4 0.170162 0.291014 0.375755
373 2 0.21059 0.294353 0.382375
374 4 0.232528 0.304687 0.388466
375 4 0.188652 0.284019 0.376283
716 4 0.373925 0.262449 0.360317
406 2 0.0488561 0.397595 0.384511
408 4 0.0646854 0.395224 0.40372
548 4 0.0243287 0.405226 0.347104
407 4 0.0330268 0.399966 0.365302
617 4 0.0900808 0.340777 0.363566
678 4 0.201636 0.366081 0.336153
433 2 0.257567 0.377991 0.334986
434 4 0.273267 0.395086 0.344286
336 4 0.290666 0.396665 0.420063
561 4 0.457068 0.364137 0.389307
752 4 0.470802 0.371387 0.375921
559 2 0.47284 0.369317 0.408004
751 2 0.468764 0.380413 0.352692
499 2 0.151293 0.496664 0.385664
500 4 0.173023 0.491399 0.374472
1544 4 0.190165 0.500151 0.370957
667 2 0.287835 0.437856 0.409227
668 4 0.292099 0.460661 0.399905
1 1 0.311339 0.493899 0.40447
3 3 0.322218 0.489363 0.384483
4 3 0.295774 0.477287 0.408964
593 4 0.424777 0.49011 0.344746
718 2 0.0396515 0.0707465 0.461965
720 4 0.0297756 0.0558059 0.479413
2237 4 0.0247554 0.039789 0.469023
2236 2 0.0286318 0.0160958 0.462038
1127 4 0.0287743 0.0381131 0.488117
369 4 0.0717298 0.0251849 0.430385
1523 4 0.116046 0.0124645 0.493752
1180 2 0.242374 0.082368 0.474122
341 4 0.179541 0.0334795 0.506273
1182 4 0.256497 0.0620825 0.477892
726 4 0.289829 0.0561897 0.434162
724 2 0.293892 0.051065 0.458295
432 4 0.299015 0.0588478 0.49716
725 4 0.297955 0.0459404 0.482429
963 4 0.291434 0.041858 0.500362
961 2 0.288993 0.0170807 0.502666
424 2 0.403985 0.0386971 0.420044
425 4 0.384619 0.0371818 0.435787
2878 2 0.46871 0.0857737 0.481231
719 4 0.0495275 0.0856871 0.444517
1033 2 0.122817 0.159472 0.482206
1035 4 0.13838 0.173038 0.468102
939 4 0.0884809 0.136296 0.501676
1034 4 0.107254 0.145906 0.49631
1181 4 0.228251 0.102653 0.470352
320 4 0.297783 0.103157 0.425558
411 4 0.260552 0.152828 0.460379
321 4 0.291158 0.135797 0.462861
319 2 0.29447 0.119477 0.44421
576 4 0.400377 0.145339 0.439218
2880 4 0.480566 0.104988 0.470487
642 4 0.480446 0.106575 0.450675
640 2 0.467305 0.125419 0.440805
641 4 0.454165 0.144263 0.430935
306 4 0.437017 0.153369 0.434657
3158 4 0.47193 0.151907 0.486434
471 4 0.0166519 0.209419 0.484128
469 2 0.0226058 0.187084 0.493661
470 4 0.0285596 0.164749 0.503194
260 4 0.124457 0.232238 0.455073
261 4 0.12607 0.182263 0.454333
259 2 0.125264 0.20725 0.454703
686 4 0.130758 0.20259 0.411115
695 4 0.10519 0.233084 0.459466
409 2 0.266826 0.168888 0.478486
410 4 0.2731 0.184948 0.496594
467 4 0.369817 0.205961 0.421981
3159 4 0.499161 0.186706 0.46302
305 4 0.441003 0.197911 0.457036
304 2 0.43901 0.17564 0.445847
3157 2 0.485546 0.169307 0.474727
346 2 0.0579635 0.3054 0.424615
326 4 0.0704122 0.319765 0.464388
348 4 0.0630507 0.311866 0.448226
694 2 0.0998139 0.252097 0.474789
10 3 0.138121 0.333125 0.455447
1260 4 0.113052 0.279078 0.491394
696 4 0.094438 0.271109 0.490111
650 4 0.263502 0.297005 0.494213
266 4 0.319412 0.25022 0.463651
811 2 0.292409 0.308462 0.490129
812 4 0.270392 0.314074 0.500566
813 4 0.314426 0.30285 0.479692
267 4 0.364792 0.256112 0.443487
265 2 0.342102 0.253166 0.453569
584 4 0.490234 0.280829 0.481471
583 2 0.467022 0.276741 0.489819
325 2 0.0789269 0.340175 0.476053
2813 4 0.0237018 0.376267 0.461438
7 3 0.129153 0.367127 0.46795
327 4 0.0874415 0.360586 0.487719
6 1 0.144542 0.350078 0.469232
8 3 0.165276 0.358182 0.462688
9 3 0.14555 0.342514 0.491145
504 4 0.224685 0.403515 0.423337
711 4 0.169917 0.378437 0.45717
709 2 0.189458 0.388668 0.468944
710 4 0.209 0.398899 0.480718
774 4 0.222843 0.411932 0.486206
502 2 0.248495 0.395961 0.424433
334 2 0.31422 0.388334 0.421066
503 4 0.272304 0.388407 0.425529
804 4 0.264745 0.332904 0.497743
239 4 0.389543 0.398891 0.448865
588 4 0.40181 0.409426 0.459164
586 2 0.414311 0.399809 0.478564
335 4 0.337774 0.380004 0.42207
238 2 0.36698 0.388872 0.444897
240 4 0.344418 0.378854 0.440929
587 4 0.426813 0.390191 0.497965
560 4 0.488613 0.374498 0.426701
1381 2 0.0448804 0.492493 0.427985
679 2 0.0502248 0.444398 0.459729
1383 4 0.0330963 0.47317 0.438612
681 4 0.068416 0.4351 0.474145
680 4 0.0320336 0.453696 0.445313
570 4 0.170278 0.484784 0.437498
538 2 0.0853718 0.495698 0.4935
539 4 0.0780974 0.480426 0.475087
382 2 0.106344 0.438772 0.455927
568 2 0.149261 0.475351 0.447218
383 4 0.0860314 0.42855 0.466323
569 4 0.128244 0.465918 0.456937
384 4 0.126657 0.448994 0.44553
636 4 0.218353 0.466155 0.471643
635 4 0.210096 0.416839 0.472374
634 2 0.214225 0.441497 0.472009
669 4 0.283571 0.41505 0.418549
880 2 0.331801 0.500531 0.485907
881 4 0.356551 0.502321 0.488972
663 4 0.461216 0.457578 0.477285
1126 2 0.0185288 0.0470726 0.509092
1128 4 0.00828337 0.0560321 0.530067
1057 2 0.13472 0.0739374 0.574164
1058 4 0.12924 0.0536084 0.58765
340 2 0.186404 0.0575098 0.505482
2428 2 0.201619 0.0109372 0.528708
2430 4 0.182858 0.0150252 0.512693
2429 4 0.220381 0.00684923 0.544722
1030 2 0.248326 0.0704296 0.581059
430 2 0.313153 0.0712576 0.513632
950 4 0.336248 0.0516249 0.582956
949 2 0.311375 0.0512764 0.585484
951 4 0.286502 0.050928 0.588012
962 4 0.286552 0.992303 0.50497
1031 4 0.271702 0.0616122 0.580057
1217 4 0.386653 0.0550041 0.562673
1216 2 0.39236 0.0306608 0.562602
842 4 0.390672 0.0696217 0.548753
1218 4 0.398068 0.0063175 0.562531
431 4 0.32729 0.0836673 0.530103
841 2 0.36874 0.0788699 0.541096
2879 4 0.456855 0.066559 0.491974
938 4 0.0948727 0.145863 0.550341
937 2 0.0916768 0.14108 0.526008
1151 4 0.153922 0.106012 0.553567
1059 4 0.140201 0.0942663 0.560677
1155 4 0.147214 0.109206 0.571886
342 4 0.193267 0.0815402 0.50469
1150 2 0.170541 0.100315 0.535776
1152 4 0.187161 0.0946172 0.517986
843 4 0.346808 0.0881181 0.533439
878 4 0.0371395 0.20904 0.541506
1199 4 0.0232805 0.222716 0.548851
877 2 0.0537672 0.203682 0.559394
879 4 0.0703948 0.198323 0.577282
858 4 0.250688 0.200004 0.545925
857 4 0.290461 0.225908 0.561667
856 2 0.270575 0.212956 0.553796
898 2 0.307351 0.203292 0.510935
791 4 0.310326 0.220159 0.561288
899 4 0.324361 0.211155 0.527489
900 4 0.290341 0.195429 0.494381
790 2 0.318235 0.243328 0.566369
873 4 0.383825 0.243228 0.532778
983 4 0.0680389 0.312379 0.574524
1258 2 0.130185 0.287316 0.507635
1259 4 0.147318 0.295553 0.523877
651 4 0.22054 0.280848 0.514061
649 2 0.242021 0.288927 0.504137
792 4 0.326144 0.266497 0.571451
871 2 0.399596 0.259145 0.521683
872 4 0.415367 0.275062 0.510589
1239 4 0.355795 0.321577 0.57702
1238 4 0.343942 0.273038 0.574985
1237 2 0.349868 0.297308 0.576002
954 4 0.49765 0.310449 0.58226
1011 4 0.488664 0.297003 0.56912
585 4 0.44381 0.272654 0.498167
895 2 0.169976 0.378058 0.587804
1189 2 0.225146 0.381123 0.559846
773 4 0.236828 0.387646 0.527622
1190 4 0.241732 0.375776 0.541916
803 4 0.243975 0.370376 0.523535
772 2 0.229835 0.399789 0.506914
1191 4 0.208559 0.38647 0.577776
896 4 0.189679 0.39063 0.578921
802 2 0.25436 0.35164 0.510639
930 4 0.316407 0.355574 0.536816
928 2 0.300981 0.372269 0.547232
929 4 0.285554 0.388963 0.557649
927 4 0.408197 0.373741 0.54803
925 2 0.420691 0.387159 0.531029
926 4 0.433185 0.400576 0.514027
2243 4 0.145204 0.493002 0.549129
1161 4 0.163916 0.498562 0.54714
2242 2 0.125244 0.503201 0.538048
1159 2 0.177885 0.483903 0.561809
889 2 0.316304 0.452084 0.573998
890 4 0.322321 0.465313 0.553652
891 4 0.310287 0.438855 0.594344
1952 4 0.359642 0.510472 0.507592
1002 4 0.391133 0.461548 0.539278
1000 2 0.415367 0.467193 0.536822
1001 4 0.439601 0.472839 0.534366
662 4 0.456869 0.47091 0.525285
661 2 0.459042 0.464244 0.501285
1911 4 0.456208 0.47795 0.542994
1909 2 0.456758 0.483082 0.567459
1332 4 0.472037 0.480972 0.531694
1330 2 0.493062 0.494448 0.530453
945 4 0.0626582 0.00626291 0.639931
2319 4 0.0479834 0.996679 0.648815
943 2 0.0834365 0.0158311 0.629837
944 4 0.104215 0.0253992 0.619743
825 4 0.118694 0.0177386 0.63205
823 2 0.133987 0.998443 0.636409
1032 4 0.22495 0.0792469 0.582061
1092 4 0.316686 0.00425058 0.646283
1081 2 0.0272929 0.125771 0.651128
3179 4 0.00834341 0.15276 0.646717
1082 4 0.0460362 0.117097 0.665221
1083 4 0.00854955 0.134445 0.637034
1153 2 0.146469 0.131399 0.583379
1154 4 0.145723 0.153592 0.594872
1282 2 0.161815 0.113864 0.644423
1284 4 0.173327 0.111859 0.622318
1221 4 0.164458 0.155591 0.600025
1211 4 0.241719 0.16762 0.661181
888 4 0.26073 0.165487 0.666979
3008 4 0.49913 0.0865794 0.605175
808 2 0.488573 0.0913006 0.643481
809 4 0.489733 0.0980324 0.619429
1243 2 0.0736161 0.226344 0.637788
1244 4 0.0585653 0.21075 0.625319
1272 4 0.083919 0.184369 0.586148
1245 4 0.0886668 0.241939 0.650256
1270 2 0.101191 0.182756 0.604156
1271 4 0.118463 0.181143 0.622163
1209 4 0.103218 0.232613 0.659798
1210 2 0.224888 0.179763 0.647237
1212 4 0.208057 0.191906 0.633292
1219 2 0.182563 0.170623 0.608477
1220 4 0.200668 0.185655 0.616928
796 2 0.192931 0.227478 0.621808
798 4 0.203505 0.20494 0.619488
906 4 0.444197 0.19923 0.595402
904 2 0.45357 0.218685 0.608005
905 4 0.462943 0.23814 0.620608
3123 4 0.473025 0.237146 0.638193
3121 2 0.493452 0.23374 0.652205
982 2 0.0624749 0.322452 0.596722
3263 4 0.0493344 0.335086 0.637023
3262 2 0.0373891 0.328877 0.658093
797 4 0.182358 0.250017 0.624129
947 4 0.197679 0.299413 0.641103
946 2 0.199224 0.287204 0.662868
952 2 0.479298 0.313104 0.599032
953 4 0.460945 0.31576 0.615805
984 4 0.0569109 0.332525 0.61892
1041 4 0.0684859 0.33536 0.634501
897 4 0.150273 0.365485 0.596687
1137 4 0.138224 0.380304 0.590038
1039 2 0.0827012 0.355683 0.637676
1135 2 0.117852 0.394658 0.592066
1136 4 0.0974795 0.409012 0.594093
1040 4 0.0969166 0.376006 0.640851
991 2 0.102757 0.41734 0.641597
993 4 0.105601 0.392832 0.645656
1172 4 0.202636 0.403823 0.585401
1206 4 0.463608 0.403515 0.67173
3309 4 0.488485 0.393215 0.592533
992 4 0.0999129 0.441847 0.637539
1188 4 0.217567 0.494501 0.632356
1173 4 0.189796 0.452128 0.58698
1171 2 0.196216 0.427975 0.58619
1187 4 0.196956 0.468293 0.595087
1160 4 0.191853 0.469244 0.576477
1186 2 0.207261 0.481397 0.613721
1204 2 0.452232 0.414985 0.652646
1910 4 0.457308 0.488214 0.591924
1205 4 0.440856 0.426455 0.633562
1269 4 0.434257 0.44507 0.63112
1267 2 0.434551 0.469306 0.637257
1268 4 0.434844 0.493543 0.643395
2254 2 0.201847 0.018025 0.752608
1147 2 0.220563 0.0837928 0.73053
1149 4 0.243113 0.087929 0.740507
2255 4 0.1779 0.0151484 0.746018
1257 4 0.246521 0.0702189 0.747942
1003 2 0.328108 0.0516859 0.711484
1005 4 0.322338 0.0414322 0.689421
1004 4 0.333878 0.0619396 0.733546
45 3 0.44867 0.0683652 0.664715
42 3 0.458071 0.057462 0.699148
41 1 0.455603 0.075569 0.685177
1163 4 0.493737 0.078725 0.684704
810 4 0.487413 0.0845688 0.667533
44 3 0.476033 0.0863993 0.683253
1076 4 0.0354454 0.111216 0.68076
864 4 0.0471332 0.112603 0.740316
1075 2 0.0346396 0.106285 0.705259
1077 4 0.0338337 0.101355 0.729759
909 4 0.0962132 0.135834 0.698996
907 2 0.118889 0.129252 0.690771
908 4 0.141566 0.122671 0.682546
1283 4 0.150303 0.115868 0.666528
1227 4 0.153194 0.107335 0.684135
1225 2 0.165442 0.0949885 0.7021
1148 4 0.198012 0.0796566 0.720553
1226 4 0.177691 0.0826416 0.720064
886 2 0.282181 0.170763 0.678693
831 4 0.370948 0.159142 0.690001
1142 4 0.383405 0.156902 0.705855
829 2 0.346995 0.166314 0.690206
1025 4 0.476607 0.150447 0.686054
43 3 0.439833 0.0899608 0.694264
3424 2 0.497096 0.116801 0.696913
3426 4 0.491709 0.0973496 0.682156
1024 2 0.460702 0.160432 0.702563
852 4 0.0457269 0.17681 0.733863
1213 2 0.0173239 0.195754 0.722527
1214 4 0.0275839 0.17398 0.729294
1215 4 0.00706398 0.217528 0.71576
1178 4 0.995974 0.233439 0.717827
1207 2 0.103973 0.227682 0.684299
1208 4 0.104729 0.22275 0.708799
1106 4 0.134469 0.204306 0.727821
1105 2 0.121369 0.186594 0.739648
1107 4 0.108269 0.168883 0.751474
1074 4 0.0876421 0.241625 0.74535
830 4 0.323043 0.173485 0.690411
887 4 0.303631 0.17604 0.690406
976 2 0.312375 0.192914 0.72489
978 4 0.313072 0.174928 0.707536
977 4 0.311677 0.210901 0.742245
918 4 0.305033 0.223366 0.755702
1298 4 0.323183 0.217441 0.757191
1141 2 0.40557 0.167442 0.710634
1193 4 0.3575 0.244221 0.686386
1192 2 0.348593 0.220861 0.686809
1194 4 0.339685 0.197502 0.687232
1143 4 0.427734 0.177982 0.715412
1026 4 0.444798 0.170416 0.719071
1261 2 0.45277 0.202178 0.740862
1262 4 0.438112 0.184512 0.73095
3264 4 0.0254439 0.322668 0.679163
1177 2 0.000215653 0.257717 0.722044
1179 4 0.00445765 0.281994 0.726261
948 4 0.20077 0.274994 0.684633
821 4 0.169104 0.290774 0.734798
820 2 0.171934 0.268251 0.745281
1064 4 0.216973 0.286557 0.688905
1065 4 0.219991 0.287879 0.738803
1063 2 0.218482 0.287218 0.713854
893 4 0.0271683 0.33817 0.691335
892 2 0.0284759 0.358054 0.706438
894 4 0.0297834 0.377938 0.72154
3276 4 0.0218109 0.389272 0.73439
814 2 0.0581727 0.387189 0.750722
816 4 0.0378596 0.378387 0.739099
941 4 0.146227 0.39965 0.750143
1067 4 0.158015 0.415705 0.745343
1066 2 0.163594 0.41301 0.72112
1029 4 0.231876 0.402876 0.677394
1027 2 0.210225 0.408364 0.688633
1068 4 0.169174 0.410316 0.696896
1028 4 0.188574 0.413851 0.699872
806 4 0.305183 0.345271 0.667585
805 2 0.329003 0.345452 0.675187
807 4 0.352822 0.345632 0.682789
1019 4 0.385197 0.395323 0.712571
1018 2 0.372029 0.383015 0.729901
1020 4 0.358862 0.370708 0.747231
1281 4 0.0257543 0.478312 0.686241
1983 4 0.00842688 0.481272 0.696341
1280 4 0.0750608 0.471448 0.690979
1279 2 0.0504076 0.47488 0.68861
1140 4 0.261995 0.457103 0.698676
1139 4 0.269199 0.472592 0.745675
1138 2 0.265597 0.464847 0.722175
1228 2 0.397014 0.448398 0.744126
1230 4 0.416353 0.442109 0.729579
1100 4 0.430776 0.439833 0.716348
1101 4 0.478168 0.454365 0.722947
1099 2 0.454472 0.447099 0.719648
1251 4 0.475485 0.473339 0.731693
3330 4 0.492708 0.441482 0.729106
1294 2 0.0154716 0.0419367 0.780497
1296 4 0.0368625 0.0293521 0.783536
2047 2 0.159444 0.996669 0.787887
1203 4 0.116604 0.0755008 0.778574
1201 2 0.131285 0.0561626 0.784547
1202 4 0.145966 0.0368245 0.790521
2049 4 0.152902 0.0190494 0.796914
2256 4 0.225795 0.0209016 0.759198
1255 2 0.26009 0.0677397 0.768796
1256 4 0.27366 0.0652605 0.789651
840 4 0.272914 0.0825187 0.798519
975 4 0.336153 0.048553 0.829527
1113 4 0.35529 0.0659153 0.797189
1111 2 0.365517 0.0797352 0.815343
2321 4 0.471343 0.00200449 0.781965
2322 4 0.49285 0.0471499 0.781749
2320 2 0.482096 0.0245772 0.781857
980 4 0.437365 0.0183887 0.834279
846 4 0.476735 0.0588111 0.779869
844 2 0.467857 0.0800738 0.77016
862 2 0.0507171 0.117043 0.76466
863 4 0.054301 0.121482 0.789004
832 2 0.0246503 0.111309 0.815955
833 4 0.0419747 0.124485 0.80365
1125 4 0.0411218 0.143712 0.80927
834 4 0.00732594 0.0981318 0.828261
31 1 0.11794 0.143998 0.808702
34 3 0.124717 0.122663 0.802597
32 3 0.115799 0.156833 0.789733
35 3 0.133453 0.153446 0.82244
33 3 0.0973989 0.143013 0.819449
838 2 0.27354 0.104013 0.811279
839 4 0.274167 0.125507 0.824038
959 4 0.279587 0.14447 0.826959
845 4 0.458979 0.101337 0.760452
850 2 0.0676941 0.176079 0.745783
1123 2 0.0373677 0.167055 0.817407
1124 4 0.0336136 0.190397 0.825544
851 4 0.0896614 0.175347 0.757703
822 4 0.174763 0.245728 0.755763
1130 4 0.180076 0.176622 0.759059
1129 2 0.179384 0.201568 0.757512