ITEM: TIMESTEP
400000
ITEM: NUMBER OF ATOMS
4590
ITEM: BOX BOUNDS pp pp pp
-9.9985700000000008e+00 9.9985700000000008e+00
-9.9985700000000008e+00 9.9985700000000008e+00
-9.9985700000000008e+00 9.9985700000000008e+00
ITEM: ATOMS id type xs ys zs
463 2 0.0382691 0.0703403 0.0423095
464 4 0.0362338 0.0455266 0.0446152
1667 4 0.0756338 0.025772 0.0752342
701 4 0.0761318 0.0590356 0.0397279
1666 2 0.0824654 0.00172377 0.0747999
490 2 0.266415 0.0295293 0.0383102
491 4 0.279412 0.05051 0.0343032
492 4 0.253417 0.00854867 0.0423173
296 4 0.371324 0.0458035 0.063725
557 4 0.374731 0.0635442 0.0552346
295 2 0.366833 0.0252336 0.0772115
1608 4 0.395734 0.0222088 0.0311929
556 2 0.360107 0.0827073 0.0485952
297 4 0.362341 0.00466371 0.0906979
745 2 0.454043 0.0655023 0.0197529
747 4 0.446978 0.0485618 0.00277395
746 4 0.461108 0.0824428 0.0367318
465 4 0.0403043 0.095154 0.0400038
589 2 0.0267479 0.145253 0.0721773
702 4 0.117931 0.0858757 0.0454834
700 2 0.0970316 0.0724557 0.0426057
566 4 0.148449 0.0963132 0.0472894
423 4 0.0983893 0.163904 0.999586
565 2 0.169423 0.101927 0.0596889
567 4 0.190397 0.107541 0.0720883
358 2 0.273768 0.120255 0.012495
360 4 0.25424 0.133361 0.0209827
558 4 0.345482 0.10187 0.0419558
770 4 0.470167 0.158763 0.0526452
590 4 0.0218668 0.16973 0.0736717
553 2 0.0580126 0.202362 0.0140722
554 4 0.0474229 0.193111 0.0347474
738 4 0.219775 0.214804 0.0877889
356 4 0.22159 0.247177 0.00521799
461 4 0.319564 0.225237 0.0709207
573 4 0.324178 0.224481 0.0510292
666 4 0.338803 0.213997 0.0207483
664 2 0.337291 0.190214 0.0131837
324 4 0.426712 0.257735 0.0603032
1071 4 0.387309 0.233579 0.0181605
322 2 0.429304 0.249157 0.0836458
771 4 0.437265 0.183694 0.0808696
769 2 0.453716 0.171228 0.0667574
1012 2 0.498576 0.189108 0.0143865
1014 4 0.476719 0.177357 0.0174546
292 2 0.135536 0.32451 0.0237695
293 4 0.153624 0.316654 0.0391412
507 4 0.171784 0.309271 0.0435541
506 4 0.196289 0.265686 0.0443014
483 4 0.222368 0.285178 0.0904773
505 2 0.184036 0.287479 0.0439277
355 2 0.242967 0.260057 0.00674649
357 4 0.264344 0.272936 0.00827499
571 2 0.313576 0.244712 0.0408575
572 4 0.302973 0.264943 0.0306859
1069 2 0.391959 0.257973 0.0210731
1070 4 0.39661 0.282367 0.0239857
330 4 0.0237289 0.41608 0.0521772
328 2 0.0103031 0.396539 0.0442338
294 4 0.117449 0.332367 0.00839769
455 4 0.0911312 0.356814 0.0782139
286 2 0.161126 0.391501 0.0238563
287 4 0.175757 0.380415 0.0408332
288 4 0.146495 0.402587 0.00687939
252 4 0.301148 0.387998 0.0537009
250 2 0.277353 0.389846 0.0462486
251 4 0.253557 0.391694 0.0387962
608 4 0.303557 0.374449 0.0664995
281 4 0.460547 0.338049 0.0462058
671 4 0.470501 0.342026 0.0625445
280 2 0.467286 0.351593 0.0262981
282 4 0.474024 0.365138 0.0063903
550 2 0.0727005 0.416475 0.0391268
551 4 0.0612375 0.415338 0.0169347
552 4 0.0841634 0.417612 0.0613188
1787 4 0.10937 0.503747 0.0656953
245 4 0.226821 0.463547 0.0664498
244 2 0.240551 0.461548 0.0456489
627 4 0.227876 0.448745 0.078306
625 2 0.219014 0.426476 0.0854298
246 4 0.25428 0.459548 0.0248479
272 4 0.26441 0.475729 0.0229724
271 2 0.285387 0.480843 0.0103647
273 4 0.306365 0.485957 0.997757
524 4 0.315051 0.465448 0.0748122
227 4 0.468188 0.477154 0.0498728
562 2 0.447336 0.493644 0.997715
226 2 0.492791 0.4767 0.0543059
450 4 0.158137 0.0533524 0.16677
448 2 0.172062 0.0739191 0.163893
1505 4 0.239114 0.0441709 0.159095
652 2 0.299479 0.0325387 0.154884
653 4 0.301235 0.0342964 0.130004
2724 4 0.498041 0.00576587 0.143643
2722 2 0.498805 0.0305479 0.146875
20 3 0.0441763 0.0842809 0.161781
591 4 0.0316289 0.120776 0.0706828
380 4 0.00703766 0.114145 0.150771
379 2 0.00715717 0.129797 0.170269
237 4 0.193752 0.159651 0.173357
449 4 0.185987 0.0944858 0.161015
235 2 0.18585 0.136933 0.16653
236 4 0.177947 0.114214 0.159703
693 4 0.204993 0.0957789 0.155435
630 4 0.411043 0.176143 0.109639
339 4 0.0618944 0.252834 0.120488
337 2 0.0715376 0.250191 0.143405
476 4 0.134547 0.221013 0.126582
475 2 0.112781 0.209774 0.131595
477 4 0.091015 0.198536 0.136607
737 4 0.182238 0.225617 0.119011
736 2 0.201007 0.22021 0.1034
354 4 0.278455 0.228957 0.110476
352 2 0.272801 0.252241 0.11762
285 4 0.26566 0.187649 0.146381
283 2 0.278842 0.20236 0.161711
460 2 0.329774 0.21383 0.0906896
254 4 0.404808 0.193397 0.102406
255 4 0.355569 0.189894 0.110403
462 4 0.339984 0.202423 0.110458
253 2 0.380188 0.191646 0.106405
629 4 0.456719 0.163102 0.125269
628 2 0.433881 0.169622 0.117454
518 4 0.486039 0.240778 0.107928
323 4 0.431897 0.240579 0.106988
517 2 0.493335 0.258904 0.0923268
620 4 0.0428962 0.338656 0.112923
619 2 0.0204371 0.328834 0.117853
481 2 0.236701 0.305611 0.0919676
482 4 0.251035 0.326044 0.0934579
277 2 0.247373 0.279505 0.161852
353 4 0.267146 0.275526 0.124763
754 2 0.284317 0.305776 0.128637
755 4 0.285585 0.280842 0.130006
756 4 0.28305 0.33071 0.127268
278 4 0.261657 0.271646 0.142895
612 4 0.275264 0.342144 0.140688
741 4 0.342203 0.321961 0.0787002
623 4 0.372302 0.288167 0.160185
519 4 0.500631 0.277029 0.0767254
647 4 0.0516435 0.350414 0.126216
646 2 0.0646054 0.350413 0.147598
454 2 0.110398 0.351003 0.0930527
456 4 0.129665 0.345192 0.107891
648 4 0.0775673 0.350411 0.168979
537 4 0.172351 0.363305 0.14331
535 2 0.191788 0.353042 0.155228
626 4 0.210152 0.404208 0.0925536
609 4 0.298743 0.342188 0.104404
607 2 0.30115 0.358319 0.0854519
610 2 0.260413 0.347572 0.160057
739 2 0.351598 0.337898 0.0955206
740 4 0.360993 0.353835 0.112341
15 3 0.374641 0.367446 0.108722
385 2 0.356358 0.369041 0.149507
386 4 0.365475 0.366167 0.126402
11 1 0.397012 0.367753 0.112978
13 3 0.402461 0.350857 0.127919
14 3 0.403123 0.388351 0.12174
12 3 0.408506 0.364316 0.0933507
670 2 0.468612 0.350155 0.086114
672 4 0.466722 0.358284 0.109684
495 4 0.416199 0.401174 0.130144
645 4 0.476986 0.387498 0.16137
1467 4 0.0218524 0.516909 0.131715
315 4 0.999595 0.425149 0.105549
1465 2 0.0435065 0.51015 0.142231
1439 4 0.235416 0.507111 0.0932035
637 2 0.260102 0.499933 0.126741
638 4 0.268299 0.494547 0.149741
767 4 0.270226 0.475046 0.15383
525 4 0.358634 0.483399 0.0915168
523 2 0.336843 0.474424 0.0831645
658 2 0.401521 0.47885 0.155232
659 4 0.381094 0.49326 0.154688
493 2 0.422274 0.424584 0.136487
660 4 0.421947 0.46444 0.155777
494 4 0.428348 0.447994 0.14283
19 3 0.0149384 0.0641117 0.174271
16 1 0.0350362 0.0741773 0.18003
18 3 0.0497095 0.058309 0.188474
673 2 0.106588 0.0425434 0.215116
674 4 0.121484 0.0626171 0.214533
675 4 0.0916925 0.0224698 0.215699
1506 4 0.212497 0.00404735 0.172597
1504 2 0.225805 0.0241091 0.165846
654 4 0.297723 0.030781 0.179764
21 1 0.366763 0.0396612 0.224308
24 3 0.344446 0.0342366 0.221005
25 3 0.379119 0.0329796 0.206382
759 4 0.39272 0.0420242 0.195756
757 2 0.402426 0.0610921 0.182818
22 3 0.368598 0.0624664 0.226698
758 4 0.412132 0.0801599 0.16988
23 3 0.374629 0.0294407 0.243597
742 2 0.481801 0.0355841 0.230703
743 4 0.506131 0.0302889 0.22842
744 4 0.457472 0.0408793 0.232986
17 3 0.0310517 0.0899966 0.196248
381 4 0.00727669 0.145448 0.189768
511 2 0.037278 0.160431 0.215173
512 4 0.0229756 0.144286 0.202526
513 4 0.0515803 0.176577 0.22782
579 4 0.0798662 0.113532 0.182635
577 2 0.0864873 0.135878 0.19169
578 4 0.0931084 0.158225 0.200744
692 4 0.237521 0.0962324 0.193414
723 4 0.18128 0.113393 0.223001
691 2 0.221257 0.0960057 0.174425
721 2 0.180059 0.134455 0.23642
722 4 0.178838 0.155518 0.249838
582 4 0.265489 0.102556 0.168331
580 2 0.28051 0.110665 0.186601
581 4 0.295532 0.118774 0.204871
30 3 0.30377 0.120619 0.223528
26 1 0.306778 0.106254 0.240942
27 3 0.328913 0.100073 0.241929
312 4 0.437278 0.151984 0.175914
333 4 0.436709 0.161883 0.247842
310 2 0.440014 0.130234 0.18794
311 4 0.44275 0.108484 0.199966
338 4 0.0811808 0.247549 0.166322
362 4 0.117842 0.22105 0.197938
361 2 0.0998442 0.237305 0.191854
372 4 0.132272 0.234876 0.202046
370 2 0.148379 0.248042 0.215918
284 4 0.292023 0.21707 0.177042
764 4 0.372753 0.23753 0.184401
763 2 0.387554 0.220963 0.195874
765 4 0.402355 0.204396 0.207348
528 4 0.48053 0.258484 0.216131
395 4 0.0647062 0.266046 0.219016
394 2 0.0463335 0.267181 0.235938
750 4 0.113595 0.292248 0.223308
363 4 0.0818463 0.25356 0.185769
748 2 0.1169 0.283817 0.246614
371 4 0.164486 0.261207 0.22979
279 4 0.233088 0.287364 0.18081
307 2 0.324884 0.264223 0.232123
309 4 0.313493 0.285585 0.225872
308 4 0.336275 0.24286 0.238373
622 2 0.390414 0.290541 0.177258
624 4 0.408526 0.292916 0.194331
527 4 0.503448 0.277961 0.176179
526 2 0.491989 0.268222 0.196155
300 4 0.12492 0.337823 0.218099
298 2 0.127172 0.358422 0.232091
536 4 0.211226 0.34278 0.167146
611 4 0.245562 0.352999 0.179426
387 4 0.347242 0.371915 0.172611
302 4 0.348372 0.368387 0.19293
303 4 0.356299 0.411476 0.21704
301 2 0.352335 0.389932 0.204985
597 4 0.485996 0.40452 0.168434
643 2 0.465308 0.376621 0.180618
644 4 0.45363 0.365744 0.199867
447 4 0.465385 0.359776 0.215685
445 2 0.479277 0.373688 0.231134
263 4 0.0701126 0.438446 0.218213
262 2 0.0474 0.443921 0.22712
264 4 0.0246873 0.449395 0.236028
417 4 0.144362 0.454821 0.197673
415 2 0.162227 0.437332 0.198105
1430 4 0.163755 0.505754 0.203236
290 4 0.227645 0.436339 0.238711
416 4 0.180091 0.419844 0.198538
291 4 0.200021 0.413955 0.203546
289 2 0.213833 0.425147 0.221128
768 4 0.258669 0.464636 0.201357
766 2 0.264447 0.469841 0.177593
595 2 0.494089 0.427333 0.174702
231 4 0.430914 0.505078 0.185514
714 4 0.453323 0.503164 0.25333
1799 4 0.00697031 0.0232876 0.298365
232 2 0.0211818 0.0500577 0.282325
233 4 0.032421 0.0285834 0.288466
1402 2 0.0689489 0.0072619 0.274218
1403 4 0.0479863 0.0200003 0.279064
234 4 0.00994258 0.071532 0.276184
318 4 0.030224 0.0647359 0.314497
731 4 0.0998179 0.0844639 0.322889
1699 2 0.244039 0.0491179 0.310256
1701 4 0.230029 0.0297509 0.317591
1700 4 0.258049 0.0684848 0.30292
633 4 0.39059 0.0701495 0.32621
698 4 0.381378 0.0540362 0.329511
697 2 0.360398 0.0407782 0.326474
699 4 0.339417 0.0275202 0.323436
1518 4 0.342893 0.00833498 0.31825
478 2 0.462674 0.0354169 0.326229
351 4 0.457551 0.0567086 0.255355
349 2 0.452672 0.0712098 0.275131
479 4 0.483334 0.0478859 0.319683
398 4 0.091009 0.137873 0.293804
397 2 0.0884783 0.118087 0.30888
399 4 0.0859477 0.0983015 0.323957
248 4 0.24239 0.0963345 0.309673
249 4 0.219892 0.14065 0.304128
247 2 0.231141 0.118492 0.306901
404 4 0.213402 0.155788 0.295255
28 3 0.293816 0.0872561 0.237864
29 3 0.300996 0.116645 0.260867
632 4 0.372792 0.112427 0.306295
631 2 0.381691 0.0912881 0.316252
331 2 0.453557 0.154596 0.264819
350 4 0.447793 0.0857109 0.294907
332 4 0.470406 0.147309 0.281795
393 4 0.0864062 0.224467 0.291516
444 4 0.0184165 0.252203 0.307299
392 4 0.12528 0.200484 0.271161
391 2 0.105843 0.212476 0.281338
545 4 0.13185 0.182029 0.275693
389 4 0.0859246 0.238155 0.338098
544 2 0.154091 0.179059 0.264663
546 4 0.176333 0.176089 0.253633
403 2 0.214463 0.175503 0.279913
405 4 0.215524 0.195218 0.264571
706 2 0.332321 0.19943 0.329255
707 4 0.331344 0.213318 0.308486
420 4 0.405593 0.188753 0.304579
522 4 0.489379 0.200183 0.253769
520 2 0.468755 0.213338 0.25894
521 4 0.44813 0.226494 0.264111
762 4 0.488484 0.155288 0.283358
418 2 0.425059 0.196472 0.318242
419 4 0.444525 0.20419 0.331905
760 2 0.495433 0.167361 0.304122
396 4 0.0279608 0.268317 0.252859
443 4 0.0129469 0.276671 0.264031
442 2 0.0156817 0.264437 0.285665
364 2 0.0217652 0.314419 0.309492
365 4 0.0424356 0.301739 0.315587
749 4 0.120206 0.275386 0.26992
401 4 0.186269 0.25803 0.311068
345 4 0.240191 0.318658 0.279421
400 2 0.20632 0.27287 0.309362
402 4 0.226371 0.287711 0.307656
508 2 0.231952 0.328983 0.31424
510 4 0.238714 0.305415 0.309344
344 4 0.275072 0.287842 0.261135
343 2 0.257631 0.30325 0.270278
496 2 0.337052 0.298444 0.280331
498 4 0.314731 0.307208 0.287411
378 4 0.265039 0.284008 0.337739
497 4 0.359373 0.289679 0.273251
543 4 0.410692 0.335262 0.319563
717 4 0.377693 0.261166 0.310131
615 4 0.393834 0.336995 0.309109
715 2 0.361875 0.260576 0.329486
299 4 0.129424 0.379021 0.246083
602 4 0.0814927 0.399475 0.273829
601 2 0.104663 0.397736 0.264595
603 4 0.127834 0.395997 0.255361
734 4 0.136655 0.381078 0.264369
733 2 0.154162 0.381193 0.282221
735 4 0.171669 0.381308 0.300072
677 4 0.184824 0.393729 0.308233
676 2 0.189663 0.374312 0.323225
509 4 0.225191 0.352552 0.319137
729 4 0.318061 0.367686 0.264337
433 2 0.303292 0.378052 0.331764
434 4 0.304914 0.399316 0.344818
435 4 0.301669 0.356789 0.31871
727 2 0.329764 0.389779 0.264725
613 2 0.381272 0.351088 0.325503
728 4 0.341467 0.411871 0.265113
614 4 0.368711 0.365182 0.341897
541 2 0.432337 0.335033 0.307049
542 4 0.453983 0.334803 0.294536
2538 4 0.497851 0.351205 0.294003
446 4 0.493169 0.387599 0.246583
549 4 0.0202946 0.420714 0.334057
777 4 0.0749656 0.464615 0.302739
547 2 0.0437501 0.413399 0.338695
2463 4 0.0179175 0.496806 0.327802
775 2 0.0964096 0.451861 0.301107
776 4 0.117854 0.439107 0.299474
414 4 0.145717 0.447379 0.301126
412 2 0.162135 0.458681 0.316222
413 4 0.178553 0.469982 0.331319
436 2 0.279897 0.445788 0.274387
437 4 0.272809 0.464759 0.259724
438 4 0.286985 0.426816 0.289051
713 4 0.415432 0.477107 0.272977
2861 4 0.484845 0.463886 0.278929
712 2 0.434378 0.490136 0.263154
316 2 0.0404137 0.0725828 0.335939
317 4 0.0506035 0.0804297 0.357381
428 4 0.0817825 0.0193457 0.358464
427 2 0.0704363 0.997073 0.359054
368 4 0.115536 0.0344764 0.403979
730 2 0.114696 0.0836369 0.342967
732 4 0.129573 0.08281 0.363046
606 4 0.184888 0.0724169 0.392161
604 2 0.201327 0.0685753 0.373718
605 4 0.217766 0.0647337 0.355274
683 4 0.30295 0.0649215 0.381763
441 4 0.311527 0.0238765 0.396823
257 4 0.397495 0.0570513 0.339492
256 2 0.410328 0.0614799 0.36049
424 2 0.414229 0.0339771 0.408328
426 4 0.426328 0.0507056 0.394224
480 4 0.442014 0.022948 0.332776
258 4 0.423161 0.0659085 0.381487
685 2 0.167896 0.168225 0.404367
600 4 0.181829 0.12754 0.360718
598 2 0.178297 0.151356 0.353972
682 2 0.302934 0.0878217 0.391801
684 4 0.302917 0.110722 0.401839
320 4 0.306387 0.110526 0.422634
452 4 0.497377 0.157555 0.379117
451 2 0.47245 0.159185 0.380215
453 4 0.447524 0.160814 0.381313
515 4 0.435133 0.161626 0.396596
514 2 0.415543 0.159417 0.411974
2655 4 0.00673414 0.22751 0.368955
2653 2 0.0173674 0.205713 0.375037
2654 4 0.0280007 0.183916 0.38112
599 4 0.174765 0.175172 0.347227
686 4 0.192127 0.172698 0.400125
473 4 0.268904 0.178945 0.343908
474 4 0.277336 0.219256 0.372275
472 2 0.27312 0.199101 0.358092
488 4 0.278826 0.239036 0.372298
487 2 0.285945 0.246679 0.395016
708 4 0.333297 0.185542 0.350023
305 4 0.461238 0.186559 0.409803
390 4 0.0518333 0.272814 0.349815
388 2 0.0688789 0.255485 0.343957
616 2 0.0599256 0.320122 0.382947
618 4 0.0459437 0.306088 0.398203
347 4 0.0453082 0.284633 0.402788
276 4 0.211222 0.267892 0.365721
375 4 0.1903 0.313127 0.41972
274 2 0.192593 0.274665 0.380962
275 4 0.173965 0.281437 0.396203
373 2 0.196819 0.328817 0.401376
376 2 0.284761 0.268705 0.336315
377 4 0.304483 0.253401 0.33489
716 4 0.346056 0.259986 0.34884
269 4 0.48712 0.291834 0.403488
617 4 0.0739074 0.334155 0.367692
408 4 0.0845678 0.407984 0.410001
406 2 0.0802272 0.408518 0.385383
374 4 0.203339 0.344506 0.383032
678 4 0.194501 0.354896 0.338218
336 4 0.346934 0.378299 0.387528
334 2 0.35495 0.391346 0.407294
119 3 0.510394 0.41293 0.343792
561 4 0.464779 0.364166 0.396616
752 4 0.458232 0.380857 0.385948
559 2 0.481534 0.369112 0.414504
751 2 0.452755 0.399592 0.370321
753 4 0.447279 0.418326 0.354694
548 4 0.0672055 0.406084 0.343333
407 4 0.0758866 0.409052 0.360765
499 2 0.115118 0.493198 0.369968
501 4 0.11859 0.484013 0.392963
503 4 0.248488 0.411344 0.404822
5 3 0.298344 0.450501 0.374913
1 1 0.313228 0.455563 0.391389
2 3 0.30573 0.473962 0.402983
4 3 0.315148 0.437708 0.406084
3 3 0.333931 0.460459 0.382126
594 4 0.388598 0.482619 0.367138
592 2 0.411906 0.479228 0.358746
593 4 0.435214 0.475838 0.350354
117 3 0.517199 0.435088 0.373379
1772 4 0.0202729 0.00120659 0.442524
718 2 0.0514843 0.0679854 0.477447
720 4 0.0481329 0.0511585 0.495635
2237 4 0.0377121 0.035289 0.48968
2236 2 0.0246442 0.0157803 0.481088
367 2 0.122335 0.0328489 0.427985
369 4 0.129134 0.0312214 0.451991
341 4 0.198826 0.0325638 0.504923
1181 4 0.223023 0.0522729 0.473664
1180 2 0.236042 0.0703025 0.485093
726 4 0.328475 0.0340665 0.446695
425 4 0.402129 0.0172486 0.422432
724 2 0.331934 0.0588085 0.447718
2878 2 0.495432 0.0778302 0.443305
719 4 0.0548356 0.0848123 0.459259
457 2 0.020156 0.156249 0.426579
687 4 0.143664 0.163752 0.408609
1182 4 0.249061 0.0883321 0.496522
321 4 0.269232 0.141151 0.436136
319 2 0.287809 0.125838 0.429385
725 4 0.335393 0.0835505 0.448741
574 2 0.393562 0.141956 0.465596
575 4 0.3893 0.145829 0.441264
516 4 0.395952 0.157208 0.427352
576 4 0.397824 0.138084 0.489927
642 4 0.487717 0.0988015 0.472016
2880 4 0.481097 0.0954886 0.453691
640 2 0.472061 0.116375 0.480457
641 4 0.456405 0.133949 0.488898
458 4 0.0366675 0.164167 0.443604
471 4 0.0183602 0.170068 0.46835
469 2 0.0334855 0.189917 0.466798
470 4 0.0486108 0.209766 0.465245
260 4 0.0936321 0.198903 0.427726
261 4 0.109495 0.204331 0.474838
259 2 0.101564 0.201617 0.451282
1035 4 0.12145 0.203663 0.492343
695 4 0.084761 0.259713 0.460279
411 4 0.257203 0.198897 0.460188
409 2 0.277801 0.189117 0.470447
410 4 0.298399 0.179337 0.480707
468 4 0.350979 0.201687 0.417502
467 4 0.399894 0.191296 0.417562
466 2 0.375436 0.196491 0.417532
304 2 0.466305 0.204127 0.426858
306 4 0.471371 0.221696 0.443912
346 2 0.043807 0.290392 0.427073
348 4 0.0423057 0.296151 0.451358
326 4 0.0750254 0.317273 0.43721
694 2 0.100728 0.272414 0.474732
7 3 0.13572 0.334768 0.494285
696 4 0.116695 0.285116 0.489186
10 3 0.171198 0.323661 0.490999
651 4 0.265882 0.275644 0.441893
489 4 0.293064 0.254322 0.417733
650 4 0.26191 0.301968 0.484225
649 2 0.263896 0.288806 0.463059
266 4 0.327065 0.284745 0.46001
267 4 0.363694 0.25442 0.475483
265 2 0.34538 0.269582 0.467747
583 2 0.472331 0.288013 0.472512
584 4 0.494796 0.296541 0.479422
585 4 0.449866 0.279484 0.465601
327 4 0.106673 0.351394 0.455512
325 2 0.090849 0.334333 0.446361
6 1 0.157706 0.341219 0.496321
8 3 0.161694 0.358932 0.481874
711 4 0.167003 0.376623 0.474481
709 2 0.186088 0.392775 0.474786
710 4 0.205172 0.408927 0.475092
774 4 0.221687 0.406762 0.485965
238 2 0.377481 0.383185 0.462825
240 4 0.363205 0.394826 0.445918
335 4 0.362966 0.404393 0.42706
239 4 0.391758 0.371545 0.479732
560 4 0.498289 0.374059 0.432392
1381 2 0.0152283 0.495445 0.441305
679 2 0.0446772 0.446922 0.452383
1383 4 0.0172389 0.471229 0.435412
935 4 0.000233404 0.434121 0.478124
681 4 0.0635286 0.440649 0.467564
383 4 0.0797287 0.43616 0.479611
680 4 0.0258258 0.453194 0.437202
570 4 0.176616 0.480411 0.435881
382 2 0.10238 0.44001 0.469749
569 4 0.144549 0.449651 0.458819
568 2 0.160583 0.465031 0.44735
384 4 0.125032 0.44386 0.459887
636 4 0.245286 0.461516 0.471356
634 2 0.229591 0.44285 0.476869
502 2 0.234619 0.414421 0.425398
635 4 0.213895 0.424184 0.482381
504 4 0.22075 0.417498 0.445973
667 2 0.312076 0.432122 0.446428
668 4 0.308053 0.427626 0.422164
669 4 0.316099 0.436618 0.470693
588 4 0.401151 0.463315 0.441813
586 2 0.408433 0.448087 0.460259
587 4 0.415714 0.432859 0.478705
661 2 0.477555 0.479931 0.506278
663 4 0.467249 0.457821 0.511765
1126 2 0.0256097 0.047624 0.529368
1127 4 0.0362588 0.0409633 0.507748
1128 4 0.0149607 0.0542847 0.550987
1058 4 0.128944 0.0546068 0.56414
1057 2 0.13884 0.0750533 0.57459
2428 2 0.210792 0.000743457 0.515779
342 4 0.181152 0.0781924 0.515235
2430 4 0.215944 0.0229827 0.505578
340 2 0.189989 0.0553781 0.510079
1152 4 0.182655 0.0984554 0.510167
1031 4 0.241747 0.0514174 0.550295
951 4 0.256261 0.0400214 0.560111
961 2 0.278269 0.0389995 0.512997
963 4 0.302661 0.0434163 0.516267
962 4 0.253877 0.0345827 0.509726
432 4 0.317378 0.0429026 0.503748
430 2 0.329721 0.0622567 0.513659
949 2 0.255553 0.0291741 0.582628
1217 4 0.395998 0.0477195 0.559278
1216 2 0.402405 0.0242727 0.565141
841 2 0.383719 0.0706754 0.537464
842 4 0.40418 0.0600111 0.547099
431 4 0.342065 0.0816108 0.52357
843 4 0.363259 0.0813397 0.527829
1062 4 0.506458 0.0574083 0.540583
1060 2 0.506753 0.0328407 0.545222
938 4 0.0664525 0.122121 0.547086
937 2 0.0846626 0.138001 0.540651
939 4 0.102873 0.15388 0.534215
1153 2 0.157593 0.139301 0.578109
1155 4 0.155283 0.114839 0.582739
1154 4 0.159904 0.163763 0.573479
1151 4 0.172582 0.130186 0.547482
1150 2 0.177619 0.114321 0.528825
1030 2 0.252175 0.0741385 0.550737
1032 4 0.262602 0.0968596 0.551178
878 4 0.0282237 0.200058 0.575143
1199 4 0.0272872 0.198798 0.554597
1198 2 0.00291343 0.204106 0.552887
1034 4 0.102519 0.165806 0.518973
1033 2 0.111984 0.184734 0.505658
856 2 0.246013 0.197984 0.53418
857 4 0.222615 0.20672 0.535353
898 2 0.319322 0.188152 0.513422
858 4 0.269412 0.189248 0.533006
900 4 0.300589 0.18972 0.496936
791 4 0.279105 0.241923 0.541391
899 4 0.338056 0.186584 0.529907
871 2 0.384277 0.233911 0.514355
873 4 0.364526 0.245369 0.524543
872 4 0.404028 0.222453 0.504167
905 4 0.47377 0.204085 0.556612
904 2 0.464915 0.220143 0.57361
1258 2 0.136593 0.273448 0.525403
1260 4 0.128223 0.288306 0.507117
1259 4 0.144963 0.258589 0.543688
790 2 0.287788 0.255246 0.560686
811 2 0.300437 0.297899 0.502894
804 4 0.27484 0.324439 0.500975
792 4 0.296471 0.268569 0.579981
812 4 0.277018 0.304539 0.49718
813 4 0.323855 0.291258 0.508608
954 4 0.474417 0.308068 0.57118
1011 4 0.510108 0.316976 0.562671
983 4 0.0388078 0.326633 0.569716
982 2 0.0427755 0.345934 0.585108
9 3 0.161586 0.347831 0.518221
1136 4 0.0804823 0.378843 0.580436
895 2 0.17133 0.400784 0.577768
1189 2 0.227287 0.382065 0.55559
773 4 0.242976 0.375988 0.519137
1190 4 0.241773 0.371629 0.538085
1191 4 0.212801 0.392501 0.573095
772 2 0.232332 0.391375 0.502551
896 4 0.195424 0.403897 0.571856
802 2 0.263901 0.342812 0.513934
803 4 0.252963 0.361185 0.526894
930 4 0.312674 0.381139 0.565017
928 2 0.332767 0.379225 0.550259
929 4 0.35286 0.377311 0.535501
925 2 0.458173 0.400553 0.51871
927 4 0.469394 0.379215 0.52534
3309 4 0.495256 0.409934 0.551456
539 4 0.0863499 0.462807 0.492344
538 2 0.0928901 0.484318 0.503282
1161 4 0.151793 0.483307 0.56226
1159 2 0.168333 0.472549 0.577617
1173 4 0.204616 0.456855 0.59304
882 4 0.313354 0.440828 0.515026
891 4 0.294964 0.446971 0.575236
880 2 0.330423 0.446114 0.532516
889 2 0.316998 0.450571 0.586492
881 4 0.347491 0.4514 0.550006
1952 4 0.352011 0.471718 0.543953
1951 2 0.364399 0.492453 0.550418
1002 4 0.429597 0.420989 0.555024
926 4 0.446952 0.421891 0.51208
1000 2 0.435065 0.444954 0.559601
1001 4 0.440533 0.46892 0.564177
945 4 0.077126 0.995447 0.663298
943 2 0.0778408 0.0198892 0.658078
944 4 0.0785556 0.0443314 0.652859
825 4 0.114359 0.023772 0.608206
823 2 0.130542 0.00692042 0.617112
1284 4 0.174777 0.0911633 0.633543
824 4 0.146725 0.990069 0.626018
1282 2 0.186581 0.082856 0.65396
950 4 0.254846 0.0183267 0.605145
1092 4 0.318955 0.0368979 0.652578
808 2 0.491039 0.080438 0.633076
810 4 0.477239 0.0763218 0.653517
809 4 0.504838 0.0845541 0.612636
1083 4 0.0477782 0.10715 0.624276
1081 2 0.0371222 0.114139 0.645789
1059 4 0.148735 0.0954998 0.58504
909 4 0.132321 0.12018 0.666207
877 2 0.0506535 0.204663 0.585187
879 4 0.0730834 0.209269 0.59523
1244 4 0.052403 0.238875 0.610013
1243 2 0.0648897 0.246083 0.630441
1209 4 0.0913723 0.245051 0.66192
1272 4 0.0922687 0.203795 0.5963
1270 2 0.113727 0.212818 0.605427
1271 4 0.135185 0.221842 0.614554
1221 4 0.17031 0.172849 0.587538
797 4 0.204842 0.236127 0.620685
1210 2 0.230175 0.187219 0.6524
1212 4 0.211695 0.183781 0.635913
1219 2 0.188045 0.181896 0.602665
1220 4 0.20578 0.190942 0.617791
796 2 0.224578 0.227833 0.607766
798 4 0.244314 0.219539 0.594848
1211 4 0.248656 0.190657 0.668888
888 4 0.262997 0.178407 0.671274
906 4 0.45606 0.236201 0.590607
1025 4 0.465383 0.178166 0.666527
1245 4 0.0773763 0.253291 0.650869
947 4 0.161306 0.258763 0.629016
946 2 0.182318 0.263202 0.641821
948 4 0.203329 0.267642 0.654627
1064 4 0.215012 0.284193 0.654861
1238 4 0.302291 0.266221 0.598286
1237 2 0.307121 0.288818 0.607839
1239 4 0.31195 0.311415 0.617391
952 2 0.461942 0.311075 0.592639
953 4 0.449466 0.314083 0.614098
984 4 0.0467431 0.365234 0.6005
1039 2 0.0707749 0.383967 0.632271
1041 4 0.0569782 0.371835 0.615311
3263 4 0.0368345 0.371073 0.615904
3262 2 0.0158943 0.364932 0.62811
1137 4 0.128969 0.39013 0.585167
1040 4 0.0845715 0.396099 0.649232
897 4 0.147236 0.397671 0.583681
1135 2 0.104725 0.384486 0.582802
991 2 0.124737 0.408901 0.655402
993 4 0.101766 0.408055 0.645563
1029 4 0.242755 0.39916 0.667275
1027 2 0.222123 0.408182 0.678142
1204 2 0.418292 0.409718 0.652648
1205 4 0.441366 0.400265 0.6545
992 4 0.147708 0.409748 0.665241
1171 2 0.216941 0.435106 0.593545
1172 4 0.229267 0.413358 0.594051
1187 4 0.209531 0.480732 0.610162
1160 4 0.184874 0.461791 0.592975
1186 2 0.205517 0.490817 0.632687
890 4 0.339033 0.45417 0.597749
1269 4 0.458467 0.460715 0.649198
1267 2 0.456156 0.480811 0.663894
1910 4 0.445301 0.513972 0.596997
1283 4 0.198385 0.0745488 0.674376
1147 2 0.194434 0.0653751 0.749226
1149 4 0.185543 0.042033 0.748098
1148 4 0.203325 0.0887172 0.750354
1090 2 0.319148 0.031109 0.676902
1091 4 0.31934 0.0253201 0.701225
1004 4 0.360137 0.0783017 0.717728
1163 4 0.482879 0.0631561 0.666247
1162 2 0.500699 0.0499931 0.677839
42 3 0.439633 0.0565504 0.674401
44 3 0.471142 0.0769486 0.672478
41 1 0.447995 0.0779692 0.673719
1082 4 0.0264662 0.121129 0.667301
1076 4 0.0255383 0.12835 0.686158
864 4 0.0449552 0.122208 0.735114
1075 2 0.0425061 0.130103 0.70444
1077 4 0.0594739 0.131856 0.722721
907 2 0.15613 0.125159 0.671998
1107 4 0.0906572 0.170498 0.717275
908 4 0.179938 0.130137 0.677788
1227 4 0.185048 0.124417 0.69564
1225 2 0.189363 0.108408 0.714355
1226 4 0.193678 0.0923982 0.73307
1005 4 0.314925 0.0967698 0.706979
1003 2 0.337531 0.0875358 0.712354
1142 4 0.388233 0.169613 0.722191
45 3 0.439697 0.088682 0.655415
43 3 0.441581 0.0891434 0.693017
851 4 0.076012 0.185193 0.719262
852 4 0.0283183 0.197679 0.710888
850 2 0.0521652 0.191436 0.715075
1105 2 0.10764 0.167343 0.735353
1207 2 0.112971 0.234344 0.668555
1208 4 0.13457 0.223637 0.675191
1106 4 0.124623 0.164189 0.753431
1073 4 0.110594 0.218813 0.737179
1130 4 0.183142 0.195402 0.737079
1129 2 0.186043 0.218517 0.74616
830 4 0.319467 0.171234 0.710443
886 2 0.283065 0.17722 0.686141
887 4 0.303133 0.176033 0.701008
976 2 0.3049 0.198268 0.73241
978 4 0.314065 0.189065 0.711045
831 4 0.361765 0.169198 0.683844
829 2 0.340616 0.170216 0.697144
1192 2 0.372505 0.22899 0.697416
1194 4 0.368039 0.205513 0.704771
1141 2 0.409688 0.182416 0.721205
1024 2 0.453033 0.189025 0.685362
1143 4 0.431142 0.195219 0.720218
1026 4 0.440683 0.199883 0.704197
1261 2 0.442185 0.227367 0.7264
1262 4 0.428357 0.21276 0.711547
1263 4 0.456014 0.241973 0.741253
1145 4 0.475443 0.23909 0.750108
820 2 0.180068 0.275835 0.738334
821 4 0.177252 0.29182 0.719315
1065 4 0.239042 0.267475 0.695405
1063 2 0.227027 0.275834 0.675133
822 4 0.182883 0.25985 0.757353
1193 4 0.376971 0.252466 0.690061
807 4 0.344279 0.345494 0.705891
3123 4 0.470326 0.272871 0.670923
3121 2 0.48204 0.252245 0.67883
3274 2 0.0129668 0.392861 0.743487
892 2 0.0473844 0.361627 0.709436
893 4 0.0520764 0.351695 0.686975
894 4 0.0426924 0.37156 0.731898
3276 4 0.0318998 0.376842 0.746667
816 4 0.0507484 0.372423 0.749901
940 2 0.130343 0.389361 0.743208
941 4 0.154895 0.392883 0.740047
1067 4 0.173029 0.394456 0.728964
1066 2 0.177251 0.406987 0.707743
806 4 0.308037 0.331943 0.674211
805 2 0.326158 0.338718 0.690051
1139 4 0.266 0.403859 0.695323
1019 4 0.385016 0.364586 0.73668
1281 4 0.0427531 0.480203 0.721785
1280 4 0.0745356 0.464041 0.686723
1279 2 0.0586443 0.472122 0.704254
1983 4 0.0261357 0.491359 0.72045
1028 4 0.20149 0.417204 0.689008
1068 4 0.181474 0.419519 0.686523
1176 4 0.23762 0.495688 0.714724
1174 2 0.225753 0.498104 0.692849
2015 4 0.188917 0.506749 0.716995
1138 2 0.272843 0.423965 0.708518
1140 4 0.279687 0.44407 0.721714
1987 2 0.341127 0.488523 0.752405
1206 4 0.395219 0.41917 0.650797
1228 2 0.381878 0.471063 0.708639
1229 4 0.358797 0.477699 0.715596
1230 4 0.404959 0.464427 0.701682
1989 4 0.358308 0.485087 0.734568
1101 4 0.464033 0.431008 0.715424
1100 4 0.424677 0.459918 0.704653
1099 2 0.444355 0.445463 0.710038
1268 4 0.453845 0.500907 0.67859
1294 2 0.0417007 0.00398101 0.788034
911 4 0.0614382 0.0943721 0.811048
1296 4 0.0545763 0.995582 0.807753
910 2 0.0756721 0.083609 0.828562
1295 4 0.0288251 0.0123799 0.768315
1203 4 0.110328 0.0782359 0.77937
1201 2 0.114664 0.0544272 0.785656
1202 4 0.119001 0.0306185 0.791943
2049 4 0.115065 0.011164 0.791103
1257 4 0.253593 0.0389858 0.797662
1255 2 0.259654 0.0602362 0.809361
1256 4 0.265715 0.0814866 0.82106
975 4 0.380719 0.00216377 0.836099
1113 4 0.415416 0.0235674 0.810737
1111 2 0.407479 0.0449251 0.821034
844 2 0.474001 0.0793295 0.750639
845 4 0.452664 0.0711402 0.740497
862 2 0.0455004 0.126105 0.759806
863 4 0.0460457 0.130003 0.784498
832 2 0.0132627 0.11371 0.802781
833 4 0.0319821 0.115508 0.786303
34 3 0.0943434 0.144459 0.817672
33 3 0.1172 0.170551 0.833203
839 4 0.220179 0.1309 0.823682
838 2 0.235736 0.111921 0.818889
840 4 0.251292 0.0929415 0.814096
1086 4 0.334847 0.146158 0.792076
1084 2 0.351809 0.137616 0.80834
1085 4 0.368772 0.129074 0.824603
846 4 0.495338 0.0875189 0.76078
3468 4 0.484369 0.167877 0.825454
1213 2 0.00322265 0.219401 0.752325
1214 4 0.019138 0.212004 0.770134
31 1 0.105755 0.164327 0.814002
35 3 0.120367 0.161816 0.796715
1072 2 0.104085 0.235326 0.754789
32 3 0.0905533 0.180772 0.808746
1131 4 0.188944 0.241632 0.755241
918 4 0.309066 0.222229 0.758101
977 4 0.295734 0.207472 0.753775
916 2 0.297206 0.243005 0.765372
1298 4 0.352163 0.20776 0.744074
1299 4 0.366579 0.175782 0.779716
1297 2 0.359371 0.191771 0.761895
1042 2 0.412251 0.244999 0.781108
50 3 0.401422 0.172763 0.800658
49 3 0.412 0.206213 0.786989
46 1 0.41922 0.185289 0.793951
47 3 0.429671 0.174793 0.776352
1043 4 0.41299 0.221318 0.773118