ITEM: TIMESTEP
2700000
ITEM: NUMBER OF ATOMS
4590
ITEM: BOX BOUNDS pp pp pp
-9.9985700000000008e+00 9.9985700000000008e+00
-9.9985700000000008e+00 9.9985700000000008e+00
-9.9985700000000008e+00 9.9985700000000008e+00
ITEM: ATOMS id type xs ys zs
1668 4 0.0872137 0.00342801 0.0583937
1666 2 0.0694211 0.997841 0.0750486
465 4 0.0834409 0.0743898 0.0193177
701 4 0.0975937 0.0647888 0.00873887
700 2 0.120713 0.0553134 0.00968297
702 4 0.143832 0.0458379 0.0106271
566 4 0.158933 0.0338224 0.0068386
746 4 0.474066 0.0684673 0.0296532
2467 2 0.492977 0.0319498 0.0446756
2469 4 0.477107 0.0480531 0.0339978
745 2 0.468416 0.0663861 0.00538542
463 2 0.065327 0.0848596 0.0330089
590 4 0.0323142 0.104168 0.0519916
464 4 0.0472132 0.0953294 0.0467001
589 2 0.0145577 0.0971441 0.0681333
558 4 0.346256 0.135083 0.0334097
556 2 0.348533 0.122103 0.0546586
865 2 0.371362 0.159828 0.00531429
771 4 0.453567 0.143587 0.0623226
769 2 0.461542 0.159058 0.0802735
554 4 0.045858 0.206807 0.0105926
553 2 0.0654554 0.201703 0.0252581
555 4 0.0850527 0.1966 0.0399235
835 2 0.125439 0.19431 0.0220446
836 4 0.105253 0.196612 0.0366196
837 4 0.145624 0.192007 0.00746965
461 4 0.339772 0.237897 0.0777501
573 4 0.334925 0.244135 0.0594991
666 4 0.338165 0.224972 0.062818
664 2 0.343579 0.204647 0.0492996
665 4 0.348993 0.184322 0.0357812
867 4 0.359558 0.171039 0.0242919
1070 4 0.455003 0.229703 0.0752436
2808 4 0.0358312 0.323173 0.0365211
2806 2 0.0199845 0.303985 0.0389427
294 4 0.0941112 0.309507 0.0757574
292 2 0.115193 0.316082 0.0640312
293 4 0.136275 0.322657 0.052305
356 4 0.309166 0.292667 0.0320434
572 4 0.320274 0.277309 0.0250671
355 2 0.312094 0.31749 0.031381
571 2 0.327599 0.260722 0.0422831
1069 2 0.441074 0.250463 0.0748063
322 2 0.437741 0.314001 0.0709124
1071 4 0.427146 0.271224 0.074369
647 4 0.0294388 0.365619 0.0759135
646 2 0.0472132 0.349028 0.0817421
620 4 0.0118457 0.355535 0.0757636
507 4 0.141918 0.338632 0.0405728
505 2 0.164792 0.342759 0.0313565
481 2 0.223933 0.372456 0.0195461
482 4 0.243271 0.388049 0.0223929
483 4 0.204595 0.356864 0.0166992
506 4 0.187666 0.346885 0.0221402
626 4 0.195547 0.403819 0.0867354
609 4 0.249194 0.405373 0.0329463
357 4 0.315023 0.342313 0.0307186
902 4 0.30826 0.354147 0.0155051
957 4 0.357215 0.385852 0.0251179
955 2 0.365631 0.384151 0.00163479
323 4 0.446611 0.336521 0.0646411
672 4 0.464824 0.342013 0.0673678
280 2 0.489507 0.416085 0.0502623
671 4 0.493527 0.381716 0.0573405
670 2 0.479176 0.361864 0.0623541
551 4 0.0326812 0.446794 0.0840771
550 2 0.0553474 0.454219 0.0765738
552 4 0.0780135 0.461644 0.0690705
1465 2 0.999613 0.478164 0.0795543
1466 4 0.0135275 0.496942 0.0884393
1787 4 0.0944562 0.461122 0.058386
1786 2 0.113543 0.465248 0.0427705
1788 4 0.13263 0.469374 0.027155
242 4 0.0926412 0.449381 0.0740039
246 4 0.241298 0.477505 0.0325173
244 2 0.227121 0.468629 0.0511023
245 4 0.212943 0.459754 0.0696874
625 2 0.195408 0.427873 0.0799136
272 4 0.237441 0.486328 0.0145432
1778 4 0.248162 0.495052 0.0279938
627 4 0.19527 0.451928 0.0730918
607 2 0.265858 0.423997 0.0321563
608 4 0.282522 0.442621 0.0313664
252 4 0.290018 0.452135 0.0469841
250 2 0.311753 0.459746 0.0372457
251 4 0.333488 0.467357 0.0275074
2289 4 0.342805 0.475799 0.0120878
525 4 0.414313 0.486664 0.0732557
2287 2 0.357463 0.495623 0.00792546
282 4 0.477281 0.433226 0.036775
226 2 0.455153 0.467562 0.052816
227 4 0.463697 0.444531 0.0481524
228 4 0.446609 0.490593 0.0574797
1667 4 0.0516285 0.992254 0.0917036
16 1 0.0653492 0.0496153 0.151633
20 3 0.0702832 0.0681226 0.139313
1806 4 0.041298 0.018449 0.144343
18 3 0.0524715 0.0349512 0.139082
1804 2 0.0379501 0.00536015 0.123304
450 4 0.162861 0.0634049 0.159057
675 4 0.0992711 0.0527757 0.157509
448 2 0.176193 0.0845496 0.158465
1661 4 0.302618 0.00637089 0.156904
654 4 0.315915 0.0196502 0.148855
652 2 0.319193 0.041872 0.159838
484 2 0.372035 0.0165361 0.114215
297 4 0.35996 0.0590891 0.1122
485 4 0.368672 0.0412596 0.115831
295 2 0.351922 0.0807573 0.102658
579 4 0.0942956 0.130803 0.100861
237 4 0.145756 0.15125 0.131041
578 4 0.129573 0.158642 0.122797
577 2 0.111935 0.144722 0.111829
235 2 0.163823 0.136218 0.139573
236 4 0.181889 0.121185 0.148104
693 4 0.196006 0.109756 0.140053
449 4 0.189524 0.105694 0.157874
691 2 0.220509 0.113971 0.13741
692 4 0.245013 0.118187 0.134766
582 4 0.257589 0.111164 0.121995
580 2 0.276615 0.115618 0.137595
581 4 0.29564 0.120072 0.153196
29 3 0.31662 0.159932 0.150969
557 4 0.350809 0.109123 0.0759076
296 4 0.343885 0.102426 0.0931149
476 4 0.141206 0.17037 0.13215
737 4 0.146982 0.162594 0.115374
475 2 0.13398 0.181408 0.153389
736 2 0.159942 0.176465 0.0991009
738 4 0.172902 0.190335 0.0828278
354 4 0.317869 0.23675 0.140218
283 2 0.326868 0.196282 0.14049
285 4 0.328848 0.171365 0.139825
284 4 0.324889 0.221198 0.141154
462 4 0.32627 0.230354 0.125305
460 2 0.333021 0.234126 0.101528
352 2 0.298653 0.251771 0.145725
255 4 0.335258 0.235661 0.139032
253 2 0.353048 0.246867 0.152564
770 4 0.469517 0.174528 0.0982244
1014 4 0.478992 0.17305 0.116264
1013 4 0.463055 0.219073 0.127601
1012 2 0.471024 0.196062 0.121933
749 4 0.0669853 0.309151 0.161251
455 4 0.0641753 0.327998 0.157097
454 2 0.0635066 0.329561 0.132151
611 4 0.223196 0.354431 0.104882
610 2 0.234321 0.333653 0.113229
612 4 0.245447 0.312876 0.121576
756 4 0.260938 0.316235 0.134555
353 4 0.279438 0.266792 0.151232
754 2 0.268258 0.297964 0.149975
755 4 0.275577 0.279693 0.165395
278 4 0.264211 0.264135 0.164519
324 4 0.428871 0.29148 0.0771836
648 4 0.0649877 0.332436 0.0875707
456 4 0.062838 0.331123 0.107205
536 4 0.181414 0.389926 0.0932907
535 2 0.193726 0.368433 0.0967026
537 4 0.206037 0.34694 0.100115
387 4 0.335624 0.411193 0.14284
302 4 0.318076 0.40784 0.131813
741 4 0.412855 0.371119 0.103519
739 2 0.405042 0.380691 0.125257
740 4 0.39723 0.390263 0.146994
385 2 0.358797 0.404381 0.149303
386 4 0.381971 0.397569 0.155766
495 4 0.399054 0.405769 0.159966
15 3 0.386651 0.379032 0.159742
241 2 0.106482 0.445509 0.0944642
1438 2 0.155433 0.460114 0.118771
243 4 0.120323 0.441638 0.114924
1440 4 0.132989 0.452427 0.126667
1439 4 0.177876 0.467801 0.110874
637 2 0.216608 0.484064 0.119282
638 4 0.237754 0.491106 0.130616
639 4 0.195463 0.477022 0.107948
767 4 0.255524 0.493741 0.137797
303 4 0.311464 0.455707 0.118936
766 2 0.272887 0.477448 0.130165
768 4 0.290249 0.461154 0.122533
301 2 0.31477 0.431774 0.125374
523 2 0.403177 0.464535 0.0698682
524 4 0.392042 0.442406 0.0664807
493 2 0.411263 0.426785 0.154098
494 4 0.423473 0.447801 0.148229
660 4 0.422499 0.464849 0.138534
658 2 0.429546 0.479453 0.157567
17 3 0.0848956 0.0390778 0.157637
19 3 0.0539085 0.0557301 0.170871
380 4 0.0565136 0.0713041 0.182721
1505 4 0.16063 0.0517593 0.174923
673 2 0.122942 0.058484 0.163192
674 4 0.146612 0.0641922 0.168875
689 4 0.184147 0.00215404 0.20814
1504 2 0.163699 0.0306888 0.18803
1506 4 0.166767 0.00961825 0.201137
653 4 0.322471 0.0640938 0.17082
23 3 0.404235 0.00290663 0.234935
22 3 0.405501 0.014485 0.1992
21 1 0.418141 0.00661619 0.216735
757 2 0.472011 0.0279234 0.211377
25 3 0.433989 0.0220712 0.222087
759 4 0.451007 0.0309667 0.224596
350 4 0.436043 0.0351721 0.234808
758 4 0.493015 0.0248801 0.198157
379 2 0.0437114 0.0926534 0.185064
512 4 0.0356946 0.126857 0.201861
381 4 0.0309092 0.114003 0.187407
511 2 0.0535158 0.141339 0.211754
513 4 0.071337 0.15582 0.221647
339 4 0.0807032 0.159356 0.204167
30 3 0.306728 0.127387 0.167112
26 1 0.308317 0.149898 0.170172
28 3 0.287464 0.15868 0.175315
27 3 0.322695 0.154177 0.187611
521 4 0.477566 0.155394 0.257816
311 4 0.447928 0.153998 0.194877
337 2 0.0945401 0.176438 0.192253
477 4 0.126753 0.192446 0.174629
363 4 0.121382 0.205129 0.189246
338 4 0.108377 0.193519 0.180338
362 4 0.146688 0.235055 0.220306
361 2 0.134035 0.220092 0.204776
372 4 0.139106 0.238849 0.239031
723 4 0.221905 0.206521 0.242934
279 4 0.262895 0.242907 0.209777
628 2 0.395192 0.228889 0.188538
629 4 0.408151 0.210013 0.198582
630 4 0.382232 0.247766 0.178493
312 4 0.42335 0.197337 0.199168
310 2 0.435639 0.175667 0.197023
761 4 0.482477 0.22268 0.233462
750 4 0.0463023 0.288827 0.201992
395 4 0.0382221 0.280865 0.220182
748 2 0.0566438 0.298989 0.181621
394 2 0.0262244 0.280295 0.242112
370 2 0.154602 0.258175 0.242436
300 4 0.105157 0.273638 0.224448
298 2 0.106861 0.298501 0.226468
299 4 0.108566 0.323365 0.228488
371 4 0.170097 0.2775 0.245841
277 2 0.263553 0.253521 0.187148
401 4 0.267874 0.307023 0.241279
498 4 0.275566 0.322076 0.229013
764 4 0.409672 0.30762 0.187304
254 4 0.370838 0.258074 0.166096
765 4 0.380806 0.267464 0.179887
763 2 0.395239 0.287542 0.183595
624 4 0.472891 0.31618 0.184515
622 2 0.449247 0.309799 0.17947
528 4 0.492463 0.310129 0.184993
623 4 0.425604 0.303419 0.174425
262 2 0.0348253 0.396255 0.209853
263 4 0.0473267 0.378553 0.222323
602 4 0.0658321 0.375506 0.229766
734 4 0.10951 0.33432 0.244543
601 2 0.084653 0.35908 0.228704
603 4 0.103474 0.342654 0.227641
290 4 0.171896 0.383643 0.236809
289 2 0.172051 0.404361 0.222812
291 4 0.172206 0.425079 0.208815
496 2 0.289699 0.33773 0.215583
307 2 0.327974 0.345481 0.176849
308 4 0.304026 0.350579 0.181912
497 4 0.303833 0.353385 0.202153
309 4 0.351923 0.340382 0.171785
14 3 0.404246 0.404533 0.181137
11 1 0.397241 0.382465 0.179609
13 3 0.382932 0.377462 0.197177
12 3 0.415643 0.368718 0.180861
264 4 0.022324 0.413958 0.197383
2618 4 0.019896 0.430245 0.208999
2617 2 0.00238222 0.438384 0.22488
416 4 0.168814 0.442969 0.218732
415 2 0.187109 0.459513 0.214636
1430 4 0.209104 0.491185 0.199669
417 4 0.205404 0.476057 0.21054
597 4 0.483233 0.467335 0.213357
596 4 0.453801 0.496707 0.185578
659 4 0.436594 0.494058 0.176599
595 2 0.468517 0.482021 0.199468
1799 4 0.018953 0.0180518 0.304038
233 4 0.0109008 0.0350342 0.297218
1402 2 0.0526192 0.0392469 0.310066
1403 4 0.0287394 0.0347717 0.304158
1404 4 0.076499 0.0437221 0.315974
1798 2 0.00831126 0.00580299 0.323061
633 4 0.387155 0.0439297 0.305219
631 2 0.392513 0.0539506 0.282947
257 4 0.377463 0.0454638 0.322473
698 4 0.370573 0.0345267 0.30775
697 2 0.36942 0.0104738 0.314481
632 4 0.397871 0.0639716 0.260674
349 2 0.440163 0.0342713 0.259453
744 4 0.459077 0.0262997 0.296837
742 2 0.46823 0.0240828 0.319999
351 4 0.444283 0.0333704 0.284098
398 4 0.074474 0.139486 0.308226
393 4 0.0851086 0.146166 0.293015
397 2 0.0661192 0.122581 0.324646
390 4 0.0803768 0.157964 0.307172
545 4 0.136774 0.158741 0.249629
392 4 0.118014 0.152911 0.255968
391 2 0.101561 0.149539 0.274492
544 2 0.155041 0.166261 0.264957
249 4 0.184541 0.139375 0.327404
404 4 0.198741 0.154104 0.329309
403 2 0.195401 0.161279 0.305591
444 4 0.0202915 0.224405 0.305057
442 2 0.0190476 0.245249 0.291303
388 2 0.0882797 0.178927 0.318275
389 4 0.0961826 0.19989 0.329378
721 2 0.204798 0.195936 0.257782
546 4 0.173308 0.17378 0.280285
405 4 0.192061 0.168454 0.281873
722 4 0.18769 0.185352 0.272631
420 4 0.38509 0.220866 0.253505
717 4 0.373052 0.232748 0.265278
418 2 0.406548 0.210429 0.260975
331 2 0.457802 0.204238 0.300337
332 4 0.443507 0.203 0.27986
419 4 0.428006 0.199992 0.268445
760 2 0.462632 0.216722 0.247456
762 4 0.442787 0.210763 0.261451
333 4 0.472097 0.205477 0.320813
453 4 0.476347 0.221069 0.331701
364 2 0.0195553 0.306569 0.294269
396 4 0.0142267 0.279726 0.264041
443 4 0.0178037 0.266092 0.277549
365 4 0.021505 0.28534 0.281205
407 4 0.0211358 0.326639 0.326643
366 4 0.0176055 0.327799 0.307334
677 4 0.157975 0.327588 0.283245
735 4 0.140917 0.339279 0.28314
676 2 0.175212 0.323283 0.300838
508 2 0.234453 0.313652 0.308828
509 4 0.210181 0.319333 0.310769
678 4 0.192449 0.318978 0.318431
435 4 0.206959 0.326662 0.328646
510 4 0.258726 0.307972 0.306888
400 2 0.26936 0.305873 0.266212
402 4 0.270846 0.304723 0.291145
345 4 0.27736 0.302916 0.308619
343 2 0.290905 0.283128 0.3157
344 4 0.30445 0.26334 0.322782
715 2 0.374549 0.256492 0.272968
716 4 0.376046 0.280237 0.280658
542 4 0.392005 0.279896 0.292312
541 2 0.393896 0.299121 0.308186
543 4 0.395787 0.318346 0.324061
548 4 0.0199752 0.343897 0.318342
547 2 0.0222063 0.368168 0.323922
549 4 0.0244375 0.392439 0.329501
777 4 0.034923 0.408067 0.335667
733 2 0.125213 0.3368 0.263842
728 4 0.356814 0.377497 0.302327
727 2 0.357429 0.399754 0.313704
751 2 0.484494 0.331521 0.328824
2538 4 0.467837 0.346586 0.290602
753 4 0.479209 0.337863 0.305222
2536 2 0.485348 0.360364 0.279257
2860 2 0.502366 0.412354 0.280081
1543 2 0.154618 0.483208 0.330421
1544 4 0.130634 0.488506 0.335099
1545 4 0.178602 0.477909 0.325742
1436 4 0.193192 0.486606 0.313896
729 4 0.358044 0.422011 0.325081
436 2 0.357325 0.462296 0.33803
438 4 0.355963 0.483131 0.351785
2861 4 0.493761 0.433955 0.289274
730 2 0.0652204 0.0696554 0.36002
732 4 0.0633885 0.0458651 0.367493
369 4 0.0814946 0.0426162 0.37267
367 2 0.0929557 0.0375131 0.394298
605 4 0.183685 0.0563288 0.389665
604 2 0.179562 0.0346621 0.401443
1701 4 0.185679 0.0744964 0.398485
606 4 0.175439 0.0129953 0.413222
256 2 0.368713 0.0606394 0.340314
258 4 0.359963 0.0758151 0.358156
426 4 0.370046 0.0749902 0.376946
424 2 0.38773 0.0646749 0.391301
425 4 0.405414 0.0543597 0.405655
1580 4 0.401247 0.0348281 0.409468
2664 4 0.494982 0.0296352 0.347989
743 4 0.477384 0.0218659 0.343161
479 4 0.478394 0.0355619 0.357154
478 2 0.468858 0.0525397 0.372838
480 4 0.459322 0.0695175 0.388523
458 4 0.997669 0.140082 0.375506
318 4 0.0165971 0.133679 0.380028
399 4 0.0577645 0.105677 0.341066
317 4 0.0503039 0.103615 0.358563
731 4 0.0670523 0.0934457 0.352547
316 2 0.0334505 0.118647 0.369295
1699 2 0.188365 0.0993009 0.396841
247 2 0.188132 0.132211 0.351089
248 4 0.191724 0.125048 0.374774
1700 4 0.191051 0.124105 0.395197
319 2 0.332942 0.134822 0.405442
320 4 0.315472 0.122265 0.418181
682 2 0.276818 0.139573 0.411215
683 4 0.256952 0.154613 0.409137
684 4 0.296684 0.124533 0.413293
321 4 0.350411 0.14738 0.392702
708 4 0.336886 0.149195 0.377725
516 4 0.482947 0.158674 0.359291
575 4 0.477125 0.152365 0.377059
574 2 0.471196 0.137939 0.396601
378 4 0.301113 0.246711 0.332864
376 2 0.306249 0.223315 0.340035
600 4 0.259248 0.17265 0.401951
377 4 0.311386 0.199919 0.347207
707 4 0.329324 0.189996 0.349817
489 4 0.305621 0.240335 0.401172
706 2 0.333105 0.169596 0.363771
515 4 0.471546 0.203137 0.339447
514 2 0.477247 0.180906 0.349369
451 2 0.49584 0.233716 0.340933
406 2 0.0297552 0.317833 0.348399
408 4 0.0383745 0.309027 0.370156
347 4 0.0768988 0.340258 0.384938
275 4 0.145643 0.303966 0.344748
617 4 0.130516 0.313174 0.350316
274 2 0.167615 0.29704 0.354467
616 2 0.110285 0.3221 0.361987
276 4 0.189587 0.290114 0.364186
374 4 0.217489 0.279281 0.418263
373 2 0.200495 0.282037 0.400131
375 4 0.183501 0.284792 0.381999
615 4 0.408818 0.319133 0.33922
267 4 0.354127 0.279135 0.401083
468 4 0.357395 0.259537 0.406732
752 4 0.489778 0.32518 0.352425
346 2 0.0634428 0.342221 0.40592
618 4 0.0900533 0.331026 0.373658
433 2 0.209854 0.346486 0.343606
434 4 0.21275 0.36631 0.358567
502 2 0.31448 0.419553 0.400167
613 2 0.428106 0.333135 0.346778
614 4 0.447394 0.347136 0.354336
775 2 0.0585573 0.416125 0.336957
776 4 0.0821916 0.424183 0.338248
414 4 0.0817587 0.443693 0.342426
413 4 0.111442 0.483609 0.337291
412 2 0.0966006 0.463651 0.339858
503 4 0.326604 0.436826 0.386757
669 4 0.327943 0.455671 0.389651
667 2 0.328149 0.472985 0.407688
437 4 0.358687 0.44146 0.324275
240 4 0.398717 0.436991 0.400353
335 4 0.391004 0.428557 0.383888
336 4 0.344132 0.445944 0.385094
334 2 0.367568 0.437251 0.384491
3990 4 0.486402 0.487595 0.350813
2236 2 0.00973478 0.0452117 0.42295
1127 4 0.0157181 0.0484384 0.460631
2237 4 0.0236381 0.0419498 0.443474
720 4 0.0285418 0.059635 0.451004
1523 4 0.0808515 0.997611 0.484929
1780 2 0.0962855 0.0107324 0.445852
368 4 0.104417 0.0324101 0.415927
1782 4 0.109969 0.0153733 0.425446
341 4 0.19335 0.0166491 0.515717
2430 4 0.190815 0.00538152 0.497569
724 2 0.296552 0.0559947 0.479769
726 4 0.294955 0.08094 0.480368
725 4 0.29815 0.0310493 0.47917
963 4 0.292182 0.0122723 0.482477
432 4 0.305611 0.0204134 0.493346
1579 2 0.389933 0.0167877 0.422572
2879 4 0.425887 0.0447851 0.496851
642 4 0.447128 0.072616 0.438502
2878 2 0.438876 0.0551293 0.478158
2880 4 0.451866 0.0654735 0.459464
718 2 0.034462 0.0829639 0.457778
719 4 0.0403821 0.106293 0.464553
939 4 0.0785185 0.131167 0.487799
1033 2 0.113273 0.120881 0.477216
1035 4 0.136297 0.127453 0.470015
261 4 0.149146 0.142684 0.470083
1034 4 0.0902478 0.114309 0.484417
259 2 0.161537 0.164362 0.468774
1182 4 0.301822 0.0922274 0.464831
1180 2 0.302786 0.0996464 0.440973
1181 4 0.303751 0.107065 0.417115
576 4 0.465268 0.123513 0.416144
640 2 0.46029 0.0935013 0.434533
641 4 0.473452 0.114386 0.430564
306 4 0.471274 0.132786 0.433099
304 2 0.469346 0.140975 0.456645
3158 4 0.456625 0.158957 0.492437
305 4 0.467418 0.149163 0.480191
694 2 0.15976 0.221147 0.47644
696 4 0.145953 0.237532 0.489326
695 4 0.173567 0.204761 0.463554
260 4 0.173929 0.186039 0.467464
472 2 0.232452 0.243339 0.428173
599 4 0.246593 0.207294 0.435721
687 4 0.237154 0.199619 0.451027
686 4 0.19069 0.195923 0.469142
685 2 0.213922 0.197771 0.460085
411 4 0.249585 0.214472 0.453428
598 2 0.252921 0.189972 0.418836
474 4 0.248396 0.226699 0.437871
409 2 0.262042 0.223512 0.473133
488 4 0.266806 0.22655 0.429528
487 2 0.286213 0.233442 0.41535
410 4 0.274498 0.232552 0.492838
466 2 0.350528 0.236348 0.413078
467 4 0.343661 0.213158 0.419424
473 4 0.216507 0.25998 0.418476
813 4 0.239584 0.304534 0.466548
811 2 0.243118 0.318118 0.487241
266 4 0.329299 0.309208 0.432387
265 2 0.341713 0.294172 0.416735
2812 2 0.0101612 0.336738 0.440274
348 4 0.0499868 0.344184 0.426903
2813 4 0.0331349 0.34593 0.436684
326 4 0.0499019 0.350869 0.445606
325 2 0.0679796 0.362505 0.458372
327 4 0.0860572 0.374141 0.471139
7 3 0.105121 0.377382 0.465941
6 1 0.116377 0.381548 0.485566
711 4 0.142493 0.413091 0.489813
8 3 0.131584 0.398705 0.481994
709 2 0.165578 0.413573 0.48022
710 4 0.188663 0.414056 0.470627
504 4 0.302356 0.40228 0.413577
1383 4 0.0575803 0.467077 0.463806
680 4 0.0553809 0.448293 0.470153
1381 2 0.0640143 0.488427 0.452495
679 2 0.0710728 0.440283 0.487895
774 4 0.202143 0.420926 0.483145
635 4 0.191843 0.433206 0.471865
636 4 0.209608 0.479283 0.463995
634 2 0.200726 0.456244 0.46793
668 4 0.328354 0.490299 0.425726
4 3 0.320544 0.494333 0.443315
586 2 0.404458 0.435891 0.477266
588 4 0.404929 0.447568 0.455162
238 2 0.407766 0.44761 0.421102
239 4 0.416815 0.458229 0.441851
1184 4 0.99247 0.0121939 0.566772
342 4 0.162262 0.0472267 0.540197
1152 4 0.148761 0.0623812 0.537395
1150 2 0.149805 0.0642152 0.562309
1151 4 0.150849 0.0660493 0.587223
340 2 0.177806 0.0319379 0.527957
430 2 0.321794 0.00938495 0.508892
841 2 0.363907 0.0243352 0.548405
842 4 0.377116 0.0387027 0.564034
1216 2 0.410956 0.0107124 0.570545
1217 4 0.392231 0.0264796 0.56545
843 4 0.350698 0.00996768 0.532776
3007 2 0.499821 0.0734596 0.587147
879 4 0.0486844 0.157153 0.528785
877 2 0.0237214 0.157165 0.530209
878 4 0.998758 0.157177 0.531633
938 4 0.0642768 0.165898 0.520839
937 2 0.0713977 0.148533 0.504319
3159 4 0.463182 0.131789 0.533905
3157 2 0.459903 0.145373 0.513171
1062 4 0.477963 0.116583 0.531852
1060 2 0.488471 0.0939019 0.531255
1272 4 0.0665259 0.157642 0.538217
1270 2 0.0728121 0.175618 0.55442
1199 4 0.996858 0.171348 0.545416
1271 4 0.0790982 0.193594 0.570622
1258 2 0.127593 0.230307 0.525088
1259 4 0.115357 0.216714 0.542137
1260 4 0.139829 0.2439 0.508038
898 2 0.290779 0.214961 0.527443
899 4 0.301408 0.198043 0.542477
857 4 0.311872 0.182595 0.548446
856 2 0.298851 0.180686 0.569706
791 4 0.32069 0.199458 0.544336
900 4 0.280151 0.231878 0.512409
790 2 0.340461 0.212196 0.552824
792 4 0.360231 0.224935 0.561311
872 4 0.372296 0.238066 0.554011
1238 4 0.358278 0.243795 0.565802
651 4 0.292685 0.319699 0.556149
812 4 0.246652 0.331701 0.507934
806 4 0.295638 0.325174 0.57557
805 2 0.311963 0.308708 0.584926
807 4 0.328289 0.292243 0.594283
871 2 0.376554 0.249764 0.532327
1237 2 0.350788 0.26164 0.581633
873 4 0.380813 0.261463 0.510643
1135 2 0.130444 0.380194 0.560919
1136 4 0.12001 0.373073 0.539341
897 4 0.160382 0.384444 0.576495
10 3 0.127339 0.362677 0.492077
9 3 0.101047 0.387806 0.501821
773 4 0.228225 0.413122 0.525092
1189 2 0.228143 0.407144 0.561691
1190 4 0.238388 0.40432 0.539058
803 4 0.239509 0.398072 0.520653
1191 4 0.217898 0.409968 0.584324
802 2 0.245251 0.373987 0.517174
649 2 0.276803 0.327513 0.538489
930 4 0.247936 0.415028 0.525266
650 4 0.260921 0.335327 0.520829
804 4 0.250993 0.349902 0.513695
925 2 0.425335 0.401315 0.518101
927 4 0.428394 0.379855 0.530562
539 4 0.077208 0.485248 0.502892
1161 4 0.162921 0.485307 0.561562
681 4 0.0867647 0.432272 0.505637
383 4 0.100255 0.446537 0.511611
382 2 0.121871 0.434137 0.509572
384 4 0.143487 0.421736 0.507532
569 4 0.153737 0.433028 0.518826
568 2 0.172797 0.444482 0.53026
570 4 0.191856 0.455935 0.541693
1159 2 0.177225 0.485156 0.58207
772 2 0.215184 0.417024 0.504119
928 2 0.269787 0.426187 0.530079
929 4 0.291639 0.437347 0.534893
1951 2 0.297292 0.478473 0.531255
1953 4 0.300786 0.453968 0.534784
1952 4 0.293797 0.502979 0.527727
926 4 0.422276 0.422775 0.505639
663 4 0.411657 0.43726 0.511694
587 4 0.403987 0.424214 0.499371
1001 4 0.422293 0.482715 0.561755
661 2 0.416777 0.455719 0.527763
662 4 0.421897 0.474178 0.543833
1911 4 0.427704 0.463825 0.559259
1332 4 0.438613 0.478683 0.551864
1330 2 0.45727 0.492114 0.54203
2375 4 0.155539 0.00246778 0.620742
1155 4 0.15788 0.0819998 0.595829
1058 4 0.168617 0.0175523 0.619403
1059 4 0.159269 0.0645324 0.605044
1057 2 0.163943 0.0410423 0.612224
949 2 0.274361 0.0183772 0.631001
951 4 0.284972 0.0398534 0.638168
1031 4 0.278501 0.0416101 0.657432
43 3 0.446312 0.0504079 0.656732
808 2 0.484756 0.0849925 0.643223
810 4 0.481004 0.0752909 0.66596
1154 4 0.150163 0.130906 0.602855
1221 4 0.16533 0.145618 0.599537
1153 2 0.154021 0.106453 0.599342
1219 2 0.181436 0.162892 0.607744
809 4 0.488509 0.0946942 0.620486
3008 4 0.493423 0.0926661 0.601823
1245 4 0.0855504 0.182966 0.629643
1244 4 0.0968135 0.18935 0.58134
1243 2 0.091182 0.186158 0.605491
1209 4 0.100295 0.185051 0.643043
1210 2 0.232194 0.177501 0.633132
1212 4 0.217038 0.18126 0.613603
1220 4 0.197543 0.180166 0.615951
797 4 0.192396 0.234692 0.593983
796 2 0.19945 0.215281 0.608077
798 4 0.206503 0.19587 0.622171
1211 4 0.247349 0.173741 0.65266
858 4 0.28583 0.178776 0.590967
1193 4 0.418643 0.213378 0.662609
3121 2 0.468127 0.219983 0.642544
3122 4 0.479736 0.202647 0.656323
3357 4 0.487546 0.188832 0.644842
3355 2 0.499045 0.172008 0.65933
3123 4 0.456517 0.237319 0.628765
983 4 0.0116778 0.293107 0.631889
982 2 0.026381 0.310726 0.641816
984 4 0.0410842 0.328346 0.651743
3263 4 0.0502899 0.328283 0.66912
1239 4 0.343297 0.279485 0.597464
906 4 0.454931 0.300425 0.615313
905 4 0.465718 0.254899 0.632969
904 2 0.460324 0.277662 0.624141
953 4 0.458423 0.318644 0.61171
1041 4 0.0475864 0.344954 0.659729
1039 2 0.0553161 0.3599 0.641235
1040 4 0.0630458 0.374846 0.62274
993 4 0.0563009 0.390523 0.612596
991 2 0.0457747 0.413195 0.611991
1137 4 0.140877 0.387315 0.582497
895 2 0.181449 0.394175 0.585805
896 4 0.202516 0.403906 0.595115
1028 4 0.200416 0.388409 0.660161
1027 2 0.201311 0.398069 0.637116
1029 4 0.202206 0.40773 0.614072
1172 4 0.212608 0.418922 0.600993
952 2 0.47919 0.330492 0.604392
1206 4 0.489166 0.411842 0.618838
992 4 0.0352484 0.435867 0.611387
1160 4 0.191528 0.485005 0.602578
1171 2 0.205068 0.442747 0.601847
1173 4 0.197528 0.466571 0.6027
1187 4 0.197949 0.476697 0.619116
1186 2 0.193173 0.478548 0.64359
1188 4 0.188396 0.480399 0.668063
1909 2 0.432608 0.453774 0.581621
1268 4 0.440392 0.491685 0.647001
1267 2 0.435539 0.470547 0.634559
2168 4 0.455498 0.491787 0.661132
1204 2 0.468181 0.425422 0.619467
1910 4 0.437513 0.443723 0.603984
1269 4 0.430685 0.449409 0.622118
1205 4 0.447197 0.439003 0.620096
1284 4 0.0879049 0.0566415 0.701109
1282 2 0.102575 0.075641 0.694111
2047 2 0.151005 0.00252344 0.744824
2256 4 0.193499 0.0108822 0.738548
2049 4 0.174384 0.0110881 0.742526
1201 2 0.184314 0.0477308 0.723396
1202 4 0.183438 0.0276975 0.738332
1203 4 0.185191 0.0677642 0.70846
1030 2 0.294654 0.0567978 0.66899
1032 4 0.310807 0.0719854 0.680548
1005 4 0.336414 0.0129779 0.711013
1003 2 0.341828 0.00673526 0.687415
45 3 0.447911 0.04008 0.692904
41 1 0.451001 0.0573412 0.678373
1162 2 0.507344 0.0556378 0.689749
1163 4 0.490711 0.0728975 0.682634
44 3 0.472875 0.0649726 0.679682
42 3 0.436777 0.0745495 0.683915
1077 4 0.039595 0.0963967 0.738428
1075 2 0.0177609 0.0894769 0.7284
864 4 0.0556428 0.106748 0.745164
909 4 0.10441 0.154425 0.6956
907 2 0.11554 0.132041 0.695093
908 4 0.126669 0.109656 0.694585
1283 4 0.117246 0.0946405 0.687113
1227 4 0.136531 0.0933438 0.689084
1225 2 0.159618 0.0904652 0.698242
851 4 0.0907528 0.164725 0.705414
1148 4 0.200328 0.0791034 0.7073
1226 4 0.182705 0.0875867 0.7074
1147 2 0.216441 0.0926056 0.720837
1149 4 0.232554 0.106108 0.734374
829 2 0.325065 0.150932 0.705068
830 4 0.301853 0.158847 0.709937
831 4 0.348278 0.143016 0.700199
1142 4 0.360555 0.156729 0.707099
1141 2 0.383243 0.16679 0.710127
1025 4 0.460659 0.135784 0.718869
3424 2 0.474498 0.104076 0.696318
3426 4 0.47477 0.0841527 0.681213
3425 4 0.474226 0.123999 0.711424
3269 4 0.477044 0.133071 0.728734
1024 2 0.442528 0.152858 0.716654
3268 2 0.487108 0.146451 0.747305
845 4 0.437692 0.11335 0.748065
852 4 0.0518444 0.183712 0.730442
1214 4 0.0330002 0.183394 0.726145
850 2 0.0712986 0.174218 0.717928
1213 2 0.0107362 0.191327 0.734303
1208 4 0.101542 0.17356 0.691696
1207 2 0.100919 0.179305 0.66737
1107 4 0.109575 0.167992 0.708469
1105 2 0.129798 0.179621 0.717467
1106 4 0.150022 0.19125 0.726465
1130 4 0.16217 0.198832 0.740607
888 4 0.254294 0.177076 0.672141
887 4 0.286311 0.170863 0.710049
978 4 0.29448 0.165565 0.726808
886 2 0.270303 0.173969 0.691095
976 2 0.294832 0.185892 0.741363
916 2 0.293999 0.242038 0.739445
1143 4 0.405932 0.176852 0.713156
1192 2 0.419033 0.198473 0.68268
1194 4 0.419423 0.183568 0.702752
1262 4 0.419488 0.187437 0.722099
1261 2 0.425504 0.195282 0.745065
1026 4 0.424396 0.169932 0.714439
3262 2 0.0663405 0.327168 0.688259
3264 4 0.082391 0.326054 0.707398
893 4 0.0778969 0.327141 0.725469
779 4 0.0950277 0.319217 0.719996
778 2 0.101022 0.298533 0.732702
780 4 0.107016 0.277849 0.745407
1065 4 0.206322 0.306898 0.694149
1063 2 0.230715 0.302362 0.691052
1064 4 0.255108 0.297825 0.687955
947 4 0.306444 0.277932 0.715514
946 2 0.289528 0.283628 0.698004
948 4 0.272612 0.289323 0.680494
917 4 0.301683 0.260599 0.724558
1008 4 0.48261 0.293576 0.712737
1006 2 0.471155 0.28555 0.733462
1007 4 0.459701 0.277523 0.754188
892 2 0.0680952 0.342841 0.742281
1067 4 0.163595 0.38001 0.711775
940 2 0.140443 0.386578 0.749681
941 4 0.151926 0.383661 0.727663
1066 2 0.173851 0.388841 0.690751
1068 4 0.184106 0.397673 0.669727
1176 4 0.145533 0.462939 0.716452
1174 2 0.157949 0.46948 0.695758
1175 4 0.170365 0.476021 0.675064
1139 4 0.298385 0.476639 0.698325
1138 2 0.311149 0.46404 0.715747
1140 4 0.323914 0.451442 0.73317
1229 4 0.327822 0.432041 0.734848
1989 4 0.334553 0.444979 0.747734
1100 4 0.391051 0.426569 0.732769
1228 2 0.35148 0.426523 0.728927
1230 4 0.375138 0.421006 0.723007
1099 2 0.407626 0.443853 0.72558
1101 4 0.424201 0.461138 0.718392
3330 4 0.443565 0.457343 0.719816
3328 2 0.460224 0.44591 0.705087
1251 4 0.435225 0.470082 0.73165
3329 4 0.476882 0.434477 0.690358
785 4 0.0259032 0.0730017 0.827799
980 4 0.43122 0.00241894 0.812529
2321 4 0.443652 0.0108296 0.799894
2322 4 0.446025 0.053763 0.774363
2320 2 0.444838 0.0322963 0.787129
846 4 0.454296 0.069439 0.765293
862 2 0.0600545 0.112365 0.769126
863 4 0.0644662 0.117981 0.793088
833 4 0.0684226 0.115707 0.811903
1125 4 0.0626303 0.132868 0.805974
1123 2 0.0756873 0.149876 0.818835
832 2 0.0570213 0.0954372 0.821087
911 4 0.117291 0.0879047 0.830216
1257 4 0.240714 0.107542 0.752392
1255 2 0.233879 0.120969 0.772346
921 4 0.2163 0.144123 0.806274
919 2 0.200265 0.159366 0.817925
840 4 0.235132 0.140345 0.80869
1256 4 0.227044 0.134397 0.7923
838 2 0.248097 0.138116 0.829953
1113 4 0.358729 0.0663064 0.79617
1111 2 0.358598 0.0855202 0.81217
844 2 0.445994 0.0913947 0.756679
3270 4 0.497172 0.159832 0.765875
1129 2 0.166989 0.211923 0.761357
1131 4 0.171808 0.225014 0.782108
1277 4 0.166531 0.222239 0.800718
1124 4 0.0887442 0.166884 0.831697
1276 2 0.171382 0.206191 0.819268
920 4 0.184231 0.174609 0.829575
822 4 0.182887 0.231461 0.797412
977 4 0.295184 0.20622 0.755918
918 4 0.286316 0.223477 0.754332
1298 4 0.291272 0.216372 0.771585
1297 2 0.304528 0.207434 0.790808
1299 4 0.317785 0.198496 0.810032
1086 4 0.331925 0.203724 0.822922
50 3 0.399708 0.191433 0.794283
46 1 0.421345 0.197989 0.797019
49 3 0.42287 0.221093 0.795504
1043 4 0.436918 0.217804 0.779748
48 3 0.429228 0.190866 0.817647
47 3 0.434262 0.188583 0.780471
1263 4 0.43152 0.203127 0.768031
1146 4 0.491022 0.176135 0.773354
1145 4 0.44823 0.201509 0.778423
1144 2 0.469626 0.188822 0.775889
1042 2 0.447233 0.239056 0.771556
1022 4 0.434311 0.184276 0.835531
3187 2 0.995731 0.277486 0.792031
3188 4 0.998124 0.254508 0.782466
3189 4 0.993338 0.300463 0.801596
821 4 0.188588 0.281141 0.797799
820 2 0.185738 0.256301 0.797605
1098 4 0.252543 0.340251 0.814261
1044 4 0.457547 0.260309 0.763364
1165 2 0.489633 0.273658 0.786225
1166 4 0.472712 0.272336 0.767865
3275 4 0.0128932 0.351471 0.800379
894 4 0.0582934 0.35854 0.759093
3276 4 0.0577473 0.355957 0.778729
3274 2 0.0353203 0.353714 0.789554
816 4 0.0724167 0.366127 0.770869
814 2 0.0943132 0.375809 0.778077
942 4 0.128959 0.389494 0.771699
815 4 0.11621 0.385492 0.785286
1080 4 0.134441 0.389111 0.791044
1078 2 0.150574 0.390988 0.810054
1079 4 0.166707 0.392866 0.829064
1121 4 0.171492 0.412277 0.835604
1236 4 0.260551 0.355273 0.751458
1235 4 0.249872 0.334813 0.795821
1234 2 0.255211 0.345043 0.77364
1020 4 0.393886 0.398819 0.786286