ITEM: TIMESTEP
890000
ITEM: NUMBER OF ATOMS
4590
ITEM: BOX BOUNDS pp pp pp
-9.9985700000000008e+00 9.9985700000000008e+00
-9.9985700000000008e+00 9.9985700000000008e+00
-9.9985700000000008e+00 9.9985700000000008e+00
ITEM: ATOMS id type xs ys zs
463 2 0.0332719 0.0665061 0.0313149
464 4 0.0132377 0.0542 0.0228079
701 4 0.0724471 0.0807805 0.0449168
2576 4 0.0123244 0.0413396 0.0866094
465 4 0.0533061 0.0788123 0.0398218
567 4 0.166052 0.0682462 0.060035
1668 4 0.0969933 0.0209386 0.0691294
491 4 0.267483 0.0138372 0.0382708
2264 4 0.289479 0.0231772 0.0158185
558 4 0.355239 0.0533714 0.0300606
556 2 0.350914 0.0496101 0.0543982
557 4 0.346588 0.0458488 0.0787358
745 2 0.469603 0.0417165 0.00890629
746 4 0.480678 0.0316629 0.028942
2469 4 0.499188 0.0233746 0.0314847
589 2 0.0104048 0.141441 0.0748897
590 4 0.0318835 0.137063 0.0628618
423 4 0.0892904 0.11761 0.013936
554 4 0.0569423 0.16534 0.0180688
421 2 0.100081 0.139684 0.01857
700 2 0.0953115 0.0907635 0.0432614
702 4 0.118176 0.100746 0.0416059
566 4 0.127734 0.100376 0.0603159
565 2 0.146893 0.0843114 0.0601754
422 4 0.110871 0.161758 0.0232039
360 4 0.239906 0.151489 0.994969
358 2 0.260801 0.141624 0.00452062
359 4 0.281697 0.131759 0.0140719
828 4 0.435002 0.134228 0.00391706
553 2 0.058832 0.189575 0.0122148
836 4 0.07782 0.224831 0.00430514
555 4 0.0607218 0.21381 0.00636072
835 2 0.101523 0.229519 0.0107387
837 4 0.125225 0.234207 0.0171722
915 4 0.136751 0.249303 0.00670484
666 4 0.31851 0.228008 0.0314865
664 2 0.317116 0.211267 0.0129673
573 4 0.321956 0.246489 0.0362463
461 4 0.326224 0.231782 0.048942
460 2 0.328472 0.222455 0.0720318
1069 2 0.407287 0.252542 0.0265464
1013 4 0.487099 0.173735 0.0302293
1012 2 0.487373 0.19492 0.0435066
1070 4 0.409741 0.252583 0.00166366
2808 4 0.998057 0.292449 0.021563
292 2 0.11455 0.297608 0.064231
293 4 0.127598 0.298057 0.0855551
294 4 0.101502 0.29716 0.0429069
507 4 0.14843 0.296962 0.0840124
505 2 0.17183 0.291097 0.0774377
481 2 0.225853 0.317482 0.0708848
506 4 0.195229 0.285231 0.070863
483 4 0.207043 0.301008 0.0708635
357 4 0.256461 0.314923 0.000248507
355 2 0.260468 0.295421 0.0153747
571 2 0.303207 0.262879 0.0340064
356 4 0.264476 0.27592 0.0305008
572 4 0.284458 0.279269 0.0317666
957 4 0.376457 0.302347 0.0140583
1071 4 0.404832 0.2525 0.0514292
324 4 0.418219 0.266894 0.0565414
322 2 0.429273 0.288891 0.0609081
519 4 0.479732 0.27076 0.0874437
672 4 0.452374 0.319679 0.0799829
323 4 0.440328 0.310889 0.0652748
455 4 0.122248 0.368792 0.0744416
482 4 0.244662 0.333955 0.070906
609 4 0.25063 0.353014 0.06942
252 4 0.285336 0.395136 0.0530625
608 4 0.277236 0.382839 0.0393654
607 2 0.263933 0.367926 0.0543927
741 4 0.360187 0.330215 0.0918681
670 2 0.461783 0.339276 0.06763
671 4 0.471193 0.358873 0.055277
281 4 0.485165 0.361283 0.0419318
280 2 0.494809 0.383902 0.0464648
551 4 0.0791202 0.430513 0.0465663
550 2 0.0891707 0.449779 0.0589345
552 4 0.0992212 0.469045 0.0713027
1787 4 0.0942491 0.487479 0.0684648
242 4 0.110694 0.484548 0.0777345
245 4 0.242311 0.46024 0.0703439
250 2 0.283116 0.419656 0.0487024
244 2 0.256383 0.477364 0.0587704
251 4 0.280896 0.444176 0.0443423
271 2 0.280475 0.482208 0.00679469
246 4 0.270454 0.494488 0.047197
272 4 0.277819 0.494043 0.0286592
525 4 0.361523 0.489449 0.0706542
523 2 0.35921 0.468277 0.0837542
226 2 0.488514 0.455993 0.0795808
16 1 0.0464302 0.0727394 0.159664
17 3 0.0676751 0.0815291 0.158925
18 3 0.047361 0.0516721 0.169344
1804 2 0.0697615 0.000724928 0.141809
20 3 0.0382083 0.0712014 0.138482
1667 4 0.08758 0.991872 0.108718
1805 4 0.0732339 0.0022703 0.117096
1666 2 0.0922867 0.00640531 0.0889236
448 2 0.18757 0.0791878 0.162321
450 4 0.188796 0.0553719 0.169836
652 2 0.315425 0.01571 0.13543
653 4 0.307473 0.0388157 0.130131
296 4 0.361298 0.0453201 0.0922682
295 2 0.370578 0.0257181 0.104711
297 4 0.379858 0.00611618 0.117154
485 4 0.387765 0.9967 0.133474
19 3 0.0329683 0.0867151 0.172386
579 4 0.0855641 0.110377 0.167571
237 4 0.130683 0.127959 0.15464
235 2 0.155288 0.124358 0.157251
236 4 0.179893 0.120756 0.159862
693 4 0.19749 0.118823 0.151832
449 4 0.186345 0.103004 0.154805
285 4 0.257844 0.173292 0.14014
691 2 0.217099 0.125361 0.165901
283 2 0.270718 0.155685 0.152365
284 4 0.283591 0.138077 0.16459
770 4 0.42242 0.150723 0.091958
312 4 0.457336 0.141125 0.159043
337 2 0.0464485 0.21997 0.153343
339 4 0.0222059 0.225761 0.151359
338 4 0.0706911 0.214179 0.155328
476 4 0.13058 0.189958 0.130274
475 2 0.109782 0.200455 0.139354
477 4 0.0889839 0.210951 0.148433
737 4 0.149505 0.192408 0.132439
738 4 0.181731 0.228283 0.119203
736 2 0.165618 0.210345 0.125821
462 4 0.33072 0.213128 0.0951216
254 4 0.380524 0.202204 0.122525
255 4 0.333007 0.215398 0.11423
253 2 0.356766 0.208801 0.118377
630 4 0.394637 0.214596 0.131622
628 2 0.40877 0.232602 0.141681
769 2 0.436607 0.170125 0.085068
771 4 0.450795 0.189526 0.078178
2895 4 0.488294 0.244386 0.139201
518 4 0.47056 0.255405 0.134143
354 4 0.31891 0.254826 0.113416
352 2 0.30973 0.272601 0.128414
353 4 0.30055 0.290377 0.143412
754 2 0.291744 0.330625 0.146481
755 4 0.299383 0.307584 0.152478
278 4 0.29453 0.291078 0.161571
629 4 0.422904 0.250609 0.15174
517 2 0.475146 0.263083 0.110793
620 4 0.0187832 0.355282 0.0827474
647 4 0.0288889 0.372174 0.0837226
646 2 0.046808 0.367864 0.10062
648 4 0.0647272 0.363554 0.117517
456 4 0.0770191 0.355749 0.0913228
454 2 0.0996334 0.36227 0.0828822
537 4 0.213362 0.381945 0.14869
535 2 0.193709 0.372431 0.136506
536 4 0.174056 0.362918 0.124322
611 4 0.231654 0.390761 0.149235
756 4 0.284106 0.353665 0.140484
612 4 0.270583 0.359661 0.153483
610 2 0.251119 0.375211 0.151359
387 4 0.333736 0.397613 0.159166
302 4 0.326403 0.413949 0.166462
739 2 0.366935 0.346487 0.109613
740 4 0.373682 0.362759 0.127357
15 3 0.380888 0.369881 0.144053
385 2 0.348788 0.379234 0.151369
386 4 0.363841 0.360854 0.143573
11 1 0.403277 0.367351 0.147371
14 3 0.41326 0.388109 0.150176
495 4 0.399186 0.400869 0.143335
12 3 0.412544 0.357064 0.129001
13 3 0.407067 0.354147 0.16607
645 4 0.466256 0.405075 0.16291
2651 4 0.500722 0.37082 0.102661
1467 4 0.0122463 0.466857 0.11479
1465 2 0.0276393 0.485377 0.121515
1791 4 0.0594897 0.50932 0.116463
241 2 0.13384 0.492354 0.0830763
243 4 0.156985 0.500161 0.088418
625 2 0.212982 0.45891 0.0895358
626 4 0.188001 0.459322 0.0885803
627 4 0.237964 0.458498 0.0904912
767 4 0.266544 0.498211 0.163981
524 4 0.356898 0.447106 0.0968541
493 2 0.401051 0.4257 0.141067
660 4 0.397279 0.469811 0.137151
494 4 0.402915 0.450531 0.138798
1673 4 0.413243 0.500297 0.081182
658 2 0.413005 0.48304 0.151394
228 4 0.469582 0.441897 0.0878297
1806 4 0.0662892 0.99918 0.166522
2480 4 0.0131168 0.0212423 0.185304
1422 4 0.00516868 0.0036082 0.183149
673 2 0.132185 0.0727123 0.213935
674 4 0.126809 0.0613258 0.235536
1506 4 0.193833 0.00857037 0.198747
1504 2 0.183869 0.0300042 0.190594
1505 4 0.173905 0.051438 0.18244
689 4 0.193873 0.00621393 0.218037
758 4 0.398604 0.085372 0.193601
21 1 0.394369 0.0227622 0.242836
25 3 0.405526 0.0424887 0.240589
759 4 0.405186 0.044145 0.221128
757 2 0.401895 0.0647585 0.207364
22 3 0.38064 0.0197067 0.224633
24 3 0.409487 0.00518923 0.243863
744 4 0.462232 0.0185566 0.243863
351 4 0.467106 0.035203 0.234574
349 2 0.451587 0.0540772 0.229276
350 4 0.436067 0.0729515 0.223977
742 2 0.483133 0.0175542 0.257549
380 4 0.0259055 0.0878154 0.192004
512 4 0.032121 0.155178 0.198447
379 2 0.0277715 0.112121 0.197567
381 4 0.0296374 0.136426 0.20313
675 4 0.13756 0.0840989 0.192333
577 2 0.0831725 0.131834 0.180182
578 4 0.0807808 0.153292 0.192792
692 4 0.236707 0.131899 0.17997
723 4 0.196241 0.144739 0.206026
721 2 0.187054 0.159062 0.224346
582 4 0.256605 0.125999 0.181226
28 3 0.332829 0.0966448 0.238193
580 2 0.275724 0.11639 0.194161
581 4 0.294843 0.106781 0.207096
30 3 0.297061 0.101346 0.227416
26 1 0.311876 0.104414 0.244437
27 3 0.313388 0.126866 0.249211
310 2 0.445459 0.137455 0.180737
311 4 0.433582 0.133785 0.202431
511 2 0.0471583 0.16157 0.217373
513 4 0.0621956 0.167961 0.236299
363 4 0.0859881 0.217737 0.167001
362 4 0.109693 0.217707 0.211033
361 2 0.0978404 0.217722 0.189017
372 4 0.12559 0.230032 0.210829
370 2 0.149721 0.223563 0.2098
545 4 0.11671 0.173109 0.247552
722 4 0.177868 0.173386 0.242667
371 4 0.173851 0.217095 0.208771
765 4 0.365972 0.217242 0.176778
763 2 0.36848 0.241924 0.179885
520 2 0.489992 0.197035 0.227827
521 4 0.471785 0.211972 0.236226
395 4 0.0493954 0.273674 0.22543
750 4 0.0680478 0.275674 0.220373
748 2 0.0724937 0.29641 0.207128
749 4 0.0769396 0.317146 0.193883
394 2 0.0312003 0.279478 0.241568
308 4 0.32474 0.241341 0.229406
279 4 0.266057 0.262287 0.190916
277 2 0.280293 0.276683 0.176243
307 2 0.325777 0.257079 0.210005
309 4 0.326813 0.272818 0.190604
764 4 0.370989 0.266607 0.182991
623 4 0.379553 0.285124 0.179011
622 2 0.404541 0.28504 0.179893
624 4 0.429529 0.284955 0.180775
528 4 0.439824 0.300538 0.187774
527 4 0.484879 0.281189 0.177957
526 2 0.462352 0.290864 0.182866
262 2 0.0671579 0.404157 0.220052
264 4 0.0556431 0.397356 0.198925
263 4 0.0786726 0.410959 0.241178
300 4 0.143021 0.335648 0.230318
298 2 0.147319 0.357393 0.241887
290 4 0.214588 0.390551 0.226298
301 2 0.302529 0.411801 0.173575
303 4 0.278655 0.409652 0.180688
643 2 0.470601 0.3839 0.175476
644 4 0.474945 0.362724 0.188042
447 4 0.478141 0.349586 0.203602
445 2 0.492394 0.358676 0.222026
446 4 0.506646 0.367765 0.240449
417 4 0.187054 0.487674 0.197188
415 2 0.18703 0.46316 0.202111
289 2 0.204267 0.4133 0.22522
291 4 0.193946 0.436048 0.224141
416 4 0.187005 0.438646 0.207033
766 2 0.267151 0.474075 0.170483
768 4 0.267758 0.449939 0.176985
712 2 0.380485 0.499142 0.243783
597 4 0.456132 0.421926 0.165071
595 2 0.461877 0.444207 0.174853
596 4 0.467623 0.466489 0.184635
1568 4 0.462758 0.485736 0.191658
2860 2 0.467508 0.435205 0.24786
2861 4 0.468845 0.45207 0.229449
1404 4 0.0836446 0.0188836 0.284086
1798 2 0.0187788 0.0163764 0.336425
1799 4 0.024231 0.0293429 0.315753
233 4 0.0249805 0.0229507 0.297117
1402 2 0.0619863 0.0197445 0.296551
1403 4 0.040328 0.0206054 0.309015
232 2 0.0118664 0.0381626 0.282224
1699 2 0.211521 0.0705001 0.313545
1701 4 0.199121 0.049929 0.32049
23 3 0.381371 0.0231622 0.262052
1516 2 0.394517 0.00364402 0.300185
697 2 0.401294 0.0566727 0.316716
699 4 0.41053 0.0429427 0.297972
1518 4 0.395606 0.0283382 0.296418
743 4 0.504035 0.0165519 0.271235
478 2 0.473141 0.038008 0.316265
479 4 0.488256 0.018491 0.312289
480 4 0.458027 0.057525 0.320242
398 4 0.0957877 0.146782 0.31771
1700 4 0.223921 0.0910713 0.306599
248 4 0.232111 0.109462 0.311102
249 4 0.194722 0.142207 0.316634
247 2 0.213417 0.125834 0.313868
29 3 0.304591 0.0931887 0.263393
333 4 0.453551 0.118358 0.324146
331 2 0.457499 0.138399 0.309725
393 4 0.0787474 0.205819 0.293086
544 2 0.141202 0.170373 0.251771
392 4 0.11074 0.188081 0.25899
391 2 0.0947436 0.19695 0.276038
546 4 0.165695 0.167636 0.25599
404 4 0.201199 0.159542 0.306575
403 2 0.192165 0.1661 0.284202
405 4 0.18313 0.172658 0.261829
378 4 0.290412 0.209352 0.326642
376 2 0.312612 0.208343 0.338103
420 4 0.420124 0.22102 0.324398
332 4 0.461446 0.15844 0.295305
418 2 0.417301 0.19622 0.322938
419 4 0.414477 0.171419 0.321478
760 2 0.484221 0.18483 0.297615
762 4 0.46361 0.173715 0.30638
444 4 0.00503402 0.250492 0.316292
396 4 0.0130051 0.285281 0.257706
442 2 0.00844751 0.261369 0.294039
443 4 0.011861 0.272247 0.271785
364 2 0.0105604 0.315089 0.280344
365 4 0.0101981 0.290398 0.276419
401 4 0.185085 0.259881 0.286061
345 4 0.233139 0.293486 0.305434
400 2 0.200103 0.274956 0.299189
402 4 0.215122 0.290032 0.312318
510 4 0.221934 0.307706 0.310255
508 2 0.214512 0.329972 0.318876
343 2 0.25605 0.299155 0.29718
344 4 0.278961 0.304824 0.288926
498 4 0.396053 0.285851 0.282335
496 2 0.373542 0.278723 0.274113
497 4 0.35103 0.271595 0.265891
541 2 0.419682 0.311346 0.316
542 4 0.433167 0.290513 0.319051
366 4 0.0109228 0.33978 0.28427
2493 4 0.998337 0.34895 0.29765
603 4 0.135995 0.391664 0.255203
602 4 0.0902343 0.411652 0.25787
299 4 0.151617 0.379138 0.253457
601 2 0.113115 0.401658 0.256536
734 4 0.146197 0.386096 0.270868
733 2 0.161422 0.391744 0.289881
735 4 0.176647 0.397392 0.308894
677 4 0.194347 0.406828 0.313756
676 2 0.206124 0.387206 0.323828
435 4 0.237858 0.366761 0.336266
678 4 0.217902 0.367584 0.3339
727 2 0.314225 0.385724 0.289241
728 4 0.291827 0.374688 0.29055
543 4 0.406197 0.33218 0.31295
729 4 0.336623 0.39676 0.287931
615 4 0.392948 0.345139 0.30389
613 2 0.393807 0.364224 0.320021
2538 4 0.486018 0.394996 0.321151
2536 2 0.482284 0.409289 0.300978
549 4 0.036728 0.42749 0.314891
777 4 0.0938156 0.429542 0.308159
775 2 0.11467 0.442155 0.313742
776 4 0.135525 0.454768 0.319325
414 4 0.136638 0.474775 0.321253
412 2 0.153085 0.485545 0.336704
437 4 0.241879 0.452702 0.289669
438 4 0.273238 0.416596 0.275051
436 2 0.257558 0.434649 0.28236
713 4 0.366834 0.482443 0.256431
2537 4 0.478551 0.423581 0.280805
2862 4 0.466172 0.41834 0.266271
593 4 0.429418 0.472014 0.316658
1800 4 0.0133265 0.00340982 0.357096
367 2 0.0868895 0.028043 0.397227
1377 4 0.00472248 0.00357165 0.375015
1782 4 0.116808 0.00339081 0.379861
732 4 0.103117 0.0879642 0.4015
368 4 0.10523 0.0194387 0.382572
605 4 0.158439 0.0548578 0.367916
604 2 0.181348 0.0513982 0.377319
606 4 0.204256 0.0479386 0.386722
698 4 0.392057 0.0704027 0.33546
256 2 0.39845 0.0652545 0.37124
257 4 0.387926 0.0785101 0.352836
633 4 0.373927 0.0779578 0.338754
424 2 0.418279 0.0282993 0.411937
258 4 0.408975 0.0519988 0.389644
426 4 0.426367 0.0472789 0.397812
318 4 0.0299591 0.0924911 0.352153
316 2 0.042161 0.113591 0.346576
317 4 0.0543629 0.13469 0.341
457 2 0.0169032 0.16198 0.413423
397 2 0.0963084 0.127997 0.334202
730 2 0.108162 0.0945127 0.377903
399 4 0.0968291 0.109211 0.350695
731 4 0.113207 0.101061 0.354305
600 4 0.212194 0.156471 0.35542
598 2 0.194515 0.165337 0.370717
683 4 0.26743 0.0739764 0.372964
682 2 0.269473 0.0955873 0.385372
684 4 0.271516 0.117198 0.397781
320 4 0.285794 0.11534 0.412923
632 4 0.3383 0.111999 0.347274
631 2 0.356113 0.0949785 0.343014
516 4 0.404681 0.144831 0.377344
575 4 0.386875 0.145694 0.389674
574 2 0.395826 0.14883 0.412809
451 2 0.486243 0.150122 0.36681
514 2 0.426538 0.149673 0.366208
453 4 0.461541 0.152321 0.369995
515 4 0.448395 0.154516 0.355072
459 4 0.0183161 0.185163 0.404164
2653 2 0.00705217 0.213988 0.385815
2654 4 0.0251788 0.197213 0.389713
388 2 0.108999 0.230596 0.346464
389 4 0.0895807 0.221506 0.359328
685 2 0.15816 0.20601 0.406764
686 4 0.149156 0.22808 0.414315
599 4 0.176835 0.174203 0.386015
687 4 0.167164 0.18394 0.399213
473 4 0.220008 0.199707 0.365017
472 2 0.24123 0.193556 0.37672
377 4 0.334811 0.207334 0.349563
474 4 0.262453 0.187405 0.388422
488 4 0.276207 0.196052 0.397778
487 2 0.291338 0.215382 0.393028
489 4 0.306469 0.234713 0.388278
707 4 0.344014 0.196992 0.335089
706 2 0.364274 0.184214 0.342261
708 4 0.384534 0.171436 0.349433
715 2 0.398381 0.245567 0.347927
717 4 0.405315 0.223448 0.338552
618 4 0.0728695 0.306715 0.394218
347 4 0.0765526 0.292242 0.40603
616 2 0.0778731 0.325804 0.378864
390 4 0.128417 0.239687 0.3336
275 4 0.132051 0.306915 0.392614
274 2 0.154489 0.298921 0.38501
276 4 0.176927 0.290927 0.377407
373 2 0.204543 0.276817 0.388654
374 4 0.228464 0.280819 0.394733
375 4 0.180622 0.272815 0.382576
716 4 0.391448 0.267685 0.357301
406 2 0.0452958 0.389437 0.393268
408 4 0.0491407 0.378513 0.415428
548 4 0.0359596 0.418989 0.364164
407 4 0.0414508 0.400361 0.371108
617 4 0.0828767 0.344892 0.363509
509 4 0.207091 0.352238 0.327497
433 2 0.262303 0.361782 0.334576
434 4 0.286747 0.356803 0.332885
614 4 0.394666 0.383309 0.336152
753 4 0.48499 0.388659 0.339656
561 4 0.455776 0.360164 0.394647
752 4 0.468672 0.366364 0.381337
559 2 0.467744 0.367665 0.415279
751 2 0.476831 0.377512 0.360497
547 2 0.0363438 0.423239 0.339528
499 2 0.155256 0.487151 0.393475
501 4 0.133599 0.482256 0.404972
413 4 0.169531 0.496314 0.352154
500 4 0.176914 0.492047 0.381979
1544 4 0.18492 0.498192 0.364416
667 2 0.294916 0.44393 0.420736
668 4 0.301652 0.467396 0.415338
1 1 0.314568 0.498452 0.403067
3 3 0.322045 0.484354 0.386223
4 3 0.308189 0.485995 0.421575
594 4 0.409177 0.443052 0.352044
592 2 0.419298 0.457533 0.334351
718 2 0.0257389 0.0688628 0.453303
720 4 0.0243556 0.0476927 0.466536
2237 4 0.0302155 0.0328679 0.478071
2236 2 0.0322486 0.0112841 0.465614
1127 4 0.0300967 0.0510482 0.484805
369 4 0.0685487 0.0366473 0.411882
1522 2 0.0953947 0.0150158 0.481244
1523 4 0.11872 0.0190396 0.489299
1180 2 0.246036 0.0798685 0.466693
342 4 0.182761 0.0757001 0.498805
1182 4 0.24643 0.0596652 0.481419
726 4 0.28492 0.0393434 0.43714
724 2 0.287428 0.0422369 0.461849
725 4 0.289936 0.0451305 0.486558
963 4 0.283647 0.0329358 0.500972
1580 4 0.405728 0.00361394 0.444518
425 4 0.410191 0.00931973 0.426063
2878 2 0.458133 0.0809432 0.483455
2879 4 0.451126 0.0674616 0.503313
458 4 0.0154903 0.138797 0.422682
719 4 0.0271223 0.0900328 0.440071
1033 2 0.122405 0.156627 0.475139
1034 4 0.109154 0.141819 0.490315
1181 4 0.245641 0.100072 0.451967
411 4 0.253661 0.163397 0.444143
321 4 0.303314 0.0988785 0.456773
319 2 0.294554 0.107109 0.434848
576 4 0.404777 0.151965 0.435944
2880 4 0.46514 0.0944247 0.463597
642 4 0.470195 0.105486 0.447192
640 2 0.455699 0.124936 0.441128
641 4 0.441203 0.144386 0.435065
306 4 0.42429 0.154032 0.435722
3158 4 0.487659 0.170767 0.483118
469 2 0.00731447 0.189442 0.480144
470 4 0.0211263 0.169455 0.486056
1035 4 0.135656 0.171435 0.459963
260 4 0.102134 0.222339 0.44107
261 4 0.125265 0.178053 0.443174
259 2 0.113699 0.200196 0.442122
695 4 0.109698 0.235335 0.45397
409 2 0.269114 0.173129 0.461222
410 4 0.284566 0.182861 0.478301
468 4 0.382326 0.242596 0.424515
466 2 0.378621 0.219369 0.432997
467 4 0.374916 0.196141 0.441478
269 4 0.508713 0.247878 0.422967
305 4 0.440437 0.199628 0.448413
304 2 0.432364 0.17683 0.442068
346 2 0.0777422 0.300481 0.429607
326 4 0.086388 0.322867 0.464952
348 4 0.0789318 0.308719 0.453185
694 2 0.113327 0.256691 0.466456
1260 4 0.110678 0.276567 0.498397
696 4 0.116956 0.278048 0.478942
651 4 0.221699 0.269338 0.505
266 4 0.308531 0.248298 0.476781
811 2 0.290385 0.29881 0.491231
813 4 0.307273 0.283653 0.480733
812 4 0.273496 0.313967 0.50173
265 2 0.328463 0.253819 0.462731
267 4 0.348395 0.259339 0.44868
2456 4 0.496925 0.286959 0.47906
584 4 0.490364 0.279514 0.462095
583 2 0.470267 0.267347 0.470654
585 4 0.45017 0.25518 0.479213
935 4 0.997446 0.410873 0.484153
2812 2 0.00947685 0.365237 0.45514
325 2 0.0883996 0.344909 0.476584
2813 4 0.0340102 0.362225 0.458911
327 4 0.0904112 0.36695 0.488216
10 3 0.165672 0.336118 0.465506
7 3 0.128877 0.341088 0.469282
6 1 0.149588 0.350342 0.473096
8 3 0.150954 0.370578 0.461823
9 3 0.152182 0.353785 0.495895
711 4 0.1609 0.38546 0.473681
635 4 0.219556 0.41254 0.482128
504 4 0.237065 0.398702 0.451619
709 2 0.181928 0.396171 0.481945
710 4 0.202955 0.406882 0.49021
336 4 0.293333 0.402549 0.421631
502 2 0.255958 0.403258 0.435888
334 2 0.313157 0.388588 0.427735
503 4 0.274852 0.407814 0.420157
335 4 0.332981 0.374627 0.433839
239 4 0.396748 0.389368 0.43628
588 4 0.413025 0.392539 0.447112
586 2 0.41942 0.404151 0.468313
238 2 0.372554 0.387041 0.430413
240 4 0.348361 0.384713 0.424546
2507 4 0.49176 0.390767 0.430163
560 4 0.479711 0.375166 0.435911
1381 2 0.0451553 0.488657 0.429556
679 2 0.0561649 0.44127 0.453136
1383 4 0.0312492 0.470486 0.439636
681 4 0.0746076 0.43132 0.466776
680 4 0.0377223 0.451219 0.439495
539 4 0.0845514 0.495185 0.468939
382 2 0.113034 0.438819 0.45232
568 2 0.166956 0.473118 0.453044
383 4 0.0936697 0.428002 0.463861
569 4 0.148898 0.462328 0.439529
384 4 0.132398 0.449637 0.440779
636 4 0.218528 0.454705 0.455262
570 4 0.185015 0.483908 0.466559
634 2 0.219042 0.433622 0.468695
882 4 0.316603 0.49537 0.473601
669 4 0.28818 0.420464 0.426135
587 4 0.425814 0.415762 0.489513
663 4 0.472048 0.440059 0.497681
1126 2 0.0118125 0.0503629 0.501847
1128 4 0.993528 0.0496775 0.518888
1057 2 0.137222 0.0716496 0.575558
340 2 0.186 0.0518356 0.505527
2428 2 0.217109 0.00540076 0.514959
2430 4 0.195575 0.0106193 0.503373
1152 4 0.173641 0.0880563 0.511337
341 4 0.189239 0.0279712 0.512248
430 2 0.31595 0.0572346 0.512106
431 4 0.329879 0.0747421 0.52327
961 2 0.270643 0.0171023 0.515302
950 4 0.317257 0.0266677 0.577975
949 2 0.302897 0.0455348 0.585911
951 4 0.288536 0.0644019 0.593847
432 4 0.302021 0.0397272 0.500941
1217 4 0.38424 0.038844 0.533291
1216 2 0.39115 0.0176823 0.544676
842 4 0.379313 0.0494962 0.548649
841 2 0.360766 0.0653338 0.54314
938 4 0.106717 0.170006 0.549556
937 2 0.11103 0.156221 0.529146
1151 4 0.151117 0.103337 0.553288
1059 4 0.146691 0.0941135 0.569999
1155 4 0.160713 0.107916 0.570152
1153 2 0.164186 0.132468 0.573358
939 4 0.115342 0.142437 0.508736
1150 2 0.162379 0.0956967 0.532312
843 4 0.342219 0.0811715 0.537631
878 4 0.0390985 0.224979 0.542374
1199 4 0.0229885 0.231337 0.552233
877 2 0.0541471 0.207024 0.551109
879 4 0.0691956 0.189068 0.559844
1272 4 0.072989 0.177587 0.576837
858 4 0.253423 0.20812 0.560287
857 4 0.301673 0.202747 0.572279
856 2 0.277548 0.205434 0.566283
898 2 0.295221 0.190498 0.506871
791 4 0.304669 0.21958 0.561999
899 4 0.316651 0.197394 0.517751
790 2 0.320095 0.23917 0.563849
900 4 0.273791 0.183601 0.495991
873 4 0.381772 0.254821 0.549281
1258 2 0.124406 0.289569 0.514757
1259 4 0.138134 0.302571 0.531118
649 2 0.238615 0.287503 0.501984
1239 4 0.332272 0.318782 0.542449
804 4 0.27392 0.330262 0.513641
650 4 0.25553 0.305668 0.498969
792 4 0.335522 0.25876 0.565699
871 2 0.387943 0.272846 0.533089
1238 4 0.342575 0.277921 0.569373
1237 2 0.337423 0.298351 0.555911
872 4 0.394114 0.290871 0.516896
1011 4 0.506055 0.323897 0.569994
954 4 0.48619 0.320807 0.575423
1189 2 0.22864 0.385429 0.571104
773 4 0.238949 0.379048 0.534575
1190 4 0.243224 0.375803 0.55322
803 4 0.246406 0.361751 0.541066
772 2 0.228503 0.394623 0.518038
774 4 0.218057 0.410198 0.501501
802 2 0.260163 0.346006 0.527353
930 4 0.31109 0.357329 0.54979
928 2 0.303876 0.381146 0.552207
929 4 0.296661 0.404964 0.554623
927 4 0.409171 0.381235 0.546424
925 2 0.413021 0.393578 0.525023
926 4 0.416871 0.405921 0.503622
2243 4 0.144468 0.496112 0.558727
1161 4 0.162979 0.495412 0.554553
2242 2 0.130031 0.506903 0.541398
1159 2 0.176745 0.480719 0.569379
1160 4 0.190511 0.466027 0.584205
889 2 0.311656 0.460603 0.549119
890 4 0.324509 0.474945 0.533172
891 4 0.298803 0.446261 0.565066
1002 4 0.384703 0.469892 0.51001
1000 2 0.408683 0.471921 0.516792
1953 4 0.358451 0.499388 0.572591
1001 4 0.432664 0.47395 0.523574
662 4 0.451486 0.475624 0.526196
661 2 0.461767 0.457842 0.511939
1911 4 0.439557 0.482559 0.539693
1909 2 0.435818 0.478369 0.564058
1332 4 0.454469 0.493908 0.53252
945 4 0.0701143 0.00166351 0.660427
1058 4 0.127754 0.0491858 0.581117
943 2 0.0878887 0.0143237 0.648221
944 4 0.105663 0.0269839 0.636016
825 4 0.121817 0.0140926 0.634271
823 2 0.144508 0.00551414 0.64033
1030 2 0.25201 0.0699743 0.589143
1031 4 0.272622 0.0560001 0.586899
45 3 0.446115 0.0457169 0.670059
1081 2 0.0351662 0.118998 0.652336
3179 4 0.0345293 0.157206 0.64249
1082 4 0.0346163 0.099616 0.668123
1083 4 0.0357162 0.13838 0.63655
1154 4 0.167658 0.157021 0.576564
1282 2 0.157581 0.114462 0.652966
1284 4 0.165438 0.108183 0.630075
1032 4 0.231397 0.0839484 0.591387
1221 4 0.183543 0.157442 0.588309
808 2 0.489928 0.0886792 0.646929
810 4 0.485356 0.0817665 0.670519
1243 2 0.0687167 0.241414 0.624322
1244 4 0.0513957 0.234503 0.607666
3178 2 0.0114886 0.166875 0.643398
1270 2 0.0877515 0.18882 0.593603
1271 4 0.102514 0.200052 0.610368
1209 4 0.0992294 0.247547 0.655061
1210 2 0.223515 0.180733 0.654717
1212 4 0.20854 0.194591 0.640263
1219 2 0.192277 0.173286 0.605569
1220 4 0.201011 0.189129 0.622828
796 2 0.186343 0.226717 0.624469
798 4 0.203074 0.208332 0.62716
906 4 0.467763 0.22526 0.585156
904 2 0.470778 0.228593 0.609753
905 4 0.473793 0.231927 0.634349
3123 4 0.462332 0.234604 0.650212
3121 2 0.48433 0.237324 0.661783
983 4 0.0401458 0.315795 0.592181
982 2 0.0483024 0.322312 0.6149
3263 4 0.0672337 0.32134 0.652524
3262 2 0.0550315 0.322617 0.674311
1245 4 0.0860377 0.248324 0.640977
797 4 0.169613 0.245102 0.621778
947 4 0.194207 0.288244 0.633889
946 2 0.195784 0.275867 0.655556
952 2 0.486217 0.317844 0.60025
953 4 0.486245 0.314882 0.625078
984 4 0.056459 0.328829 0.63762
1041 4 0.0669328 0.340081 0.650044
897 4 0.152476 0.364976 0.59023
1137 4 0.139625 0.379539 0.587589
1039 2 0.0785399 0.359594 0.639571
1135 2 0.125191 0.398207 0.595856
1040 4 0.090147 0.379108 0.629099
991 2 0.0951876 0.418157 0.640412
993 4 0.0954852 0.393254 0.642635
896 4 0.196691 0.387666 0.584676
895 2 0.174583 0.376321 0.587453
1191 4 0.214056 0.395055 0.588987
1172 4 0.198697 0.406854 0.589588
1206 4 0.485035 0.404846 0.651401
3309 4 0.485641 0.38326 0.604098
992 4 0.09489 0.44306 0.63819
1136 4 0.110757 0.416875 0.604123
1173 4 0.193403 0.455404 0.60034
1171 2 0.19605 0.431129 0.594964
1188 4 0.211981 0.482778 0.646073
1187 4 0.189784 0.474906 0.601959
1186 2 0.200882 0.478842 0.624016
1204 2 0.46988 0.424425 0.647914
1910 4 0.432078 0.474179 0.588422
1205 4 0.454726 0.444005 0.644426
1269 4 0.440854 0.453997 0.632217
1267 2 0.437882 0.478597 0.635559
1226 4 0.180235 0.076453 0.716527
2254 2 0.202695 0.0168368 0.749594
2256 4 0.182594 0.027239 0.738968
1003 2 0.319886 0.0423806 0.705791
1005 4 0.306406 0.055408 0.689245
1004 4 0.333366 0.0293531 0.722336
42 3 0.439445 0.0676423 0.699516
41 1 0.447912 0.0669333 0.678139
1163 4 0.48752 0.0665556 0.682531
44 3 0.470208 0.073335 0.678686
1076 4 0.0392633 0.10808 0.68599
864 4 0.0270333 0.108923 0.748278
1075 2 0.0330797 0.102102 0.709467
1077 4 0.0268961 0.0961237 0.732945
909 4 0.0932673 0.14341 0.68372
907 2 0.114676 0.130856 0.686761
908 4 0.136084 0.118301 0.689802
1283 4 0.149725 0.120741 0.675858
1227 4 0.152336 0.10956 0.691502
851 4 0.0936293 0.154748 0.731393
1148 4 0.192969 0.0900519 0.722696
1225 2 0.166286 0.0930066 0.704015
1147 2 0.215527 0.0880986 0.733301
888 4 0.25868 0.165744 0.672332
831 4 0.367899 0.152843 0.691028
1142 4 0.377866 0.166348 0.701699
1141 2 0.400228 0.166818 0.712874
1025 4 0.476726 0.142926 0.691423
43 3 0.435801 0.0815424 0.664786
3424 2 0.487028 0.105053 0.70199
3426 4 0.483534 0.0839912 0.688975
1024 2 0.4584 0.15531 0.703084
3425 4 0.490523 0.126114 0.715004
1143 4 0.42259 0.167288 0.72405
1026 4 0.440075 0.167694 0.714745
1215 4 0.00241471 0.214017 0.72822
852 4 0.048251 0.166078 0.713696
1213 2 0.0192218 0.19551 0.727787
1214 4 0.0360289 0.177003 0.727354
850 2 0.0709402 0.160413 0.722545
1074 4 0.0839975 0.242251 0.747451
1207 2 0.0984132 0.231518 0.674233
1208 4 0.0975971 0.21549 0.693406
1106 4 0.145289 0.181095 0.741358
1105 2 0.120886 0.177645 0.737143
1107 4 0.0964833 0.174194 0.732928
1211 4 0.238489 0.166876 0.669171
822 4 0.19235 0.240159 0.745928
886 2 0.281456 0.170935 0.681246
830 4 0.319066 0.163481 0.692722
887 4 0.304233 0.176126 0.69016
976 2 0.313291 0.187395 0.72644
978 4 0.317674 0.180796 0.702724
977 4 0.308908 0.193993 0.750156
1194 4 0.320706 0.216597 0.671628
829 2 0.343482 0.158162 0.691875
1193 4 0.366332 0.233655 0.682945
1192 2 0.343519 0.225126 0.677286
1261 2 0.449642 0.197366 0.736302
1262 4 0.433004 0.183623 0.723674
1263 4 0.46628 0.21111 0.74893
1145 4 0.481388 0.218073 0.760009
3264 4 0.0428292 0.323894 0.696097
893 4 0.0252656 0.332827 0.690798
1072 2 0.0617789 0.253363 0.750284
821 4 0.158856 0.27652 0.738394
948 4 0.197361 0.263489 0.677224
820 2 0.175603 0.25834 0.742161
1064 4 0.210511 0.27568 0.686815
1065 4 0.215909 0.299342 0.730538
1063 2 0.21321 0.287511 0.708676
806 4 0.299132 0.326898 0.668945
3274 2 0.00802153 0.39825 0.740868
892 2 0.023199 0.350278 0.708585
894 4 0.0211325 0.367729 0.726371
3276 4 0.0217622 0.387511 0.72295
814 2 0.059781 0.376968 0.738957
816 4 0.0371307 0.377536 0.728383
941 4 0.13317 0.413852 0.727076
1067 4 0.151421 0.404849 0.730052
940 2 0.117493 0.397424 0.737541
1066 2 0.168121 0.413054 0.713349
1029 4 0.243527 0.418389 0.698036
1027 2 0.220178 0.418592 0.689093
1068 4 0.18482 0.421259 0.696646
805 2 0.32128 0.33833 0.666953
807 4 0.343427 0.349762 0.66496
1019 4 0.379872 0.391391 0.719212
1018 2 0.36451 0.387437 0.738538
1281 4 0.0202526 0.470203 0.700823
1983 4 0.0109234 0.485241 0.692116
1280 4 0.064545 0.478981 0.679332
1279 2 0.0423988 0.474592 0.690078
1028 4 0.19683 0.418794 0.680149
1140 4 0.262158 0.468231 0.710681
1138 2 0.263857 0.464396 0.735331
1228 2 0.398247 0.440836 0.743685
1230 4 0.408769 0.433674 0.722163
1100 4 0.426109 0.425876 0.715369
1101 4 0.467481 0.453817 0.712479
1099 2 0.446795 0.439846 0.713924
1251 4 0.476152 0.465934 0.72554
3330 4 0.485714 0.459402 0.709595
1249 2 0.474921 0.477331 0.747761
1294 2 0.00078374 0.019445 0.783053
1296 4 0.0176755 0.0244234 0.800803
1203 4 0.126139 0.0859842 0.784587
1201 2 0.132166 0.0632205 0.776181
1202 4 0.138194 0.0404569 0.767774
2049 4 0.141584 0.0204625 0.771782
2047 2 0.154 0.000521661 0.780349
1257 4 0.245831 0.0704233 0.755252
1255 2 0.264977 0.0746382 0.770771
1256 4 0.284123 0.078853 0.78629
1113 4 0.391392 0.051306 0.815716
1111 2 0.382237 0.0745486 0.814643
2321 4 0.474578 0.00322888 0.793704
2322 4 0.465898 0.0491557 0.775924
2320 2 0.470238 0.0261923 0.784814
846 4 0.46185 0.0700186 0.774592
862 2 0.0339459 0.117068 0.770885
863 4 0.0408585 0.125213 0.793492
832 2 0.0270198 0.10037 0.827472
833 4 0.0352805 0.117515 0.811255
1125 4 0.0355102 0.134338 0.821761
1123 2 0.0349034 0.157278 0.83169
31 1 0.116453 0.145694 0.807013
34 3 0.124579 0.160284 0.790903
35 3 0.133417 0.132849 0.815129
33 3 0.099965 0.132174 0.797862
1149 4 0.238086 0.0861452 0.743907
840 4 0.275022 0.0937552 0.794735
838 2 0.283003 0.112695 0.808974
839 4 0.290984 0.131635 0.823214
1112 4 0.373082 0.0977911 0.813569
818 4 0.364458 0.113182 0.823078
844 2 0.462481 0.0943252 0.768764
845 4 0.463112 0.118632 0.762935