ITEM: TIMESTEP
2670000
ITEM: NUMBER OF ATOMS
4590
ITEM: BOX BOUNDS pp pp pp
-9.9985700000000008e+00 9.9985700000000008e+00
-9.9985700000000008e+00 9.9985700000000008e+00
-9.9985700000000008e+00 9.9985700000000008e+00
ITEM: ATOMS id type xs ys zs
1668 4 0.0791711 0.99445 0.0512426
1666 2 0.0626157 0.997087 0.0697937
465 4 0.0774655 0.0703862 0.0202389
701 4 0.0963723 0.0659259 0.0116522
700 2 0.119878 0.0576118 0.00977261
702 4 0.143384 0.0492976 0.00789303
566 4 0.156046 0.0334663 0.00639679
746 4 0.4749 0.0691701 0.0265533
2467 2 0.490817 0.0317272 0.04397
2469 4 0.483079 0.0539961 0.0356391
745 2 0.466587 0.0675376 0.00302874
463 2 0.0638381 0.079532 0.0391023
590 4 0.0400929 0.103796 0.0664694
464 4 0.0502107 0.0886777 0.0579657
589 2 0.0178889 0.0980466 0.0764247
558 4 0.35818 0.127811 0.0424814
556 2 0.351421 0.123896 0.0662335
865 2 0.363429 0.161487 0.00425315
771 4 0.459626 0.142677 0.061034
769 2 0.463522 0.159158 0.0794285
554 4 0.0431484 0.216462 0.012702
553 2 0.0655697 0.208805 0.0206909
555 4 0.087991 0.201147 0.0286798
835 2 0.118425 0.20236 0.0219031
836 4 0.103153 0.207531 0.0410137
837 4 0.133696 0.197188 0.00279257
461 4 0.327587 0.233363 0.0774997
573 4 0.337708 0.243074 0.0638045
666 4 0.334287 0.223898 0.0613793
664 2 0.340142 0.202161 0.0504974
665 4 0.345998 0.180424 0.0396156
867 4 0.350199 0.176214 0.0195261
1070 4 0.453794 0.240725 0.0818081
2808 4 0.0324521 0.325989 0.0340851
2806 2 0.0144821 0.308605 0.0338569
294 4 0.097911 0.321259 0.0779724
292 2 0.114375 0.328416 0.0605686
293 4 0.130839 0.335573 0.0431648
356 4 0.323741 0.298227 0.0374382
572 4 0.318981 0.279268 0.0348218
355 2 0.314595 0.320772 0.0316718
571 2 0.328344 0.261171 0.0493131
1069 2 0.444669 0.263997 0.0812576
322 2 0.441393 0.320491 0.0738389
1071 4 0.435544 0.28727 0.0807072
647 4 0.0243403 0.359714 0.0632219
646 2 0.0459841 0.353597 0.0741452
620 4 0.0107734 0.367969 0.0761284
507 4 0.139743 0.33018 0.0256043
505 2 0.16158 0.342348 0.0261092
481 2 0.213233 0.382431 0.019003
482 4 0.234846 0.391598 0.0103985
483 4 0.191621 0.373264 0.0276076
506 4 0.183417 0.354516 0.026614
626 4 0.19114 0.402485 0.081549
609 4 0.247586 0.404049 0.0193819
357 4 0.30545 0.343317 0.0259053
902 4 0.304535 0.360079 0.0129101
957 4 0.364664 0.372443 0.0265547
955 2 0.372835 0.375065 0.00306976
323 4 0.445664 0.337075 0.0556203
672 4 0.464661 0.34254 0.0600556
280 2 0.491624 0.415183 0.0461613
671 4 0.492592 0.383889 0.0633553
670 2 0.478626 0.363215 0.0617055
551 4 0.0319985 0.444817 0.0613532
550 2 0.0562874 0.446533 0.0670352
552 4 0.0805763 0.448248 0.0727172
1465 2 0.00200077 0.47325 0.0787589
1466 4 0.0144112 0.494497 0.0831965
1787 4 0.0940291 0.453708 0.0602021
1786 2 0.111562 0.45614 0.0425427
1788 4 0.129095 0.458572 0.0248832
242 4 0.0993442 0.448549 0.0786599
246 4 0.236155 0.48543 0.0353067
244 2 0.227867 0.467044 0.0500875
245 4 0.219579 0.448659 0.0648683
625 2 0.195926 0.426752 0.0778955
272 4 0.249952 0.485719 0.0211031
1778 4 0.246413 0.500924 0.0317614
627 4 0.200712 0.45102 0.074242
607 2 0.263635 0.421076 0.0281949
608 4 0.279685 0.438103 0.037008
252 4 0.294245 0.448534 0.0426683
250 2 0.316194 0.457479 0.0347044
251 4 0.338142 0.466425 0.0267406
2289 4 0.34079 0.470822 0.00686447
525 4 0.409653 0.496586 0.0757234
2287 2 0.352933 0.492407 0.0103009
282 4 0.479213 0.43059 0.030871
226 2 0.465038 0.46575 0.0526906
227 4 0.474788 0.445572 0.0416008
228 4 0.455289 0.485928 0.0637803
1667 4 0.0460603 0.999725 0.0883447
16 1 0.0610362 0.0476866 0.161257
20 3 0.0646603 0.0571278 0.140851
1806 4 0.0453692 0.0279168 0.141849
18 3 0.0561856 0.0251297 0.158794
1804 2 0.0406389 0.0121791 0.123004
450 4 0.154736 0.0633259 0.164467
675 4 0.0931376 0.042022 0.161132
448 2 0.170379 0.0808264 0.155852
1661 4 0.305061 0.00601885 0.141141
654 4 0.307065 0.0215584 0.15394
652 2 0.3213 0.0388215 0.1651
484 2 0.376302 0.0189262 0.101996
297 4 0.362414 0.0556804 0.109028
485 4 0.374977 0.0414283 0.112817
295 2 0.357983 0.0792427 0.101932
579 4 0.0961995 0.133625 0.0963625
237 4 0.152844 0.151754 0.121248
578 4 0.133885 0.156451 0.120016
577 2 0.115042 0.145038 0.108189
235 2 0.165137 0.133495 0.133109
236 4 0.17743 0.115236 0.14497
693 4 0.190866 0.111049 0.132113
449 4 0.186022 0.0983268 0.147238
691 2 0.21571 0.112635 0.134444
692 4 0.240554 0.114221 0.136775
582 4 0.257423 0.107148 0.126914
580 2 0.279015 0.110943 0.138938
581 4 0.300607 0.114737 0.150961
29 3 0.314888 0.162156 0.153121
557 4 0.344662 0.119981 0.0899856
296 4 0.353551 0.102805 0.0948355
476 4 0.145507 0.166477 0.132226
737 4 0.147035 0.16836 0.112745
475 2 0.134398 0.179119 0.150717
736 2 0.165298 0.178591 0.0990723
738 4 0.183562 0.188823 0.0853997
354 4 0.318973 0.234172 0.134486
283 2 0.329228 0.197812 0.150088
285 4 0.330033 0.173789 0.156977
284 4 0.328423 0.221834 0.143199
462 4 0.332569 0.226202 0.12674
460 2 0.330078 0.229782 0.10212
352 2 0.29963 0.248501 0.141246
255 4 0.335256 0.237489 0.139924
253 2 0.352549 0.245983 0.155861
770 4 0.467418 0.17564 0.097823
1014 4 0.482683 0.181122 0.109672
1013 4 0.478923 0.218793 0.142345
1012 2 0.480803 0.199957 0.126009
749 4 0.0582488 0.321666 0.162084
455 4 0.0654282 0.318844 0.143779
454 2 0.0628699 0.325459 0.119802
611 4 0.205514 0.335277 0.112294
610 2 0.228723 0.326167 0.114179
612 4 0.251931 0.317057 0.116064
756 4 0.258235 0.321079 0.134817
353 4 0.280288 0.262831 0.148005
754 2 0.269325 0.301029 0.144827
755 4 0.280414 0.280979 0.154837
278 4 0.270738 0.26703 0.16451
324 4 0.437121 0.303908 0.0920575
648 4 0.0676279 0.347481 0.0850686
456 4 0.0603117 0.332075 0.0958257
536 4 0.18909 0.396623 0.101113
535 2 0.200093 0.374181 0.10178
537 4 0.211096 0.351738 0.102446
387 4 0.330707 0.406314 0.149502
302 4 0.32137 0.412663 0.132603
741 4 0.405189 0.367575 0.107975
739 2 0.397782 0.376953 0.129938
740 4 0.390376 0.386331 0.151901
385 2 0.353949 0.399918 0.15614
386 4 0.377191 0.393522 0.162779
495 4 0.394178 0.40322 0.16187
15 3 0.382347 0.375372 0.166119
241 2 0.107109 0.452978 0.102011
1438 2 0.157671 0.458471 0.125412
243 4 0.114874 0.457407 0.125362
1440 4 0.134336 0.450533 0.129616
1439 4 0.181005 0.466408 0.121209
637 2 0.215474 0.469413 0.127902
638 4 0.233137 0.4821 0.140241
639 4 0.197811 0.456726 0.115564
767 4 0.252891 0.482022 0.142556
303 4 0.309485 0.456185 0.111033
766 2 0.274034 0.472455 0.133249
768 4 0.295177 0.462888 0.123942
301 2 0.315428 0.434424 0.121818
523 2 0.400903 0.473666 0.0805477
524 4 0.392152 0.450746 0.0853719
493 2 0.401364 0.426205 0.155143
494 4 0.408549 0.449189 0.148415
660 4 0.424038 0.461585 0.141809
658 2 0.428686 0.477867 0.160207
17 3 0.0800061 0.0498564 0.174086
19 3 0.0434772 0.0584435 0.171951
380 4 0.0503867 0.0768344 0.167917
1505 4 0.153717 0.0496603 0.178368
673 2 0.115445 0.0511866 0.167732
674 4 0.137752 0.0603512 0.174333
689 4 0.179374 0.998375 0.202053
1504 2 0.169409 0.0337676 0.189608
1506 4 0.185102 0.0178749 0.200848
653 4 0.335534 0.0560845 0.17626
23 3 0.395076 0.0176924 0.222957
22 3 0.416909 0.0177169 0.192364
21 1 0.416215 0.0126903 0.2148
757 2 0.468448 0.0277672 0.212375
25 3 0.431894 0.0250578 0.225747
759 4 0.44921 0.0344888 0.226864
350 4 0.441048 0.0270937 0.24323
758 4 0.487686 0.0210456 0.197887
379 2 0.0418695 0.095303 0.182462
512 4 0.0332744 0.13096 0.208289
381 4 0.0333523 0.113772 0.197007
511 2 0.0557188 0.139238 0.215562
513 4 0.0781632 0.147516 0.222835
339 4 0.0777255 0.159732 0.206945
30 3 0.304814 0.12808 0.165572
26 1 0.308088 0.14981 0.171553
28 3 0.288477 0.158675 0.180228
27 3 0.32448 0.150848 0.187657
521 4 0.475567 0.163102 0.240497
311 4 0.450171 0.153492 0.213171
337 2 0.0974081 0.169744 0.195217
477 4 0.123288 0.191761 0.169209
363 4 0.115632 0.19925 0.185426
338 4 0.117091 0.179755 0.183489
362 4 0.120229 0.23754 0.217261
361 2 0.117931 0.218395 0.201344
372 4 0.136358 0.239705 0.228919
723 4 0.215694 0.208983 0.248417
279 4 0.259024 0.240497 0.205247
628 2 0.39654 0.228229 0.189722
629 4 0.409477 0.207762 0.195959
630 4 0.383603 0.248696 0.183485
312 4 0.415404 0.188081 0.203395
310 2 0.432788 0.170787 0.208283
761 4 0.485307 0.229822 0.234498
750 4 0.0442482 0.302981 0.206305
395 4 0.0367773 0.298775 0.224768
748 2 0.0512485 0.312323 0.184194
394 2 0.0237824 0.288532 0.243513
370 2 0.150344 0.259337 0.235567
300 4 0.115877 0.281862 0.209294
298 2 0.113013 0.304461 0.219604
299 4 0.110148 0.327059 0.229913
371 4 0.16433 0.278968 0.242215
277 2 0.264881 0.253763 0.184878
401 4 0.261244 0.308543 0.236997
498 4 0.262473 0.32735 0.231659
764 4 0.411393 0.298085 0.176153
254 4 0.369843 0.254476 0.171797
765 4 0.374151 0.266263 0.186206
763 2 0.392772 0.282174 0.18118
624 4 0.475052 0.310681 0.173824
622 2 0.450344 0.311374 0.177592
528 4 0.493294 0.30911 0.178917
623 4 0.425635 0.312067 0.18136
262 2 0.0353082 0.399185 0.214344
263 4 0.0520776 0.381717 0.220575
602 4 0.0680044 0.370814 0.216148
734 4 0.10859 0.341866 0.243107
601 2 0.0892937 0.358413 0.220411
603 4 0.110583 0.346013 0.224675
290 4 0.152209 0.377756 0.234992
289 2 0.159574 0.399466 0.225012
291 4 0.16694 0.421176 0.215031
496 2 0.282106 0.338843 0.221285
307 2 0.332688 0.342788 0.185054
308 4 0.312287 0.354741 0.193183
497 4 0.30174 0.350336 0.210911
309 4 0.35309 0.330834 0.176924
14 3 0.407527 0.399926 0.179563
11 1 0.396631 0.379784 0.183299
13 3 0.384909 0.38071 0.203303
12 3 0.412296 0.362991 0.184631
264 4 0.0185388 0.416653 0.208112
2618 4 0.0164484 0.426518 0.225772
2617 2 0.000397927 0.439831 0.239567
416 4 0.173799 0.440215 0.21342
415 2 0.191885 0.457056 0.209614
1430 4 0.208268 0.492968 0.200439
417 4 0.209971 0.473897 0.205809
597 4 0.486042 0.464034 0.206013
596 4 0.446901 0.491423 0.191229
659 4 0.433333 0.494148 0.178605
595 2 0.466471 0.477728 0.198621
1799 4 0.0163974 0.0184634 0.303008
233 4 0.0162556 0.036974 0.29578
1402 2 0.0512495 0.0384542 0.315577
1403 4 0.0325613 0.028543 0.302246
1404 4 0.0699378 0.0483654 0.328907
1798 2 0.00909114 0.00518355 0.322894
633 4 0.384129 0.0384624 0.300326
631 2 0.387072 0.0526132 0.279923
257 4 0.381477 0.0485788 0.316753
698 4 0.369411 0.0332465 0.312669
697 2 0.368344 0.00904017 0.318841
632 4 0.390016 0.066764 0.259521
349 2 0.447 0.0300978 0.267329
744 4 0.473434 0.0325877 0.290643
742 2 0.477435 0.0282774 0.314945
351 4 0.452952 0.033102 0.291427
398 4 0.0725128 0.147893 0.308402
393 4 0.0800773 0.140527 0.291712
397 2 0.067056 0.129337 0.324247
390 4 0.0831129 0.159407 0.297412
545 4 0.131626 0.149891 0.256608
392 4 0.123438 0.135923 0.26723
391 2 0.101758 0.138225 0.279471
544 2 0.152834 0.156918 0.267834
249 4 0.185723 0.135177 0.329865
404 4 0.202198 0.145658 0.321362
403 2 0.194924 0.161111 0.3031
444 4 0.00109992 0.23203 0.31027
442 2 0.00760599 0.249901 0.294038
388 2 0.0855523 0.182119 0.307581
389 4 0.0879917 0.204831 0.31775
721 2 0.198862 0.192783 0.257328
546 4 0.174043 0.163944 0.27906
405 4 0.18765 0.176563 0.284838
722 4 0.182029 0.176582 0.266238
420 4 0.386609 0.22783 0.26059
717 4 0.36568 0.235788 0.263778
418 2 0.409483 0.220489 0.267524
331 2 0.462296 0.202518 0.303325
332 4 0.447631 0.20587 0.283352
419 4 0.432357 0.213148 0.274459
760 2 0.467759 0.222654 0.250804
762 4 0.450211 0.215486 0.267109
333 4 0.476961 0.199167 0.323297
453 4 0.47372 0.216157 0.331849
364 2 0.0144336 0.306964 0.292819
396 4 0.0107875 0.278289 0.262258
443 4 0.0141121 0.267772 0.277806
365 4 0.0188082 0.287159 0.278197
407 4 0.0167757 0.32498 0.326094
366 4 0.010059 0.326769 0.307441
677 4 0.147065 0.318947 0.292572
735 4 0.137886 0.333882 0.28284
676 2 0.169229 0.31795 0.304101
508 2 0.233468 0.307122 0.307056
509 4 0.210239 0.312873 0.314301
678 4 0.191394 0.316952 0.31563
435 4 0.203117 0.327063 0.326407
510 4 0.256698 0.301372 0.29981
400 2 0.264753 0.302324 0.26096
402 4 0.268262 0.296106 0.284922
345 4 0.273757 0.293706 0.303853
343 2 0.286945 0.277731 0.317854
344 4 0.300133 0.261756 0.331856
715 2 0.370535 0.257378 0.275416
716 4 0.375391 0.278969 0.287054
542 4 0.393622 0.286682 0.286443
541 2 0.397692 0.302647 0.305251
543 4 0.401762 0.318613 0.324058
548 4 0.0149382 0.342449 0.318023
547 2 0.0257145 0.364925 0.319996
549 4 0.0364907 0.387401 0.321969
777 4 0.0351762 0.405104 0.329835
733 2 0.123238 0.337874 0.262973
728 4 0.347689 0.378724 0.294347
727 2 0.353016 0.39882 0.308238
751 2 0.489225 0.334689 0.329609
2538 4 0.473228 0.343098 0.290224
753 4 0.48271 0.343124 0.30699
2536 2 0.488675 0.358733 0.278303
2860 2 0.497572 0.413812 0.279397
1543 2 0.149343 0.475105 0.327979
1544 4 0.126274 0.480819 0.335746
1545 4 0.172412 0.46939 0.320211
1436 4 0.184178 0.477012 0.305096
729 4 0.358342 0.418915 0.32213
436 2 0.356276 0.459698 0.332314
438 4 0.362365 0.483939 0.333018
2861 4 0.486743 0.435031 0.28699
730 2 0.0663082 0.07371 0.355842
732 4 0.0766523 0.0550677 0.368905
369 4 0.0923283 0.0474658 0.380272
367 2 0.0991584 0.0407806 0.403377
605 4 0.183535 0.0619682 0.382792
604 2 0.179621 0.043683 0.399391
1701 4 0.193095 0.0712121 0.397763
606 4 0.175708 0.0253978 0.415989
256 2 0.376277 0.0573975 0.339565
258 4 0.371077 0.0662162 0.362376
426 4 0.369131 0.0772064 0.377394
424 2 0.385774 0.0656367 0.392035
425 4 0.402416 0.054067 0.406676
1580 4 0.398214 0.0342614 0.40913
2664 4 0.496934 0.0264343 0.351094
743 4 0.481436 0.0239671 0.339248
479 4 0.481394 0.0382581 0.352588
478 2 0.474782 0.0596213 0.363772
480 4 0.46817 0.0809845 0.374956
458 4 0.999051 0.13756 0.358868
318 4 0.00161915 0.118723 0.364995
399 4 0.0615991 0.11078 0.340092
317 4 0.0488202 0.106278 0.354137
731 4 0.0559641 0.0923524 0.34278
316 2 0.0252197 0.1125 0.359566
1699 2 0.193209 0.0957771 0.393102
247 2 0.191988 0.135883 0.354061
248 4 0.198253 0.136588 0.378256
1700 4 0.193323 0.120342 0.38844
319 2 0.328543 0.12929 0.397005
320 4 0.311358 0.124174 0.414431
682 2 0.272865 0.143332 0.406739
683 4 0.251862 0.153723 0.398015
684 4 0.293867 0.132941 0.415463
321 4 0.345728 0.134407 0.379579
708 4 0.345512 0.149999 0.366864
516 4 0.466065 0.1637 0.375273
575 4 0.469064 0.145778 0.381551
574 2 0.465072 0.133609 0.403026
378 4 0.298215 0.246647 0.3439
376 2 0.309843 0.224662 0.34133
600 4 0.251757 0.171918 0.405992
377 4 0.321472 0.202677 0.338761
707 4 0.320037 0.191574 0.355764
489 4 0.298794 0.236887 0.40353
706 2 0.332774 0.170786 0.361314
515 4 0.47608 0.200524 0.342956
514 2 0.471072 0.182112 0.359114
451 2 0.491955 0.229772 0.342207
406 2 0.0218506 0.312014 0.346861
408 4 0.0269255 0.299047 0.367628
347 4 0.0683886 0.329831 0.379098
275 4 0.138478 0.305759 0.348535
617 4 0.123091 0.301611 0.361564
274 2 0.158377 0.295691 0.359843
616 2 0.10558 0.31804 0.36854
276 4 0.178276 0.285623 0.37115
374 4 0.220787 0.267358 0.419456
373 2 0.206848 0.279155 0.402375
375 4 0.19291 0.290952 0.385295
615 4 0.408428 0.322389 0.34209
267 4 0.354184 0.274373 0.406485
468 4 0.363973 0.25695 0.402423
752 4 0.49574 0.326253 0.352227
346 2 0.0565449 0.340587 0.398313
618 4 0.08807 0.334468 0.375517
433 2 0.203728 0.348566 0.339151
434 4 0.204339 0.37007 0.351895
502 2 0.313755 0.410819 0.411355
613 2 0.429832 0.333607 0.348508
614 4 0.451237 0.344824 0.354927
775 2 0.0556026 0.418815 0.334302
776 4 0.0760291 0.432525 0.33877
414 4 0.0777127 0.453676 0.335729
413 4 0.110316 0.491426 0.339286
412 2 0.0940146 0.472551 0.337508
503 4 0.327802 0.429316 0.402097
669 4 0.327785 0.448749 0.397853
667 2 0.328872 0.470868 0.409461
437 4 0.350187 0.435457 0.331611
240 4 0.406105 0.434326 0.402644
335 4 0.389525 0.42756 0.393485
336 4 0.340612 0.437231 0.389649
334 2 0.365068 0.432395 0.391567
3990 4 0.494049 0.484767 0.35959
2236 2 0.999752 0.0513349 0.417103
1127 4 0.010409 0.0527994 0.456736
2237 4 0.0135949 0.0502864 0.437899
720 4 0.0221433 0.0650182 0.44762
1523 4 0.0703026 0.00876891 0.484341
1780 2 0.0935365 0.00902201 0.454139
368 4 0.105989 0.0340954 0.426482
1782 4 0.110078 0.0200431 0.438971
341 4 0.174581 0.0187447 0.502475
2430 4 0.186508 0.00144919 0.496396
724 2 0.290757 0.0495659 0.483743
726 4 0.293239 0.0735237 0.477032
725 4 0.288276 0.025608 0.490454
963 4 0.287965 0.00744159 0.497739
432 4 0.304253 0.0149084 0.49148
1579 2 0.393755 0.0132621 0.421949
2879 4 0.408593 0.0310377 0.480769
642 4 0.44577 0.0712724 0.439504
2878 2 0.424916 0.0453923 0.468411
2880 4 0.441238 0.0597468 0.456054
718 2 0.0312958 0.0853604 0.458916
719 4 0.0404483 0.105703 0.470212
939 4 0.0965189 0.134338 0.490935
1033 2 0.121005 0.117634 0.481177
1035 4 0.14415 0.121281 0.472449
261 4 0.156564 0.13697 0.473078
1034 4 0.0978595 0.113987 0.489904
259 2 0.161908 0.161252 0.475728
1182 4 0.29671 0.0875389 0.464614
1180 2 0.296769 0.101063 0.443584
1181 4 0.296828 0.114588 0.422554
576 4 0.46108 0.12144 0.424501
640 2 0.460719 0.0907145 0.434634
641 4 0.475667 0.110157 0.429763
306 4 0.472957 0.126394 0.439732
304 2 0.469989 0.142489 0.458635
3158 4 0.451197 0.151413 0.487167
305 4 0.46702 0.158585 0.477537
694 2 0.153037 0.219444 0.477688
696 4 0.137201 0.236381 0.487043
695 4 0.168874 0.202507 0.468333
260 4 0.167253 0.185533 0.478379
472 2 0.226439 0.239574 0.435633
599 4 0.241654 0.2061 0.441066
687 4 0.230701 0.200825 0.45679
686 4 0.183322 0.189201 0.467783
685 2 0.207012 0.195013 0.462286
411 4 0.242383 0.215927 0.458097
598 2 0.246705 0.189009 0.423529
474 4 0.245573 0.224645 0.441649
409 2 0.257037 0.215008 0.478335
488 4 0.2622 0.236712 0.437611
487 2 0.280497 0.236799 0.42057
410 4 0.271692 0.214089 0.498572
466 2 0.358576 0.238402 0.418298
467 4 0.353179 0.219854 0.434173
473 4 0.207305 0.254503 0.429617
813 4 0.241878 0.307171 0.477013
811 2 0.25118 0.317962 0.497561
266 4 0.331523 0.307881 0.435886
265 2 0.342854 0.291127 0.421185
2812 2 0.0170832 0.336234 0.437074
348 4 0.0447013 0.351343 0.417527
2813 4 0.0375258 0.35054 0.435451
326 4 0.056522 0.349746 0.434079
325 2 0.0742968 0.352842 0.45139
327 4 0.0920715 0.355937 0.4687
7 3 0.107144 0.367813 0.471351
6 1 0.114602 0.377619 0.490777
711 4 0.14308 0.406046 0.493642
8 3 0.132938 0.390969 0.485881
709 2 0.165711 0.411585 0.484569
710 4 0.188343 0.417123 0.475496
504 4 0.299708 0.392321 0.420614
1383 4 0.0610731 0.47139 0.468067
680 4 0.054767 0.452543 0.470874
1381 2 0.0588708 0.491429 0.453277
679 2 0.0725574 0.447216 0.487617
774 4 0.204531 0.422771 0.485281
635 4 0.194844 0.435343 0.473475
636 4 0.202358 0.482333 0.458109
634 2 0.198601 0.458838 0.465792
668 4 0.32996 0.492986 0.421069
4 3 0.318672 0.491815 0.438046
586 2 0.395845 0.439681 0.481269
588 4 0.390251 0.451622 0.460025
238 2 0.406913 0.44074 0.426797
239 4 0.407721 0.447154 0.450951
1184 4 0.00354369 0.015528 0.556564
342 4 0.165447 0.0537084 0.537041
1152 4 0.149931 0.06852 0.535068
1150 2 0.153587 0.0698494 0.559767
1151 4 0.157243 0.0711789 0.584466
340 2 0.170014 0.0362266 0.519758
430 2 0.325997 0.00966421 0.502654
841 2 0.361034 0.0186631 0.549265
842 4 0.372036 0.034297 0.565381
1216 2 0.40968 0.0154718 0.571627
1217 4 0.391918 0.0330687 0.571776
843 4 0.350032 0.00302919 0.53315
3007 2 0.496709 0.0702915 0.584291
879 4 0.0523884 0.161849 0.535507
877 2 0.0279689 0.164559 0.530869
878 4 0.00354933 0.16727 0.52623
938 4 0.0628937 0.158522 0.518956
937 2 0.0797063 0.14643 0.504945
3159 4 0.461717 0.140459 0.534812
3157 2 0.456457 0.145936 0.510989
1062 4 0.467863 0.121885 0.538381
1060 2 0.482499 0.103134 0.530676
1272 4 0.0699334 0.169442 0.533742
1270 2 0.0764216 0.175824 0.55703
1199 4 0.998814 0.170254 0.545926
1271 4 0.0829098 0.182205 0.580319
1258 2 0.131531 0.232616 0.528255
1259 4 0.121334 0.234233 0.551028
1260 4 0.141728 0.230999 0.505483
898 2 0.292672 0.218648 0.521961
899 4 0.306838 0.205373 0.537717
857 4 0.311118 0.189938 0.54809
856 2 0.301428 0.182896 0.570038
791 4 0.325186 0.199782 0.537558
900 4 0.278505 0.231923 0.506204
790 2 0.342489 0.21434 0.548227
792 4 0.359792 0.228899 0.558897
872 4 0.372381 0.242383 0.551404
1238 4 0.36433 0.2451 0.569224
651 4 0.290748 0.325587 0.563353
812 4 0.260482 0.328753 0.518108
806 4 0.302265 0.329623 0.580071
805 2 0.314747 0.307959 0.58026
807 4 0.32723 0.286295 0.580449
871 2 0.376544 0.253934 0.529622
1237 2 0.348652 0.25954 0.582296
873 4 0.380707 0.265485 0.507841
1135 2 0.1281 0.378554 0.563125
1136 4 0.118872 0.369374 0.541777
897 4 0.152191 0.399269 0.578503
10 3 0.120554 0.361367 0.505578
9 3 0.0975279 0.390567 0.499678
773 4 0.238706 0.413494 0.52059
1189 2 0.224321 0.404594 0.559425
1190 4 0.233899 0.403097 0.536378
803 4 0.241512 0.394349 0.520727
1191 4 0.214742 0.406091 0.582473
802 2 0.249099 0.370696 0.517872
649 2 0.282944 0.33365 0.541009
930 4 0.252571 0.40601 0.531349
650 4 0.27514 0.341714 0.518665
804 4 0.256686 0.347043 0.515016
925 2 0.429374 0.399749 0.515915
927 4 0.440207 0.379599 0.526004
539 4 0.0771785 0.49391 0.512196
1161 4 0.159662 0.486894 0.561223
681 4 0.0903479 0.44189 0.504359
383 4 0.0942168 0.435529 0.523207
382 2 0.116484 0.427602 0.515052
384 4 0.138751 0.419674 0.506897
569 4 0.146028 0.434951 0.517011
568 2 0.164704 0.447651 0.52774
570 4 0.183379 0.46035 0.53847
1159 2 0.177398 0.481369 0.577959
772 2 0.221619 0.418133 0.502936
928 2 0.270655 0.423271 0.531783
929 4 0.28874 0.440532 0.532217
1951 2 0.300134 0.477153 0.530734
1953 4 0.298642 0.454463 0.541131
1952 4 0.301626 0.499844 0.520336
926 4 0.418542 0.4199 0.505825
663 4 0.414685 0.436319 0.515382
587 4 0.401439 0.42774 0.502513
1001 4 0.422719 0.482151 0.565857
661 2 0.4182 0.454397 0.532293
662 4 0.421715 0.472475 0.549205
1911 4 0.429329 0.463918 0.565829
1332 4 0.438898 0.477769 0.556296
1330 2 0.455261 0.49295 0.545027
2375 4 0.164438 0.00323546 0.618423
1155 4 0.169006 0.0838991 0.593435
1058 4 0.156111 0.0225099 0.618601
1059 4 0.170945 0.0647567 0.596333
1057 2 0.163528 0.0436333 0.607467
949 2 0.27296 0.0159414 0.630156
951 4 0.280016 0.0377186 0.640213
1031 4 0.280922 0.0443914 0.658905
43 3 0.435842 0.0594766 0.659303
808 2 0.485821 0.0849341 0.641845
810 4 0.483452 0.0823377 0.6666
1154 4 0.152893 0.1285 0.609305
1221 4 0.16564 0.140359 0.619286
1153 2 0.160949 0.106199 0.60137
1219 2 0.180681 0.159967 0.623091
809 4 0.488191 0.0875305 0.61709
3008 4 0.491797 0.0905169 0.598147
1245 4 0.0989726 0.176663 0.636047
1244 4 0.10216 0.179718 0.586235
1243 2 0.100566 0.17819 0.611141
1209 4 0.096017 0.19302 0.64675
1210 2 0.232235 0.177097 0.642157
1212 4 0.215278 0.179371 0.623923
1220 4 0.195722 0.179575 0.626896
797 4 0.190606 0.236917 0.595388
796 2 0.197708 0.216013 0.607126
798 4 0.20481 0.19511 0.618865
1211 4 0.249193 0.174823 0.66039
858 4 0.291739 0.175853 0.591986
1193 4 0.418384 0.19967 0.652193
3121 2 0.460332 0.218305 0.640842
3122 4 0.470356 0.197356 0.650108
3357 4 0.482882 0.182164 0.64791
3355 2 0.499975 0.171374 0.662627
3123 4 0.450308 0.239254 0.631576
983 4 0.0213921 0.284387 0.646544
982 2 0.0334577 0.306056 0.649711
984 4 0.0455232 0.327726 0.652879
3263 4 0.0620484 0.333352 0.662536
1239 4 0.332975 0.27398 0.595367
906 4 0.457515 0.303075 0.608285
905 4 0.459662 0.255603 0.623858
904 2 0.458588 0.279339 0.616071
953 4 0.467543 0.317701 0.599165
1041 4 0.047864 0.346152 0.658568
1039 2 0.0546132 0.364114 0.642537
1040 4 0.0613624 0.382076 0.626505
993 4 0.0692826 0.398106 0.616917
991 2 0.049293 0.412234 0.611819
1137 4 0.137329 0.387734 0.584473
895 2 0.175721 0.401094 0.586761
896 4 0.199251 0.40292 0.595018
1028 4 0.209854 0.392178 0.6598
1027 2 0.20998 0.39523 0.634984
1029 4 0.210106 0.398281 0.610167
1172 4 0.213839 0.414542 0.599795
952 2 0.485897 0.33441 0.596136
1206 4 0.4925 0.411846 0.618305
992 4 0.0293033 0.426362 0.606722
1160 4 0.195133 0.475844 0.594695
1171 2 0.21127 0.439372 0.601214
1173 4 0.208701 0.464203 0.602632
1187 4 0.195093 0.473869 0.613815
1186 2 0.190418 0.474736 0.638363
1188 4 0.185744 0.475603 0.66291
1909 2 0.430703 0.450265 0.586731
1268 4 0.436161 0.484882 0.655936
1267 2 0.434967 0.466483 0.639047
2168 4 0.455856 0.493467 0.653351
1204 2 0.470074 0.422902 0.618334
1910 4 0.432078 0.436612 0.607633
1269 4 0.433773 0.448084 0.622158
1205 4 0.447648 0.433958 0.618363
1284 4 0.0960765 0.0522454 0.704756
1282 2 0.107806 0.0726057 0.696209
2047 2 0.156865 0.000789772 0.736801
2256 4 0.195956 0.0190732 0.727104
2049 4 0.179581 0.0091387 0.730521
1201 2 0.185695 0.0514522 0.723527
1202 4 0.179736 0.0285399 0.73157
1203 4 0.191654 0.0743645 0.715484
1030 2 0.295393 0.0595017 0.672597
1032 4 0.309864 0.074612 0.686288
1005 4 0.334367 0.00518864 0.714464
1003 2 0.338929 0.00232922 0.690047
45 3 0.453461 0.0388059 0.685379
41 1 0.448963 0.060023 0.678433
1162 2 0.502813 0.0536722 0.690995
1163 4 0.48618 0.0697902 0.681576
44 3 0.468773 0.0713127 0.674131
42 3 0.437508 0.0711478 0.694991
1077 4 0.0393444 0.101678 0.733942
1075 2 0.0162501 0.0968224 0.72568
864 4 0.0560018 0.108661 0.744561
909 4 0.105789 0.155861 0.700377
907 2 0.114935 0.133836 0.692866
908 4 0.124082 0.111811 0.685356
1283 4 0.119535 0.0929661 0.687661
1227 4 0.138125 0.0990603 0.689332
1225 2 0.159075 0.0942373 0.7021
851 4 0.090469 0.165046 0.708665
1148 4 0.19835 0.0915997 0.710143
1226 4 0.180025 0.0894142 0.714867
1147 2 0.211048 0.102501 0.728719
1149 4 0.223747 0.113403 0.747296
829 2 0.327499 0.154663 0.713713
830 4 0.304285 0.163451 0.716725
831 4 0.350712 0.145874 0.710701
1142 4 0.369661 0.145387 0.714962
1141 2 0.388631 0.161667 0.714432
1025 4 0.465047 0.141819 0.709957
3424 2 0.478274 0.109329 0.694015
3426 4 0.475782 0.086528 0.684062
3425 4 0.480765 0.132131 0.703969
3269 4 0.478297 0.135928 0.723228
1024 2 0.445666 0.157608 0.709448
3268 2 0.487063 0.147945 0.743326
845 4 0.451802 0.10587 0.733722
852 4 0.0499283 0.177341 0.735236
1214 4 0.0368266 0.184886 0.722777
850 2 0.0701986 0.171193 0.72195
1213 2 0.0126795 0.190297 0.726357
1208 4 0.0980579 0.17163 0.691906
1207 2 0.0970374 0.182325 0.669328
1107 4 0.108182 0.1728 0.708869
1105 2 0.129096 0.179507 0.720817
1106 4 0.150011 0.186213 0.732766
1130 4 0.158509 0.20119 0.743957
888 4 0.262958 0.183458 0.672907
887 4 0.285268 0.161808 0.712077
978 4 0.290844 0.171248 0.728575
886 2 0.274113 0.172633 0.692492
976 2 0.295692 0.191773 0.742006
916 2 0.300438 0.247177 0.738847
1143 4 0.407602 0.177946 0.713902
1192 2 0.417719 0.194359 0.676617
1194 4 0.417054 0.189047 0.701041
1262 4 0.421982 0.189228 0.720135
1261 2 0.427549 0.196154 0.743506
1026 4 0.426285 0.173397 0.708939
3262 2 0.0675797 0.329106 0.686547
3264 4 0.0731111 0.32486 0.710559
893 4 0.0747325 0.331823 0.729139
779 4 0.0858987 0.317196 0.723196
778 2 0.101665 0.299191 0.730436
780 4 0.117431 0.281186 0.737676
1065 4 0.218234 0.327443 0.684927
1063 2 0.237531 0.312236 0.689569
1064 4 0.256828 0.297029 0.694212
947 4 0.311305 0.27532 0.705009
946 2 0.288964 0.279622 0.694636
948 4 0.266624 0.283925 0.684264
917 4 0.306582 0.263759 0.72117
1008 4 0.481614 0.294422 0.709022
1006 2 0.470512 0.284506 0.729112
1007 4 0.459411 0.27459 0.749202
892 2 0.069889 0.349877 0.745745
1067 4 0.158802 0.390989 0.70724
940 2 0.141994 0.384735 0.748376
941 4 0.151887 0.386303 0.725466
1066 2 0.176326 0.393297 0.689555
1068 4 0.19385 0.395604 0.67187
1176 4 0.148457 0.476829 0.712429
1174 2 0.161275 0.46984 0.69213
1175 4 0.174093 0.462851 0.671832
1139 4 0.304949 0.484506 0.694532
1138 2 0.313766 0.469492 0.712477
1140 4 0.322582 0.454478 0.730422
1229 4 0.327171 0.436406 0.724161
1989 4 0.323278 0.439637 0.743065
1100 4 0.384377 0.441922 0.736914
1228 2 0.351219 0.430924 0.728262
1230 4 0.375267 0.425443 0.732363
1099 2 0.407451 0.448445 0.729826
1101 4 0.430524 0.454968 0.722739
3330 4 0.448196 0.46376 0.72327
3328 2 0.461384 0.452624 0.705179
1251 4 0.4344 0.46773 0.736662
3329 4 0.474571 0.441488 0.687089
785 4 0.0297657 0.065519 0.832965
980 4 0.427852 0.00480656 0.805124
2321 4 0.442842 0.00819421 0.793897
2322 4 0.444638 0.0567217 0.781956
2320 2 0.44374 0.0324579 0.787927
846 4 0.444545 0.0695911 0.767365
862 2 0.059358 0.117224 0.767811
863 4 0.0627142 0.125786 0.791062
833 4 0.0649087 0.111135 0.804564
1125 4 0.0715663 0.128777 0.808231
1123 2 0.0801797 0.148849 0.8204
832 2 0.0558267 0.0941918 0.820552
911 4 0.127595 0.0965691 0.826416
1257 4 0.240205 0.122456 0.75184
1255 2 0.234219 0.125887 0.775873
921 4 0.21325 0.141529 0.799745
919 2 0.199009 0.158955 0.810641
840 4 0.225752 0.140673 0.815318
1256 4 0.228233 0.129319 0.799906
838 2 0.245741 0.136788 0.829827
1113 4 0.351387 0.0825075 0.800932
1111 2 0.352096 0.096113 0.821897
844 2 0.448173 0.0877307 0.750544
3270 4 0.495828 0.159963 0.763424
1129 2 0.162429 0.214832 0.764542
1131 4 0.166349 0.228473 0.785126
1277 4 0.162257 0.223089 0.803691
1124 4 0.0887932 0.168922 0.832569
1276 2 0.17135 0.205967 0.819481
920 4 0.184769 0.17638 0.821538
822 4 0.168309 0.241104 0.799711
977 4 0.300541 0.212298 0.755438
918 4 0.294293 0.230596 0.756524
1298 4 0.292107 0.219217 0.772138
1297 2 0.300795 0.210281 0.793813
1299 4 0.309483 0.201344 0.815489
1086 4 0.327992 0.209432 0.819158
50 3 0.397851 0.198768 0.793994
46 1 0.420374 0.200096 0.797089
49 3 0.427137 0.222286 0.796607
1043 4 0.437476 0.217351 0.77897
48 3 0.426153 0.190493 0.817406
47 3 0.43103 0.188705 0.780182
1263 4 0.433116 0.203079 0.766878
1146 4 0.488864 0.173143 0.776063
1145 4 0.446704 0.199797 0.779651
1144 2 0.467784 0.18647 0.777857
1042 2 0.447489 0.238492 0.770142
1022 4 0.44567 0.191695 0.822288
3187 2 0.00339298 0.273039 0.792511
3188 4 0.00554257 0.258091 0.772583
3189 4 0.00124339 0.287986 0.812439
821 4 0.198191 0.280662 0.793154
820 2 0.18325 0.260883 0.796433
1098 4 0.266691 0.328862 0.814001
1044 4 0.457503 0.259634 0.761313
1165 2 0.488018 0.275303 0.783279
1166 4 0.470271 0.273603 0.765748
3275 4 0.0187769 0.336835 0.801147
894 4 0.0650455 0.367932 0.762351
3276 4 0.0564277 0.361184 0.779004
3274 2 0.0376023 0.34901 0.790076
816 4 0.075866 0.365333 0.77864
814 2 0.0984093 0.375201 0.783065
942 4 0.132101 0.383167 0.771285
815 4 0.120953 0.38507 0.78749
1080 4 0.13435 0.398151 0.783482
1078 2 0.152298 0.401557 0.800554
1079 4 0.170245 0.404963 0.817626
1121 4 0.184261 0.419366 0.814874
1236 4 0.261638 0.35041 0.756456
1235 4 0.251908 0.337743 0.803843
1234 2 0.256773 0.344077 0.78015
1020 4 0.399005 0.403269 0.787372
1018 2 0.388185 0.416582 0.769182
1016 4 0.39988 0.384021 0.7935