ITEM: TIMESTEP
2760000
ITEM: NUMBER OF ATOMS
4590
ITEM: BOX BOUNDS pp pp pp
-9.9985700000000008e+00 9.9985700000000008e+00
-9.9985700000000008e+00 9.9985700000000008e+00
-9.9985700000000008e+00 9.9985700000000008e+00
ITEM: ATOMS id type xs ys zs
465 4 0.0862078 0.0745215 0.0296053
591 4 0.988895 0.0880575 0.0756406
701 4 0.0999035 0.0773219 0.0151083
700 2 0.121917 0.0659111 0.0118871
702 4 0.143931 0.0545003 0.0086659
566 4 0.157539 0.06624 0.0181784
746 4 0.474118 0.0622246 0.0315277
2467 2 0.503843 0.0327188 0.0491245
2469 4 0.490041 0.0495642 0.0368396
745 2 0.464686 0.0601199 0.00846744
463 2 0.0613327 0.0737044 0.0320008
590 4 0.0289694 0.0885678 0.0457318
464 4 0.0364575 0.0728873 0.0343963
589 2 0.0089324 0.0883127 0.0606862
558 4 0.35068 0.117553 0.0329354
556 2 0.351543 0.110465 0.0568977
865 2 0.366045 0.163835 0.00459738
557 4 0.352406 0.103377 0.0808601
771 4 0.460895 0.122705 0.0588264
769 2 0.463371 0.144087 0.071549
554 4 0.0427262 0.207016 0.0131882
553 2 0.0638827 0.202252 0.0256336
555 4 0.0850392 0.197488 0.0380789
835 2 0.121285 0.201652 0.0272816
836 4 0.104159 0.193197 0.0434187
837 4 0.138411 0.210107 0.0111445
915 4 0.154585 0.207894 0.999956
573 4 0.32374 0.240259 0.0581378
461 4 0.32748 0.235852 0.0760641
666 4 0.336241 0.225202 0.0620714
664 2 0.345863 0.210038 0.0446746
665 4 0.355485 0.194874 0.0272778
867 4 0.361878 0.17582 0.0261419
1070 4 0.430325 0.234245 0.0774998
2808 4 0.0299984 0.323258 0.0175994
2806 2 0.0180794 0.305446 0.0304767
2807 4 0.00616043 0.287633 0.0433539
294 4 0.105934 0.314457 0.0798108
292 2 0.121235 0.324415 0.0627261
356 4 0.303424 0.288645 0.0343691
572 4 0.322297 0.287807 0.0427181
355 2 0.2936 0.309694 0.0251181
571 2 0.323019 0.264033 0.0504279
1069 2 0.42956 0.258632 0.0720321
322 2 0.448412 0.317852 0.0757101
1071 4 0.428796 0.283018 0.0665643
323 4 0.460689 0.339313 0.0719856
324 4 0.436134 0.296391 0.0794346
647 4 0.0185442 0.359228 0.073096
646 2 0.0384696 0.346449 0.0811484
620 4 0.00518479 0.374298 0.0738556
293 4 0.136537 0.334373 0.0456414
507 4 0.135604 0.346528 0.0292713
505 2 0.160493 0.348901 0.028998
481 2 0.218888 0.381181 0.0234948
482 4 0.236137 0.39926 0.0226152
483 4 0.201638 0.363101 0.0243744
506 4 0.185382 0.351274 0.0287247
609 4 0.254321 0.403055 0.029876
357 4 0.283775 0.330744 0.015867
902 4 0.286063 0.348195 0.006124
957 4 0.356117 0.390492 0.0191511
672 4 0.459166 0.358593 0.0763756
671 4 0.493298 0.394668 0.0705125
670 2 0.476232 0.37663 0.073444
281 4 0.501114 0.3988 0.0525896
551 4 0.0337807 0.450291 0.0694915
550 2 0.0579087 0.456575 0.0713707
552 4 0.0820367 0.462859 0.07325
1787 4 0.0996497 0.4612 0.0638862
1786 2 0.112656 0.471544 0.0452046
1788 4 0.125663 0.481889 0.0265231
242 4 0.0968967 0.452347 0.0807297
246 4 0.233364 0.482419 0.0362756
244 2 0.220729 0.463674 0.0469596
245 4 0.208094 0.444928 0.0576436
625 2 0.191155 0.424742 0.0861524
272 4 0.246818 0.485383 0.0222078
1778 4 0.242459 0.499839 0.034824
627 4 0.205405 0.442616 0.0760202
607 2 0.266685 0.424464 0.0336115
608 4 0.279048 0.445874 0.0373471
252 4 0.296933 0.437924 0.0452468
250 2 0.311382 0.456199 0.0361663
251 4 0.32583 0.474473 0.0270858
2289 4 0.343806 0.482903 0.0307329
2287 2 0.350345 0.499801 0.013503
523 2 0.413862 0.474452 0.0836617
280 2 0.493231 0.418458 0.0393004
525 4 0.428968 0.48351 0.0659157
282 4 0.485349 0.438116 0.0260112
226 2 0.461846 0.465143 0.0503836
227 4 0.476964 0.447204 0.0417347
228 4 0.446727 0.483082 0.0590324
563 4 0.438999 0.499639 0.0652053
16 1 0.0643995 0.0442977 0.149918
20 3 0.0621711 0.0581538 0.131982
1806 4 0.0351745 0.0163127 0.140352
18 3 0.0510755 0.0255095 0.147111
1804 2 0.0346669 0.00236835 0.119604
450 4 0.156689 0.055768 0.166241
675 4 0.0918585 0.052991 0.161574
17 3 0.0863514 0.0376514 0.151676
673 2 0.115761 0.054539 0.168747
448 2 0.168567 0.0776707 0.164155
1661 4 0.294028 0.00638331 0.159624
654 4 0.286869 0.0251793 0.154472
652 2 0.306121 0.0405509 0.150197
653 4 0.325372 0.0559224 0.145923
484 2 0.36411 0.0176904 0.112466
297 4 0.350312 0.0528448 0.115904
485 4 0.363367 0.0399082 0.123911
295 2 0.357188 0.0747816 0.106071
579 4 0.0958869 0.146104 0.102326
237 4 0.149673 0.150208 0.135651
578 4 0.138755 0.160502 0.123675
577 2 0.117321 0.153303 0.113
235 2 0.164231 0.130503 0.140648
476 4 0.147223 0.16962 0.138612
737 4 0.157781 0.162571 0.123563
236 4 0.178788 0.110798 0.145646
693 4 0.191231 0.0959015 0.14737
449 4 0.180446 0.0995733 0.162068
691 2 0.213691 0.103202 0.139159
692 4 0.236152 0.110502 0.130948
582 4 0.254504 0.0999606 0.132871
580 2 0.277145 0.106835 0.140953
581 4 0.299785 0.11371 0.149035
30 3 0.307672 0.128879 0.158734
296 4 0.364063 0.0967184 0.096238
475 2 0.134764 0.183431 0.155321
736 2 0.172098 0.174099 0.106612
738 4 0.186414 0.185626 0.0896612
29 3 0.322596 0.163248 0.155032
354 4 0.31111 0.241316 0.137307
283 2 0.314328 0.200026 0.139693
285 4 0.311635 0.175171 0.140076
284 4 0.317021 0.224881 0.13931
462 4 0.322842 0.234432 0.125835
460 2 0.325161 0.235142 0.10095
255 4 0.32772 0.238777 0.142231
253 2 0.347743 0.245842 0.155434
770 4 0.465847 0.165469 0.0842716
1014 4 0.465543 0.162213 0.106167
1013 4 0.48762 0.206839 0.110841
1012 2 0.476581 0.184526 0.108504
749 4 0.0516373 0.314801 0.165683
456 4 0.0556131 0.334669 0.10913
610 2 0.233381 0.331721 0.108642
612 4 0.242563 0.309173 0.102944
352 2 0.293573 0.255368 0.14827
756 4 0.237129 0.302006 0.121101
353 4 0.276037 0.26942 0.159233
754 2 0.247317 0.289458 0.140178
755 4 0.257506 0.276911 0.159255
278 4 0.262158 0.259204 0.16538
254 4 0.367766 0.252908 0.168638
455 4 0.0596498 0.3316 0.15888
454 2 0.0576315 0.333135 0.134005
648 4 0.058395 0.333669 0.0892008
626 4 0.176905 0.406869 0.0962846
611 4 0.224198 0.354268 0.11434
536 4 0.178958 0.389212 0.0887191
535 2 0.192201 0.370547 0.0987892
537 4 0.205444 0.351881 0.108859
302 4 0.336124 0.422782 0.12963
387 4 0.337033 0.401829 0.129986
741 4 0.425223 0.372991 0.110123
739 2 0.411351 0.381837 0.128952
740 4 0.39748 0.390682 0.147781
385 2 0.359894 0.40178 0.140113
386 4 0.382755 0.401732 0.15024
495 4 0.398896 0.406174 0.16023
15 3 0.382309 0.383502 0.157913
241 2 0.11273 0.444397 0.0983728
1438 2 0.160074 0.461048 0.121583
243 4 0.128564 0.436447 0.116016
1440 4 0.13665 0.452775 0.124422
1439 4 0.183498 0.469322 0.118744
637 2 0.225737 0.478312 0.114609
638 4 0.249557 0.48464 0.118823
639 4 0.201917 0.471984 0.110394
767 4 0.262211 0.499022 0.112123
303 4 0.299052 0.450056 0.110073
766 2 0.281979 0.483909 0.114577
768 4 0.301746 0.468796 0.117031
301 2 0.317588 0.436419 0.119851
524 4 0.398756 0.465393 0.101408
493 2 0.407233 0.429247 0.155402
494 4 0.41557 0.45232 0.150575
660 4 0.418984 0.467593 0.138622
658 2 0.432165 0.481297 0.154859
19 3 0.0583626 0.0554598 0.169344
380 4 0.0461471 0.0599123 0.185734
1505 4 0.151282 0.0399195 0.175968
674 4 0.139663 0.0560871 0.17592
689 4 0.180783 0.999852 0.217983
1504 2 0.16679 0.0288861 0.192183
1506 4 0.182298 0.0178528 0.208399
23 3 0.401802 0.00309967 0.227362
22 3 0.416179 0.0187708 0.196371
21 1 0.421183 0.00622564 0.214992
757 2 0.473542 0.0293287 0.214974
25 3 0.436698 0.0172383 0.227508
759 4 0.45008 0.0312472 0.223401
350 4 0.440813 0.0327259 0.239314
758 4 0.497005 0.0274102 0.206546
379 2 0.0414815 0.0844751 0.186011
512 4 0.0435018 0.127729 0.193386
381 4 0.0368158 0.109038 0.186288
511 2 0.0610527 0.13703 0.208573
513 4 0.0786035 0.146331 0.22376
26 1 0.315612 0.146986 0.170037
28 3 0.299076 0.155555 0.183876
27 3 0.333541 0.140591 0.182951
311 4 0.44061 0.153769 0.19843
339 4 0.0862046 0.162957 0.213653
337 2 0.103372 0.176393 0.201408
477 4 0.122305 0.197242 0.172031
363 4 0.127765 0.208609 0.186731
338 4 0.12054 0.189828 0.189164
362 4 0.139676 0.242817 0.221208
361 2 0.13372 0.225713 0.203969
372 4 0.145549 0.255325 0.234744
723 4 0.22171 0.204587 0.24437
628 2 0.389507 0.231385 0.189512
629 4 0.404793 0.211822 0.192482
630 4 0.374221 0.250948 0.186542
420 4 0.394663 0.230117 0.256435
312 4 0.415213 0.196659 0.20245
310 2 0.427912 0.175214 0.20044
761 4 0.485402 0.229024 0.235051
750 4 0.020248 0.29539 0.199427
395 4 0.0131376 0.29208 0.217305
748 2 0.0359427 0.305096 0.182555
394 2 0.0222305 0.287245 0.240089
370 2 0.151865 0.277578 0.244236
300 4 0.111282 0.279448 0.21877
298 2 0.107759 0.303299 0.225394
299 4 0.104235 0.327151 0.232017
371 4 0.15818 0.299831 0.253729
279 4 0.241859 0.260915 0.21105
277 2 0.252009 0.260059 0.188215
401 4 0.284813 0.292211 0.237452
498 4 0.278959 0.300094 0.218951
496 2 0.287969 0.319587 0.206146
764 4 0.408356 0.306854 0.18276
765 4 0.380456 0.266009 0.175407
763 2 0.394406 0.286431 0.179084
624 4 0.470515 0.304968 0.184921
622 2 0.446851 0.311629 0.180356
528 4 0.488726 0.302041 0.177963
623 4 0.423187 0.31829 0.175791
262 2 0.0358828 0.395182 0.220395
263 4 0.0510042 0.375504 0.223439
602 4 0.0677476 0.368746 0.216433
601 2 0.087689 0.357346 0.22631
734 4 0.116275 0.33223 0.245672
603 4 0.10763 0.345945 0.236186
290 4 0.170725 0.386639 0.229176
289 2 0.175998 0.409162 0.219684
308 4 0.310576 0.333885 0.178648
497 4 0.296979 0.339081 0.19334
307 2 0.335302 0.33723 0.180265
309 4 0.360028 0.340575 0.181881
14 3 0.406423 0.402601 0.179625
11 1 0.393163 0.383635 0.177933
13 3 0.377769 0.383159 0.195288
12 3 0.406594 0.365017 0.179393
644 4 0.512046 0.402551 0.201148
447 4 0.507608 0.384898 0.209461
264 4 0.0207613 0.414861 0.217351
2618 4 0.0219972 0.433796 0.212431
291 4 0.181272 0.431684 0.210193
416 4 0.172532 0.449361 0.215038
415 2 0.191128 0.46605 0.214114
1430 4 0.209708 0.493526 0.196477
417 4 0.209724 0.482738 0.21319
643 2 0.502023 0.425381 0.199275
597 4 0.481832 0.465076 0.206283
596 4 0.451915 0.500842 0.188215
659 4 0.445346 0.495002 0.171096
595 2 0.466874 0.482959 0.197249
1799 4 0.0118961 0.0222101 0.29575
233 4 0.00919355 0.0408635 0.290574
1402 2 0.0508529 0.0377206 0.30184
1403 4 0.0262919 0.0355465 0.297692
1404 4 0.0754138 0.0398947 0.305989
1798 2 0.00699179 0.0086637 0.316186
633 4 0.376377 0.0423792 0.295078
631 2 0.386907 0.0501019 0.273756
257 4 0.368306 0.0540881 0.30833
698 4 0.369048 0.0346716 0.311667
697 2 0.363942 0.0103742 0.314625
632 4 0.397437 0.0578247 0.252433
256 2 0.373402 0.0659693 0.329732
349 2 0.444687 0.035532 0.263856
744 4 0.466759 0.0298617 0.294713
742 2 0.473321 0.0278184 0.318753
351 4 0.44856 0.038338 0.288398
398 4 0.0754295 0.148912 0.313382
397 2 0.0668305 0.128048 0.324151
390 4 0.0757158 0.167407 0.306842
393 4 0.0827323 0.152802 0.296
545 4 0.131561 0.166503 0.250839
392 4 0.119182 0.156063 0.261919
391 2 0.100957 0.154432 0.278959
404 4 0.19583 0.154307 0.324995
403 2 0.185996 0.166522 0.30552
521 4 0.487053 0.147875 0.252132
520 2 0.509248 0.157581 0.245939
444 4 0.0220557 0.224547 0.297907
442 2 0.0235381 0.246945 0.286892
388 2 0.075841 0.190888 0.315434
544 2 0.154615 0.17181 0.258933
721 2 0.202914 0.199128 0.25993
546 4 0.177669 0.177118 0.267027
405 4 0.176161 0.178737 0.286046
722 4 0.184119 0.19367 0.275489
378 4 0.29757 0.240916 0.326617
376 2 0.310853 0.219932 0.329523
717 4 0.380008 0.238801 0.245323
418 2 0.414334 0.215513 0.261433
331 2 0.451617 0.21047 0.303922
332 4 0.439217 0.210748 0.282212
419 4 0.434005 0.20091 0.26643
760 2 0.466511 0.221847 0.249774
762 4 0.447619 0.214669 0.264497
333 4 0.464017 0.210193 0.325633
453 4 0.480527 0.217645 0.333173
364 2 0.0216992 0.306575 0.293492
396 4 0.0313234 0.28241 0.262874
443 4 0.0250205 0.269342 0.275877
365 4 0.0184937 0.287918 0.277158
366 4 0.0249047 0.325233 0.309827
677 4 0.157296 0.337644 0.2933
676 2 0.181698 0.337095 0.298728
508 2 0.244672 0.317776 0.302646
509 4 0.224749 0.332124 0.307376
678 4 0.206099 0.336547 0.304156
510 4 0.264595 0.303427 0.297916
400 2 0.281804 0.294452 0.262172
402 4 0.278796 0.296694 0.286893
345 4 0.28201 0.300315 0.305321
343 2 0.293207 0.279504 0.31349
344 4 0.304403 0.258693 0.321659
715 2 0.379696 0.259198 0.259781
716 4 0.379384 0.279595 0.274239
542 4 0.378424 0.28869 0.291916
541 2 0.394496 0.295977 0.309629
543 4 0.410568 0.303264 0.327343
2493 4 0.00838852 0.333003 0.315894
407 4 0.0212097 0.325338 0.328848
548 4 0.0255317 0.342025 0.319052
547 2 0.0351488 0.36487 0.322343
549 4 0.044766 0.387714 0.325635
735 4 0.137781 0.33398 0.290785
733 2 0.127028 0.333105 0.268228
728 4 0.352643 0.385254 0.292521
727 2 0.367427 0.401541 0.304409
751 2 0.480837 0.332377 0.336167
2538 4 0.473609 0.34967 0.303425
753 4 0.469136 0.3339 0.314122
2536 2 0.489268 0.363789 0.289984
1543 2 0.148987 0.475488 0.330492
1545 4 0.172561 0.471403 0.323229
1436 4 0.176884 0.489841 0.314226
729 4 0.382212 0.417829 0.316297
437 4 0.385542 0.437715 0.319255
2861 4 0.492415 0.439149 0.280577
730 2 0.0702227 0.0713737 0.347393
732 4 0.0863483 0.0529204 0.352355
369 4 0.0982267 0.0440672 0.363927
367 2 0.0956186 0.0341564 0.386734
605 4 0.194802 0.0526179 0.398766
604 2 0.179619 0.0350145 0.407973
1701 4 0.205102 0.0683657 0.406709
426 4 0.376297 0.091178 0.365778
424 2 0.386404 0.0756578 0.382576
425 4 0.396512 0.0601377 0.399373
1580 4 0.403383 0.0407122 0.404152
2664 4 0.498107 0.020503 0.346433
743 4 0.479884 0.0257751 0.342793
479 4 0.48765 0.0301405 0.360371
478 2 0.483055 0.0520284 0.371551
480 4 0.478461 0.0739163 0.382731
458 4 0.0053892 0.138688 0.374896
318 4 0.0180274 0.125394 0.384944
399 4 0.0582315 0.107185 0.33492
317 4 0.0518796 0.106218 0.353526
731 4 0.0540972 0.089827 0.342431
316 2 0.0349535 0.115806 0.369235
249 4 0.187474 0.141732 0.337453
1699 2 0.196956 0.0918395 0.403916
247 2 0.190278 0.132539 0.360535
248 4 0.193081 0.123347 0.383618
1700 4 0.18881 0.115313 0.401122
319 2 0.330966 0.131843 0.396497
320 4 0.314018 0.125349 0.413695
682 2 0.274687 0.139826 0.410499
683 4 0.255179 0.154981 0.406635
684 4 0.294195 0.12467 0.414364
1181 4 0.304417 0.113285 0.426362
258 4 0.378499 0.0778504 0.351134
321 4 0.347914 0.138337 0.379299
708 4 0.3469 0.148962 0.36252
516 4 0.485692 0.164297 0.360046
575 4 0.480861 0.151209 0.37429
574 2 0.472237 0.142604 0.396124
389 4 0.0759662 0.214369 0.324026
600 4 0.263539 0.172933 0.409542
377 4 0.324136 0.198949 0.332428
489 4 0.309156 0.248061 0.425784
707 4 0.322002 0.19062 0.350464
706 2 0.334451 0.169791 0.356492
466 2 0.3647 0.228291 0.414717
515 4 0.480996 0.199918 0.325263
514 2 0.483344 0.182107 0.342654
451 2 0.498422 0.234408 0.338069
406 2 0.0280363 0.314599 0.350372
408 4 0.034863 0.30386 0.371895
275 4 0.145106 0.313909 0.352607
617 4 0.130227 0.327494 0.350064
616 2 0.110226 0.334408 0.36338
435 4 0.212552 0.3369 0.322581
274 2 0.16938 0.307916 0.352417
276 4 0.193654 0.301924 0.352228
373 2 0.215969 0.289746 0.38806
375 4 0.206828 0.300816 0.367588
615 4 0.414055 0.318249 0.339229
267 4 0.366492 0.266742 0.423256
468 4 0.354321 0.250917 0.417064
752 4 0.492537 0.330853 0.358211
777 4 0.0401234 0.398697 0.341882
347 4 0.0803334 0.327469 0.388184
346 2 0.0641329 0.333729 0.406171
775 2 0.0613539 0.411747 0.34392
618 4 0.0902246 0.341323 0.376696
433 2 0.209168 0.351605 0.342518
434 4 0.205784 0.36631 0.362455
504 4 0.300664 0.389891 0.414164
613 2 0.428126 0.336597 0.348743
614 4 0.442198 0.354945 0.358257
1544 4 0.125413 0.479573 0.337755
776 4 0.0825844 0.424796 0.345957
414 4 0.0801348 0.444714 0.34747
413 4 0.106516 0.486097 0.337868
412 2 0.0933255 0.465406 0.342669
502 2 0.31244 0.411001 0.407768
503 4 0.324216 0.43211 0.401372
667 2 0.331276 0.464981 0.411213
436 2 0.37297 0.45708 0.328855
438 4 0.360399 0.476444 0.338456
669 4 0.336526 0.446044 0.395754
240 4 0.40088 0.435638 0.398744
335 4 0.38954 0.423832 0.3882
336 4 0.339732 0.427074 0.391249
334 2 0.364636 0.425453 0.389724
3990 4 0.495712 0.489966 0.370449
2236 2 0.00267969 0.058848 0.411434
1127 4 0.00412902 0.0540812 0.447676
2237 4 0.00216332 0.068133 0.434644
720 4 0.0163387 0.0685758 0.448259
1523 4 0.0928096 0.986381 0.471794
606 4 0.164435 0.0174111 0.417179
1780 2 0.0985537 0.00141844 0.431186
368 4 0.0930104 0.0242457 0.409541
1782 4 0.0969501 0.00540348 0.406554
2428 2 0.218347 0.0115344 0.504356
2429 4 0.237871 0.00914032 0.48892
961 2 0.271705 0.00413166 0.480798
724 2 0.295534 0.0543335 0.482686
726 4 0.287587 0.0776292 0.478288
725 4 0.303481 0.0310378 0.487083
963 4 0.294285 0.0148176 0.481847
432 4 0.298703 0.0186568 0.500758
1579 2 0.391677 0.0213324 0.414761
1581 4 0.37997 0.0019525 0.42537
2879 4 0.415557 0.036285 0.473201
642 4 0.46413 0.0765145 0.454056
2878 2 0.437027 0.0485999 0.469659
2880 4 0.458498 0.0609148 0.466118
718 2 0.0297176 0.0892989 0.45235
719 4 0.0430966 0.110022 0.456441
939 4 0.0899404 0.130303 0.487379
1033 2 0.128285 0.12149 0.470051
1035 4 0.152009 0.124898 0.462928
261 4 0.156438 0.145121 0.462445
1034 4 0.104561 0.118081 0.477173
259 2 0.166245 0.167678 0.457951
1182 4 0.281359 0.0842131 0.459885
1180 2 0.292888 0.0987492 0.443123
576 4 0.463613 0.133999 0.417959
640 2 0.467063 0.0985212 0.442554
641 4 0.469996 0.120528 0.431053
306 4 0.469581 0.13995 0.4357
304 2 0.461135 0.149438 0.457236
3158 4 0.453241 0.152659 0.498633
305 4 0.452689 0.158927 0.478772
694 2 0.16827 0.222564 0.474319
696 4 0.155101 0.237272 0.489663
695 4 0.18144 0.207856 0.458976
260 4 0.176053 0.190234 0.453458
472 2 0.235503 0.248768 0.434942
599 4 0.254472 0.213163 0.437827
687 4 0.238623 0.211258 0.448396
686 4 0.19376 0.192859 0.460624
685 2 0.216192 0.202058 0.45451
474 4 0.246657 0.227686 0.442446
411 4 0.255833 0.216728 0.454362
598 2 0.259005 0.193048 0.423684
409 2 0.261737 0.221128 0.478257
488 4 0.266525 0.227211 0.441548
487 2 0.287841 0.237636 0.433666
410 4 0.267642 0.225528 0.502152
467 4 0.375078 0.205664 0.41237
374 4 0.225109 0.278676 0.408532
473 4 0.22435 0.269851 0.427437
813 4 0.23942 0.303349 0.47269
811 2 0.24507 0.318342 0.491885
266 4 0.330105 0.301011 0.421729
265 2 0.348298 0.283876 0.422492
584 4 0.501703 0.29871 0.477762
2812 2 0.00971531 0.332766 0.441003
348 4 0.0479324 0.33999 0.424158
2813 4 0.0334805 0.339865 0.437843
326 4 0.0490232 0.350663 0.440198
325 2 0.064173 0.363522 0.455374
327 4 0.0793227 0.376381 0.470551
7 3 0.0959793 0.387889 0.474944
6 1 0.114166 0.384671 0.488658
711 4 0.146216 0.410726 0.488809
8 3 0.127077 0.403951 0.488642
709 2 0.16777 0.418749 0.478999
10 3 0.12641 0.367113 0.480882
1383 4 0.06152 0.472544 0.47612
680 4 0.0560482 0.45251 0.474853
1381 2 0.0662573 0.486622 0.456006
679 2 0.0682452 0.444029 0.494964
710 4 0.189324 0.426772 0.469188
774 4 0.205139 0.42215 0.478925
635 4 0.203981 0.440063 0.471156
636 4 0.210232 0.48786 0.457845
634 2 0.207107 0.463961 0.464501
668 4 0.326027 0.483919 0.426672
4 3 0.323535 0.503792 0.426639
239 4 0.422743 0.449187 0.441629
238 2 0.411812 0.442412 0.420186
588 4 0.408277 0.455032 0.454667
586 2 0.406609 0.442084 0.475991
587 4 0.40494 0.429136 0.497316
1184 4 0.00845055 0.0213829 0.564728
342 4 0.148626 0.0516417 0.519185
1152 4 0.157721 0.0599459 0.535151
1150 2 0.156392 0.0701818 0.557925
1151 4 0.155063 0.0804177 0.580699
340 2 0.163951 0.0319052 0.518289
341 4 0.179276 0.0121687 0.517392
2430 4 0.198823 0.0139284 0.519791
430 2 0.317349 0.00743193 0.513067
841 2 0.358567 0.0261166 0.549092
842 4 0.372087 0.0404482 0.564487
1216 2 0.410658 0.0196735 0.561222
1217 4 0.392492 0.0366727 0.56371
843 4 0.345048 0.0117849 0.533697
3009 4 0.495641 0.0569943 0.575033
879 4 0.0512457 0.157695 0.537558
877 2 0.0270734 0.151302 0.537566
878 4 0.002901 0.144909 0.537574
938 4 0.0639417 0.150039 0.525264
937 2 0.076941 0.140171 0.506321
1272 4 0.0681539 0.166541 0.534644
1199 4 0.997987 0.146651 0.557771
3159 4 0.458703 0.120941 0.536907
3157 2 0.455972 0.1368 0.51777
1062 4 0.459991 0.10182 0.537088
1060 2 0.477405 0.0866305 0.527538
1270 2 0.0732817 0.183706 0.552087
1271 4 0.0784095 0.20087 0.56953
1258 2 0.135893 0.223829 0.528051
1259 4 0.123952 0.216351 0.548707
1260 4 0.147834 0.231306 0.507395
1244 4 0.0937113 0.194175 0.581458
898 2 0.295678 0.207212 0.532143
899 4 0.311982 0.194733 0.546412
857 4 0.318593 0.183519 0.561334
856 2 0.306213 0.182649 0.58304
791 4 0.329487 0.197961 0.552881
900 4 0.279373 0.219692 0.517874
790 2 0.34455 0.216039 0.561333
792 4 0.359614 0.234118 0.569785
872 4 0.369433 0.249367 0.561549
1238 4 0.350518 0.251068 0.566336
651 4 0.290032 0.319348 0.566058
806 4 0.295193 0.320116 0.585985
649 2 0.275941 0.326882 0.546826
650 4 0.261851 0.334417 0.527594
871 2 0.379312 0.255446 0.539399
1237 2 0.351203 0.267214 0.585415
873 4 0.38919 0.261525 0.517248
1135 2 0.129534 0.367944 0.572282
1136 4 0.124048 0.343659 0.574587
897 4 0.15437 0.385865 0.577515
9 3 0.106655 0.380185 0.510149
384 4 0.144531 0.429533 0.496914
1137 4 0.13502 0.39223 0.569977
773 4 0.231017 0.407621 0.519174
1189 2 0.223724 0.408617 0.559362
1190 4 0.236176 0.409126 0.537686
803 4 0.242966 0.394588 0.526323
802 2 0.244216 0.369617 0.52612
930 4 0.249453 0.412649 0.52422
804 4 0.245465 0.344645 0.525916
812 4 0.25072 0.333336 0.51108
926 4 0.406664 0.419783 0.514165
925 2 0.413298 0.396482 0.520351
927 4 0.419932 0.373182 0.526537
539 4 0.0792851 0.488208 0.507411
1161 4 0.15451 0.495476 0.579516
681 4 0.0804423 0.435547 0.515076
383 4 0.0969656 0.442637 0.505072
382 2 0.120748 0.436085 0.500993
569 4 0.149192 0.436443 0.515181
538 2 0.0944872 0.507092 0.513535
568 2 0.168441 0.443313 0.529584
570 4 0.18769 0.450183 0.543987
772 2 0.218078 0.414885 0.499049
928 2 0.270186 0.425716 0.529176
929 4 0.290919 0.438784 0.534132
1951 2 0.308655 0.472605 0.537207
1953 4 0.305251 0.44875 0.543879
1952 4 0.312058 0.496461 0.530535
663 4 0.402957 0.438441 0.513774
1000 2 0.403241 0.499067 0.562016
1001 4 0.420314 0.482569 0.554176
661 2 0.415859 0.454936 0.527435
662 4 0.428761 0.471432 0.541096
1911 4 0.427755 0.465362 0.559133
1332 4 0.439457 0.480146 0.5552
1330 2 0.454504 0.495845 0.542858
1909 2 0.430582 0.453415 0.580915
2375 4 0.157836 0.00642237 0.6265
1155 4 0.143831 0.0848989 0.596605
1059 4 0.15603 0.0696333 0.596739
1057 2 0.157892 0.047528 0.608274
1058 4 0.159753 0.0254226 0.61981
949 2 0.28279 0.0264695 0.6203
951 4 0.289186 0.028831 0.644356
1031 4 0.291048 0.048154 0.65229
1030 2 0.290948 0.0607406 0.673894
950 4 0.276394 0.024108 0.596244
3007 2 0.494953 0.0760376 0.591221
43 3 0.443751 0.0601376 0.662943
1154 4 0.149328 0.133329 0.607788
1153 2 0.14658 0.109114 0.602197
1221 4 0.166555 0.139995 0.615742
1219 2 0.175867 0.163101 0.617878
808 2 0.486444 0.0937472 0.646957
809 4 0.493398 0.102751 0.624692
3252 4 0.511218 0.0996133 0.615761
1245 4 0.114433 0.199363 0.626673
1243 2 0.104072 0.196769 0.604066
1209 4 0.109306 0.18342 0.639166
1210 2 0.223716 0.18375 0.63758
1212 4 0.204071 0.189992 0.623427
1220 4 0.185179 0.186208 0.620015
797 4 0.191567 0.245493 0.601119
796 2 0.193731 0.22073 0.603821
798 4 0.195896 0.195967 0.606523
1211 4 0.243361 0.177509 0.651732
858 4 0.293833 0.181778 0.604746
3121 2 0.469675 0.219848 0.627801
3122 4 0.477446 0.19861 0.638466
3357 4 0.474415 0.181756 0.646877
3355 2 0.488541 0.169136 0.663198
3123 4 0.461905 0.241086 0.617135
983 4 0.999453 0.311199 0.631056
982 2 0.0194442 0.317999 0.644446
984 4 0.0394358 0.324799 0.657835
3263 4 0.0562797 0.327927 0.668089
805 2 0.314959 0.307404 0.594523
807 4 0.334724 0.294691 0.603061
1239 4 0.351889 0.283359 0.604495
906 4 0.45547 0.298953 0.623159
905 4 0.476381 0.254917 0.612012
904 2 0.465925 0.276935 0.617585
953 4 0.467686 0.315647 0.62205
952 2 0.484951 0.328261 0.609089
1041 4 0.055234 0.333689 0.649496
1039 2 0.0560502 0.357176 0.640959
1040 4 0.0568665 0.380663 0.632423
993 4 0.0528932 0.3892 0.614921
991 2 0.040726 0.409743 0.607497
1191 4 0.211272 0.408108 0.581039
895 2 0.176894 0.393251 0.58547
896 4 0.199418 0.400636 0.593425
1028 4 0.196123 0.386262 0.659156
1027 2 0.200334 0.394246 0.635839
1029 4 0.204544 0.402231 0.612521
1172 4 0.21038 0.415676 0.599293
1206 4 0.492091 0.41769 0.606851
992 4 0.0285588 0.430286 0.600074
1159 2 0.174392 0.488675 0.593068
1160 4 0.194273 0.481875 0.60662
1171 2 0.206583 0.440011 0.603599
1173 4 0.202786 0.464347 0.607905
1187 4 0.202389 0.47576 0.623598
1186 2 0.190002 0.474371 0.645272
1268 4 0.445004 0.484262 0.654789
1267 2 0.44042 0.4704 0.634491
2168 4 0.4625 0.489366 0.665086
1204 2 0.470193 0.429108 0.610761
1910 4 0.43341 0.441468 0.602697
1269 4 0.435836 0.456538 0.614193
1205 4 0.448295 0.440525 0.614672
1284 4 0.0951424 0.050152 0.693551
1282 2 0.107223 0.0710047 0.686889
2256 4 0.185255 0.00749999 0.738766
2049 4 0.171006 0.00536911 0.725911
1201 2 0.189191 0.0440867 0.719571
1202 4 0.182657 0.0205872 0.725072
1203 4 0.195725 0.0675862 0.71407
1148 4 0.196252 0.0852149 0.707964
1226 4 0.181111 0.0741076 0.702437
1032 4 0.290847 0.0733271 0.695499
1005 4 0.337176 0.0121857 0.712331
1003 2 0.343064 0.00251278 0.690039
810 4 0.479491 0.0847433 0.669223
45 3 0.454858 0.0476952 0.696699
41 1 0.449678 0.0662363 0.684532
1163 4 0.48546 0.0738356 0.684382
44 3 0.467835 0.080673 0.683982
42 3 0.431896 0.0770234 0.69436
1077 4 0.035076 0.105367 0.734782
1075 2 0.0145101 0.0986918 0.722226
864 4 0.0481937 0.117683 0.746435
909 4 0.110506 0.155237 0.698757
907 2 0.117396 0.131602 0.694389
908 4 0.124286 0.107966 0.69002
1283 4 0.119305 0.0918574 0.680226
1227 4 0.137535 0.0940656 0.688171
1225 2 0.159323 0.0840866 0.695304
851 4 0.0962891 0.167585 0.703717
1147 2 0.21341 0.0930603 0.724372
1149 4 0.230568 0.100906 0.740781
829 2 0.320018 0.148658 0.712751
830 4 0.299532 0.162523 0.709105
831 4 0.340503 0.134793 0.716398
1142 4 0.359122 0.140544 0.710075
1141 2 0.379838 0.15319 0.716083
1025 4 0.460093 0.136806 0.711185
3424 2 0.481532 0.114494 0.698844
3426 4 0.482991 0.0931866 0.685841
3425 4 0.480072 0.1358 0.711846
3269 4 0.47019 0.132018 0.727537
1024 2 0.438832 0.14988 0.712668
3268 2 0.481702 0.143651 0.746441
852 4 0.0495094 0.179966 0.71633
1214 4 0.032528 0.172364 0.723578
850 2 0.0728992 0.173775 0.710023
1213 2 0.0106991 0.181959 0.731103
1208 4 0.105769 0.169341 0.68702
1207 2 0.107538 0.176381 0.663093
1107 4 0.114749 0.173129 0.703597
1105 2 0.131933 0.190119 0.710016
1106 4 0.149117 0.20711 0.716434
1130 4 0.150842 0.204355 0.736949
888 4 0.250454 0.1632 0.66547
887 4 0.283905 0.172076 0.701566
978 4 0.288211 0.174409 0.719785
886 2 0.267179 0.167638 0.683518
976 2 0.29542 0.188936 0.738815
916 2 0.296451 0.244882 0.745243
1193 4 0.416344 0.210244 0.670292
1143 4 0.400554 0.165836 0.722091
1192 2 0.412158 0.194349 0.689134
1194 4 0.407971 0.178455 0.707975
1262 4 0.414285 0.178557 0.726101
1261 2 0.423597 0.189086 0.74678
1026 4 0.41757 0.162954 0.714152
3262 2 0.069524 0.324103 0.688949
3264 4 0.0827683 0.32028 0.709809
893 4 0.0793369 0.324525 0.728238
779 4 0.0975928 0.319674 0.721405
778 2 0.110081 0.299995 0.730458
780 4 0.122569 0.280316 0.739512
1065 4 0.20995 0.308919 0.69205
1063 2 0.234893 0.310492 0.69279
1064 4 0.259836 0.312065 0.693529
947 4 0.296089 0.273782 0.717055
946 2 0.287732 0.295343 0.707544
948 4 0.279374 0.316904 0.698032
917 4 0.295137 0.267678 0.735055
1008 4 0.47504 0.274854 0.697278
1006 2 0.475691 0.268077 0.721337
1007 4 0.476341 0.2613 0.745396
892 2 0.074944 0.339926 0.747439
1067 4 0.164402 0.38559 0.720941
941 4 0.159022 0.369833 0.73073
1066 2 0.17544 0.3871 0.698557
1068 4 0.186479 0.38861 0.676173
1236 4 0.246149 0.331736 0.751748
1019 4 0.390426 0.413289 0.74395
1176 4 0.13042 0.463788 0.707843
1174 2 0.152751 0.464446 0.696615
1188 4 0.177615 0.472981 0.666947
1175 4 0.175082 0.465105 0.685387
1139 4 0.300697 0.476914 0.691483
1138 2 0.309674 0.463636 0.710674
1140 4 0.318652 0.450359 0.729865
1229 4 0.333077 0.438331 0.72501
1989 4 0.327271 0.439319 0.743559
1100 4 0.389783 0.430699 0.735829
1228 2 0.355477 0.427446 0.727225
1230 4 0.377878 0.416561 0.72944
1099 2 0.407632 0.446017 0.727345
1101 4 0.425481 0.461334 0.718862
3330 4 0.438695 0.471195 0.70717
3328 2 0.456601 0.456424 0.697878
1251 4 0.437931 0.473745 0.72634
3329 4 0.474508 0.441653 0.688586
785 4 0.0326492 0.053745 0.830887
834 4 0.0397955 0.0725815 0.832748
1113 4 0.372866 0.0654501 0.780233
980 4 0.431105 0.00169125 0.805148
2321 4 0.43922 0.00727782 0.788807
2322 4 0.444282 0.0553765 0.776094
2320 2 0.441751 0.0313271 0.78245
846 4 0.436667 0.072373 0.777479
862 2 0.0524721 0.121836 0.770717
863 4 0.0567505 0.12599 0.795
833 4 0.0560817 0.113469 0.809006
1125 4 0.0646184 0.130281 0.8125
1123 2 0.0743442 0.151429 0.82163
832 2 0.0479386 0.0930252 0.820877
911 4 0.113198 0.0916194 0.832692
910 2 0.120916 0.114666 0.838563
1257 4 0.221414 0.105629 0.758816
1255 2 0.219965 0.114373 0.782196
921 4 0.219516 0.136697 0.819747
919 2 0.202361 0.153558 0.826573
840 4 0.231463 0.120977 0.820252
1256 4 0.218515 0.123116 0.805576
838 2 0.250758 0.125322 0.83555
1111 2 0.367851 0.0830981 0.797221
1112 4 0.362837 0.100746 0.814209
845 4 0.465206 0.10118 0.748214
844 2 0.450937 0.0867765 0.762847
3270 4 0.493213 0.155284 0.765344
1129 2 0.162352 0.211376 0.758007
1124 4 0.0840701 0.172577 0.83076
34 3 0.135333 0.175022 0.828082
35 3 0.0998207 0.175443 0.840587
1131 4 0.173861 0.218398 0.779064
1277 4 0.176916 0.218045 0.7985
1276 2 0.174081 0.201206 0.816765
920 4 0.185207 0.170419 0.8334
822 4 0.183172 0.232987 0.78756
977 4 0.302629 0.203464 0.757846
918 4 0.297766 0.222086 0.755431
1298 4 0.290275 0.211237 0.77056
1297 2 0.302301 0.20707 0.792082
1299 4 0.314326 0.202902 0.813604
1086 4 0.329087 0.20659 0.825983
50 3 0.401839 0.213036 0.795269
46 1 0.422518 0.204189 0.798841
49 3 0.438606 0.220852 0.797447
1043 4 0.443031 0.212959 0.778323
48 3 0.423323 0.194129 0.819735
47 3 0.426845 0.188311 0.78277
1263 4 0.432909 0.199614 0.76746
1146 4 0.489545 0.169497 0.778983
1145 4 0.445769 0.193602 0.780816
1144 2 0.467657 0.181549 0.7799
1042 2 0.453663 0.232978 0.767769
1022 4 0.439143 0.189855 0.831537
821 4 0.188639 0.282033 0.795644
820 2 0.185905 0.25751 0.791602
1044 4 0.464295 0.252997 0.757214
1165 2 0.49404 0.272228 0.777284
1166 4 0.473103 0.267792 0.764356
3275 4 0.0178669 0.343886 0.793677
894 4 0.0705511 0.355328 0.766639
3276 4 0.0642324 0.360225 0.784512
3274 2 0.0410496 0.352055 0.789094
816 4 0.0726679 0.373749 0.773135
3228 4 0.0097833 0.418276 0.827225
940 2 0.147116 0.382155 0.74894
814 2 0.0962813 0.381689 0.775267
942 4 0.13521 0.394477 0.76715