ITEM: TIMESTEP
1010000
ITEM: NUMBER OF ATOMS
4590
ITEM: BOX BOUNDS pp pp pp
-9.9985700000000008e+00 9.9985700000000008e+00
-9.9985700000000008e+00 9.9985700000000008e+00
-9.9985700000000008e+00 9.9985700000000008e+00
ITEM: ATOMS id type xs ys zs
464 4 0.021019 0.0576932 0.0327147
701 4 0.0669147 0.0764431 0.045952
463 2 0.0426929 0.0695543 0.0288761
567 4 0.164569 0.0691487 0.0773818
565 2 0.140328 0.074819 0.0750626
566 4 0.116086 0.0804893 0.0727435
700 2 0.0835179 0.0761045 0.0646442
491 4 0.294972 0.0209123 0.035478
2264 4 0.288497 0.0371993 0.0243114
558 4 0.365714 0.080821 0.0410402
556 2 0.363873 0.06377 0.059235
557 4 0.362032 0.0467191 0.0774299
745 2 0.470869 0.0531686 0.00574794
746 4 0.48181 0.0552424 0.0281346
2467 2 0.502241 0.0187799 0.0449721
2469 4 0.492018 0.0404091 0.0377019
465 4 0.0643668 0.0814155 0.0250375
589 2 0.0137464 0.129517 0.0832183
590 4 0.0333228 0.131314 0.0677679
554 4 0.0638322 0.158187 0.0238923
421 2 0.116144 0.134667 0.997662
702 4 0.100121 0.0757659 0.0833365
422 4 0.133303 0.142374 0.014135
359 4 0.268336 0.138156 0.00951968
770 4 0.451938 0.151685 0.0761481
553 2 0.0671294 0.18239 0.018553
836 4 0.071357 0.225179 0.0200436
555 4 0.0704266 0.206593 0.0132136
835 2 0.094855 0.232944 0.0164775
837 4 0.118353 0.24071 0.0129114
666 4 0.316704 0.213889 0.0271068
664 2 0.320624 0.209318 0.00283898
573 4 0.31076 0.230771 0.0342607
461 4 0.316798 0.217529 0.0468325
460 2 0.32668 0.211026 0.0688605
1070 4 0.407958 0.244027 0.0208541
769 2 0.435816 0.170655 0.0738152
1012 2 0.481024 0.202027 0.0546618
771 4 0.419695 0.189624 0.0714823
1014 4 0.467884 0.195749 0.0749868
1013 4 0.494164 0.208305 0.0343369
1069 2 0.42006 0.244989 0.0427128
1071 4 0.432162 0.245952 0.0645714
915 4 0.137244 0.246176 0.0130076
292 2 0.114456 0.296283 0.0571201
294 4 0.0916197 0.303911 0.0503763
507 4 0.155512 0.280303 0.0619555
293 4 0.137293 0.288655 0.0638638
505 2 0.180231 0.284062 0.0621212
481 2 0.217454 0.327256 0.07354
506 4 0.20495 0.287821 0.0622869
483 4 0.211954 0.302947 0.071535
355 2 0.294448 0.303107 0.01076
571 2 0.309732 0.2552 0.0394871
356 4 0.305847 0.290976 0.0294168
572 4 0.308704 0.27963 0.0447135
357 4 0.283048 0.315237 0.992103
957 4 0.364209 0.318324 0.0293858
324 4 0.433065 0.266417 0.064943
322 2 0.437018 0.290803 0.0687954
672 4 0.451589 0.318265 0.0551843
323 4 0.440971 0.31519 0.0726479
620 4 0.0153731 0.354512 0.075688
482 4 0.222954 0.351565 0.0755449
609 4 0.232171 0.364589 0.0666825
252 4 0.284131 0.391644 0.0367652
608 4 0.274568 0.373784 0.0418085
607 2 0.253369 0.369187 0.0542455
670 2 0.462429 0.340025 0.0610304
671 4 0.473269 0.361785 0.0668766
281 4 0.476207 0.372075 0.0830909
280 2 0.481012 0.394332 0.0727599
2651 4 0.490482 0.360618 0.0767242
282 4 0.485816 0.416588 0.0624288
551 4 0.0605964 0.447925 0.0799238
550 2 0.0797025 0.463885 0.0775964
552 4 0.0988085 0.479845 0.0752691
1787 4 0.0999016 0.498153 0.0673586
242 4 0.11151 0.483586 0.0613232
241 2 0.132551 0.486332 0.0745488
250 2 0.285318 0.416351 0.040413
244 2 0.256997 0.475094 0.0585471
251 4 0.286506 0.441059 0.0440608
271 2 0.265048 0.476113 0.00410236
246 4 0.270383 0.488453 0.0421909
272 4 0.262043 0.490575 0.0242771
245 4 0.243612 0.461734 0.0749033
523 2 0.351188 0.487941 0.0635786
524 4 0.338082 0.466648 0.0636674
226 2 0.478744 0.469728 0.0531142
228 4 0.457187 0.458088 0.0581152
563 4 0.447792 0.473781 0.0158986
562 2 0.450936 0.495886 0.00464562
2576 4 0.00364756 0.0488111 0.0865039
16 1 0.0609107 0.0644428 0.161126
17 3 0.0755821 0.0739353 0.146166
1804 2 0.0734265 0.0201179 0.130977
20 3 0.0397935 0.0655871 0.152676
1806 4 0.0734134 0.0264347 0.15517
1805 4 0.0734396 0.013801 0.106785
1667 4 0.0868568 0.0139752 0.0915417
448 2 0.179141 0.0748454 0.146878
450 4 0.175411 0.0502327 0.149218
1505 4 0.182758 0.033536 0.156445
652 2 0.309698 0.0187331 0.133935
653 4 0.304193 0.0379133 0.118869
296 4 0.355283 0.0529872 0.0951581
295 2 0.369813 0.0387718 0.109718
297 4 0.384342 0.0245563 0.124279
485 4 0.38954 0.00849774 0.112906
235 2 0.153873 0.128325 0.15869
236 4 0.173372 0.114971 0.150527
693 4 0.189923 0.110823 0.158545
449 4 0.182872 0.0994582 0.144538
284 4 0.276222 0.161794 0.157175
312 4 0.447307 0.141567 0.153048
337 2 0.0515604 0.211837 0.15173
339 4 0.0280738 0.216785 0.144725
338 4 0.0750471 0.206889 0.158735
476 4 0.132293 0.206046 0.12534
475 2 0.112538 0.210448 0.140022
477 4 0.0927838 0.214849 0.154704
737 4 0.148787 0.213359 0.11599
363 4 0.0850857 0.216474 0.172489
738 4 0.190313 0.239926 0.107594
736 2 0.16955 0.226643 0.111792
283 2 0.286623 0.182752 0.148357
285 4 0.297023 0.203711 0.139538
462 4 0.336561 0.204522 0.0908886
255 4 0.336096 0.206271 0.111004
254 4 0.374573 0.197574 0.141737
253 2 0.355334 0.201923 0.126371
630 4 0.388374 0.20472 0.154469
628 2 0.409127 0.206596 0.14065
629 4 0.42988 0.208472 0.12683
352 2 0.312423 0.282854 0.133773
353 4 0.29489 0.288167 0.15079
754 2 0.286379 0.330582 0.153336
755 4 0.292761 0.306794 0.157647
278 4 0.2842 0.291629 0.166493
354 4 0.329955 0.277542 0.116756
518 4 0.486156 0.255548 0.140322
2895 4 0.498318 0.259195 0.156174
519 4 0.478606 0.290174 0.105041
517 2 0.482381 0.272861 0.122681
647 4 0.0168965 0.340559 0.0901415
646 2 0.0397641 0.347137 0.0978217
648 4 0.0626317 0.353715 0.105502
456 4 0.0826725 0.358838 0.110369
455 4 0.115855 0.374678 0.0764755
454 2 0.0992635 0.366758 0.0934222
537 4 0.224363 0.363339 0.14599
535 2 0.204556 0.369982 0.132251
536 4 0.18475 0.376625 0.118512
611 4 0.229751 0.378394 0.157708
756 4 0.279997 0.35437 0.149025
612 4 0.278986 0.373916 0.150188
610 2 0.254368 0.376155 0.153948
387 4 0.332454 0.395325 0.16288
302 4 0.314859 0.391127 0.169833
741 4 0.372158 0.338931 0.0845174
739 2 0.371259 0.35269 0.105375
740 4 0.370359 0.366449 0.126234
15 3 0.387992 0.369212 0.134307
385 2 0.352787 0.388089 0.150256
386 4 0.373121 0.380853 0.137632
11 1 0.40169 0.367481 0.152418
14 3 0.41347 0.387255 0.155355
495 4 0.423028 0.397461 0.139717
12 3 0.416655 0.35035 0.14899
1467 4 0.00917898 0.464962 0.130614
1465 2 0.0234934 0.477183 0.147073
1466 4 0.0378079 0.489405 0.163532
243 4 0.153592 0.489077 0.0877744
625 2 0.222334 0.457119 0.102177
626 4 0.216392 0.46395 0.125483
627 4 0.228277 0.450287 0.0788701
638 4 0.251717 0.501404 0.152105
767 4 0.266138 0.485767 0.148647
766 2 0.268963 0.464698 0.161811
493 2 0.414234 0.42004 0.145883
660 4 0.416804 0.459094 0.151577
494 4 0.405441 0.44262 0.152049
658 2 0.42091 0.479944 0.164752
1673 4 0.446055 0.49271 0.104129
18 3 0.0669068 0.0422793 0.164477
2480 4 0.0297214 0.0180084 0.180918
19 3 0.0620592 0.0760772 0.181169
380 4 0.0516151 0.0839234 0.196365
2479 2 0.00882149 0.0301042 0.187403
1422 4 0.0230611 0.000754811 0.189614
673 2 0.131625 0.0661004 0.186855
674 4 0.12723 0.079679 0.207385
675 4 0.136019 0.0525218 0.166325
1506 4 0.161073 0.0116827 0.195852
1504 2 0.171916 0.0226094 0.176148
689 4 0.170478 0.00349884 0.210642
21 1 0.399577 0.0217311 0.238165
25 3 0.410947 0.035749 0.224278
759 4 0.413487 0.0515623 0.214298
757 2 0.396872 0.0683274 0.206049
22 3 0.376977 0.0249793 0.235365
744 4 0.471321 0.0103557 0.240077
351 4 0.475025 0.0239626 0.224612
349 2 0.4516 0.0314296 0.220065
350 4 0.428175 0.0388966 0.215518
512 4 0.0409344 0.148298 0.194173
379 2 0.0452312 0.107435 0.19074
381 4 0.0388473 0.130946 0.185115
511 2 0.0606373 0.159468 0.204766
579 4 0.103514 0.102661 0.168029
237 4 0.134375 0.141679 0.166854
578 4 0.0955186 0.151497 0.175231
577 2 0.0995163 0.127079 0.17163
691 2 0.20627 0.114718 0.177059
692 4 0.222617 0.118613 0.195573
723 4 0.207384 0.157046 0.196964
721 2 0.192888 0.158156 0.217307
582 4 0.242282 0.125768 0.197584
722 4 0.178392 0.159266 0.237649
580 2 0.254483 0.110467 0.213146
581 4 0.266684 0.0951653 0.228709
30 3 0.285919 0.096113 0.234382
26 1 0.303213 0.108281 0.242839
28 3 0.323168 0.101471 0.233151
27 3 0.299855 0.130536 0.238088
758 4 0.380256 0.0850925 0.197801
310 2 0.441 0.134106 0.176064
311 4 0.434693 0.126646 0.19908
513 4 0.0803403 0.170638 0.215359
362 4 0.11354 0.216008 0.213609
361 2 0.0993126 0.216241 0.193049
372 4 0.129718 0.226779 0.206512
370 2 0.154253 0.226985 0.211328
371 4 0.178787 0.227191 0.216143
765 4 0.389654 0.217973 0.168561
763 2 0.392228 0.239641 0.18077
308 4 0.353024 0.240616 0.228947
520 2 0.495994 0.199046 0.231862
521 4 0.477291 0.210614 0.243759
395 4 0.0462141 0.291769 0.211702
750 4 0.0576876 0.275344 0.209051
748 2 0.0722162 0.285817 0.191603
749 4 0.0867449 0.296291 0.174156
394 2 0.0344358 0.288352 0.233492
300 4 0.15146 0.338223 0.223178
279 4 0.295192 0.265009 0.207374
277 2 0.289696 0.278319 0.186934
309 4 0.329996 0.274949 0.200811
307 2 0.34151 0.257783 0.214879
764 4 0.394802 0.261309 0.192979
623 4 0.399168 0.281571 0.195653
622 2 0.42103 0.292964 0.191479
624 4 0.442892 0.304358 0.187305
528 4 0.452461 0.287207 0.180111
527 4 0.494579 0.260763 0.174862
526 2 0.47352 0.273985 0.177486
262 2 0.0556309 0.402736 0.218892
264 4 0.0414792 0.404474 0.198352
263 4 0.0697826 0.400998 0.239432
298 2 0.14246 0.356876 0.237186
299 4 0.13346 0.375529 0.251195
602 4 0.0882047 0.405831 0.247072
601 2 0.110668 0.398425 0.255178
290 4 0.213043 0.390085 0.244567
289 2 0.205041 0.410769 0.233022
301 2 0.301678 0.412126 0.173069
13 3 0.389175 0.362823 0.171394
645 4 0.469754 0.410158 0.177866
643 2 0.47236 0.389844 0.19221
644 4 0.474966 0.369531 0.206554
447 4 0.47391 0.359149 0.223346
445 2 0.490298 0.356779 0.242081
417 4 0.178134 0.490292 0.200519
415 2 0.179731 0.466998 0.209463
291 4 0.197038 0.431454 0.221476
416 4 0.181327 0.443703 0.218407
303 4 0.288497 0.433125 0.176306
768 4 0.271787 0.44363 0.174976
713 4 0.338561 0.490696 0.236011
597 4 0.464895 0.425242 0.164419
595 2 0.467846 0.449022 0.171561
596 4 0.470797 0.472801 0.178703
1568 4 0.472891 0.488726 0.167039
2861 4 0.453821 0.455979 0.252948
1799 4 0.0239989 0.0227245 0.320266
233 4 0.0238546 0.0221438 0.300475
1402 2 0.0624526 0.017923 0.298656
1403 4 0.0399552 0.01757 0.309561
232 2 0.00132156 0.0277917 0.291226
1404 4 0.0849501 0.018276 0.287751
1699 2 0.209966 0.0580722 0.300586
1701 4 0.195145 0.0403448 0.291033
1700 4 0.224787 0.0757996 0.310139
23 3 0.405124 0.0262388 0.260241
1516 2 0.36245 0.00621981 0.288826
697 2 0.381951 0.0544643 0.316721
699 4 0.390122 0.040194 0.297886
1518 4 0.373941 0.0281378 0.292398
742 2 0.488343 0.0143053 0.257961
478 2 0.469988 0.0506577 0.311088
479 4 0.486102 0.0329771 0.303816
480 4 0.453873 0.0683384 0.318361
398 4 0.0790905 0.131144 0.31303
546 4 0.159112 0.162137 0.238272
545 4 0.111777 0.168286 0.253181
544 2 0.135445 0.165211 0.245727
248 4 0.229656 0.0951667 0.305263
249 4 0.197843 0.132533 0.295648
247 2 0.213749 0.11385 0.300455
404 4 0.201995 0.152224 0.291333
403 2 0.186161 0.158017 0.27287
29 3 0.304266 0.105601 0.265863
632 4 0.338253 0.116131 0.335559
333 4 0.431924 0.127832 0.294294
331 2 0.441993 0.149644 0.301222
393 4 0.111144 0.211609 0.298702
392 4 0.100162 0.173739 0.267945
391 2 0.105653 0.192674 0.283324
390 4 0.111709 0.212846 0.319282
405 4 0.170326 0.163809 0.254406
378 4 0.285696 0.197777 0.316136
376 2 0.309942 0.198059 0.322238
377 4 0.334188 0.198341 0.328339
707 4 0.342709 0.186296 0.341302
761 4 0.496286 0.224339 0.306691
332 4 0.452062 0.171457 0.308149
420 4 0.408702 0.212037 0.324047
418 2 0.42618 0.199003 0.311807
419 4 0.443658 0.185968 0.299568
760 2 0.479708 0.205704 0.304932
762 4 0.463131 0.187069 0.303172
444 4 0.0230717 0.253458 0.312925
396 4 0.0226576 0.284934 0.255281
442 2 0.0245932 0.269401 0.293724
443 4 0.0261148 0.285344 0.274523
365 4 0.0194816 0.301402 0.264805
401 4 0.195446 0.265408 0.274725
345 4 0.244754 0.303372 0.298625
400 2 0.210611 0.282742 0.28446
402 4 0.225775 0.300075 0.294196
510 4 0.231557 0.305196 0.31205
508 2 0.227966 0.326834 0.324052
343 2 0.269129 0.297823 0.299126
344 4 0.293504 0.292275 0.299628
498 4 0.383215 0.297179 0.29561
496 2 0.364814 0.289159 0.280702
497 4 0.346412 0.28114 0.265793
541 2 0.418663 0.317604 0.313613
542 4 0.422742 0.294641 0.322627
603 4 0.133132 0.391019 0.263285
734 4 0.14327 0.374513 0.267786
733 2 0.154809 0.378403 0.289624
735 4 0.166348 0.382294 0.311462
677 4 0.176919 0.392875 0.323963
676 2 0.19749 0.378742 0.325478
678 4 0.21806 0.364609 0.326993
728 4 0.320422 0.383139 0.302177
438 4 0.276944 0.42011 0.268517
727 2 0.341281 0.389109 0.28975
729 4 0.36214 0.39508 0.277323
615 4 0.40674 0.357515 0.309417
613 2 0.399537 0.366414 0.331645
2538 4 0.489521 0.394207 0.319958
543 4 0.414584 0.340567 0.304598
2536 2 0.4937 0.401738 0.296484
2537 4 0.497878 0.40927 0.273011
549 4 0.0414181 0.428811 0.328197
777 4 0.0844064 0.450389 0.302163
775 2 0.102548 0.457146 0.317987
414 4 0.133329 0.471106 0.317589
437 4 0.263638 0.429784 0.315741
436 2 0.270291 0.424947 0.292129
2862 4 0.492846 0.426367 0.262991
2860 2 0.473333 0.441173 0.257969
593 4 0.418881 0.44592 0.30822
592 2 0.421183 0.464999 0.324217
594 4 0.423486 0.484077 0.340213
1377 4 0.000180699 0.995393 0.378523
1798 2 0.0170191 0.0104265 0.340887
369 4 0.0648257 0.0503012 0.39328
1800 4 0.0100393 0.998129 0.361508
1782 4 0.113264 0.00322888 0.394961
367 2 0.0830094 0.0342862 0.399448
368 4 0.101193 0.0182713 0.405617
605 4 0.138058 0.0574805 0.368348
604 2 0.158495 0.0527943 0.38197
606 4 0.178932 0.0481082 0.395591
698 4 0.373781 0.0687345 0.335557
256 2 0.38521 0.0603699 0.372572
257 4 0.3751 0.0738176 0.354075
258 4 0.39532 0.0469223 0.391068
426 4 0.414492 0.052958 0.393761
424 2 0.420472 0.033243 0.407929
318 4 0.00866632 0.136033 0.37922
316 2 0.0280734 0.127292 0.366099
317 4 0.0474804 0.118552 0.352979
397 2 0.0881388 0.125982 0.33576
457 2 0.00615144 0.168001 0.402751
730 2 0.0972064 0.102005 0.385016
399 4 0.097187 0.12082 0.35849
731 4 0.106568 0.12339 0.376061
732 4 0.0878448 0.0806189 0.393972
600 4 0.20181 0.156637 0.377953
683 4 0.275877 0.113707 0.371327
682 2 0.279073 0.111013 0.395978
684 4 0.28227 0.108319 0.42063
631 2 0.35857 0.101779 0.338093
633 4 0.378886 0.0874266 0.340627
516 4 0.420112 0.136645 0.375041
575 4 0.405343 0.145526 0.387397
574 2 0.414509 0.147812 0.410548
451 2 0.497401 0.146907 0.360691
514 2 0.439236 0.135963 0.358948
453 4 0.475296 0.138453 0.352626
515 4 0.45836 0.135281 0.342855
459 4 0.00224942 0.192332 0.406988
2654 4 0.00843309 0.201416 0.39047
388 2 0.103649 0.215915 0.342752
389 4 0.09559 0.218984 0.366221
685 2 0.159542 0.224752 0.416778
686 4 0.148427 0.245583 0.425006
598 2 0.194504 0.175604 0.392515
687 4 0.170657 0.203921 0.408551
599 4 0.187198 0.194571 0.407077
473 4 0.237443 0.206299 0.386468
472 2 0.261068 0.198113 0.386552
474 4 0.284694 0.189928 0.386635
488 4 0.30188 0.199652 0.392245
487 2 0.312277 0.220727 0.400786
489 4 0.322674 0.241801 0.409326
706 2 0.362599 0.200722 0.345936
708 4 0.382488 0.215148 0.35057
715 2 0.400939 0.24335 0.347428
717 4 0.4134 0.222973 0.340035
347 4 0.0717442 0.325008 0.419975
275 4 0.144117 0.325246 0.401146
274 2 0.161588 0.312157 0.388955
276 4 0.17906 0.299067 0.376765
373 2 0.213297 0.276854 0.386155
374 4 0.234018 0.262944 0.384635
375 4 0.192575 0.290764 0.387675
716 4 0.388477 0.263728 0.354821
618 4 0.082336 0.343832 0.415376
406 2 0.0526564 0.389798 0.400106
407 4 0.0424237 0.411605 0.393404
408 4 0.062889 0.36799 0.406807
616 2 0.0949532 0.333878 0.396222
617 4 0.10757 0.323923 0.377068
509 4 0.224374 0.348473 0.336054
435 4 0.225722 0.36545 0.345401
434 4 0.274057 0.377967 0.348188
433 2 0.249889 0.371708 0.346795
503 4 0.283454 0.40325 0.415651
614 4 0.392335 0.375312 0.353874
753 4 0.482252 0.38798 0.338021
561 4 0.458613 0.363579 0.391184
752 4 0.451007 0.37179 0.37355
559 2 0.4785 0.360116 0.405938
751 2 0.46663 0.379885 0.355786
548 4 0.0515692 0.414075 0.374893
547 2 0.0464937 0.421443 0.351545
776 4 0.120689 0.463904 0.333811
412 2 0.149511 0.481595 0.333505
499 2 0.172816 0.495581 0.383187
501 4 0.16362 0.495657 0.406438
413 4 0.165692 0.492084 0.349421
1544 4 0.178799 0.502991 0.341676
668 4 0.297007 0.465196 0.393449
1 1 0.314592 0.494788 0.405954
3 3 0.334756 0.499496 0.395484
667 2 0.295734 0.441271 0.400601
718 2 0.0372296 0.0796826 0.449926
720 4 0.0289581 0.0589977 0.461279
2237 4 0.0247719 0.0428076 0.47059
2236 2 0.0325072 0.02421 0.455776
1127 4 0.0146186 0.0590288 0.475098
340 2 0.191108 0.0556432 0.489207
2430 4 0.201413 0.0117547 0.489769
341 4 0.19683 0.0313033 0.489266
1182 4 0.257015 0.0927696 0.48247
342 4 0.185386 0.0799832 0.489147
726 4 0.321055 0.0565514 0.440139
724 2 0.309317 0.0496121 0.461097
725 4 0.297578 0.0426729 0.482055
963 4 0.29261 0.0307979 0.495903
1580 4 0.407835 0.0102066 0.427874
425 4 0.426453 0.013528 0.422097
2878 2 0.454687 0.0762184 0.475508
2879 4 0.453993 0.0526739 0.483896
719 4 0.0455011 0.100368 0.438573
1033 2 0.128229 0.142124 0.480682
1035 4 0.137885 0.149719 0.458904
1152 4 0.183882 0.0926176 0.505376
320 4 0.282304 0.123586 0.433307
1180 2 0.2641 0.100077 0.459632
1181 4 0.271185 0.107385 0.436794
321 4 0.324059 0.147088 0.447621
319 2 0.303182 0.135337 0.440464
2880 4 0.455382 0.0997629 0.46712
642 4 0.4711 0.109177 0.458014
640 2 0.456388 0.126526 0.447633
641 4 0.441677 0.143875 0.437251
306 4 0.437842 0.162933 0.433575
471 4 0.0130161 0.213761 0.47592
469 2 0.0241253 0.192586 0.468612
470 4 0.0352345 0.171412 0.461304
260 4 0.119298 0.214598 0.441782
261 4 0.135208 0.170109 0.458162
259 2 0.127253 0.192354 0.449972
695 4 0.107366 0.229915 0.44542
694 2 0.111289 0.250309 0.459344
411 4 0.249126 0.182587 0.458231
409 2 0.271643 0.189297 0.466784
410 4 0.29416 0.196007 0.475337
900 4 0.290535 0.210542 0.488416
468 4 0.363877 0.222666 0.443146
466 2 0.377759 0.202005 0.440779
467 4 0.39164 0.181343 0.438412
267 4 0.350837 0.262481 0.445
576 4 0.423676 0.150099 0.433698
305 4 0.46776 0.201976 0.424558
304 2 0.452801 0.182454 0.429067
346 2 0.0685722 0.324328 0.444768
326 4 0.0711479 0.342375 0.475693
348 4 0.0654001 0.323647 0.46956
1260 4 0.112991 0.274886 0.492074
696 4 0.115212 0.270703 0.473268
265 2 0.328052 0.262932 0.455288
266 4 0.305267 0.263382 0.465575
811 2 0.268349 0.314848 0.477083
813 4 0.279499 0.320674 0.455475
2456 4 0.504177 0.2701 0.478012
584 4 0.485203 0.265155 0.477127
583 2 0.463812 0.274297 0.46796
585 4 0.442421 0.28344 0.458794
2812 2 0.999134 0.365314 0.44967
2813 4 0.0237185 0.365875 0.454195
325 2 0.0886964 0.35872 0.482768
327 4 0.106245 0.375066 0.489843
10 3 0.147208 0.333858 0.493415
7 3 0.120159 0.359559 0.492557
6 1 0.142915 0.356201 0.49241
8 3 0.151681 0.365075 0.472844
711 4 0.162992 0.38116 0.466112
635 4 0.206446 0.414693 0.477442
504 4 0.236182 0.387343 0.412041
709 2 0.179741 0.394374 0.479151
710 4 0.19649 0.407589 0.492191
774 4 0.215409 0.411579 0.494941
336 4 0.299297 0.410635 0.425402
502 2 0.259818 0.395297 0.413846
334 2 0.31343 0.390222 0.428362
335 4 0.327562 0.369809 0.431323
239 4 0.391359 0.387287 0.439581
238 2 0.368364 0.381538 0.43162
240 4 0.345369 0.375789 0.42366
588 4 0.407666 0.399569 0.441196
587 4 0.4253 0.395811 0.487839
560 4 0.498388 0.356653 0.420692
586 2 0.416483 0.39769 0.464518
681 4 0.0817779 0.416201 0.458437
1382 4 0.0472749 0.501741 0.423498
680 4 0.0535425 0.435249 0.421822
1383 4 0.0421713 0.45208 0.426406
1381 2 0.0447231 0.47691 0.424952
679 2 0.0676602 0.425725 0.44013
383 4 0.101275 0.418909 0.452117
568 2 0.162773 0.479011 0.454017
382 2 0.123217 0.430362 0.455664
384 4 0.145159 0.441814 0.459211
569 4 0.156607 0.457052 0.464262
636 4 0.232081 0.444153 0.446205
570 4 0.168939 0.50097 0.443772
634 2 0.219264 0.429423 0.461823
669 4 0.294462 0.417346 0.407752
4 3 0.311011 0.471865 0.406303
882 4 0.347548 0.4969 0.47009
1057 2 0.152106 0.0683969 0.57779
2428 2 0.220134 0.00324104 0.503989
430 2 0.312056 0.0585803 0.520195
431 4 0.323958 0.0691941 0.539453
961 2 0.272988 0.0161516 0.500968
432 4 0.300154 0.0479664 0.500937
843 4 0.341809 0.0647938 0.547234
1217 4 0.395027 0.0274441 0.529321
1216 2 0.408315 0.00885712 0.539476
842 4 0.386024 0.0419247 0.542462
841 2 0.363916 0.0533593 0.544848
937 2 0.0946361 0.159903 0.527435
1151 4 0.159767 0.0944365 0.549147
1059 4 0.149564 0.0901344 0.565698
1155 4 0.153937 0.108656 0.560699
939 4 0.108984 0.152413 0.508378
1153 2 0.163191 0.124345 0.577828
1034 4 0.118572 0.134529 0.502459
1150 2 0.171825 0.0935271 0.527261
938 4 0.0802879 0.167394 0.546493
878 4 0.0295213 0.211971 0.554055
1199 4 0.0194969 0.2286 0.560381
877 2 0.0464206 0.193561 0.553256
879 4 0.0633199 0.17515 0.552456
1272 4 0.0778544 0.169998 0.565139
858 4 0.268031 0.190349 0.575447
857 4 0.309221 0.208084 0.55332
856 2 0.288626 0.199216 0.564384
898 2 0.30096 0.210749 0.511142
791 4 0.31297 0.226255 0.546464
899 4 0.311386 0.210957 0.533867
790 2 0.320564 0.246272 0.55938
3353 4 0.0164799 0.274893 0.531359
1258 2 0.112011 0.280537 0.516411
1259 4 0.111032 0.286188 0.540748
649 2 0.228132 0.291979 0.519042
651 4 0.210938 0.274574 0.5242
650 4 0.245325 0.309385 0.513884
804 4 0.259823 0.322931 0.511806
792 4 0.328158 0.266289 0.572296
812 4 0.257199 0.309022 0.498691
1239 4 0.33434 0.332445 0.560196
1237 2 0.333865 0.308961 0.568767
1238 4 0.33339 0.285477 0.577338
873 4 0.412417 0.259269 0.549799
871 2 0.398195 0.265157 0.530094
872 4 0.383973 0.271045 0.51039
954 4 0.491355 0.326352 0.570554
1011 4 0.484619 0.316349 0.555359
935 4 0.00672398 0.391704 0.508703
1137 4 0.143246 0.390396 0.58889
1135 2 0.132261 0.409116 0.576477
9 3 0.152192 0.366881 0.510803
1189 2 0.229977 0.384378 0.566996
773 4 0.242396 0.381512 0.52441
1190 4 0.240164 0.38096 0.544419
772 2 0.228902 0.396546 0.509675
803 4 0.245549 0.365149 0.534492
802 2 0.252686 0.34404 0.523149
930 4 0.288616 0.34538 0.566016
928 2 0.294694 0.366323 0.553784
929 4 0.300772 0.387267 0.541552
927 4 0.423583 0.384282 0.54822
925 2 0.426568 0.395219 0.525934
926 4 0.429554 0.406156 0.503649
3309 4 0.498253 0.402585 0.574519
1161 4 0.169738 0.491206 0.550405
1136 4 0.121277 0.427836 0.564064
1159 2 0.185769 0.47973 0.565782
889 2 0.309422 0.475462 0.549136
890 4 0.303417 0.498135 0.540473
891 4 0.315426 0.452789 0.557799
1953 4 0.377312 0.478885 0.572584
1951 2 0.363768 0.489377 0.554373
1000 2 0.41652 0.499635 0.517586
1001 4 0.434508 0.484378 0.525884
662 4 0.446225 0.469207 0.528241
661 2 0.440139 0.446497 0.519733
1911 4 0.438516 0.477509 0.544016
1909 2 0.438238 0.474355 0.568818
1332 4 0.45207 0.487137 0.534144
663 4 0.434052 0.423787 0.511224
2319 4 0.0524674 0.00270279 0.637246
945 4 0.0628201 0.015516 0.648086
1058 4 0.154647 0.0466593 0.589881
2375 4 0.117477 0.0218645 0.610602
943 2 0.0870915 0.017661 0.653696
944 4 0.111363 0.019806 0.659307
825 4 0.126576 0.0262767 0.647931
823 2 0.141762 0.00738197 0.641801
824 4 0.156947 0.988487 0.635672
1030 2 0.25922 0.0838605 0.612337
950 4 0.319611 0.0292457 0.617052
949 2 0.296844 0.0395803 0.616869
951 4 0.274077 0.049915 0.616685
1031 4 0.276715 0.0669827 0.606488
1081 2 0.0341785 0.113295 0.660113
3179 4 0.0303378 0.14823 0.656865
1083 4 0.0403514 0.133475 0.646702
3178 2 0.0108908 0.162057 0.649396
1282 2 0.155231 0.0953505 0.664927
1154 4 0.172446 0.140034 0.594957
1032 4 0.241724 0.100738 0.618186
1284 4 0.160986 0.090503 0.641082
1221 4 0.187985 0.143711 0.607881
1219 2 0.200538 0.161649 0.619958
43 3 0.430667 0.0917709 0.667127
808 2 0.486939 0.090835 0.644531
809 4 0.499347 0.092854 0.622917
1243 2 0.0711066 0.229091 0.630808
1244 4 0.0530581 0.214496 0.621511
1270 2 0.0871276 0.179533 0.586311
1271 4 0.0964009 0.189069 0.607483
1209 4 0.0864468 0.238869 0.659221
1245 4 0.0891551 0.243686 0.640104
1210 2 0.237225 0.196103 0.656247
1212 4 0.217407 0.195984 0.641001
1220 4 0.21309 0.179586 0.632036
796 2 0.193888 0.216651 0.623471
798 4 0.209932 0.197474 0.623417
797 4 0.177844 0.235828 0.623526
1194 4 0.341199 0.227197 0.654082
906 4 0.476282 0.250891 0.581613
904 2 0.47038 0.24918 0.60585
905 4 0.464479 0.247469 0.630087
3123 4 0.463654 0.241761 0.64896
3121 2 0.484356 0.236293 0.661872
983 4 0.0385428 0.323611 0.6
982 2 0.048358 0.327294 0.6227
3263 4 0.062422 0.323862 0.663168
947 4 0.187367 0.270009 0.633199
946 2 0.191867 0.261525 0.656284
805 2 0.327832 0.318199 0.660429
807 4 0.329584 0.317703 0.635492
952 2 0.48907 0.330861 0.595041
953 4 0.486786 0.33537 0.619528
984 4 0.0581731 0.330977 0.6454
1041 4 0.0670448 0.342325 0.658631
1039 2 0.0742365 0.365749 0.653653
1040 4 0.0814281 0.389172 0.648674
993 4 0.0931456 0.400301 0.636388
897 4 0.152757 0.371751 0.585769
896 4 0.200803 0.383405 0.593288
895 2 0.17678 0.377578 0.589529
1191 4 0.21979 0.387796 0.589573
1172 4 0.206358 0.401967 0.592745
1206 4 0.478495 0.404485 0.662933
991 2 0.0841891 0.42363 0.63724
992 4 0.0752327 0.446959 0.638091
1160 4 0.2018 0.468253 0.58116
1175 4 0.211732 0.495913 0.658001
1173 4 0.198469 0.451267 0.589915
1171 2 0.202413 0.426617 0.59133
1188 4 0.209223 0.477936 0.649173
1187 4 0.203962 0.466149 0.600861
1186 2 0.206592 0.472042 0.625017
1268 4 0.420376 0.499142 0.654435
1910 4 0.43796 0.471201 0.593621
1204 2 0.473874 0.42741 0.654084
1205 4 0.469253 0.450334 0.645236
1269 4 0.456361 0.465049 0.647843
1267 2 0.438369 0.482095 0.651139
2254 2 0.209882 0.00615289 0.745719
2256 4 0.191869 0.0232526 0.742836
1003 2 0.320714 0.0588536 0.724793
1005 4 0.297608 0.0679066 0.721738
1004 4 0.34382 0.0498007 0.727849
810 4 0.474531 0.0888159 0.666144
45 3 0.433681 0.0549365 0.674324
42 3 0.435124 0.0795107 0.702376
41 1 0.440817 0.0756868 0.680419
1163 4 0.480706 0.0716167 0.671396
44 3 0.463883 0.0770657 0.678301
1162 2 0.493537 0.0513976 0.678589
1082 4 0.0280055 0.093115 0.673523
1076 4 0.0236396 0.105026 0.688976
1075 2 0.0238837 0.0974658 0.712808
1077 4 0.0241278 0.0899052 0.73664
850 2 0.068775 0.161614 0.719446
864 4 0.039454 0.0980984 0.747035
909 4 0.0938904 0.140626 0.698685
907 2 0.11409 0.126593 0.694188
908 4 0.13429 0.11256 0.689691
1283 4 0.149477 0.100198 0.688771
1227 4 0.150203 0.116507 0.699767
851 4 0.0917076 0.1547 0.712271
1225 2 0.163174 0.110601 0.720311
1107 4 0.110588 0.153114 0.720541
1203 4 0.152779 0.082815 0.740075
1226 4 0.176144 0.104694 0.740855
1148 4 0.190033 0.0884963 0.745636
1147 2 0.214619 0.0861619 0.741726
1149 4 0.239204 0.0838276 0.737816
887 4 0.297007 0.161923 0.706226
830 4 0.316082 0.156963 0.706411
978 4 0.306649 0.159352 0.723012
831 4 0.363045 0.141545 0.698827
1141 2 0.397574 0.157699 0.718021
829 2 0.339564 0.149254 0.702619
1142 4 0.374706 0.149105 0.712693
1025 4 0.470929 0.143369 0.682061
3424 2 0.488986 0.102986 0.700928
3426 4 0.480162 0.0867323 0.684101
1024 2 0.454155 0.15311 0.697838
1143 4 0.420441 0.166294 0.72335
1026 4 0.43738 0.16285 0.713615
852 4 0.0458425 0.168528 0.72662
1215 4 0.00239506 0.206539 0.728138
1213 2 0.0243984 0.195779 0.733163
1214 4 0.0464017 0.185019 0.738189
1074 4 0.065152 0.229169 0.73753
1177 2 0.994185 0.241852 0.742932
1207 2 0.103335 0.241268 0.677502
1208 4 0.120223 0.243667 0.695783
1106 4 0.143428 0.182748 0.743867
1105 2 0.127008 0.167931 0.732204
1064 4 0.210722 0.246512 0.692139
888 4 0.261657 0.176246 0.673885
1211 4 0.257043 0.196223 0.671493
886 2 0.279332 0.169084 0.690056
976 2 0.305456 0.173824 0.743368
1193 4 0.33298 0.23015 0.70332
1192 2 0.33709 0.228673 0.678701
1261 2 0.4502 0.195386 0.732415
1262 4 0.434111 0.180197 0.72077
3262 2 0.0452026 0.323279 0.681288
3264 4 0.0279833 0.322696 0.699408
893 4 0.012416 0.32238 0.712792
1179 4 0.99929 0.263535 0.754289
948 4 0.196367 0.253041 0.67937
821 4 0.165617 0.265655 0.722617
820 2 0.171643 0.255452 0.744634
1065 4 0.23662 0.254863 0.734095
1063 2 0.223671 0.250688 0.713117
806 4 0.326079 0.318695 0.685366
917 4 0.289553 0.252153 0.742006
892 2 0.0183648 0.344493 0.722833
894 4 0.0243136 0.366605 0.732874
3276 4 0.0203502 0.385221 0.736765
814 2 0.057848 0.383953 0.721597
816 4 0.0329939 0.381321 0.722322
815 4 0.082702 0.386585 0.720873
940 2 0.111479 0.405902 0.736213
942 4 0.0918731 0.390434 0.737438
1029 4 0.227727 0.428346 0.666724
1019 4 0.385271 0.396575 0.721048
1018 2 0.364452 0.394142 0.73468
1020 4 0.343633 0.391709 0.748312
1280 4 0.0494926 0.479596 0.699701
1279 2 0.0294476 0.492379 0.707444
941 4 0.131086 0.421371 0.734988
1066 2 0.156931 0.423889 0.707289
1067 4 0.150425 0.419305 0.730992
1068 4 0.163437 0.428473 0.683586
1027 2 0.204503 0.42534 0.675488
1028 4 0.181279 0.422335 0.684252
1140 4 0.281912 0.486359 0.718614
1138 2 0.27222 0.469509 0.734341
1230 4 0.407218 0.447838 0.728435
3328 2 0.494289 0.459097 0.701118
1100 4 0.413681 0.446079 0.709134
1101 4 0.458702 0.460745 0.725219
1099 2 0.436192 0.453412 0.717177
1251 4 0.473221 0.473085 0.726895
3330 4 0.47124 0.462183 0.710305
1296 4 0.00905331 0.0227831 0.81906
2047 2 0.154696 0.0023731 0.782076
1201 2 0.153062 0.0585046 0.745915
1202 4 0.153345 0.0341943 0.751754
2049 4 0.148639 0.0200582 0.765471
2321 4 0.456239 0.00949079 0.794471
2322 4 0.470803 0.0539558 0.776823
2320 2 0.463521 0.0317233 0.785647
846 4 0.479385 0.066316 0.764409
862 2 0.0415818 0.107637 0.770049
863 4 0.0437097 0.117177 0.793063
832 2 0.0162242 0.101353 0.820547
833 4 0.0371686 0.106427 0.807867
1125 4 0.0464437 0.12344 0.81128
1123 2 0.0471427 0.147593 0.817708
31 1 0.133548 0.150244 0.813191
35 3 0.138908 0.132428 0.800058
33 3 0.11345 0.159484 0.806183
32 3 0.131297 0.143196 0.834972
34 3 0.150379 0.166184 0.812166
1257 4 0.255012 0.093848 0.743809
1255 2 0.261745 0.0931668 0.76788
1256 4 0.268478 0.0924856 0.79195
840 4 0.283979 0.0884906 0.803217
838 2 0.290018 0.103292 0.822443
1112 4 0.366482 0.0855543 0.836404
844 2 0.474457 0.0877113 0.776373
845 4 0.469529 0.109106 0.788337
1072 2 0.0571093 0.243409 0.756444
1124 4 0.0478418 0.171746 0.824136
1130 4 0.141714 0.186567 0.762819
1129 2 0.155983 0.206822 0.766181
822 4 0.177669 0.245248 0.766651
1131 4 0.170252 0.227077 0.769543
920 4 0.228736 0.196615 0.819971
1277 4 0.187088 0.232812 0.778594
1276 2 0.199699 0.238619 0.799388
1278 4 0.212311 0.244425 0.820183
977 4 0.304263 0.188295 0.763723
918 4 0.297161 0.205709 0.758912
1298 4 0.297921 0.200059 0.777868
916 2 0.293357 0.228931 0.750459
1297 2 0.320105 0.198613 0.789313
1084 2 0.369809 0.188609 0.830055
50 3 0.399856 0.200198 0.771227
1086 4 0.357534 0.203172 0.813856