ITEM: TIMESTEP
2790000
ITEM: NUMBER OF ATOMS
4590
ITEM: BOX BOUNDS pp pp pp
-9.9985700000000008e+00 9.9985700000000008e+00
-9.9985700000000008e+00 9.9985700000000008e+00
-9.9985700000000008e+00 9.9985700000000008e+00
ITEM: ATOMS id type xs ys zs
463 2 0.0591337 0.0814448 0.0251846
464 4 0.0345883 0.0859816 0.0266398
701 4 0.0954509 0.0699516 0.00827689
700 2 0.117065 0.0589523 0.0143634
702 4 0.138678 0.047953 0.02045
566 4 0.155463 0.055959 0.0116103
565 2 0.174838 0.066851 0.000157334
746 4 0.481297 0.0586353 0.0309537
2469 4 0.489976 0.0489111 0.0470552
745 2 0.470735 0.0594635 0.00830566
590 4 0.0291524 0.0915695 0.0449424
589 2 0.0103052 0.0863291 0.0605148
465 4 0.0836792 0.076908 0.0237295
558 4 0.35674 0.118262 0.0342761
556 2 0.355403 0.112959 0.0586745
865 2 0.370656 0.164478 0.00445593
771 4 0.451258 0.13666 0.0564868
769 2 0.462964 0.145035 0.0769316
554 4 0.0510552 0.218636 0.0203172
553 2 0.0689296 0.203527 0.0291151
555 4 0.086804 0.188418 0.0379129
835 2 0.124186 0.20472 0.0191119
836 4 0.103029 0.200205 0.0316481
837 4 0.145343 0.209235 0.00657574
573 4 0.326836 0.240331 0.0597134
461 4 0.330611 0.234341 0.0783215
666 4 0.33319 0.221783 0.063267
664 2 0.342847 0.205725 0.0467117
665 4 0.352503 0.189667 0.0301564
867 4 0.368059 0.178533 0.024972
1070 4 0.416393 0.230648 0.0662553
2808 4 0.0342247 0.32209 0.0112978
2806 2 0.0183696 0.309922 0.0263219
2807 4 0.00251455 0.297753 0.0413461
294 4 0.120329 0.328794 0.0848714
292 2 0.127864 0.325536 0.0612537
293 4 0.135399 0.322279 0.037636
356 4 0.308861 0.292621 0.0365264
572 4 0.326489 0.288928 0.0479253
355 2 0.293275 0.310498 0.0286088
571 2 0.326662 0.26463 0.0538193
1069 2 0.422984 0.253049 0.0751963
322 2 0.443498 0.318557 0.0767549
1071 4 0.429575 0.27545 0.0841372
647 4 0.0130478 0.359217 0.0724091
646 2 0.0325118 0.345914 0.0807372
620 4 0.00552667 0.37862 0.0752001
507 4 0.142118 0.338461 0.0266148
505 2 0.164928 0.34843 0.0289683
481 2 0.210943 0.394567 0.0261859
482 4 0.227447 0.413045 0.0228154
483 4 0.194439 0.376089 0.0295564
506 4 0.187737 0.358399 0.0313217
609 4 0.242273 0.403548 0.0335729
357 4 0.277689 0.328374 0.0206912
902 4 0.276871 0.345427 0.00950198
957 4 0.355607 0.39005 0.0116097
323 4 0.452558 0.339873 0.0673342
671 4 0.490282 0.385745 0.0684266
670 2 0.470164 0.371567 0.0728372
280 2 0.492579 0.412625 0.042145
551 4 0.0313797 0.445404 0.075102
550 2 0.0551307 0.45313 0.0739283
552 4 0.0788818 0.460856 0.0727545
1787 4 0.095278 0.471605 0.0726638
1786 2 0.102147 0.467952 0.0489015
1788 4 0.109017 0.464299 0.0251391
242 4 0.0948415 0.455734 0.0834923
246 4 0.230754 0.485332 0.0345079
244 2 0.221987 0.464892 0.0459317
245 4 0.21322 0.444451 0.0573555
272 4 0.239221 0.482219 0.0175998
1778 4 0.23708 0.500777 0.0233761
627 4 0.200817 0.447274 0.071966
607 2 0.260281 0.420227 0.0288064
608 4 0.278288 0.436906 0.0240399
252 4 0.293212 0.449215 0.0313179
250 2 0.31264 0.464594 0.0279597
251 4 0.332067 0.479972 0.0246014
2289 4 0.34434 0.491794 0.0333939
525 4 0.439306 0.478365 0.0698874
282 4 0.48192 0.429258 0.026818
226 2 0.459768 0.456079 0.0478931
227 4 0.467162 0.433376 0.0404725
228 4 0.452374 0.478782 0.0553136
563 4 0.443648 0.494986 0.0624517
16 1 0.0661087 0.0392192 0.145403
20 3 0.0625105 0.0432169 0.123273
1806 4 0.0476431 0.0121327 0.136272
18 3 0.0589269 0.0178396 0.150856
1804 2 0.0457486 0.995564 0.117643
450 4 0.151892 0.067932 0.179047
17 3 0.0886212 0.0408583 0.149836
448 2 0.166625 0.0838185 0.166567
1661 4 0.303629 0.00326108 0.163732
654 4 0.294212 0.0159735 0.176767
652 2 0.306918 0.0336233 0.164429
653 4 0.319624 0.051273 0.152091
484 2 0.367282 0.0193846 0.10377
297 4 0.348119 0.049689 0.118826
485 4 0.365796 0.0397814 0.118156
295 2 0.353288 0.0713084 0.107378
579 4 0.106658 0.135335 0.0975197
237 4 0.155061 0.158459 0.13158
578 4 0.139748 0.164723 0.120803
577 2 0.123203 0.150029 0.109161
235 2 0.167512 0.138833 0.140796
236 4 0.179962 0.119206 0.150013
693 4 0.196852 0.111979 0.155022
449 4 0.181357 0.0997049 0.154087
691 2 0.220631 0.106216 0.14987
692 4 0.244409 0.100452 0.144718
582 4 0.259123 0.097232 0.130438
580 2 0.276341 0.112226 0.140632
581 4 0.293559 0.127219 0.150825
30 3 0.311403 0.130787 0.15725
29 3 0.318096 0.16575 0.169514
557 4 0.354067 0.107657 0.0830728
296 4 0.358457 0.0929279 0.0959298
770 4 0.47467 0.153411 0.0973764
1014 4 0.46647 0.168097 0.109321
476 4 0.141759 0.170503 0.138952
737 4 0.15448 0.176887 0.125057
475 2 0.137128 0.184349 0.15925
736 2 0.171713 0.183588 0.108226
738 4 0.188946 0.19029 0.0913944
354 4 0.319002 0.24135 0.143156
283 2 0.32484 0.200796 0.149418
285 4 0.328169 0.177466 0.157772
284 4 0.321511 0.224126 0.141063
462 4 0.319388 0.234385 0.127053
460 2 0.325 0.234363 0.102687
255 4 0.334218 0.235224 0.136454
253 2 0.352176 0.247285 0.148993
1013 4 0.482045 0.21527 0.115053
1012 2 0.474257 0.191683 0.112187
456 4 0.0639405 0.32166 0.100899
455 4 0.0486866 0.314934 0.148046
454 2 0.0563135 0.318297 0.124472
648 4 0.0519758 0.332611 0.0890653
610 2 0.228625 0.32961 0.114665
612 4 0.23242 0.305023 0.112163
756 4 0.236184 0.304155 0.132497
754 2 0.248847 0.286249 0.144504
352 2 0.298038 0.25013 0.153576
353 4 0.277073 0.25891 0.163995
755 4 0.261511 0.268343 0.156512
278 4 0.262161 0.263233 0.175686
254 4 0.370133 0.259347 0.161533
324 4 0.434437 0.297242 0.0861756
626 4 0.176455 0.405995 0.0862209
611 4 0.22483 0.354197 0.117168
536 4 0.174376 0.387538 0.0930056
535 2 0.189878 0.370984 0.103534
537 4 0.205381 0.354431 0.114062
387 4 0.336802 0.404634 0.13388
739 2 0.408044 0.380958 0.125919
740 4 0.400812 0.392368 0.14696
385 2 0.359559 0.39946 0.142854
386 4 0.382316 0.394287 0.151828
495 4 0.396355 0.403106 0.162288
15 3 0.391385 0.377091 0.155379
672 4 0.450046 0.35739 0.0772477
741 4 0.415276 0.369548 0.104879
241 2 0.110482 0.450377 0.10225
1438 2 0.168682 0.456552 0.122738
243 4 0.126123 0.445021 0.121008
1440 4 0.144445 0.451245 0.125839
625 2 0.188636 0.426634 0.0790935
1439 4 0.192918 0.461858 0.119637
637 2 0.220209 0.488806 0.117081
638 4 0.240167 0.501556 0.125099
639 4 0.200251 0.476056 0.109062
303 4 0.299466 0.45169 0.0993479
766 2 0.276216 0.484876 0.117866
768 4 0.291873 0.466154 0.112431
301 2 0.314318 0.436619 0.112671
302 4 0.329169 0.421549 0.125993
524 4 0.400518 0.465888 0.0988793
493 2 0.407656 0.424811 0.157155
494 4 0.418957 0.446516 0.152022
660 4 0.415201 0.465657 0.147315
523 2 0.419912 0.472127 0.0843833
658 2 0.426717 0.481336 0.163023
19 3 0.0547785 0.0548925 0.158224
380 4 0.0565216 0.0528963 0.178303
675 4 0.0898997 0.0478173 0.169074
673 2 0.114637 0.0506237 0.171385
1505 4 0.157762 0.0493493 0.178452
674 4 0.139375 0.0534301 0.173697
1504 2 0.16128 0.033636 0.19758
689 4 0.180625 0.00604916 0.212775
1506 4 0.164799 0.0179226 0.216708
23 3 0.399692 0.00773801 0.227976
22 3 0.415516 0.0229513 0.197467
21 1 0.419838 0.0132872 0.217889
757 2 0.473596 0.0239114 0.219456
25 3 0.43124 0.028077 0.230924
759 4 0.450717 0.0284613 0.228457
350 4 0.441809 0.0419988 0.239784
758 4 0.496475 0.0193616 0.210454
379 2 0.0482665 0.0761607 0.182278
512 4 0.0550415 0.11061 0.180382
381 4 0.0400113 0.099425 0.186253
511 2 0.0637077 0.130131 0.193383
513 4 0.0723739 0.149651 0.206385
339 4 0.0839412 0.16544 0.210932
26 1 0.318395 0.143209 0.17501
28 3 0.304641 0.13933 0.193291
27 3 0.339909 0.137173 0.180478
311 4 0.444184 0.160927 0.197118
337 2 0.102128 0.18065 0.20299
477 4 0.132497 0.198196 0.179548
363 4 0.129389 0.212676 0.192461
338 4 0.120314 0.195861 0.195049
362 4 0.133038 0.250389 0.225098
361 2 0.131213 0.231532 0.208779
628 2 0.396178 0.23468 0.187749
629 4 0.408078 0.218742 0.2029
630 4 0.384278 0.250618 0.172599
312 4 0.423561 0.205503 0.206522
717 4 0.377332 0.243234 0.255691
310 2 0.433873 0.183215 0.20182
761 4 0.478989 0.229569 0.237014
749 4 0.04401 0.30149 0.164129
750 4 0.0173155 0.293123 0.205579
395 4 0.0127143 0.295619 0.223461
748 2 0.0306628 0.297306 0.184854
394 2 0.0169434 0.284682 0.245544
372 4 0.143047 0.254838 0.242737
370 2 0.152244 0.277801 0.24638
300 4 0.121838 0.290826 0.195274
298 2 0.113616 0.306899 0.212573
299 4 0.105395 0.322972 0.229871
734 4 0.109066 0.327936 0.247898
279 4 0.221022 0.25579 0.203126
277 2 0.241591 0.259511 0.189406
401 4 0.28173 0.296924 0.239576
498 4 0.281772 0.305991 0.220812
496 2 0.293883 0.314101 0.200496
764 4 0.416026 0.305135 0.180363
765 4 0.387887 0.267477 0.163313
763 2 0.401956 0.286306 0.171838
624 4 0.472591 0.307681 0.170428
622 2 0.448974 0.315336 0.173399
528 4 0.487634 0.29908 0.180597
623 4 0.425357 0.32299 0.17637
262 2 0.0410904 0.387932 0.213154
263 4 0.0525019 0.366933 0.220504
602 4 0.0701354 0.371991 0.211096
264 4 0.0296788 0.40893 0.205804
601 2 0.0848967 0.35644 0.223959
603 4 0.099658 0.34089 0.236823
290 4 0.171495 0.39412 0.235817
289 2 0.173406 0.414553 0.221535
308 4 0.316559 0.337815 0.177431
497 4 0.305994 0.322212 0.180181
307 2 0.339296 0.346534 0.183107
309 4 0.362032 0.355253 0.188782
14 3 0.399351 0.399986 0.184189
11 1 0.395355 0.378045 0.177784
13 3 0.377148 0.369587 0.189418
12 3 0.413893 0.365358 0.18274
2618 4 0.0220158 0.426488 0.212175
2617 2 0.00413944 0.435443 0.227189
291 4 0.175317 0.434987 0.207252
416 4 0.175051 0.450721 0.218784
415 2 0.189786 0.470799 0.216562
1430 4 0.205112 0.494989 0.195188
417 4 0.20452 0.490878 0.214341
597 4 0.485469 0.459843 0.20708
596 4 0.450827 0.493367 0.193783
659 4 0.438234 0.497015 0.17873
595 2 0.468148 0.476605 0.200431
645 4 0.497514 0.458537 0.190158
1799 4 0.00968179 0.0229086 0.297292
233 4 0.00613647 0.040882 0.291173
1402 2 0.0455997 0.0455053 0.304323
1403 4 0.021727 0.0383596 0.302272
1404 4 0.0694724 0.0526511 0.306375
1798 2 0.00184536 0.00937883 0.316804
633 4 0.375637 0.0357011 0.297337
631 2 0.379679 0.0463092 0.275059
257 4 0.375722 0.0530546 0.307003
698 4 0.367917 0.0366904 0.314981
697 2 0.360222 0.0129061 0.315508
632 4 0.383722 0.0569172 0.252782
256 2 0.375201 0.0655142 0.328675
349 2 0.441007 0.0396505 0.264665
744 4 0.458157 0.0340772 0.29765
742 2 0.472433 0.0309659 0.31794
351 4 0.440205 0.0373021 0.289545
398 4 0.074502 0.147421 0.315214
397 2 0.0622618 0.127463 0.323992
393 4 0.0869472 0.154235 0.30195
399 4 0.0500215 0.107505 0.332769
545 4 0.131508 0.152076 0.260968
392 4 0.110509 0.152538 0.257874
391 2 0.0987281 0.153387 0.279912
404 4 0.195614 0.155128 0.328643
521 4 0.489505 0.134677 0.251882
390 4 0.0809283 0.165221 0.317092
444 4 0.0315906 0.220598 0.304063
442 2 0.0288888 0.243563 0.294551
388 2 0.0768545 0.189241 0.322714
389 4 0.0727807 0.213261 0.328336
544 2 0.14958 0.167878 0.267957
723 4 0.210002 0.226515 0.245835
403 2 0.188729 0.167664 0.308134
721 2 0.197754 0.209367 0.259292
546 4 0.167652 0.183681 0.274945
405 4 0.181845 0.180201 0.287625
722 4 0.185507 0.192218 0.272749
378 4 0.296622 0.241552 0.329529
376 2 0.311171 0.221225 0.328938
377 4 0.325719 0.200898 0.328346
420 4 0.383148 0.223821 0.254927
418 2 0.404976 0.216434 0.26463
331 2 0.454107 0.2061 0.307846
332 4 0.440572 0.204413 0.286891
419 4 0.426805 0.209048 0.274333
760 2 0.462054 0.221341 0.253466
762 4 0.445119 0.213113 0.269918
333 4 0.467642 0.207788 0.328802
453 4 0.481424 0.22141 0.334668
515 4 0.482532 0.203149 0.34012
364 2 0.0200588 0.305735 0.296214
396 4 0.0211725 0.273744 0.267628
443 4 0.0261871 0.266528 0.285038
365 4 0.0255186 0.285438 0.282672
366 4 0.0145989 0.326033 0.309756
407 4 0.0172649 0.324879 0.329605
371 4 0.161441 0.300765 0.250024
735 4 0.14161 0.330977 0.285744
733 2 0.125338 0.329457 0.266821
676 2 0.17989 0.330358 0.296609
508 2 0.241176 0.314347 0.3084
509 4 0.21834 0.323216 0.313404
678 4 0.199113 0.326328 0.312081
510 4 0.264012 0.305479 0.303395
400 2 0.278559 0.297487 0.264372
402 4 0.275387 0.298049 0.289167
345 4 0.279693 0.294045 0.307242
343 2 0.294105 0.274988 0.314612
344 4 0.308516 0.255931 0.321983
715 2 0.377177 0.2669 0.263757
716 4 0.377023 0.290566 0.271824
542 4 0.382821 0.291613 0.29115
541 2 0.396415 0.302459 0.309115
543 4 0.410009 0.313304 0.32708
2493 4 0.00321094 0.3359 0.321862
548 4 0.0220655 0.340694 0.319142
547 2 0.027163 0.365169 0.318751
549 4 0.0322604 0.389645 0.31836
677 4 0.160666 0.334388 0.281136
435 4 0.209775 0.335302 0.326125
728 4 0.358445 0.391047 0.287894
727 2 0.368705 0.406109 0.305013
2538 4 0.477987 0.343938 0.294168
753 4 0.469236 0.333126 0.309591
2536 2 0.49312 0.35873 0.28085
1543 2 0.143238 0.471295 0.324629
1545 4 0.164311 0.463572 0.313609
1544 4 0.122165 0.479018 0.33565
1436 4 0.172409 0.478913 0.30473
729 4 0.378965 0.42117 0.322132
437 4 0.389346 0.437695 0.322482
730 2 0.0647417 0.0726048 0.348332
1772 4 0.0125716 0.0363214 0.385466
1771 2 0.00721261 0.0174411 0.369974
2238 4 0.999189 0.0300598 0.400339
732 4 0.0796212 0.052943 0.352478
369 4 0.0829545 0.037441 0.365603
367 2 0.0880682 0.0290514 0.388595
606 4 0.154456 0.0230763 0.421827
368 4 0.093182 0.0206617 0.411587
1782 4 0.0997633 0.00215689 0.409677
605 4 0.201334 0.0385791 0.413903
604 2 0.177895 0.0308277 0.417865
1701 4 0.201667 0.0525099 0.397964
424 2 0.386415 0.0699487 0.3861
425 4 0.395006 0.0543401 0.403643
1580 4 0.403045 0.0366549 0.406353
2664 4 0.499139 0.0214355 0.351179
743 4 0.486709 0.0278547 0.33823
479 4 0.48485 0.0344966 0.356166
478 2 0.484749 0.0524809 0.373536
480 4 0.484649 0.0704652 0.390907
458 4 0.00924729 0.144202 0.391934
318 4 0.0122138 0.124899 0.383376
317 4 0.0482059 0.109448 0.352287
731 4 0.0498621 0.0922665 0.344186
316 2 0.0302099 0.117173 0.367831
249 4 0.194307 0.14054 0.343145
1699 2 0.203052 0.0774542 0.398984
247 2 0.197595 0.12449 0.362034
248 4 0.200883 0.108441 0.380922
1700 4 0.204436 0.102399 0.400004
319 2 0.329265 0.13525 0.394157
320 4 0.313072 0.121269 0.4071
682 2 0.273007 0.141479 0.404939
683 4 0.250601 0.152556 0.405602
684 4 0.295413 0.130402 0.404276
426 4 0.377825 0.0855573 0.368557
258 4 0.374679 0.0779738 0.350346
321 4 0.345457 0.149232 0.381215
708 4 0.347177 0.150291 0.361239
516 4 0.47574 0.163628 0.369998
575 4 0.470493 0.148718 0.380702
574 2 0.466498 0.137306 0.402588
459 4 0.0118163 0.192682 0.379942
457 2 0.0105318 0.168442 0.385938
600 4 0.258285 0.168398 0.414006
707 4 0.33025 0.195215 0.347237
706 2 0.338713 0.172753 0.354238
466 2 0.359828 0.232707 0.408927
467 4 0.370792 0.211311 0.415796
514 2 0.479136 0.183389 0.355059
406 2 0.0251638 0.312291 0.349713
408 4 0.0330627 0.299703 0.369821
347 4 0.0755741 0.324908 0.383436
275 4 0.135826 0.314865 0.359289
617 4 0.126007 0.332072 0.355264
274 2 0.160507 0.31659 0.362907
276 4 0.185187 0.318315 0.366526
373 2 0.209454 0.288337 0.385362
375 4 0.198394 0.305418 0.370833
374 4 0.220513 0.271255 0.399891
615 4 0.406811 0.32326 0.344311
267 4 0.357238 0.271263 0.401085
468 4 0.348864 0.254103 0.402058
265 2 0.337958 0.283388 0.411402
751 2 0.47609 0.32993 0.333424
752 4 0.482944 0.326735 0.357256
777 4 0.0298664 0.396684 0.337921
346 2 0.0627209 0.333742 0.402979
775 2 0.0487272 0.412991 0.339796
616 2 0.105832 0.337436 0.369025
618 4 0.0856563 0.3428 0.382786
433 2 0.207976 0.349705 0.346484
434 4 0.206177 0.364108 0.366843
502 2 0.306757 0.414511 0.410144
613 2 0.421413 0.343405 0.341837
614 4 0.436016 0.36355 0.339363
776 4 0.067588 0.429299 0.341672
414 4 0.0729221 0.448994 0.345412
413 4 0.104572 0.484035 0.328945
412 2 0.0887469 0.466515 0.337178
503 4 0.320032 0.434412 0.402867
594 4 0.403082 0.50618 0.400367
436 2 0.375978 0.457667 0.329379
438 4 0.36261 0.47764 0.336275
669 4 0.331478 0.450533 0.399034
240 4 0.40182 0.427004 0.39661
335 4 0.384059 0.417679 0.390525
336 4 0.339283 0.434263 0.405383
334 2 0.361671 0.425971 0.397954
3990 4 0.501059 0.495553 0.375032
2236 2 0.00552399 0.0462064 0.418348
1127 4 0.0123734 0.0624733 0.456671
2237 4 0.0118594 0.0623529 0.436357
720 4 0.0287136 0.0613377 0.446376
2429 4 0.238615 0.00478583 0.484139
961 2 0.270857 0.000857416 0.478521
724 2 0.291921 0.0540898 0.478724
726 4 0.291648 0.0785312 0.473459
725 4 0.292194 0.0296484 0.483989
963 4 0.293279 0.010628 0.483715
432 4 0.30459 0.0197187 0.496532
1579 2 0.391164 0.0173079 0.416827
2879 4 0.409896 0.0323343 0.472886
642 4 0.452834 0.0739119 0.449082
2878 2 0.429708 0.0470935 0.469037
2880 4 0.44952 0.0618527 0.465187
718 2 0.0336658 0.0857417 0.444118
719 4 0.038618 0.110146 0.441859
939 4 0.0936771 0.130957 0.487322
1033 2 0.12327 0.12936 0.461768
1035 4 0.147197 0.130681 0.454631
261 4 0.154188 0.143851 0.467313
1034 4 0.0993433 0.128038 0.468905
259 2 0.165565 0.165089 0.46063
1181 4 0.298652 0.119453 0.419983
1182 4 0.300242 0.091392 0.461344
1180 2 0.299447 0.105423 0.440663
576 4 0.462503 0.125894 0.424473
640 2 0.460834 0.0973352 0.445541
641 4 0.468834 0.120758 0.442
306 4 0.467863 0.139472 0.437738
304 2 0.466709 0.150189 0.460298
3158 4 0.45365 0.149585 0.492509
305 4 0.465554 0.160906 0.482859
694 2 0.164452 0.221958 0.476771
696 4 0.15444 0.240619 0.490064
695 4 0.174463 0.203297 0.463477
260 4 0.176943 0.186328 0.453946
472 2 0.239559 0.24664 0.429162
687 4 0.237903 0.213349 0.448365
686 4 0.192159 0.197311 0.460654
685 2 0.215031 0.20533 0.45451
489 4 0.31438 0.241552 0.433765
599 4 0.254891 0.210605 0.44061
474 4 0.250465 0.227058 0.440242
411 4 0.254985 0.218194 0.455879
598 2 0.256588 0.189501 0.427308
409 2 0.262779 0.217359 0.479622
488 4 0.269168 0.22213 0.442669
487 2 0.291774 0.231841 0.438217
2812 2 0.0182162 0.328644 0.443711
473 4 0.228654 0.266223 0.418081
813 4 0.235199 0.325852 0.467596
811 2 0.244326 0.329591 0.490572
266 4 0.318678 0.295512 0.42172
348 4 0.0498676 0.342575 0.422523
2813 4 0.0412257 0.337001 0.438622
326 4 0.0488387 0.354443 0.436858
325 2 0.0646007 0.370568 0.447662
327 4 0.0803627 0.386692 0.458466
7 3 0.0911771 0.39422 0.474527
6 1 0.109239 0.384597 0.485031
711 4 0.137494 0.417758 0.486736
8 3 0.126022 0.400479 0.487148
709 2 0.161538 0.418055 0.479883
10 3 0.11668 0.36704 0.47258
504 4 0.293483 0.394611 0.417421
1383 4 0.0593585 0.470925 0.472222
680 4 0.0428976 0.462223 0.480168
1381 2 0.0710291 0.487703 0.457818
679 2 0.0599763 0.451764 0.495138
384 4 0.13925 0.42954 0.503815
634 2 0.201125 0.451653 0.45969
636 4 0.200111 0.475954 0.453893
635 4 0.202139 0.427352 0.465488
710 4 0.185583 0.418352 0.473031
774 4 0.199481 0.424657 0.484428
4 3 0.310238 0.489961 0.442315
668 4 0.327314 0.482124 0.437576
667 2 0.329396 0.466329 0.418305
587 4 0.404902 0.432233 0.495336
586 2 0.410132 0.442585 0.473185
588 4 0.415362 0.452938 0.451035
238 2 0.413203 0.433583 0.417878
239 4 0.424586 0.440162 0.439145
1184 4 0.00105976 0.0236075 0.569837
342 4 0.149173 0.0475139 0.516954
1152 4 0.146299 0.0592756 0.532851
1150 2 0.149095 0.0693046 0.555583
1151 4 0.151891 0.0793336 0.578316
340 2 0.172594 0.0391622 0.514331
341 4 0.196015 0.0308104 0.511708
2430 4 0.20082 0.0118485 0.516113
2428 2 0.219718 0.00831715 0.500126
430 2 0.319225 0.0066733 0.51205
841 2 0.35697 0.0209438 0.552694
842 4 0.371169 0.0371207 0.565417
1216 2 0.410549 0.0187339 0.565866
1217 4 0.392089 0.0353778 0.563148
843 4 0.34277 0.00476688 0.539972
3009 4 0.480547 0.0459161 0.580456
1061 4 0.496927 0.0721087 0.528846
1218 4 0.429009 0.00209003 0.568584
879 4 0.0546371 0.156488 0.532434
877 2 0.0315307 0.147023 0.533727
878 4 0.0084242 0.137557 0.53502
938 4 0.0699484 0.159548 0.520793
937 2 0.0818128 0.145252 0.504057
1199 4 0.999214 0.150909 0.548286
3159 4 0.455244 0.11675 0.530193
3157 2 0.454447 0.133168 0.511351
1062 4 0.459023 0.101282 0.543438
1060 2 0.477975 0.0866956 0.536142
1272 4 0.0670955 0.17099 0.536643
1270 2 0.0718691 0.187484 0.554818
1271 4 0.0766427 0.203978 0.572993
1258 2 0.144744 0.228418 0.528446
1259 4 0.139414 0.230222 0.552808
1260 4 0.150075 0.226615 0.504083
898 2 0.295379 0.217395 0.530404
899 4 0.305656 0.206183 0.55025
857 4 0.313812 0.194231 0.563346
856 2 0.308958 0.185658 0.586327
791 4 0.325426 0.205473 0.552451
900 4 0.285102 0.228607 0.510559
410 4 0.270573 0.216524 0.503366
790 2 0.343333 0.220426 0.561446
792 4 0.36124 0.23538 0.570442
872 4 0.364639 0.248835 0.557345
651 4 0.291995 0.326828 0.571064
806 4 0.299923 0.337374 0.587443
649 2 0.277564 0.32861 0.550723
650 4 0.263133 0.330393 0.530383
812 4 0.253454 0.333329 0.513548
1238 4 0.357321 0.254384 0.574861
871 2 0.373267 0.255775 0.534927
873 4 0.381895 0.262716 0.512509
1135 2 0.124873 0.368188 0.578982
1136 4 0.106442 0.357514 0.59208
897 4 0.157309 0.379415 0.579468
9 3 0.102647 0.377194 0.506011
1137 4 0.143304 0.378862 0.565884
773 4 0.227025 0.407169 0.522326
1189 2 0.222165 0.406435 0.564407
1190 4 0.231282 0.405933 0.54113
803 4 0.237423 0.392035 0.529042
802 2 0.242677 0.367591 0.529224
804 4 0.247931 0.343146 0.529407
772 2 0.213253 0.415913 0.503377
1191 4 0.213049 0.406937 0.587684
930 4 0.245422 0.409922 0.528335
925 2 0.41114 0.398285 0.519168
927 4 0.420702 0.377976 0.530181
539 4 0.0785543 0.491515 0.514711
681 4 0.0770551 0.441304 0.510108
1161 4 0.159368 0.504725 0.58462
383 4 0.0935623 0.44114 0.520513
382 2 0.116406 0.43534 0.512164
569 4 0.156327 0.441422 0.507075
2243 4 0.150873 0.496867 0.567417
568 2 0.168939 0.451542 0.526146
570 4 0.181551 0.461661 0.545217
928 2 0.265077 0.423845 0.535044
929 4 0.284732 0.437768 0.541754
1951 2 0.305158 0.476226 0.541531
1953 4 0.299317 0.452131 0.54477
1952 4 0.310999 0.500321 0.538293
926 4 0.401578 0.418594 0.508155
663 4 0.406067 0.436097 0.514849
1000 2 0.399483 0.498397 0.564035
661 2 0.411851 0.454568 0.530678
1001 4 0.415822 0.47947 0.564029
662 4 0.417635 0.473039 0.546507
1911 4 0.426688 0.463471 0.560834
1332 4 0.432743 0.480756 0.555517
1330 2 0.452125 0.494467 0.547671
2375 4 0.157329 0.0160205 0.611003
1155 4 0.149492 0.0844876 0.597292
1059 4 0.165407 0.0740074 0.591626
1057 2 0.16457 0.0532709 0.605571
1058 4 0.163733 0.0325345 0.619517
949 2 0.287675 0.0206973 0.620728
951 4 0.291042 0.0382452 0.638219
1031 4 0.300818 0.0392578 0.655387
950 4 0.284307 0.00314945 0.603238
3007 2 0.488077 0.0641426 0.595827
43 3 0.447344 0.0607208 0.659881
1154 4 0.150903 0.134341 0.600943
1153 2 0.150197 0.109414 0.599117
1221 4 0.153949 0.150848 0.611698
888 4 0.254273 0.171009 0.667823
808 2 0.485673 0.0879746 0.646807
809 4 0.492054 0.0963645 0.624134
3008 4 0.495608 0.0823691 0.611198
1244 4 0.0953108 0.194539 0.576281
1245 4 0.108506 0.197011 0.624452
1243 2 0.101908 0.195775 0.600367
1209 4 0.112716 0.18323 0.639438
1207 2 0.105795 0.175924 0.662327
1219 2 0.175278 0.163229 0.607578
1210 2 0.226047 0.174363 0.634144
1212 4 0.212382 0.181298 0.614386
1220 4 0.196607 0.175609 0.603458
797 4 0.183268 0.235693 0.619525
796 2 0.193521 0.214652 0.61073
798 4 0.203774 0.193612 0.601935
1211 4 0.239712 0.167428 0.653901
858 4 0.304105 0.177084 0.609308
3121 2 0.468874 0.220253 0.623368
3122 4 0.477885 0.197655 0.629139
3357 4 0.478004 0.194157 0.647948
3355 2 0.492226 0.176792 0.658965
3123 4 0.459863 0.242852 0.617597
982 2 0.0265022 0.316707 0.639899
984 4 0.0436701 0.322997 0.656954
805 2 0.314483 0.317743 0.592716
1237 2 0.350555 0.271876 0.591396
807 4 0.329043 0.298112 0.597989
1239 4 0.343789 0.289369 0.607931
906 4 0.454237 0.299477 0.61551
905 4 0.47586 0.25444 0.617717
904 2 0.465048 0.276959 0.616613
953 4 0.464117 0.316347 0.619746
952 2 0.478898 0.332592 0.607797
1041 4 0.0544797 0.336373 0.646945
1039 2 0.0654063 0.357494 0.63922
1040 4 0.0763328 0.378616 0.631495
993 4 0.0636275 0.388489 0.620634
991 2 0.0434373 0.400892 0.612652
895 2 0.177194 0.391006 0.589237
896 4 0.197078 0.402597 0.599005
1028 4 0.192937 0.392674 0.664361
1027 2 0.196161 0.400963 0.640993
1029 4 0.199386 0.409252 0.617625
954 4 0.49368 0.348837 0.595847
992 4 0.0232472 0.413295 0.60467
1172 4 0.208049 0.418147 0.602543
1159 2 0.179859 0.495245 0.595364
1160 4 0.200349 0.485765 0.606108
1171 2 0.207273 0.442882 0.606115
1173 4 0.206497 0.467617 0.609687
1187 4 0.201894 0.479467 0.624665
1186 2 0.193143 0.47657 0.647908
1909 2 0.427173 0.450613 0.582272
1206 4 0.494968 0.424164 0.605913
1268 4 0.445789 0.482021 0.653951
1267 2 0.440665 0.465522 0.635876
1204 2 0.470642 0.429544 0.608031
1910 4 0.427657 0.437755 0.603711
1269 4 0.435541 0.449024 0.6178
1205 4 0.446316 0.434923 0.610149
1284 4 0.102279 0.047932 0.703219
1282 2 0.115007 0.0693917 0.70159
2047 2 0.142149 0.00862569 0.734714
2048 4 0.118349 0.00336389 0.740288
2256 4 0.178871 0.00520864 0.741008
2049 4 0.165948 0.0138875 0.72914
1201 2 0.190331 0.0422916 0.720616
1202 4 0.185103 0.0191658 0.728557
1203 4 0.195558 0.0654175 0.712676
1226 4 0.187475 0.0774602 0.699598
1030 2 0.296533 0.0501233 0.677495
1032 4 0.292247 0.0609887 0.699603
1005 4 0.312771 0.0066551 0.701683
1003 2 0.328837 0.994774 0.686653
810 4 0.479293 0.0795847 0.66948
45 3 0.444632 0.0487011 0.69546
41 1 0.451476 0.0658514 0.68213
1163 4 0.491185 0.0775685 0.685077
44 3 0.474127 0.069774 0.685281
42 3 0.439793 0.084878 0.687667
1077 4 0.033188 0.111939 0.734588
1075 2 0.0120037 0.101473 0.726411
864 4 0.0514759 0.117443 0.741194
909 4 0.107487 0.153968 0.694251
907 2 0.116642 0.130749 0.692761
908 4 0.125798 0.107529 0.691271
1283 4 0.127736 0.0908514 0.699961
1227 4 0.143945 0.101253 0.693297
1225 2 0.16571 0.0893568 0.696448
851 4 0.0917466 0.162737 0.701879
1148 4 0.20348 0.0832076 0.709466
1147 2 0.213734 0.0947403 0.72914
1149 4 0.223987 0.106273 0.748813
829 2 0.321155 0.150262 0.708931
830 4 0.298243 0.156008 0.71713
831 4 0.344066 0.144516 0.700732
1142 4 0.363306 0.143453 0.70674
1141 2 0.383502 0.155062 0.715827
1143 4 0.403697 0.166671 0.724913
1025 4 0.457392 0.132402 0.714969
3424 2 0.474749 0.112582 0.694636
3426 4 0.475996 0.0892743 0.68567
3425 4 0.473502 0.13589 0.703601
3269 4 0.475137 0.13164 0.72254
1024 2 0.439098 0.149446 0.715028
3268 2 0.483382 0.1408 0.744295
1026 4 0.420803 0.166489 0.715087
845 4 0.457993 0.100909 0.741033
852 4 0.0492676 0.182102 0.719802
1214 4 0.0310442 0.17213 0.715147
850 2 0.0705071 0.172419 0.71084
1213 2 0.00958913 0.182147 0.723179
1208 4 0.0988731 0.168617 0.685216
1107 4 0.108656 0.1724 0.701635
1105 2 0.125326 0.183483 0.716617
1106 4 0.141996 0.194566 0.731599
1130 4 0.157205 0.205659 0.737917
887 4 0.289578 0.164476 0.702631
978 4 0.292329 0.173948 0.719956
886 2 0.271925 0.167742 0.685227
976 2 0.293779 0.189806 0.739233
916 2 0.28861 0.245188 0.744345
1192 2 0.414082 0.199368 0.697694
1194 4 0.406773 0.179298 0.710693
1262 4 0.416525 0.180705 0.727399
1193 4 0.421391 0.219438 0.684696
1261 2 0.424598 0.18978 0.749254
3263 4 0.0565183 0.334803 0.666047
3262 2 0.0698135 0.32882 0.68636
3264 4 0.0831088 0.322836 0.706672
893 4 0.0715361 0.32805 0.720797
779 4 0.0899882 0.321596 0.724433
778 2 0.107975 0.304284 0.723033
780 4 0.125961 0.286972 0.721632
1065 4 0.225671 0.327939 0.690443
1063 2 0.24103 0.308553 0.686771
1064 4 0.25639 0.289168 0.683099
947 4 0.303266 0.282236 0.729664
946 2 0.286621 0.290367 0.712871
948 4 0.269976 0.298499 0.696079
917 4 0.289605 0.267692 0.733492
1008 4 0.482524 0.278982 0.698256
1006 2 0.475782 0.267256 0.719285
1007 4 0.469039 0.255531 0.740314
892 2 0.0713743 0.340244 0.742625
941 4 0.164086 0.374578 0.733461
940 2 0.147846 0.378146 0.752135
1067 4 0.162636 0.392087 0.725507
1066 2 0.173865 0.394803 0.703332
1068 4 0.185094 0.397518 0.681157
1019 4 0.38442 0.412012 0.740309
1176 4 0.140414 0.467695 0.725048
1174 2 0.156363 0.467271 0.705797
1188 4 0.184392 0.473672 0.67115
1175 4 0.172313 0.466846 0.686546
1139 4 0.297388 0.485371 0.692677
1138 2 0.309018 0.466523 0.70428
1140 4 0.320649 0.447674 0.715883
1989 4 0.321287 0.450015 0.734846
1229 4 0.330551 0.435023 0.72586
1100 4 0.391537 0.425281 0.728158
1228 2 0.353433 0.425053 0.724374
1230 4 0.376314 0.415083 0.722888
1099 2 0.406759 0.445049 0.72651
2168 4 0.461435 0.492887 0.656849
1101 4 0.421981 0.464816 0.724862
3330 4 0.430828 0.462476 0.706613
3328 2 0.449314 0.451409 0.693925
1251 4 0.435156 0.476445 0.717475
3329 4 0.4678 0.440343 0.681238
1249 2 0.442498 0.485742 0.739494
785 4 0.0242584 0.0693964 0.823726
834 4 0.043697 0.069701 0.821438
1113 4 0.377402 0.0755017 0.784538
974 4 0.340608 0.0371267 0.837792
979 2 0.411193 0.997612 0.815013
980 4 0.426501 0.995195 0.795391
2321 4 0.439133 0.0102496 0.796575
2322 4 0.457026 0.0525451 0.776785
2320 2 0.448079 0.0313974 0.78668
846 4 0.446974 0.0700921 0.778843
862 2 0.054663 0.122725 0.765425
863 4 0.0578501 0.128006 0.789656
833 4 0.0514747 0.115376 0.802624
1125 4 0.0609874 0.131586 0.80866
1123 2 0.069349 0.147261 0.826254
832 2 0.0475858 0.0925387 0.812031
1257 4 0.207646 0.099646 0.759129
1255 2 0.212987 0.10617 0.782668
921 4 0.208245 0.12768 0.814527
919 2 0.199991 0.150421 0.820845
840 4 0.22797 0.128366 0.811694
1256 4 0.218328 0.112694 0.806207
838 2 0.249997 0.126992 0.823445
1111 2 0.370867 0.0953311 0.798295
1112 4 0.364332 0.11516 0.812052
818 4 0.362304 0.116045 0.832729
844 2 0.452484 0.0855005 0.759938
3270 4 0.491627 0.14996 0.766051
1146 4 0.489565 0.165603 0.777822
1129 2 0.167252 0.208209 0.760671
34 3 0.132045 0.171315 0.830931
1131 4 0.177299 0.210758 0.783425
1277 4 0.164608 0.212289 0.797881
1276 2 0.168774 0.194352 0.814795
822 4 0.176306 0.227068 0.793025
977 4 0.295229 0.205664 0.75851
918 4 0.287614 0.222685 0.755197
1298 4 0.291867 0.217487 0.773347
1297 2 0.30825 0.211412 0.791231
1299 4 0.324634 0.205338 0.809116
1086 4 0.337646 0.208016 0.825033
50 3 0.401676 0.206641 0.796882
46 1 0.423303 0.201128 0.80141
49 3 0.436707 0.220031 0.800223
1043 4 0.443794 0.211855 0.781281
48 3 0.424803 0.191668 0.822545
47 3 0.430633 0.185827 0.785877
1263 4 0.43267 0.198855 0.77111
1145 4 0.447992 0.193076 0.782021
1144 2 0.468779 0.17934 0.779921
1042 2 0.454361 0.231512 0.770007
3275 4 0.0161255 0.341404 0.792638
3188 4 0.999246 0.262378 0.757427
3187 2 0.996099 0.275156 0.778688
1236 4 0.24696 0.327227 0.754581
821 4 0.176892 0.277071 0.793081
820 2 0.176599 0.25207 0.793053
1044 4 0.464927 0.251169 0.758732
1165 2 0.496147 0.265843 0.770447
1166 4 0.476854 0.266553 0.754558
894 4 0.0712125 0.352438 0.764453
3276 4 0.0548177 0.362745 0.769224
3274 2 0.0354716 0.352074 0.780931
816 4 0.0717206 0.367657 0.776972
814 2 0.0933781 0.379871 0.774332
942 4 0.131606 0.381714 0.770808
815 4 0.115036 0.392084 0.771693
1080 4 0.122645 0.386568 0.787926