ITEM: TIMESTEP
4440000
ITEM: NUMBER OF ATOMS
4590
ITEM: BOX BOUNDS pp pp pp
-9.9985700000000008e+00 9.9985700000000008e+00
-9.9985700000000008e+00 9.9985700000000008e+00
-9.9985700000000008e+00 9.9985700000000008e+00
ITEM: ATOMS id type xs ys zs
700 2 0.052522 0.0358543 0.0130431
701 4 0.0334296 0.0373038 0.0291229
3234 4 0.0145279 0.0350069 0.034667
1635 4 0.135947 0.999995 0.0121264
1605 4 0.129643 0.998556 0.0309971
1603 2 0.119514 0.012619 0.0490197
465 4 0.0933807 0.0305116 0.0767054
1604 4 0.109385 0.0266822 0.0670423
566 4 0.301599 0.00677789 0.0564993
565 2 0.303411 0.0311631 0.0617204
2265 4 0.317828 0.0319143 0.00501419
567 4 0.305223 0.0555483 0.0669414
987 4 0.33077 0.0472539 0.00395239
2975 4 0.369625 0.0543759 0.0447034
2974 2 0.386968 0.0591428 0.0620726
1661 4 0.364174 0.0238192 0.0615623
985 2 0.342691 0.0374716 0.0236343
986 4 0.354612 0.0276893 0.0433163
2976 4 0.404311 0.0639097 0.0794418
296 4 0.501195 0.998926 0.0224914
553 2 0.0602985 0.162197 0.0346928
554 4 0.0708965 0.140836 0.0422136
836 4 0.0846163 0.143109 0.0570571
837 4 0.133394 0.15238 0.0630173
1134 4 0.153488 0.150974 0.058072
835 2 0.109005 0.147744 0.0600372
1132 2 0.170605 0.137574 0.0457182
1133 4 0.187722 0.124174 0.0333644
933 4 0.197698 0.133196 0.0178376
490 2 0.310288 0.131862 0.0312412
654 4 0.321448 0.11044 0.0668101
491 4 0.313063 0.123827 0.0547554
492 4 0.307513 0.139897 0.00772702
652 2 0.316486 0.0875138 0.0754663
2467 2 0.392125 0.163157 0.048254
460 2 0.387106 0.110883 0.0165666
461 4 0.376639 0.0933232 0.00216928
462 4 0.397573 0.128443 0.030964
2469 4 0.406846 0.145847 0.037821
2468 4 0.377405 0.180468 0.0586871
770 4 0.478843 0.148382 0.046115
769 2 0.470405 0.131357 0.0298629
771 4 0.461968 0.114332 0.0136109
555 4 0.0497005 0.183558 0.0271721
2624 4 0.0475515 0.193083 0.0960039
2623 2 0.0264188 0.201606 0.0857106
2808 4 0.0361514 0.195779 0.0173586
2523 4 0.00895689 0.230274 0.0779168
2806 2 0.01327 0.188509 0.0103754
2521 2 0.00117353 0.247636 0.0616945
353 4 0.236302 0.244912 0.0122103
352 2 0.253631 0.227212 0.00880901
755 4 0.259675 0.199669 0.0689005
354 4 0.27096 0.209511 0.00540767
254 4 0.344749 0.223478 0.0653577
253 2 0.352011 0.199553 0.0652757
255 4 0.359273 0.175627 0.0651937
323 4 0.359925 0.231674 0.0569345
557 4 0.418808 0.201935 0.00492638
338 4 0.0666158 0.27777 0.0559719
475 2 0.0654791 0.29611 0.0144769
477 4 0.0660381 0.287175 0.037823
294 4 0.00724115 0.334333 0.0166641
620 4 0.998009 0.334606 0.0342555
476 4 0.0649201 0.305044 0.991131
287 4 0.149107 0.320205 0.00331278
481 2 0.149141 0.328846 0.046722
482 4 0.149194 0.337896 0.0700303
456 4 0.132987 0.350156 0.0691585
572 4 0.256867 0.263668 0.092918
915 4 0.222544 0.259327 0.00799843
357 4 0.314029 0.287695 0.0705212
573 4 0.295521 0.291512 0.0777096
355 2 0.324908 0.286111 0.0480641
571 2 0.276194 0.27759 0.0853138
1304 4 0.354244 0.286987 0.0284462
322 2 0.372699 0.251329 0.0482349
324 4 0.385473 0.270984 0.0395352
356 4 0.335787 0.284527 0.0256071
1303 2 0.369992 0.297651 0.012216
37 3 0.378536 0.327104 0.993939
519 4 0.465894 0.282418 0.0479198
517 2 0.45753 0.285813 0.071237
1095 4 0.454945 0.268686 0.0384965
1093 2 0.466918 0.275022 0.0174797
292 2 0.0307817 0.338088 0.00911944
1169 4 0.0662732 0.337217 0.985462
483 4 0.149089 0.319796 0.0234137
1289 4 0.21477 0.371855 0.030057
252 4 0.203706 0.387731 0.0341449
1288 2 0.197388 0.361522 0.0153515
903 4 0.34207 0.37534 0.0358264
901 2 0.33029 0.38362 0.0153852
956 4 0.348758 0.393595 0.0380422
955 2 0.366057 0.396927 0.0557856
957 4 0.383356 0.400259 0.073529
597 4 0.471848 0.3363 0.068006
495 4 0.469821 0.349585 0.0526491
493 2 0.481093 0.370989 0.0463264
494 4 0.492366 0.392393 0.0400037
794 4 0.170932 0.490491 0.0184487
793 2 0.184573 0.472796 0.0296719
795 4 0.198215 0.4551 0.040895
251 4 0.204664 0.437728 0.0337937
250 2 0.204185 0.412729 0.0339693
1673 4 0.377301 0.464899 0.0358617
1672 2 0.363907 0.481534 0.0488634
1674 4 0.350513 0.498169 0.0618651
524 4 0.397415 0.461951 0.0332061
523 2 0.41432 0.452238 0.0175517
4277 4 0.390198 0.474786 0.0933092
4276 2 0.406471 0.492615 0.0867916
525 4 0.431225 0.442525 0.00189724
17 3 0.0441696 0.0443488 0.119191
16 1 0.0477863 0.06295 0.132232
18 3 0.0705286 0.0675379 0.132612
19 3 0.0362399 0.0808806 0.12309
381 4 0.0318568 0.0379841 0.104853
20 3 0.0403294 0.0588643 0.153359
464 4 0.0911668 0.0646952 0.113137
379 2 0.0214524 0.0161652 0.0984607
578 4 0.0860519 0.0790565 0.127349
463 2 0.0922738 0.0476034 0.0949214
450 4 0.0918685 0.00891442 0.0988964
1475 4 0.228544 0.0547062 0.108896
1474 2 0.234325 0.0343312 0.122186
1476 4 0.240107 0.0139562 0.135475
1769 4 0.261095 0.0138102 0.141984
1768 2 0.273066 0.00979053 0.163565
653 4 0.311525 0.0645872 0.0841225
1660 2 0.357678 0.00700441 0.0788898
311 4 0.376408 0.0830608 0.151549
630 4 0.423031 0.0707769 0.0823429
484 2 0.423658 0.0415742 0.160991
628 2 0.430667 0.0700942 0.106142
486 4 0.437255 0.0565624 0.146306
629 4 0.438304 0.0694116 0.129941
2481 4 0.0173025 0.0757651 0.129744
2479 2 0.997494 0.0859301 0.141123
577 2 0.10619 0.0938557 0.12655
579 4 0.126327 0.108655 0.12575
237 4 0.139412 0.120293 0.135621
235 2 0.149666 0.115208 0.157851
310 2 0.388802 0.10403 0.145905
312 4 0.401197 0.124999 0.14026
23 3 0.396758 0.145304 0.147553
764 4 0.408419 0.131193 0.161562
24 3 0.377781 0.164376 0.12071
21 1 0.385803 0.165117 0.14247
2625 4 0.0052861 0.210128 0.0754173
361 2 0.0577804 0.219737 0.137431
362 4 0.0335114 0.222853 0.132285
363 4 0.0820494 0.21662 0.142577
647 4 0.0147045 0.227686 0.140618
646 2 0.996807 0.244006 0.134411
278 4 0.0809691 0.200808 0.154216
754 2 0.261591 0.222402 0.0791324
756 4 0.263507 0.245136 0.0893642
25 3 0.400047 0.182718 0.144906
22 3 0.368042 0.167696 0.156859
759 4 0.418878 0.176514 0.139573
757 2 0.432588 0.191274 0.124762
758 4 0.446298 0.206034 0.109952
528 4 0.459108 0.221876 0.108764
526 2 0.482064 0.228375 0.101284
2682 4 0.492471 0.173225 0.15933
761 4 0.482137 0.185995 0.15053
337 2 0.0624064 0.271956 0.0799231
339 4 0.058197 0.266142 0.103874
672 4 0.344723 0.321979 0.102517
387 4 0.373526 0.343343 0.171448
518 4 0.449165 0.289207 0.0945542
622 2 0.455814 0.330174 0.142949
596 4 0.486881 0.339461 0.115595
623 4 0.433645 0.323309 0.152253
624 4 0.477983 0.337039 0.133644
455 4 0.108191 0.347777 0.11252
536 4 0.122951 0.351316 0.124515
454 2 0.120589 0.348967 0.090839
535 2 0.119399 0.354 0.149119
537 4 0.115846 0.356684 0.173723
343 2 0.2466 0.399146 0.146056
345 4 0.232095 0.419428 0.144201
498 4 0.274463 0.363654 0.146934
344 4 0.261105 0.378865 0.147911
496 2 0.294328 0.373866 0.158172
497 4 0.314192 0.384079 0.16941
670 2 0.359065 0.341987 0.106897
671 4 0.373406 0.361995 0.111277
608 4 0.393359 0.408071 0.0886748
607 2 0.384391 0.392733 0.106267
609 4 0.375423 0.377395 0.12386
107 3 0.506046 0.347018 0.115521
595 2 0.479364 0.337881 0.0918006
542 4 0.484988 0.390264 0.139119
541 2 0.470315 0.402867 0.123275
543 4 0.455641 0.415471 0.107431
108 3 0.501976 0.380655 0.131788
109 3 0.485493 0.349904 0.146856
264 4 0.0679046 0.491626 0.142307
704 4 0.00755365 0.446065 0.151418
601 2 0.0670967 0.454592 0.165781
703 2 0.00306638 0.444567 0.126866
602 4 0.0653804 0.471289 0.147248
705 4 0.998579 0.443068 0.102314
65 3 0.215838 0.505195 0.159475
1583 4 0.399015 0.455987 0.0956507
1582 2 0.393403 0.450174 0.119313
1584 4 0.387791 0.444361 0.142975
1575 4 0.374481 0.44224 0.159931
234 4 0.0273661 0.0478508 0.16902
1538 4 0.0449571 0.0611732 0.174941
1537 2 0.0456604 0.0688836 0.198715
232 2 0.0101477 0.0297279 0.16954
233 4 0.992929 0.011605 0.17006
1464 4 0.155183 0.00190173 0.227525
1462 2 0.141173 0.020447 0.236743
732 4 0.110356 0.0494483 0.24294
1463 4 0.127163 0.0389922 0.245961
1505 4 0.180003 0.0634468 0.213042
1623 4 0.274195 0.00736042 0.202622
1621 2 0.276022 0.0246823 0.220561
1622 4 0.277848 0.0420043 0.238499
1830 4 0.290292 0.0397257 0.261982
1770 4 0.285037 0.00577086 0.185145
485 4 0.410061 0.0265861 0.175676
1606 2 0.375125 0.00526956 0.172031
1608 4 0.394643 0.0191353 0.164821
1539 4 0.0463636 0.076594 0.22249
236 4 0.159919 0.110123 0.180082
722 4 0.173849 0.118259 0.193091
721 2 0.182075 0.119285 0.21668
723 4 0.190302 0.120311 0.24027
693 4 0.208202 0.129789 0.240671
763 2 0.41013 0.139295 0.185155
765 4 0.411841 0.147396 0.208748
744 4 0.415297 0.162015 0.223462
742 2 0.4258 0.146922 0.240404
393 4 0.0165315 0.190562 0.249149
512 4 0.0970875 0.23672 0.186627
277 2 0.0997415 0.203473 0.170516
279 4 0.118514 0.206137 0.186815
737 4 0.132213 0.20923 0.201893
736 2 0.153136 0.222576 0.204943
738 4 0.174059 0.235921 0.207993
284 4 0.190243 0.238241 0.219633
283 2 0.199208 0.219983 0.234176
285 4 0.208173 0.201726 0.248718
581 4 0.216105 0.186196 0.259254
309 4 0.372827 0.17951 0.171329
307 2 0.36095 0.191221 0.189956
308 4 0.349073 0.202931 0.208584
612 4 0.34228 0.214781 0.2218
610 2 0.337185 0.217761 0.246097
760 2 0.469344 0.192347 0.171052
762 4 0.456552 0.198699 0.191575
520 2 0.48147 0.228985 0.213982
522 4 0.471971 0.208433 0.203372
521 4 0.490969 0.249536 0.224592
511 2 0.09549 0.261476 0.189746
300 4 0.0976557 0.299964 0.207771
513 4 0.0938925 0.286233 0.192864
298 2 0.104365 0.318894 0.192878
768 4 0.33186 0.316093 0.21966
386 4 0.341542 0.326318 0.205914
766 2 0.340845 0.311679 0.242572
739 2 0.408142 0.317626 0.166976
741 4 0.386268 0.329159 0.170675
385 2 0.357534 0.334831 0.188681
740 4 0.430017 0.306093 0.163276
364 2 0.0258038 0.397218 0.2367
2717 4 0.00163337 0.36656 0.250154
365 4 0.0201372 0.374177 0.244585
299 4 0.111074 0.337825 0.177986
2537 4 0.349786 0.359993 0.224357
15 3 0.420113 0.415094 0.219018
14 3 0.453206 0.410732 0.236439
603 4 0.068813 0.437896 0.184313
366 4 0.0314703 0.420259 0.228815
749 4 0.0347575 0.420963 0.20796
748 2 0.0244768 0.425513 0.185626
2619 4 0.0004614 0.437453 0.259903
1310 4 0.144016 0.465617 0.243651
1309 2 0.132351 0.486893 0.237615
416 4 0.196913 0.414131 0.23434
291 4 0.212679 0.42181 0.224592
289 2 0.237616 0.42356 0.224074
415 2 0.186364 0.426931 0.25305
290 4 0.262553 0.42531 0.223556
659 4 0.275209 0.439657 0.218555
658 2 0.295277 0.453918 0.222924
660 4 0.315345 0.468178 0.227293
639 4 0.329436 0.480185 0.23536
1573 2 0.372893 0.461593 0.175682
638 4 0.373406 0.478469 0.211603
637 2 0.351421 0.479327 0.223482
1574 4 0.371304 0.480946 0.191434
11 1 0.43411 0.423803 0.23473
645 4 0.42682 0.455656 0.216529
13 3 0.439875 0.445541 0.22902
643 2 0.437692 0.478157 0.217348
1771 2 0.0637345 0.00727163 0.329882
2757 4 0.0123022 0.027432 0.268825
2755 2 0.0215942 0.0273815 0.292038
2756 4 0.0308861 0.0273311 0.315251
1772 4 0.0496069 0.0208831 0.31438
730 2 0.105868 0.07191 0.252966
1504 2 0.183773 0.0647683 0.237724
1406 4 0.204634 0.0147418 0.323286
1701 4 0.208543 0.0309743 0.313263
1699 2 0.197251 0.0395163 0.292654
1506 4 0.187543 0.0660898 0.262406
1700 4 0.185959 0.0480583 0.272046
441 4 0.239591 0.998086 0.32871
474 4 0.276325 0.0530501 0.254863
1828 2 0.314747 0.0370014 0.266423
439 2 0.255114 0.0137627 0.340477
1829 4 0.339202 0.0342771 0.270863
1497 4 0.381475 0.00853166 0.293876
1496 4 0.355322 0.0336892 0.259469
1495 2 0.368399 0.0211105 0.276673
1517 4 0.372744 0.996235 0.307463
724 2 0.36142 0.0792309 0.331017
1516 2 0.371566 0.99982 0.33218
317 4 0.0811895 0.139509 0.297914
399 4 0.0815339 0.127166 0.314628
731 4 0.10138 0.0943716 0.262992
316 2 0.0957933 0.122302 0.287152
318 4 0.110397 0.105095 0.27639
691 2 0.221961 0.115832 0.256197
692 4 0.23572 0.101874 0.271724
29 3 0.254211 0.114457 0.280874
472 2 0.264406 0.074693 0.258698
473 4 0.252487 0.0963358 0.262532
582 4 0.258949 0.160505 0.256991
27 3 0.268953 0.145874 0.266442
28 3 0.268108 0.141434 0.303754
30 3 0.291304 0.120698 0.28255
26 1 0.27077 0.130504 0.28346
683 4 0.299094 0.124353 0.301011
682 2 0.319005 0.10925 0.300223
377 4 0.283829 0.132661 0.312179
684 4 0.338916 0.0941465 0.299435
725 4 0.343757 0.0925737 0.319391
351 4 0.487535 0.108642 0.307846
743 4 0.436304 0.131828 0.257346
332 4 0.479834 0.123967 0.298539
331 2 0.466753 0.131825 0.278732
333 4 0.453673 0.139683 0.258924
580 2 0.237527 0.17335 0.258122
707 4 0.338569 0.232138 0.283932
611 4 0.332089 0.220741 0.270394
389 4 0.065014 0.295607 0.2948
388 2 0.0872815 0.305656 0.300125
390 4 0.109549 0.315706 0.305449
370 2 0.148426 0.332318 0.314603
372 4 0.128345 0.318657 0.308658
767 4 0.34983 0.307266 0.265484
303 4 0.352374 0.326574 0.27239
301 2 0.344506 0.327725 0.296095
706 2 0.352307 0.251547 0.291661
708 4 0.366045 0.270956 0.29939
632 4 0.384118 0.273738 0.292715
631 2 0.405805 0.285131 0.297722
302 4 0.336638 0.328877 0.319801
633 4 0.427491 0.296524 0.302729
419 4 0.439957 0.288392 0.316633
418 2 0.449012 0.289064 0.33993
616 2 0.0565091 0.388434 0.326463
2693 4 0.0239845 0.39531 0.35025
618 4 0.0423105 0.386445 0.346948
617 4 0.0707078 0.390422 0.305978
2716 2 0.992637 0.352673 0.2689
678 4 0.0851261 0.396382 0.318009
676 2 0.109557 0.401701 0.31797
371 4 0.168506 0.345979 0.320547
401 4 0.208655 0.39661 0.313571
402 4 0.170653 0.365621 0.323379
400 2 0.189654 0.381116 0.318475
510 4 0.212182 0.410373 0.32683
2536 2 0.349255 0.37186 0.246359
2538 4 0.348724 0.383727 0.26836
445 2 0.348012 0.397274 0.298346
446 4 0.361146 0.399264 0.319529
447 4 0.334878 0.395284 0.277163
1791 4 0.0203889 0.437978 0.261095
1790 4 0.0496179 0.443217 0.301331
1758 4 0.0461634 0.454806 0.31718
1756 2 0.0635745 0.452222 0.334938
1789 2 0.0350034 0.440597 0.281213
677 4 0.133989 0.40702 0.317931
735 4 0.152805 0.414323 0.315491
733 2 0.157816 0.432449 0.299013
1318 2 0.146234 0.498239 0.337781
734 4 0.162826 0.450574 0.282534
417 4 0.175816 0.43973 0.271761
1802 4 0.321099 0.493651 0.262521
1801 2 0.309786 0.483595 0.282422
1803 4 0.298473 0.473539 0.302324
593 4 0.315255 0.469778 0.314671
592 2 0.304459 0.471504 0.337158
712 2 0.402317 0.485121 0.319806
713 4 0.388351 0.46443 0.318402
12 3 0.423421 0.42405 0.255098
429 4 0.103784 0.00523906 0.414678
719 4 0.107632 0.0202893 0.400688
440 4 0.270636 0.0294398 0.352244
1818 4 0.267042 0.049817 0.353852
1816 2 0.265097 0.0639788 0.374366
726 4 0.379083 0.0658881 0.342643
425 4 0.386361 0.078192 0.357305
424 2 0.408058 0.0769157 0.369666
256 2 0.455192 0.0440212 0.374978
257 4 0.47624 0.0323983 0.368117
641 4 0.489549 0.0218626 0.378721
258 4 0.434145 0.0556441 0.38184
426 4 0.429755 0.0756393 0.382027
640 2 0.489568 0.00218796 0.394151
397 2 0.0663423 0.13166 0.333972
398 4 0.0511507 0.136154 0.353316
531 4 0.0524502 0.154926 0.347516
368 4 0.135252 0.149153 0.39018
367 2 0.151678 0.154636 0.372144
369 4 0.168104 0.160119 0.354109
1817 4 0.263151 0.0781407 0.39488
376 2 0.286025 0.133706 0.337064
606 4 0.249822 0.0892033 0.405979
378 4 0.288221 0.134752 0.361949
2653 2 0.0263378 0.236981 0.367902
2655 4 0.0434031 0.219262 0.363431
529 2 0.0452838 0.178274 0.352875
530 4 0.0381174 0.201621 0.358234
600 4 0.188137 0.165152 0.352768
598 2 0.203887 0.183706 0.358501
599 4 0.219637 0.20226 0.364233
686 4 0.222138 0.221242 0.37025
685 2 0.22765 0.241791 0.383385
615 4 0.328126 0.24083 0.36894
2846 4 0.0048324 0.245539 0.389743
2654 4 0.00927254 0.2547 0.372374
1034 4 0.0589745 0.307313 0.412649
1033 2 0.0789086 0.299238 0.399897
2850 4 0.0399876 0.300326 0.417503
247 2 0.131192 0.267717 0.398894
1035 4 0.0988426 0.291164 0.387145
249 4 0.117595 0.284439 0.386219
248 4 0.14479 0.250995 0.411569
443 4 0.0849388 0.337623 0.391548
687 4 0.233161 0.26234 0.396521
407 4 0.21095 0.318663 0.3793
406 2 0.226121 0.330432 0.363283
404 4 0.234229 0.277785 0.408773
613 2 0.312761 0.257359 0.379706
614 4 0.297396 0.273888 0.390472
405 4 0.28416 0.276971 0.406133
403 2 0.259194 0.277378 0.407453
583 2 0.398512 0.266682 0.394586
585 4 0.392746 0.253093 0.374405
420 4 0.458066 0.289736 0.363227
270 4 0.489957 0.265812 0.417799
268 2 0.481084 0.275048 0.396324
269 4 0.472212 0.284284 0.374849
442 2 0.0714656 0.355739 0.380802
444 4 0.0579924 0.373854 0.370056
539 4 0.0545134 0.392448 0.360417
538 2 0.0452948 0.407691 0.377962
540 4 0.0360762 0.422934 0.395508
681 4 0.0992372 0.392077 0.409581
679 2 0.122837 0.397859 0.403681
570 4 0.164278 0.391728 0.397092
680 4 0.146437 0.40364 0.397782
710 4 0.200205 0.324258 0.395633
408 4 0.241291 0.342202 0.347267
568 2 0.179382 0.410537 0.390515
503 4 0.245352 0.353708 0.363605
727 2 0.316353 0.366164 0.334393
504 4 0.282317 0.381912 0.345198
502 2 0.263835 0.36781 0.354402
729 4 0.301798 0.385533 0.340571
728 4 0.330908 0.346795 0.328214
120 3 0.353123 0.397778 0.338046
116 1 0.36829 0.389399 0.352824
118 3 0.389075 0.399039 0.349158
2741 4 0.4109 0.399979 0.349505
753 4 0.416859 0.410235 0.383111
119 3 0.369722 0.366358 0.350491
117 3 0.361496 0.394296 0.374249
751 2 0.41418 0.391395 0.39933
669 4 0.366628 0.409576 0.388866
927 4 0.413959 0.356988 0.403628
752 4 0.411501 0.372555 0.415549
3989 4 0.397469 0.416111 0.359327
2923 2 0.497749 0.38565 0.351457
2924 4 0.476115 0.381109 0.339773
2742 4 0.45662 0.382451 0.339352
2740 2 0.43376 0.391215 0.344429
925 2 0.424051 0.337315 0.415305
1757 4 0.0809857 0.449638 0.352697
2813 4 0.0301622 0.422562 0.415901
1320 4 0.144074 0.485785 0.359355
776 4 0.096808 0.439917 0.353815
775 2 0.117055 0.453454 0.359472
777 4 0.137302 0.466991 0.365128
438 4 0.203102 0.505279 0.386632
414 4 0.203945 0.444937 0.375085
569 4 0.194487 0.429346 0.383938
508 2 0.215819 0.427285 0.344884
412 2 0.196889 0.468221 0.380851
509 4 0.219457 0.444196 0.362939
635 4 0.233032 0.455728 0.371962
413 4 0.189833 0.491505 0.386618
2 3 0.331918 0.457101 0.397179
634 2 0.254393 0.461921 0.360538
636 4 0.275755 0.468113 0.349114
5 3 0.302037 0.467345 0.377303
1 1 0.309615 0.462631 0.398255
594 4 0.293662 0.47323 0.359644
774 4 0.313637 0.434125 0.412774
3 3 0.297853 0.44468 0.407077
668 4 0.326211 0.437687 0.397641
4 3 0.307145 0.481211 0.411934
667 2 0.34642 0.423632 0.393254
3988 2 0.400481 0.436148 0.344677
3990 4 0.403493 0.456185 0.330027
718 2 0.100144 0.0361908 0.418472
342 4 0.100897 0.0628342 0.453641
720 4 0.0926564 0.0520922 0.436255
341 4 0.114748 0.032627 0.491009
340 2 0.107823 0.0477306 0.472325
2430 4 0.0990431 0.0216583 0.497262
856 2 0.156397 0.0733946 0.499068
857 4 0.16932 0.0558727 0.486773
1151 4 0.175323 0.037553 0.479419
275 4 0.207395 0.0316858 0.439476
274 2 0.201269 0.0549393 0.446326
276 4 0.195143 0.0781927 0.453176
1150 2 0.186571 0.0169794 0.488101
3489 4 0.388892 0.99654 0.476005
470 4 0.0545157 0.14704 0.461285
469 2 0.0542498 0.166642 0.445765
858 4 0.143474 0.0909165 0.511363
604 2 0.243084 0.0935723 0.429658
605 4 0.236345 0.0979413 0.453336
468 4 0.23377 0.109493 0.470167
466 2 0.23846 0.11243 0.494551
319 2 0.317969 0.140327 0.423546
411 4 0.29044 0.155283 0.441795
321 4 0.302083 0.159622 0.424252
320 4 0.333856 0.121032 0.42284
471 4 0.0539839 0.186244 0.430245
261 4 0.0581748 0.206428 0.426284
259 2 0.0599865 0.222362 0.445468
260 4 0.0617981 0.238296 0.464651
544 2 0.136173 0.23284 0.444424
546 4 0.119633 0.224043 0.460984
545 4 0.152712 0.241636 0.427863
1211 4 0.203872 0.201355 0.510538
7 3 0.189267 0.245501 0.439534
489 4 0.262736 0.21806 0.443183
410 4 0.265074 0.198377 0.442209
409 2 0.277757 0.17683 0.442002
487 2 0.279656 0.228653 0.458239
516 4 0.484448 0.166803 0.499433
1026 4 0.499206 0.177301 0.490375
2848 2 0.0238161 0.315818 0.428622
348 4 0.0701481 0.254468 0.473839
2849 4 0.00764454 0.331311 0.439741
346 2 0.084028 0.27443 0.479673
326 4 0.16168 0.289909 0.464747
325 2 0.13833 0.295753 0.471515
327 4 0.11498 0.301597 0.478283
347 4 0.097908 0.294392 0.485507
10 3 0.167485 0.272287 0.425358
8 3 0.177586 0.27359 0.461606
709 2 0.210435 0.305973 0.409278
375 4 0.182618 0.291694 0.473888
711 4 0.220665 0.287689 0.422923
9 3 0.203236 0.28 0.434304
6 1 0.184278 0.267949 0.440117
560 4 0.232824 0.341467 0.433468
488 4 0.296576 0.239245 0.473296
559 2 0.257717 0.339204 0.432837
561 4 0.28261 0.33694 0.432205
336 4 0.301235 0.338103 0.436224
584 4 0.404277 0.28027 0.414767
651 4 0.342227 0.310369 0.449711
716 4 0.356927 0.321488 0.440428
717 4 0.391198 0.295323 0.415098
715 2 0.374063 0.308405 0.427763
649 2 0.342871 0.304434 0.473992
926 4 0.434143 0.317643 0.426981
239 4 0.452799 0.319804 0.430245
238 2 0.46534 0.307518 0.448048
240 4 0.477881 0.295232 0.465851
4434 4 0.996691 0.333689 0.456078
773 4 0.299524 0.406055 0.451679
334 2 0.320599 0.353919 0.435944
335 4 0.339964 0.369734 0.435664
587 4 0.354629 0.365242 0.44899
588 4 0.358759 0.398727 0.485901
586 2 0.356694 0.381984 0.467445
382 2 0.0235053 0.502738 0.479106
1936 2 0.0149057 0.447252 0.483984
384 4 0.0282931 0.478664 0.483871
2812 2 0.0109034 0.431771 0.428919
1937 4 0.0363769 0.459737 0.481103
2814 4 0.991645 0.440979 0.441938
1938 4 0.993434 0.434767 0.486864
1435 2 0.140723 0.463067 0.455058
1436 4 0.128069 0.442418 0.461276
1557 4 0.157938 0.4935 0.464977
1437 4 0.153378 0.483715 0.448839
1400 4 0.312021 0.48403 0.433302
1399 2 0.321098 0.490701 0.455624
1401 4 0.330176 0.497372 0.477946
772 2 0.306581 0.42009 0.432226
663 4 0.485316 0.4698 0.455922
661 2 0.505315 0.460131 0.467399
880 2 0.450663 0.474647 0.464933
881 4 0.468137 0.462032 0.452256
882 4 0.433189 0.487261 0.47761
1910 4 0.414234 0.49422 0.482711
2317 2 0.00944233 0.0505007 0.548267
2318 4 0.02143 0.0286286 0.54651
1077 4 0.0219305 0.0260991 0.526167
1075 2 0.0249336 0.0103764 0.506958
1152 4 0.19782 0.996406 0.496784
1646 4 0.207009 0.00396328 0.513082
1645 2 0.224978 0.00630558 0.53031
950 4 0.252209 0.00687248 0.56569
1182 4 0.273749 0.0697125 0.57425
1032 4 0.282076 0.0858419 0.565182
1180 2 0.283808 0.0468459 0.573204
574 2 0.41859 0.0804798 0.53191
575 4 0.439516 0.0669394 0.533886
4466 4 0.449754 0.0512416 0.541323
4465 2 0.450097 0.0295576 0.553768
4467 4 0.450441 0.00787362 0.566212
1219 2 0.157154 0.128489 0.494665
1220 4 0.153687 0.104466 0.500669
1221 4 0.16062 0.152512 0.488661
1227 4 0.228798 0.149788 0.577043
1225 2 0.23162 0.135771 0.556531
909 4 0.224109 0.141457 0.59571
1212 4 0.17784 0.164566 0.488866
1226 4 0.234442 0.121754 0.536019
1030 2 0.271405 0.096737 0.545367
1031 4 0.260733 0.107632 0.525553
467 4 0.24315 0.115366 0.518935
576 4 0.397663 0.0940202 0.529934
514 2 0.488809 0.142643 0.504172
305 4 0.494408 0.117656 0.529054
515 4 0.49317 0.118483 0.508912
1242 4 0.173622 0.217737 0.524865
1240 2 0.192784 0.218348 0.540916
1241 4 0.211945 0.218959 0.556967
1278 4 0.216383 0.205365 0.569897
1210 2 0.190856 0.182961 0.499702
267 4 0.386966 0.251457 0.574175
265 2 0.384219 0.237204 0.594534
879 4 0.0264772 0.266888 0.547836
1272 4 0.0360324 0.271019 0.564643
877 2 0.0128372 0.266298 0.526889
374 4 0.205405 0.306 0.51604
792 4 0.196636 0.323266 0.518472
373 2 0.194011 0.298847 0.494964
650 4 0.343516 0.298499 0.498272
812 4 0.345574 0.297702 0.519447
872 4 0.391311 0.262953 0.557608
811 2 0.363752 0.312876 0.527478
871 2 0.409934 0.279286 0.561016
873 4 0.428556 0.295619 0.564423
906 4 0.425809 0.313012 0.575021
1011 4 0.456217 0.263061 0.508017
1009 2 0.47931 0.254749 0.503246
904 2 0.445764 0.307887 0.589188
790 2 0.20749 0.335761 0.537214
1191 4 0.226107 0.365821 0.563029
791 4 0.218344 0.348256 0.555955
1189 2 0.237828 0.361327 0.584653
1238 4 0.385809 0.343088 0.521458
1237 2 0.40144 0.350909 0.539338
813 4 0.38193 0.328049 0.535509
1239 4 0.417072 0.358729 0.557217
1029 4 0.428144 0.355464 0.572178
2154 4 0.230496 0.443584 0.569197
1160 4 0.249547 0.44066 0.576251
1171 2 0.316732 0.450626 0.542698
1161 4 0.285409 0.424104 0.545582
1172 4 0.302089 0.430799 0.538497
1159 2 0.267478 0.432382 0.560916
890 4 0.351466 0.424578 0.548743
1173 4 0.331375 0.470453 0.546899
889 2 0.375238 0.421951 0.556034
891 4 0.39901 0.419323 0.563326
1909 2 0.420538 0.495416 0.506877
1268 4 0.454099 0.429431 0.592369
1911 4 0.426841 0.496613 0.531044
1891 2 0.145271 0.0506458 0.661679
1893 4 0.159582 0.0711377 0.662368
951 4 0.230299 0.020275 0.608597
949 2 0.241254 0.0135737 0.587144
1090 2 0.227642 0.0503223 0.642507
1091 4 0.227532 0.0699504 0.657996
1092 4 0.227752 0.0306942 0.627018
1181 4 0.293868 0.0239792 0.572158
962 4 0.292578 0.0135699 0.588727
45 3 0.395591 0.00828496 0.649464
1192 2 0.397913 0.0747537 0.652297
90 3 0.482948 0.0111238 0.601459
809 4 0.487596 0.044829 0.649831
808 2 0.488606 0.0367322 0.626196
89 3 0.448015 0.00575947 0.588475
810 4 0.489616 0.0286354 0.602561
4226 4 0.472893 0.0558577 0.658419
1218 4 0.428855 0.00525984 0.574233
33 3 0.0772565 0.113365 0.651139
32 3 0.0862629 0.148143 0.662189
907 2 0.240686 0.139287 0.614302
908 4 0.257264 0.137117 0.632894
1284 4 0.27564 0.135531 0.626195
1282 2 0.281062 0.144824 0.648766
1283 4 0.286485 0.154117 0.671336
898 2 0.392491 0.126896 0.636471
899 4 0.388702 0.103157 0.643347
900 4 0.396279 0.150635 0.629595
887 4 0.39492 0.155791 0.609399
1194 4 0.388922 0.0870644 0.632478
3114 4 0.494303 0.139165 0.66712
1153 2 0.0160098 0.246223 0.647101
1154 4 0.0206497 0.243013 0.622742
1271 4 0.0209485 0.241899 0.602395
797 4 0.156542 0.232087 0.655085
695 4 0.138972 0.236889 0.663419
796 2 0.171757 0.221008 0.638624
798 4 0.186972 0.20993 0.622164
1277 4 0.205905 0.20842 0.618698
1276 2 0.211144 0.206893 0.594297
266 4 0.381472 0.222951 0.614893
888 4 0.380658 0.20273 0.619097
886 2 0.387789 0.179261 0.614248
1270 2 0.0284904 0.256459 0.583519
694 2 0.142004 0.261586 0.665883
1166 4 0.183331 0.300545 0.575558
1165 2 0.200029 0.282995 0.581749
1167 4 0.216728 0.265445 0.587939
918 4 0.225011 0.268713 0.605497
916 2 0.244083 0.26754 0.621624
803 4 0.246508 0.322309 0.654858
917 4 0.263154 0.266367 0.637751
905 4 0.465719 0.302762 0.603356
954 4 0.47116 0.241364 0.658691
3122 4 0.488622 0.308133 0.641176
3371 4 0.507248 0.305721 0.63484
3121 2 0.482754 0.331704 0.635247
896 4 0.102051 0.365152 0.623066
895 2 0.107844 0.385441 0.60965
897 4 0.113638 0.405729 0.596234
802 2 0.24095 0.333445 0.633171
804 4 0.235393 0.344581 0.611485
1190 4 0.249549 0.356834 0.606278
1006 2 0.312534 0.35155 0.668624
1007 4 0.289982 0.361482 0.672855
805 2 0.373517 0.342849 0.643774
807 4 0.395004 0.350846 0.633797
806 4 0.35203 0.334852 0.65375
1140 4 0.408854 0.39377 0.675757
1028 4 0.4045 0.350975 0.616013
1138 2 0.421578 0.404647 0.657184
1027 2 0.416322 0.35322 0.594096
3123 4 0.476886 0.355275 0.629317
3022 2 0.482542 0.39311 0.625844
3024 4 0.468459 0.373299 0.631705
3023 4 0.496626 0.412921 0.619983
2016 4 0.126504 0.471638 0.633323
2014 2 0.12667 0.46048 0.655699
2152 2 0.222208 0.455621 0.589485
2153 4 0.21392 0.467657 0.609773
2352 4 0.199605 0.481209 0.611769
1229 4 0.400968 0.423173 0.632724
1230 4 0.369473 0.461468 0.639229
1228 2 0.385221 0.44232 0.635976
1001 4 0.374243 0.477309 0.62728
1000 2 0.380042 0.50163 0.627171
1139 4 0.434302 0.415524 0.638611
1269 4 0.418181 0.418247 0.625315
1267 2 0.43614 0.423839 0.608842
2167 2 0.475146 0.487433 0.66452
2168 4 0.493019 0.476842 0.650607
1953 4 0.437493 0.492365 0.679444
2169 4 0.457274 0.498025 0.678434
863 4 0.00948497 0.0671604 0.731761
862 2 0.0329002 0.0714211 0.739426
1892 4 0.130961 0.030154 0.66099
939 4 0.121523 0.0290306 0.679121
937 2 0.109289 0.00896991 0.687668
2400 4 0.239806 0.0578542 0.74766
1050 4 0.245832 0.0750266 0.66578
1149 4 0.259606 0.0565157 0.747761
1193 4 0.406904 0.062443 0.672116
42 3 0.417781 0.0107963 0.679366
44 3 0.402866 0.0419798 0.664609
2321 4 0.377892 0.00932614 0.700111
980 4 0.384569 0.0228191 0.713667
43 3 0.380894 0.0170193 0.68301
41 1 0.399196 0.0194857 0.668962
979 2 0.394512 0.039107 0.729823
981 4 0.404456 0.055395 0.745978
4227 4 0.424357 0.0475562 0.667145
4225 2 0.448625 0.0517069 0.662782
1163 4 0.429679 0.00205151 0.696098
864 4 0.0563154 0.0756817 0.747091
2286 4 0.064882 0.0929335 0.740941
35 3 0.0593887 0.129452 0.680115
31 1 0.0794201 0.127423 0.669472
2284 2 0.0784259 0.102063 0.722009
2285 4 0.0919698 0.111192 0.703078
34 3 0.0953351 0.11898 0.684095
1048 2 0.249674 0.0917534 0.683963
1049 4 0.253516 0.10848 0.702147
1021 2 0.255552 0.139796 0.720062
1022 4 0.252704 0.129037 0.697672
1023 4 0.258399 0.150555 0.742452
1004 4 0.296697 0.162989 0.687029
1155 4 0.01137 0.249433 0.67146
3387 4 0.992617 0.244284 0.67713
1003 2 0.315265 0.178101 0.694246
1005 4 0.333832 0.193212 0.701464
831 4 0.335051 0.202933 0.718019
829 2 0.352767 0.195453 0.733999
830 4 0.370484 0.187973 0.749979
696 4 0.145035 0.286282 0.668348
1259 4 0.149804 0.30439 0.670602
1258 2 0.127693 0.31228 0.679208
1260 4 0.105583 0.320169 0.687814
1136 4 0.234595 0.314562 0.668318
1135 2 0.235357 0.318342 0.693023
1137 4 0.236118 0.322121 0.717727
948 4 0.220999 0.325532 0.731394
953 4 0.482643 0.24692 0.707043
952 2 0.476902 0.244142 0.682867
1215 4 0.0620142 0.370344 0.756972
1209 4 0.108181 0.387262 0.709822
1207 2 0.105757 0.363427 0.702666
1208 4 0.103333 0.339593 0.695511
992 4 0.118893 0.403535 0.709824
946 2 0.208923 0.345624 0.740093
1067 4 0.269536 0.359918 0.673735
1068 4 0.266933 0.407776 0.688
1066 2 0.268235 0.383847 0.680868
1176 4 0.262428 0.427377 0.688219
1008 4 0.335087 0.341618 0.664393
1205 4 0.411071 0.355883 0.719775
1019 4 0.408409 0.344792 0.736334
1204 2 0.418384 0.372924 0.703003
1206 4 0.425696 0.389964 0.68623
2015 4 0.126835 0.449322 0.678074
993 4 0.109226 0.447747 0.688551
991 2 0.11406 0.425641 0.699188
1175 4 0.262698 0.46101 0.725224
1174 2 0.262563 0.444193 0.706722
1235 4 0.254302 0.452367 0.740634
1988 4 0.410631 0.449372 0.736481
1101 4 0.460056 0.411308 0.732714
1099 2 0.439837 0.425058 0.727487
1100 4 0.419619 0.438808 0.72226
1286 4 0.115503 0.00445448 0.845914
2048 4 0.213897 0.0548447 0.807558
2047 2 0.23277 0.0712394 0.807991
1896 4 0.205567 0.0393357 0.798184
1894 2 0.194938 0.0228523 0.813692
1895 4 0.184309 0.00636891 0.8292
1147 2 0.261166 0.0384283 0.764953
1148 4 0.262726 0.020341 0.782146
2049 4 0.251644 0.087634 0.808423
1111 2 0.4001 0.0478597 0.789536
974 4 0.39277 0.0453403 0.831387
1113 4 0.403065 0.0473386 0.814358
1112 4 0.397135 0.0483809 0.764715
3253 2 0.45914 0.00529949 0.823839
3098 4 0.471914 0.0440777 0.837753
3097 2 0.458362 0.0638934 0.830762
3038 4 0.0152032 0.122259 0.80777
3245 4 0.0462344 0.153277 0.76675
3246 4 0.0343548 0.127018 0.807617
3244 2 0.0402946 0.140147 0.787184
833 4 0.0618704 0.16886 0.766246