ITEM: TIMESTEP
1480000
ITEM: NUMBER OF ATOMS
4590
ITEM: BOX BOUNDS pp pp pp
-9.9985700000000008e+00 9.9985700000000008e+00
-9.9985700000000008e+00 9.9985700000000008e+00
-9.9985700000000008e+00 9.9985700000000008e+00
ITEM: ATOMS id type xs ys zs
465 4 0.0429171 0.0467979 0.0117924
492 4 0.219681 0.0679825 0.0784659
565 2 0.188235 0.0705615 0.0471911
567 4 0.169438 0.0736654 0.0309981
566 4 0.207032 0.0674576 0.0633841
490 2 0.243277 0.0760473 0.0766281
653 4 0.325105 0.0677595 0.0448572
491 4 0.266873 0.0841121 0.0747904
485 4 0.343683 0.0102832 0.0328492
486 4 0.340138 0.0564414 0.0517587
484 2 0.34191 0.0333623 0.0423039
747 4 0.384032 0.0501462 0.998931
745 2 0.398228 0.0429755 0.0182241
1608 4 0.357607 0.99713 0.0314728
746 4 0.412424 0.0358048 0.0375174
297 4 0.428005 0.0256031 0.0455548
295 2 0.443135 0.0331674 0.0639677
296 4 0.458266 0.0407316 0.0823806
701 4 0.0277362 0.0865015 0.0290539
702 4 0.028259 0.115599 0.0697206
700 2 0.0279976 0.10105 0.0493873
3234 4 0.0227586 0.0821225 0.00911568
421 2 0.152656 0.0886643 0.00838496
422 4 0.172396 0.0909435 0.0235618
652 2 0.302054 0.0748953 0.0514084
654 4 0.279003 0.0820311 0.0579596
462 4 0.315281 0.124024 0.0828309
460 2 0.314396 0.144759 0.068886
461 4 0.313512 0.165494 0.0549411
558 4 0.325574 0.175665 0.06644
1013 4 0.430409 0.145249 0.0142638
770 4 0.457037 0.108103 0.0480855
769 2 0.447341 0.118404 0.0274686
771 4 0.437645 0.128705 0.00685163
2469 4 0.46886 0.120206 0.0590131
2467 2 0.47942 0.142081 0.0649391
353 4 0.247276 0.19021 0.0307196
738 4 0.186582 0.185669 0.0916783
572 4 0.278875 0.249373 0.0493848
571 2 0.290604 0.236648 0.031338
573 4 0.302333 0.223924 0.0132912
756 4 0.27768 0.249557 0.0697159
352 2 0.246894 0.1775 0.00919092
357 4 0.311346 0.229285 0.994973
556 2 0.346449 0.18913 0.0635903
557 4 0.367323 0.202595 0.0607407
664 2 0.408666 0.189685 0.0507974
665 4 0.38471 0.19351 0.0568529
666 4 0.432622 0.185861 0.0447419
519 4 0.451131 0.190044 0.0475002
517 2 0.456862 0.213492 0.0540236
518 4 0.462593 0.236939 0.060547
2468 4 0.48998 0.163957 0.070865
621 4 0.999945 0.364066 0.0601315
475 2 0.131003 0.285373 0.0735953
476 4 0.145558 0.304726 0.0798228
477 4 0.116449 0.266019 0.0673678
287 4 0.199734 0.292474 0.0137319
483 4 0.194091 0.306881 0.02592
481 2 0.208534 0.327283 0.0253851
1069 2 0.379774 0.275165 0.00635163
1070 4 0.401548 0.281994 0.0165702
1095 4 0.418089 0.283958 0.02806
609 4 0.375475 0.313569 0.0676569
671 4 0.379652 0.307585 0.0874875
324 4 0.47151 0.245035 0.0769735
1093 2 0.432801 0.303484 0.0228166
1094 4 0.447512 0.32301 0.0175732
3347 4 0.466842 0.320719 0.0139759
3346 2 0.49125 0.326118 0.0134461
620 4 0.0195291 0.341585 0.0199844
619 2 0.00973712 0.352826 0.0400579
657 4 0.000852474 0.35758 0.078518
294 4 0.0200452 0.343397 0.000749746
454 2 0.132496 0.387378 0.0152451
455 4 0.157262 0.384795 0.0175087
626 4 0.114967 0.418309 0.0366246
456 4 0.107729 0.38996 0.0129815
507 4 0.171153 0.37117 0.0172567
482 4 0.222978 0.347686 0.0248502
505 2 0.191083 0.386267 0.0170937
1290 4 0.22493 0.410572 0.00512971
607 2 0.362 0.331649 0.056853
957 4 0.35672 0.361107 0.0321897
608 4 0.348525 0.349729 0.0460492
955 2 0.345039 0.35987 0.0101168
625 2 0.114197 0.44146 0.0272097
627 4 0.113427 0.46461 0.0177949
250 2 0.214584 0.477449 0.0379234
251 4 0.221278 0.481251 0.0617124
252 4 0.20789 0.473647 0.0141345
1289 4 0.215591 0.459656 0.0030523
1288 2 0.220261 0.435114 0.00409101
563 4 0.466476 0.486688 0.0554906
1568 4 0.479957 0.473227 0.0574534
1567 2 0.497658 0.479799 0.0738443
1667 4 0.0742346 0.00649973 0.107742
1806 4 0.0914509 0.0182859 0.109149
1666 2 0.0529753 0.994579 0.11332
449 4 0.150206 0.0192325 0.140751
1805 4 0.131852 0.0251862 0.1378
1804 2 0.111651 0.0217361 0.123474
448 2 0.167428 0.00131865 0.137982
1475 4 0.239262 0.0653586 0.165951
450 4 0.18465 0.983405 0.135213
1474 2 0.262747 0.0569773 0.164106
1476 4 0.286231 0.048596 0.16226
629 4 0.464463 0.0564799 0.094407
628 2 0.452628 0.0508064 0.115689
630 4 0.440793 0.045133 0.136971
312 4 0.437716 0.0552939 0.15374
380 4 0.0300468 0.11651 0.0890975
381 4 0.071865 0.100037 0.11102
379 2 0.0509559 0.108274 0.100059
17 3 0.0623421 0.0968938 0.12849
16 1 0.0643449 0.0925427 0.150989
18 3 0.0868645 0.092059 0.15656
578 4 0.0968349 0.0795325 0.144753
577 2 0.118844 0.0912776 0.14643
579 4 0.140854 0.103023 0.148106
237 4 0.149308 0.102943 0.166778
675 4 0.226058 0.0793537 0.162784
673 2 0.219768 0.0992284 0.17659
764 4 0.485836 0.137135 0.152558
2724 4 0.486593 0.130282 0.134433
278 4 0.145472 0.237991 0.155083
277 2 0.161872 0.219519 0.151209
279 4 0.178271 0.201046 0.147335
284 4 0.177834 0.180137 0.151756
737 4 0.226456 0.187863 0.121777
736 2 0.206519 0.186766 0.106728
754 2 0.269322 0.24966 0.093281
528 4 0.399122 0.216047 0.15595
526 2 0.416984 0.233389 0.158264
255 4 0.410754 0.169668 0.117645
254 4 0.437322 0.212026 0.116868
253 2 0.424038 0.190847 0.117257
527 4 0.434846 0.250732 0.160577
2624 4 0.0162008 0.289113 0.0945476
339 4 0.0824752 0.252832 0.125628
361 2 0.0878204 0.237924 0.155304
363 4 0.085816 0.260585 0.14493
337 2 0.0921822 0.257752 0.103117
338 4 0.101889 0.262671 0.0806059
535 2 0.164274 0.276252 0.153185
536 4 0.157019 0.252905 0.147944
299 4 0.158409 0.31592 0.156811
537 4 0.171529 0.299598 0.158427
755 4 0.260964 0.249762 0.116846
670 2 0.401407 0.29531 0.0885963
739 2 0.384113 0.330336 0.145288
672 4 0.423161 0.283034 0.0897051
741 4 0.393154 0.339514 0.123859
740 4 0.375073 0.321157 0.166717
322 2 0.457131 0.264081 0.0844352
323 4 0.442753 0.283128 0.091897
2651 4 0.434617 0.26542 0.173574
386 4 0.457509 0.335635 0.117561
298 2 0.145924 0.33284 0.143283
300 4 0.133438 0.349759 0.129754
387 4 0.408245 0.327476 0.120244
385 2 0.432877 0.331556 0.118903
552 4 0.0815697 0.448853 0.0866296
2795 4 0.00969508 0.43667 0.151708
315 4 0.0189359 0.461918 0.104369
551 4 0.0359865 0.453408 0.106683
550 2 0.0587781 0.451131 0.0966564
313 2 0.998101 0.474668 0.109709
1559 4 0.31117 0.478801 0.0881695
1558 2 0.293728 0.493373 0.0985911
62 3 0.327169 0.492006 0.0865066
65 3 0.359451 0.473821 0.0820227
61 1 0.350019 0.493431 0.0887427
1538 4 0.0576751 0.00743355 0.176702
232 2 0.0418155 0.00631479 0.219047
234 4 0.0503091 0.00816083 0.195603
233 4 0.0333219 0.00446875 0.242492
1537 2 0.0694957 0.029455 0.177416
1539 4 0.0813163 0.0514764 0.178129
688 2 0.125044 0.0438182 0.175555
690 4 0.100457 0.046969 0.172278
689 4 0.149631 0.0406674 0.178831
1505 4 0.202311 0.0428017 0.203221
1504 2 0.183898 0.0370184 0.187324
1506 4 0.165486 0.031235 0.171427
743 4 0.389982 0.0786907 0.253635
333 4 0.405691 0.0675962 0.251047
2745 4 0.486722 0.0160967 0.205764
310 2 0.43497 0.0751394 0.1687
2743 2 0.50107 0.0233974 0.186633
20 3 0.0547609 0.0724088 0.155617
19 3 0.0536064 0.109339 0.162862
2481 4 0.0403287 0.12447 0.166434
2479 2 0.0325463 0.12404 0.190192
2480 4 0.0247638 0.12361 0.21395
722 4 0.159141 0.0851323 0.232651
236 4 0.159752 0.0945922 0.214964
235 2 0.15453 0.0987677 0.190871
674 4 0.213479 0.119103 0.190397
721 2 0.181999 0.0751462 0.234375
580 2 0.232097 0.165196 0.206646
582 4 0.247081 0.153392 0.222812
27 3 0.244244 0.13601 0.231756
26 1 0.260329 0.135367 0.248188
30 3 0.280572 0.140438 0.239071
24 3 0.348553 0.156606 0.226578
23 3 0.371563 0.12673 0.231302
21 1 0.369755 0.149793 0.233093
744 4 0.366985 0.12305 0.251602
742 2 0.378483 0.10087 0.252618
763 2 0.468337 0.143265 0.169332
311 4 0.432224 0.0949848 0.18366
765 4 0.450838 0.149395 0.186107
393 4 0.0798074 0.200094 0.225001
392 4 0.0742454 0.209924 0.176286
391 2 0.0770264 0.205009 0.200644
362 4 0.0898247 0.215263 0.165678
513 4 0.0722246 0.190675 0.241361
283 2 0.187942 0.177208 0.174437
285 4 0.19805 0.174279 0.197118
581 4 0.217113 0.177 0.190481
611 4 0.27479 0.218828 0.247935
610 2 0.285271 0.23791 0.235638
758 4 0.388624 0.206261 0.17041
25 3 0.385494 0.159856 0.220067
759 4 0.385487 0.176593 0.210543
757 2 0.387055 0.191427 0.190476
521 4 0.443594 0.16761 0.189368
520 2 0.450034 0.186745 0.204118
522 4 0.456474 0.20588 0.218868
762 4 0.447037 0.221466 0.226646
389 4 0.066741 0.271098 0.24797
388 2 0.0836415 0.289296 0.245073
390 4 0.100542 0.307494 0.242176
612 4 0.295751 0.256992 0.223341
308 4 0.295192 0.272074 0.237247
307 2 0.287418 0.295828 0.236562
309 4 0.279645 0.319583 0.235877
497 4 0.262508 0.328838 0.233575
624 4 0.376117 0.260488 0.201336
623 4 0.37768 0.306308 0.181365
622 2 0.376898 0.283398 0.19135
2650 2 0.459537 0.264135 0.175159
2652 4 0.484457 0.26285 0.176744
748 2 0.0608651 0.379341 0.225629
366 4 0.0329997 0.362918 0.250275
749 4 0.0422645 0.364302 0.23291
750 4 0.0794658 0.394381 0.218349
603 4 0.0842387 0.414152 0.220263
767 4 0.295991 0.400964 0.211745
303 4 0.303031 0.403964 0.229372
301 2 0.318813 0.386931 0.238646
766 2 0.274094 0.41225 0.216027
645 4 0.383968 0.393044 0.202495
13 3 0.400122 0.383641 0.204724
14 3 0.418164 0.350287 0.207252
11 1 0.420851 0.373217 0.204927
728 4 0.352253 0.363075 0.239002
12 3 0.43151 0.377472 0.184992
542 4 0.432043 0.375537 0.241396
15 3 0.433465 0.381339 0.222061
2794 2 0.0213621 0.451469 0.168141
2796 4 0.0330292 0.466268 0.184574
601 2 0.100762 0.428966 0.231782
602 4 0.117285 0.443781 0.243302
263 4 0.157291 0.496243 0.24417
417 4 0.209748 0.493296 0.204956
415 2 0.186891 0.492945 0.215087
291 4 0.223992 0.480788 0.200651
289 2 0.237983 0.462391 0.210189
290 4 0.251973 0.443993 0.219727
416 4 0.164035 0.492595 0.225218
768 4 0.252198 0.423536 0.22031
643 2 0.377479 0.416076 0.209748
659 4 0.358861 0.454565 0.220519
644 4 0.37099 0.439108 0.217001
658 2 0.360784 0.477389 0.210492
109 3 0.473598 0.416236 0.205191
108 3 0.482881 0.439225 0.233996
106 1 0.491108 0.426565 0.216377
107 3 0.502115 0.440473 0.201729
2484 4 0.994638 0.0578464 0.323182
693 4 0.209314 0.0778095 0.249779
723 4 0.204857 0.0651601 0.236099
1699 2 0.182386 0.998281 0.314027
1830 4 0.216148 0.0194137 0.313518
1700 4 0.203743 0.00674107 0.304152
1828 2 0.240844 0.0188859 0.317393
1829 4 0.26554 0.0183582 0.321268
1496 4 0.276324 0.0332956 0.315705
1495 2 0.299008 0.031708 0.3261
1497 4 0.321693 0.0301205 0.336495
1517 4 0.337848 0.0215632 0.329844
351 4 0.454513 0.0685091 0.287586
349 2 0.466931 0.0660954 0.309153
332 4 0.450097 0.056237 0.271042
331 2 0.427894 0.0619166 0.261044
398 4 0.0579725 0.151737 0.31742
249 4 0.142766 0.143074 0.273431
247 2 0.143381 0.164986 0.285459
691 2 0.231186 0.0862282 0.258491
29 3 0.260877 0.114042 0.257318
692 4 0.253059 0.0946469 0.267203
473 4 0.261403 0.107565 0.279841
28 3 0.254924 0.150868 0.264586
472 2 0.265061 0.101576 0.30384
474 4 0.268719 0.0955868 0.327838
22 3 0.373091 0.155832 0.255037
632 4 0.363719 0.140351 0.262654
631 2 0.347378 0.136843 0.281251
633 4 0.331037 0.133335 0.299849
511 2 0.0668127 0.204694 0.261345
529 2 0.0567717 0.203055 0.320028
531 4 0.0645543 0.20693 0.296584
512 4 0.0614008 0.218712 0.281329
545 4 0.139164 0.184151 0.317161
248 4 0.143996 0.186898 0.297486
403 2 0.195538 0.219303 0.315867
708 4 0.222015 0.218399 0.294432
405 4 0.203582 0.22881 0.294186
404 4 0.187495 0.209795 0.337549
707 4 0.259377 0.217805 0.261199
706 2 0.240696 0.218102 0.277816
614 4 0.280312 0.215452 0.3308
760 2 0.455309 0.220787 0.250232
2682 4 0.48372 0.222179 0.277094
761 4 0.463581 0.220109 0.273818
617 4 0.0574903 0.263678 0.264717
618 4 0.0627427 0.261671 0.314407
616 2 0.0601165 0.262674 0.289562
444 4 0.0750639 0.271546 0.325186
372 4 0.106114 0.304399 0.26128
370 2 0.129965 0.30983 0.266455
371 4 0.153817 0.315261 0.27163
402 4 0.156257 0.311377 0.291383
442 2 0.0987823 0.264826 0.329365
400 2 0.176648 0.310421 0.305823
401 4 0.197038 0.309464 0.320262
510 4 0.211686 0.319338 0.328425
2537 4 0.385517 0.338423 0.289813
2536 2 0.410074 0.339918 0.285351
365 4 0.989005 0.344054 0.264744
364 2 0.0110024 0.353486 0.25751
733 2 0.152642 0.372073 0.306407
345 4 0.19016 0.362204 0.297829
343 2 0.213107 0.359735 0.288211
734 4 0.172808 0.370642 0.291694
344 4 0.236054 0.357266 0.278593
498 4 0.22713 0.348622 0.262862
496 2 0.244819 0.33873 0.248218
302 4 0.334595 0.369898 0.24792
729 4 0.370869 0.333895 0.275095
727 2 0.361561 0.348485 0.257049
560 4 0.395109 0.393795 0.317523
541 2 0.447798 0.373193 0.260669
2538 4 0.434631 0.341412 0.28089
543 4 0.463554 0.370849 0.279942
447 4 0.451221 0.370142 0.295403
445 2 0.456924 0.385266 0.314479
446 4 0.462628 0.400391 0.333555
3717 4 0.00557711 0.456391 0.311685
2617 2 0.995955 0.481083 0.261279
1758 4 0.0842299 0.512746 0.264806
262 2 0.142959 0.476349 0.249071
264 4 0.128628 0.456455 0.253973
775 2 0.127914 0.464939 0.313102
776 4 0.128405 0.47497 0.290204
1756 2 0.0972776 0.497006 0.2792
229 2 0.335828 0.480475 0.329438
1862 4 0.265256 0.497688 0.281494
1861 2 0.277505 0.502873 0.302666
1802 4 0.374938 0.486128 0.333729
230 4 0.358862 0.485278 0.320978
120 3 0.455675 0.419208 0.326884
3988 2 0.479979 0.486885 0.312291
117 3 0.439807 0.446331 0.306749
116 1 0.449156 0.441027 0.327087
3989 4 0.48662 0.465243 0.322907
2757 4 0.0110325 0.0626283 0.335994
2755 2 0.0112557 0.047179 0.355652
2756 4 0.0114789 0.0317296 0.37531
1772 4 0.0117741 0.0156837 0.362126
1782 4 0.130751 0.016058 0.392
318 4 0.0970014 0.0608936 0.347564
429 4 0.0970151 0.0422291 0.345493
427 2 0.115512 0.0321529 0.358967
428 4 0.134008 0.0220768 0.37244
719 4 0.112819 0.0716446 0.42015
368 4 0.129835 0.0664834 0.409424
316 2 0.0890805 0.0841692 0.352112
367 2 0.150793 0.078234 0.416342
1818 4 0.234775 0.00641063 0.423792
439 2 0.263427 0.00152946 0.39357
440 4 0.25001 0.0114589 0.412187
1516 2 0.350389 0.0277367 0.350574
697 2 0.382776 0.00567932 0.391893
699 4 0.37668 0.0288646 0.384789
1518 4 0.362931 0.0339103 0.371305
424 2 0.402486 0.0625022 0.358438
425 4 0.389903 0.0840407 0.356726
426 4 0.415069 0.0409636 0.36015
258 4 0.427221 0.0260249 0.365408
256 2 0.443129 0.0262974 0.384696
257 4 0.459037 0.0265698 0.403984
350 4 0.479349 0.0636818 0.33072
453 4 0.481233 0.0517692 0.348306
641 4 0.474847 0.0263946 0.416277
317 4 0.0811596 0.107445 0.35666
397 2 0.0671851 0.139513 0.33719
399 4 0.0763977 0.127288 0.356961
683 4 0.277357 0.0992016 0.345769
684 4 0.321467 0.121611 0.353041
682 2 0.299412 0.110406 0.349405
319 2 0.296703 0.120133 0.404819
320 4 0.283605 0.0988801 0.403427
605 4 0.266325 0.101595 0.412272
411 4 0.315271 0.159225 0.412163
377 4 0.266927 0.170396 0.368343
321 4 0.309801 0.141385 0.406212
725 4 0.332863 0.116552 0.337033
726 4 0.376465 0.0994598 0.354567
724 2 0.354664 0.108006 0.3458
530 4 0.048989 0.19918 0.343471
2655 4 0.0278969 0.222826 0.35946
2654 4 0.994567 0.210428 0.394618
2653 2 0.0112318 0.216627 0.377039
2846 4 0.981292 0.217638 0.407625
1033 2 0.0646357 0.194409 0.377875
1035 4 0.0621485 0.190984 0.402518
1034 4 0.0671228 0.197834 0.353233
544 2 0.143534 0.191206 0.340748
546 4 0.147904 0.198261 0.364334
600 4 0.167347 0.197991 0.363469
598 2 0.179086 0.203371 0.384881
599 4 0.190825 0.208751 0.406292
378 4 0.261959 0.209078 0.337042
376 2 0.264443 0.189737 0.352692
613 2 0.293714 0.235953 0.335826
268 2 0.485748 0.211203 0.347182
419 4 0.435764 0.19755 0.40898
269 4 0.470801 0.196137 0.360402
420 4 0.458599 0.211551 0.366752
418 2 0.447181 0.20455 0.387866
2849 4 0.0219431 0.302288 0.39378
443 4 0.122501 0.258106 0.333543
678 4 0.122848 0.342665 0.37208
508 2 0.229962 0.333514 0.337923
615 4 0.307116 0.256455 0.340852
716 4 0.31242 0.246511 0.358245
715 2 0.327828 0.255951 0.375527
717 4 0.343235 0.265392 0.392809
926 4 0.417 0.332528 0.401598
677 4 0.121236 0.358508 0.324677
676 2 0.122042 0.350587 0.348378
735 4 0.132477 0.373505 0.32112
509 4 0.248238 0.34769 0.347421
502 2 0.251764 0.366724 0.377013
503 4 0.257877 0.345201 0.365851
504 4 0.24565 0.388246 0.388176
635 4 0.244167 0.405903 0.396971
559 2 0.381793 0.384005 0.336286
561 4 0.368478 0.374215 0.355049
336 4 0.347886 0.379498 0.356447
334 2 0.347675 0.375404 0.381112
335 4 0.347465 0.371309 0.405777
587 4 0.352668 0.388509 0.416325
925 2 0.427122 0.353887 0.393442
752 4 0.433022 0.393857 0.391801
927 4 0.437243 0.375246 0.385285
751 2 0.431274 0.412847 0.37563
3715 2 0.0128625 0.472773 0.329114
547 2 0.994156 0.424822 0.391972
3716 4 0.0201478 0.489155 0.346542
501 4 0.022887 0.45699 0.386933
499 2 0.0449423 0.466177 0.379562
548 4 0.00852254 0.445286 0.392058
500 4 0.0669976 0.475364 0.372191
777 4 0.127423 0.454907 0.336
568 2 0.168604 0.422469 0.406808
1395 4 0.0879572 0.478972 0.370296
413 4 0.140457 0.462265 0.349004
412 2 0.159598 0.450848 0.360338
1393 2 0.107636 0.493187 0.376285
414 4 0.178739 0.439431 0.371672
569 4 0.184724 0.429358 0.388978
1801 2 0.392999 0.495232 0.34843
1741 2 0.434521 0.506493 0.390613
1742 4 0.455432 0.516723 0.399737
118 3 0.467518 0.454743 0.330708
753 4 0.429525 0.431837 0.359459
2740 2 0.498763 0.452358 0.360783
119 3 0.433339 0.44441 0.343724
2741 4 0.484652 0.462352 0.342723
718 2 0.100341 0.0512364 0.427429
720 4 0.0878628 0.0308282 0.434708
342 4 0.102774 0.0197923 0.444479
340 2 0.118468 0.0120405 0.462334
341 4 0.134161 0.00428876 0.480189
2430 4 0.140508 0.0171811 0.494681
604 2 0.252802 0.0815369 0.418593
606 4 0.239279 0.0614784 0.424914
1817 4 0.221954 0.0539403 0.432582
1150 2 0.214284 0.0368142 0.48673
1152 4 0.210247 0.0175266 0.47134
1816 2 0.228364 0.0301755 0.428187
3489 4 0.483904 0.032922 0.470604
3487 2 0.492931 0.0528356 0.482734
642 4 0.484676 0.0145578 0.463859
640 2 0.479761 0.0204762 0.440068
459 4 0.00340797 0.149799 0.441493
470 4 0.0220165 0.148789 0.446515
469 2 0.0412365 0.164778 0.446158
856 2 0.140933 0.159584 0.4777
857 4 0.141172 0.14848 0.455299
369 4 0.171751 0.0899845 0.42326
275 4 0.158654 0.148016 0.444722
274 2 0.169233 0.127835 0.434427
276 4 0.179812 0.107654 0.424132
982 2 0.00693593 0.238808 0.488123
471 4 0.0604566 0.180767 0.445801
261 4 0.0797148 0.182032 0.452574
259 2 0.0842499 0.203039 0.465354
260 4 0.088785 0.224046 0.478133
346 2 0.112861 0.249983 0.497271
348 4 0.10372 0.227206 0.49249
686 4 0.195714 0.220263 0.422277
685 2 0.206637 0.241467 0.414777
409 2 0.307295 0.182561 0.416286
410 4 0.299319 0.205897 0.420408
489 4 0.316469 0.216664 0.425162
487 2 0.317323 0.238164 0.437897
584 4 0.381237 0.232154 0.442138
304 2 0.457317 0.213601 0.494175
305 4 0.45788 0.229536 0.513435
306 4 0.456753 0.197667 0.474915
687 4 0.21756 0.262671 0.407277
488 4 0.318176 0.259664 0.450633
651 4 0.323942 0.269538 0.467372
650 4 0.359251 0.292229 0.494559
583 2 0.391911 0.254119 0.447505
649 2 0.341596 0.280884 0.480965
585 4 0.402585 0.276083 0.452871
240 4 0.400375 0.291482 0.437873
238 2 0.412826 0.311043 0.428517
239 4 0.425278 0.330603 0.419162
406 2 0.141576 0.363978 0.437259
407 4 0.156482 0.347994 0.449404
710 4 0.167616 0.362201 0.457972
408 4 0.12667 0.379961 0.425114
680 4 0.141867 0.421771 0.440008
636 4 0.210739 0.417061 0.43245
709 2 0.181366 0.357641 0.478351
634 2 0.227453 0.411482 0.41471
586 2 0.358824 0.382067 0.439687
773 4 0.381643 0.367744 0.469155
588 4 0.364981 0.375625 0.463049
772 2 0.376912 0.367582 0.493706
382 2 0.0469886 0.491497 0.480409
936 4 0.995753 0.422443 0.4845
538 2 0.0742094 0.443851 0.476687
540 4 0.0672348 0.463169 0.490947
383 4 0.0566617 0.478277 0.499299
570 4 0.152485 0.415581 0.424637
539 4 0.081184 0.424534 0.462426
681 4 0.0990291 0.435145 0.462071
679 2 0.120448 0.428458 0.451039
3 3 0.342845 0.466089 0.43049
1 1 0.327283 0.483294 0.430964
5 3 0.321858 0.489452 0.40972
667 2 0.335382 0.444765 0.472851
593 4 0.393138 0.447582 0.418773
592 2 0.376995 0.455491 0.436153
669 4 0.327758 0.435362 0.494729
594 4 0.360852 0.463399 0.453532
668 4 0.343005 0.454168 0.450973
1126 2 0.0215098 0.0814456 0.494795
3110 4 0.000682228 0.00151277 0.506924
2238 4 0.060151 0.0158977 0.530927
2236 2 0.0362221 0.015658 0.523679
1524 4 0.0771384 0.00649293 0.529944
2237 4 0.0122932 0.0154184 0.516431
1127 4 0.00297684 0.065998 0.501359
938 4 0.0859017 0.0554886 0.592837
2428 2 0.152161 0.000496215 0.509207
1522 2 0.0910362 0.999817 0.549628
1181 4 0.242067 0.0556921 0.528709
1151 4 0.218321 0.0561018 0.502121
1180 2 0.24518 0.0802426 0.532282
962 4 0.25327 0.0376818 0.527863
961 2 0.276949 0.0329073 0.534321
963 4 0.300627 0.0281328 0.54078
432 4 0.308063 0.00912621 0.540487
4466 4 0.410556 0.0662028 0.535479
575 4 0.407805 0.0774689 0.52032
4465 2 0.4232 0.0450236 0.539574
4467 4 0.435843 0.0238444 0.543668
90 3 0.440654 0.00932985 0.55664
88 3 0.47237 0.990515 0.564237
3488 4 0.501957 0.0727492 0.494864
3009 4 0.500711 0.0212191 0.584172
1128 4 0.0400427 0.0968931 0.488232
858 4 0.140694 0.170689 0.500101
1182 4 0.248293 0.104793 0.535854
1030 2 0.281908 0.129452 0.534874
1032 4 0.260172 0.118927 0.541354
467 4 0.320834 0.134881 0.53471
1031 4 0.303643 0.139977 0.528394
466 2 0.339349 0.124736 0.521314
574 2 0.386402 0.0903269 0.521647
576 4 0.364999 0.103185 0.522973
468 4 0.357863 0.114591 0.507917
877 2 0.038855 0.223361 0.53698
879 4 0.0493539 0.218767 0.559203
878 4 0.0283562 0.227954 0.514757
1272 4 0.0486864 0.229454 0.576459
984 4 0.0104008 0.235091 0.512605
1220 4 0.157127 0.16544 0.510042
1219 2 0.170987 0.173336 0.529295
1221 4 0.184848 0.181231 0.548549
1212 4 0.20432 0.182152 0.552975
1210 2 0.211511 0.204493 0.561599
1211 4 0.218701 0.226833 0.570222
267 4 0.325593 0.174098 0.558104
514 2 0.483044 0.20828 0.542749
516 4 0.494377 0.197964 0.562506
515 4 0.471711 0.218596 0.522993
325 2 0.127902 0.313676 0.517621
327 4 0.11764 0.293177 0.507636
695 4 0.127904 0.286191 0.589262
347 4 0.122002 0.272759 0.502053
790 2 0.205658 0.279527 0.553061
792 4 0.201011 0.270083 0.530381
374 4 0.192403 0.286656 0.518868
373 2 0.192285 0.309426 0.508538
791 4 0.210304 0.288971 0.575742
375 4 0.192166 0.332195 0.498207
811 2 0.337322 0.292814 0.533593
812 4 0.326836 0.291633 0.556261
813 4 0.347808 0.293996 0.510926
872 4 0.423964 0.331998 0.551958
871 2 0.429875 0.315514 0.569806
904 2 0.479189 0.297413 0.58812
905 4 0.502837 0.290011 0.584777
326 4 0.138163 0.334174 0.527606
7 3 0.150778 0.350121 0.527184
9 3 0.169892 0.377303 0.544747
1189 2 0.192483 0.327977 0.574839
8 3 0.184083 0.36093 0.513523
6 1 0.171821 0.357439 0.53291
10 3 0.181997 0.341666 0.545805
804 4 0.177667 0.368591 0.562355
1190 4 0.181765 0.3485 0.565399
1160 4 0.228187 0.420057 0.564257
711 4 0.195117 0.353082 0.49873
891 4 0.333796 0.413748 0.589733
929 4 0.359251 0.364988 0.53317
928 2 0.359394 0.365567 0.558166
930 4 0.359537 0.366146 0.583163
774 4 0.372181 0.367421 0.518258
1938 4 0.0319892 0.438061 0.543223
1936 2 0.0160824 0.453636 0.554604
935 4 0.021973 0.436006 0.524864
1937 4 0.000175516 0.469212 0.565986
1040 4 0.00863944 0.486819 0.57149
934 2 0.00886296 0.429224 0.504682
895 2 0.167757 0.487608 0.554253
1159 2 0.249361 0.419345 0.577535
897 4 0.182736 0.501301 0.539648
882 4 0.327909 0.434874 0.514847
1161 4 0.270536 0.418633 0.590813
889 2 0.352195 0.43067 0.589221
880 2 0.333761 0.451903 0.532194
881 4 0.339613 0.468932 0.549542
1910 4 0.354265 0.482878 0.548465
937 2 0.0611411 0.0586738 0.591442
939 4 0.0363805 0.061859 0.590047
4509 4 0.00750893 0.0379428 0.614166
943 2 0.0450669 0.0149 0.653699
2114 4 0.0179471 0.025821 0.601638
945 4 0.0580057 0.00304971 0.635885
2113 2 0.0281005 0.00463082 0.59309
4507 2 0.997575 0.0607329 0.611501
2318 4 0.0890132 0.0416741 0.606547
2317 2 0.106792 0.0241073 0.607257
2319 4 0.124571 0.00654045 0.607967
950 4 0.23845 0.0378608 0.639393
949 2 0.256236 0.0246075 0.650934
951 4 0.274022 0.0113542 0.662475
2281 2 0.447832 0.020371 0.622167
2283 4 0.438812 0.034108 0.641012
2282 4 0.456852 0.00663394 0.603323
44 3 0.438952 0.0401 0.660391
1153 2 0.0880518 0.166703 0.621657
1155 4 0.109291 0.155202 0.628123
909 4 0.227666 0.147747 0.641619
907 2 0.236072 0.125684 0.633389
908 4 0.244478 0.103621 0.625159
1283 4 0.304852 0.0927603 0.633362
1282 2 0.280423 0.0900598 0.628765
1284 4 0.255995 0.0873593 0.624168
1004 4 0.302042 0.101193 0.652057
888 4 0.344903 0.163349 0.621457
266 4 0.336536 0.157651 0.604044
886 2 0.362392 0.16927 0.638316
265 2 0.331064 0.165875 0.581074
809 4 0.499231 0.106774 0.639149
4225 2 0.473642 0.0899279 0.667473
4226 4 0.493281 0.0943877 0.652654
1270 2 0.0550496 0.213337 0.594486
1271 4 0.0614128 0.197221 0.612513
1154 4 0.0668124 0.178204 0.615191
1227 4 0.226624 0.167123 0.646139
1241 4 0.247114 0.201103 0.633075
1240 2 0.261286 0.218565 0.644002
1242 4 0.275459 0.236027 0.654929
900 4 0.375932 0.168303 0.673573
887 4 0.379882 0.175191 0.655176
1258 2 0.0764146 0.318245 0.647635
1260 4 0.0577422 0.333501 0.654252
1259 4 0.0950869 0.302989 0.641019
696 4 0.107275 0.288102 0.634776
694 2 0.117589 0.287147 0.612019
1191 4 0.203201 0.307454 0.584279
796 2 0.232105 0.279298 0.662686
798 4 0.207387 0.276776 0.659889
1277 4 0.205148 0.259481 0.670136
797 4 0.256823 0.281821 0.665483
873 4 0.435787 0.299031 0.587653
906 4 0.455541 0.304815 0.591464
1208 4 0.0685445 0.342683 0.667249
803 4 0.159733 0.391671 0.602931
802 2 0.1687 0.380131 0.582643
1136 4 0.170867 0.405713 0.613207
1173 4 0.32528 0.396667 0.5961
1172 4 0.279492 0.405964 0.578275
1171 2 0.302386 0.401316 0.587188
1238 4 0.37174 0.382819 0.586533
1237 2 0.387446 0.386327 0.60567
1029 4 0.39669 0.374263 0.636424
1239 4 0.403152 0.389836 0.624806
1027 2 0.392338 0.35176 0.646416
1137 4 0.198127 0.440037 0.637278
1135 2 0.184497 0.422875 0.625242
1067 4 0.206831 0.451811 0.650032
1066 2 0.226509 0.458142 0.664099
1000 2 0.406905 0.441751 0.587008
890 4 0.370595 0.447593 0.588709
1002 4 0.387344 0.457022 0.58395
1001 4 0.426466 0.42648 0.590067
944 4 0.0321282 0.0267503 0.671513
851 4 0.0447501 0.0598969 0.714648
850 2 0.0217396 0.050251 0.716276
863 4 0.0607992 0.0573853 0.703706
862 2 0.0836524 0.0609836 0.713191
864 4 0.106505 0.0645819 0.722676
2286 4 0.0996948 0.0726101 0.739397
2399 4 0.309536 0.0289505 0.70968
2398 2 0.286191 0.0333158 0.7175
1049 4 0.32785 0.0320662 0.702818
2400 4 0.262846 0.037681 0.72532
1149 4 0.247939 0.0352695 0.738302
1048 2 0.348151 0.0175156 0.701651
1050 4 0.368451 0.00296502 0.700485
1162 2 0.495793 0.0336106 0.704468
43 3 0.456654 0.0660591 0.681773
2321 4 0.424377 0.0484434 0.715851
1163 4 0.472756 0.0415309 0.698834
42 3 0.459542 0.0294977 0.689993
41 1 0.445407 0.0457644 0.681947
45 3 0.427105 0.0471384 0.69543
2320 2 0.434853 0.0464445 0.738466
1003 2 0.316922 0.114513 0.667102
1005 4 0.331802 0.127832 0.682147
831 4 0.333123 0.127568 0.703023
1257 4 0.312051 0.108391 0.759024
829 2 0.342012 0.149164 0.711953
899 4 0.42046 0.146396 0.679744
898 2 0.398196 0.157349 0.676659
4227 4 0.454003 0.0854681 0.682292
1194 4 0.419176 0.125986 0.684516
1193 4 0.445242 0.115515 0.725888
1192 2 0.432209 0.12075 0.705202
1146 4 0.451784 0.131294 0.736753
1215 4 0.114641 0.245706 0.7425
1213 2 0.131623 0.227516 0.740068
1214 4 0.148604 0.209326 0.737635
1107 4 0.161724 0.202717 0.751938
1225 2 0.227415 0.173431 0.670321
1226 4 0.228207 0.17974 0.694502
917 4 0.280392 0.237966 0.674833
916 2 0.304087 0.233275 0.681291
918 4 0.327782 0.228585 0.687749
1167 4 0.342553 0.233485 0.675573
830 4 0.350901 0.170761 0.720884
978 4 0.346945 0.190856 0.715418
976 2 0.369908 0.196038 0.723844
977 4 0.392872 0.201221 0.732271
1298 4 0.404294 0.21057 0.746447
1278 4 0.158441 0.246117 0.681994
1276 2 0.181795 0.252799 0.676065
947 4 0.170215 0.310056 0.709277
1064 4 0.178294 0.319439 0.725683
806 4 0.36345 0.29204 0.698743
1165 2 0.355171 0.253339 0.684046
1166 4 0.36779 0.273192 0.69252
805 2 0.36966 0.312234 0.685371
1028 4 0.387986 0.329257 0.656408
953 4 0.42492 0.274085 0.688967
952 2 0.431373 0.297105 0.681646
954 4 0.437826 0.320126 0.674325
3122 4 0.457782 0.32455 0.676147
3121 2 0.478909 0.33185 0.687351
993 4 0.0741601 0.39412 0.698071
1209 4 0.0666233 0.391197 0.679226
1207 2 0.0675839 0.36694 0.673238
948 4 0.154311 0.341085 0.67343
946 2 0.162263 0.32557 0.691353
1063 2 0.183593 0.333799 0.745454
807 4 0.37587 0.332429 0.672
1101 4 0.355671 0.419036 0.71284
1206 4 0.467481 0.387006 0.776657
1245 4 0.0217388 0.433519 0.672058
2172 4 0.0431502 0.465168 0.729009
2170 2 0.0359933 0.454882 0.707372
2171 4 0.0288365 0.444596 0.685735
3239 4 0.0410122 0.482671 0.737163
3238 2 0.0315471 0.503486 0.747278
991 2 0.0851052 0.413916 0.708725
992 4 0.0960504 0.433712 0.719378
1068 4 0.246187 0.464473 0.678166
1176 4 0.262608 0.467527 0.691132
1174 2 0.256261 0.477316 0.713248
1175 4 0.249914 0.487104 0.735363
1235 4 0.245351 0.480574 0.7551
1139 4 0.32136 0.493599 0.717296
1229 4 0.321213 0.47317 0.716946
1228 2 0.335414 0.453194 0.721897
1100 4 0.405294 0.421327 0.707091
1230 4 0.349614 0.433219 0.726849
1099 2 0.380482 0.420181 0.709966
1268 4 0.424165 0.42857 0.711749
2986 2 0.478108 0.492526 0.721639
1269 4 0.450972 0.446962 0.67375
1267 2 0.437568 0.437766 0.692749
912 4 0.0703286 0.0346208 0.822604
1295 4 0.0514044 0.0370749 0.817139
1294 2 0.035284 0.0246976 0.802575
1296 4 0.0191636 0.0123203 0.788011
2276 4 0.00738847 0.00169142 0.800348
910 2 0.0908576 0.0241265 0.812929
2284 2 0.105277 0.0707333 0.763697
2285 4 0.110858 0.0688565 0.787998
911 4 0.111387 0.0136322 0.803254
1202 4 0.121021 0.0680761 0.806299
1148 4 0.244867 0.999984 0.773603
1894 2 0.178928 0.00795301 0.829233
876 4 0.223715 0.0519802 0.804016
874 2 0.232684 0.0698913 0.818981
1147 2 0.246403 0.0176267 0.755953
1141 2 0.373731 0.0505283 0.786926
1142 4 0.390234 0.050037 0.805703
1113 4 0.388913 0.0429887 0.823964
1143 4 0.357228 0.0510197 0.768149
2440 2 0.457255 0.00659337 0.772352
2322 4 0.44533 0.0444456 0.761081
2442 4 0.444933 0.0283341 0.77319
3098 4 0.492792 0.0692996 0.802565
834 4 0.0149536 0.119839 0.778733
832 2 0.0147198 0.133509 0.799668
1201 2 0.139224 0.0852164 0.806514
1203 4 0.157427 0.102357 0.80673
33 3 0.151533 0.113762 0.79012
1287 4 0.163256 0.119066 0.818194
34 3 0.163301 0.149107 0.782594
31 1 0.169848 0.128001 0.78967
35 3 0.185792 0.119713 0.775678
32 3 0.17852 0.129637 0.810913
875 4 0.241653 0.0878023 0.833946
1255 2 0.291991 0.119675 0.768795
1256 4 0.271932 0.130959 0.778566
840 4 0.26927 0.15134 0.783361
838 2 0.260846 0.160898 0.804875
839 4 0.252422 0.170456 0.826389
1021 2 0.411201 0.130105 0.81923
1022 4 0.388024 0.131015 0.828566
818 4 0.372968 0.120435 0.823975