ITEM: TIMESTEP
3850000
ITEM: NUMBER OF ATOMS
4590
ITEM: BOX BOUNDS pp pp pp
-9.9985700000000008e+00 9.9985700000000008e+00
-9.9985700000000008e+00 9.9985700000000008e+00
-9.9985700000000008e+00 9.9985700000000008e+00
ITEM: ATOMS id type xs ys zs
702 4 0.0201848 0.0414733 0.0281233
700 2 0.00424521 0.0353769 0.0463975
3753 4 0.0245944 0.0346289 0.0103309
1605 4 0.145707 0.0646484 0.0657306
1635 4 0.1579 0.0478462 0.0646886
422 4 0.185357 0.0312038 0.0170162
1633 2 0.17609 0.0395265 0.0496867
1634 4 0.194281 0.0312068 0.0346849
567 4 0.299627 0.0339707 0.0656564
653 4 0.310266 0.0505852 0.0707826
652 2 0.304194 0.0684194 0.0543432
565 2 0.306565 0.0151446 0.080577
987 4 0.394579 0.0153686 0.0135447
985 2 0.384079 0.00847321 0.0351637
2265 4 0.387079 0.0324569 0.0081171
630 4 0.393989 0.086851 0.0642642
2792 4 0.507144 0.0581646 0.061133
554 4 0.0735124 0.137877 0.00389783
836 4 0.0760858 0.136858 0.0238815
2624 4 0.990876 0.140579 0.0820007
837 4 0.124446 0.145459 0.0332622
1134 4 0.135761 0.130207 0.0403502
835 2 0.100266 0.141159 0.0285718
1132 2 0.155563 0.135424 0.0260036
1133 4 0.175366 0.140641 0.011657
491 4 0.297007 0.105959 0.0316539
654 4 0.298122 0.0862535 0.0379038
359 4 0.326547 0.1654 0.0145045
490 2 0.29486 0.105441 0.00674808
2976 4 0.406614 0.084837 0.0483914
2467 2 0.397118 0.159982 0.077896
2469 4 0.408011 0.163259 0.0556299
2974 2 0.424968 0.098473 0.0382746
2975 4 0.443323 0.112109 0.0281578
769 2 0.430183 0.162751 0.0171323
770 4 0.416742 0.16747 0.0376809
353 4 0.242667 0.227638 0.9936
462 4 0.333281 0.182526 0.0248909
358 2 0.304971 0.174359 0.00559372
354 4 0.286602 0.204 0.997014
352 2 0.264635 0.215819 0.995307
460 2 0.357859 0.180645 0.02908
461 4 0.382437 0.178763 0.0332692
558 4 0.38805 0.223053 0.0578816
556 2 0.404217 0.218274 0.0394163
324 4 0.380437 0.241623 0.058617
557 4 0.420384 0.213496 0.0209511
518 4 0.429836 0.23131 0.0168364
517 2 0.450088 0.245964 0.0162999
1095 4 0.483045 0.244118 0.0127209
294 4 0.0036351 0.331534 0.0316158
475 2 0.0870594 0.303676 0.0679702
476 4 0.0934402 0.289139 0.0486531
1169 4 0.104846 0.292384 0.0340956
1168 2 0.122913 0.303463 0.0208292
483 4 0.162417 0.316529 0.0347033
481 2 0.163477 0.322522 0.058955
287 4 0.175576 0.312332 0.0208937
286 2 0.177316 0.297276 0.00100753
357 4 0.295945 0.308607 0.0789168
355 2 0.304477 0.312448 0.0557301
356 4 0.31301 0.316289 0.0325434
1304 4 0.310203 0.329462 0.0178215
322 2 0.371416 0.255078 0.0776636
1303 2 0.332411 0.321388 0.00964984
672 4 0.346439 0.278607 0.0893975
1071 4 0.395565 0.278161 0.00647814
323 4 0.362395 0.268532 0.0967103
39 3 0.401408 0.298746 0.00877894
519 4 0.47034 0.260619 0.0157634
619 2 0.997351 0.364614 0.0452803
620 4 0.000108882 0.350257 0.0249957
625 2 0.15734 0.349565 0.00607993
482 4 0.164536 0.328514 0.0832067
456 4 0.155671 0.346431 0.082708
626 4 0.137952 0.333782 0.00565031
627 4 0.176728 0.365348 0.00650954
1290 4 0.191237 0.374602 0.0138107
1288 2 0.192274 0.398725 0.020304
903 4 0.291354 0.414851 0.00148853
956 4 0.293063 0.404815 0.0199357
955 2 0.30823 0.393036 0.0359488
957 4 0.323396 0.381257 0.051962
608 4 0.325234 0.378505 0.0716037
38 3 0.39453 0.335508 0.0155382
607 2 0.338896 0.358546 0.0779415
495 4 0.488944 0.364654 0.0706444
597 4 0.472822 0.374061 0.0778561
795 4 0.176543 0.480977 0.0178365
1289 4 0.193311 0.422848 0.0267973
250 2 0.180595 0.450986 0.0386313
252 4 0.194427 0.431261 0.045323
251 4 0.166762 0.47071 0.0319396
1583 4 0.348703 0.466425 0.0796428
1673 4 0.372267 0.453986 0.0158235
1672 2 0.362785 0.45557 0.0389052
1674 4 0.353303 0.457154 0.0619868
524 4 0.36896 0.450947 0.996069
4278 4 0.473452 0.491519 0.0824848
564 4 0.487949 0.494146 0.0695466
17 3 0.0631295 0.0445125 0.13521
16 1 0.0578981 0.05116 0.156601
18 3 0.0752247 0.0642033 0.164851
381 4 0.0463675 0.0337464 0.128928
379 2 0.0314369 0.0154191 0.120781
2481 4 0.0212435 0.0584358 0.145868
578 4 0.0825104 0.0813325 0.160853
2479 2 0.00962162 0.0782183 0.13593
464 4 0.0992821 0.0777104 0.15262
463 2 0.111277 0.0597504 0.140022
465 4 0.123273 0.0417905 0.127423
1603 2 0.135635 0.0588576 0.0878709
1604 4 0.125563 0.0530668 0.110011
1475 4 0.287127 0.0402775 0.162621
628 2 0.379141 0.0830706 0.0840236
486 4 0.367447 0.0627388 0.114775
484 2 0.371257 0.0429069 0.129518
485 4 0.375067 0.0230749 0.144262
1608 4 0.391864 0.0153007 0.152595
629 4 0.364293 0.0792902 0.103783
577 2 0.0861504 0.105273 0.154627
237 4 0.106546 0.137306 0.139037
579 4 0.0897905 0.129214 0.1484
235 2 0.124869 0.143514 0.154877
2468 4 0.386225 0.156705 0.100162
310 2 0.368135 0.0998263 0.139191
311 4 0.356114 0.0997107 0.117267
255 4 0.36942 0.166791 0.0955814
312 4 0.380155 0.0999418 0.161116
277 2 0.103188 0.218528 0.135903
278 4 0.0940485 0.203754 0.11792
279 4 0.112327 0.233302 0.153886
737 4 0.130474 0.227874 0.163995
254 4 0.341281 0.205068 0.111194
253 2 0.355351 0.185929 0.103388
759 4 0.414563 0.194919 0.160569
25 3 0.398856 0.196481 0.171349
526 2 0.495752 0.220708 0.135174
758 4 0.452398 0.208222 0.130698
757 2 0.433481 0.20157 0.145633
528 4 0.472056 0.214274 0.130454
339 4 0.0724087 0.290341 0.148076
337 2 0.0792929 0.29891 0.125618
338 4 0.0861771 0.307479 0.10316
477 4 0.0806786 0.318212 0.0872872
363 4 0.0891915 0.280527 0.152114
754 2 0.228312 0.27747 0.123154
755 4 0.206446 0.26881 0.114665
573 4 0.301072 0.307502 0.0980587
571 2 0.28096 0.304119 0.112523
756 4 0.250178 0.286129 0.131643
572 4 0.260847 0.300737 0.126988
385 2 0.335519 0.293578 0.158084
671 4 0.348642 0.327288 0.100627
670 2 0.34754 0.302948 0.0950122
739 2 0.398405 0.303887 0.159853
387 4 0.358723 0.285009 0.161737
741 4 0.374022 0.299683 0.156249
740 4 0.422788 0.308091 0.163458
623 4 0.43651 0.309747 0.148909
537 4 0.0878626 0.340859 0.156981
454 2 0.148046 0.350745 0.106127
536 4 0.121362 0.354828 0.122581
455 4 0.140422 0.355059 0.129545
535 2 0.104612 0.347843 0.139781
609 4 0.352558 0.338587 0.0842794
622 2 0.442381 0.333378 0.143226
624 4 0.448251 0.357009 0.137542
107 3 0.466491 0.371493 0.138223
596 4 0.466132 0.353407 0.122905
595 2 0.469477 0.363734 0.10038
110 3 0.501 0.385529 0.140464
106 1 0.483968 0.376253 0.152402
108 3 0.476632 0.391148 0.168612
601 2 0.0457996 0.460347 0.15896
264 4 0.0643039 0.490363 0.13741
603 4 0.0269762 0.44569 0.166446
602 4 0.064623 0.475003 0.151474
704 4 0.012301 0.449458 0.136447
1430 4 0.263962 0.475776 0.168312
63 3 0.296608 0.49495 0.097692
1582 2 0.354329 0.473815 0.102857
1573 2 0.381273 0.466438 0.155042
1584 4 0.359955 0.481204 0.126072
1575 4 0.363225 0.464597 0.137837
19 3 0.0382643 0.0635125 0.156027
20 3 0.0551129 0.0327457 0.169708
234 4 0.0591105 0.0167349 0.180443
1538 4 0.0654004 0.0307382 0.195264
1537 2 0.0587651 0.0468249 0.213219
1539 4 0.0521298 0.0629117 0.231173
2757 4 0.0395559 0.0565146 0.246377
1462 2 0.139062 0.997186 0.240933
1463 4 0.144044 0.0198531 0.231629
732 4 0.138651 0.0359302 0.243619
1504 2 0.204594 0.0531585 0.233732
1506 4 0.186506 0.040317 0.222194
689 4 0.183614 0.0211584 0.226857
688 2 0.191032 0.00408258 0.210167
1505 4 0.222681 0.0659999 0.24527
1474 2 0.29305 0.0448074 0.186487
1768 2 0.30646 0.0161118 0.232516
1769 4 0.307391 0.0404439 0.226836
1476 4 0.298973 0.0493374 0.210353
236 4 0.143192 0.149721 0.170717
722 4 0.157909 0.134989 0.169252
721 2 0.17584 0.132266 0.186464
723 4 0.193772 0.129544 0.203675
693 4 0.199464 0.110904 0.2069
691 2 0.217647 0.11413 0.223757
692 4 0.235831 0.117356 0.240613
764 4 0.387597 0.115676 0.170188
763 2 0.399342 0.124166 0.190563
765 4 0.411088 0.132656 0.210938
521 4 0.425837 0.124632 0.220282
520 2 0.444556 0.141171 0.221389
522 4 0.463275 0.157711 0.222495
512 4 0.0967948 0.229175 0.243161
511 2 0.102536 0.243732 0.22366
736 2 0.152157 0.227329 0.176435
513 4 0.108276 0.258289 0.204158
738 4 0.173839 0.226784 0.188875
284 4 0.185019 0.218498 0.203725
283 2 0.208034 0.208967 0.201567
285 4 0.231049 0.199437 0.199409
581 4 0.23791 0.179764 0.200472
582 4 0.264412 0.172715 0.242289
580 2 0.251161 0.17624 0.221381
24 3 0.361434 0.194779 0.175141
21 1 0.381469 0.199956 0.18564
22 3 0.381093 0.222095 0.191875
23 3 0.384081 0.186863 0.204618
309 4 0.377251 0.227433 0.210227
307 2 0.377407 0.241003 0.231227
762 4 0.471186 0.16811 0.206524
760 2 0.495468 0.171973 0.201981
392 4 0.00025057 0.276169 0.20952
648 4 0.0332198 0.318287 0.181328
646 2 0.0194527 0.297949 0.186021
300 4 0.0438004 0.326987 0.197664
647 4 0.00568562 0.277612 0.190714
298 2 0.0654781 0.327728 0.185226
365 4 0.013479 0.328148 0.181016
2717 4 0.00646083 0.337414 0.215148
361 2 0.0913294 0.276085 0.176627
362 4 0.0934672 0.271644 0.20114
389 4 0.100114 0.276787 0.242137
386 4 0.312315 0.302147 0.154432
497 4 0.301074 0.315415 0.163485
496 2 0.285757 0.328098 0.178641
498 4 0.270439 0.340781 0.193796
308 4 0.377563 0.254572 0.252228
366 4 0.0166706 0.376996 0.191235
749 4 0.0214717 0.387038 0.17534
364 2 0.0150748 0.352572 0.186125
748 2 0.0101759 0.408158 0.168163
299 4 0.0871558 0.328469 0.172788
345 4 0.252725 0.375166 0.227828
343 2 0.253935 0.353372 0.215631
344 4 0.255145 0.331579 0.203434
766 2 0.30437 0.380651 0.225812
768 4 0.287857 0.377258 0.207345
767 4 0.320882 0.384044 0.244278
542 4 0.475755 0.40925 0.176691
2537 4 0.435059 0.347726 0.23431
109 3 0.491104 0.356561 0.162387
15 3 0.462589 0.406338 0.220669
12 3 0.446301 0.415376 0.253009
11 1 0.459234 0.423159 0.235651
14 3 0.479589 0.430395 0.24412
750 4 0.99888 0.429279 0.160987
291 4 0.220297 0.426834 0.202718
416 4 0.204696 0.438498 0.21174
415 2 0.187495 0.427998 0.226541
417 4 0.170295 0.417498 0.241342
1431 4 0.230151 0.493752 0.200474
1429 2 0.247056 0.484764 0.184393
289 2 0.244069 0.425454 0.210346
639 4 0.320437 0.475205 0.196172
659 4 0.279531 0.432632 0.231589
290 4 0.26784 0.424074 0.217974
658 2 0.294926 0.446366 0.217463
660 4 0.310321 0.4601 0.203337
637 2 0.339169 0.491665 0.198008
1574 4 0.399322 0.468279 0.172248
644 4 0.405311 0.460296 0.190311
13 3 0.448196 0.440807 0.225399
643 2 0.424046 0.446137 0.198895
543 4 0.489086 0.457344 0.179849
541 2 0.48242 0.433297 0.17827
645 4 0.442781 0.431977 0.207479
2755 2 0.0454205 0.0480377 0.269156
1772 4 0.0471405 0.0198194 0.289094
2756 4 0.0512851 0.0395608 0.291936
730 2 0.131745 0.0577959 0.253588
731 4 0.124838 0.0796616 0.263557
472 2 0.253266 0.077416 0.25301
1830 4 0.245129 0.0381996 0.266933
474 4 0.25518 0.0526894 0.25619
1829 4 0.276231 0.0100583 0.294163
1828 2 0.26068 0.0241289 0.280548
1495 2 0.306242 0.0160525 0.319426
1496 4 0.284459 0.0211619 0.308264
1497 4 0.328024 0.0109432 0.330588
399 4 0.0754439 0.131806 0.308724
397 2 0.0803239 0.150258 0.324875
317 4 0.0791756 0.122614 0.291478
318 4 0.116131 0.09434 0.273158
316 2 0.0976533 0.108477 0.282318
473 4 0.251353 0.102143 0.24983
29 3 0.248298 0.121077 0.258821
600 4 0.16021 0.153528 0.336751
27 3 0.265507 0.153371 0.250241
28 3 0.257479 0.145815 0.286173
30 3 0.284361 0.126588 0.268135
26 1 0.264024 0.136595 0.265911
683 4 0.2893 0.125664 0.28804
682 2 0.30947 0.113847 0.296912
377 4 0.273817 0.135919 0.296443
376 2 0.267643 0.143038 0.319603
684 4 0.329639 0.10203 0.305784
725 4 0.343848 0.110468 0.316286
351 4 0.470065 0.147163 0.270098
349 2 0.484342 0.128983 0.279629
332 4 0.472407 0.162305 0.283213
350 4 0.498618 0.110803 0.289161
611 4 0.314179 0.238142 0.276957
610 2 0.336157 0.244868 0.267112
707 4 0.308328 0.247246 0.293698
612 4 0.358135 0.251594 0.257268
744 4 0.385188 0.206079 0.260379
742 2 0.404212 0.198362 0.274653
743 4 0.423236 0.190645 0.288926
331 2 0.452996 0.173931 0.293853
333 4 0.433584 0.185558 0.304493
269 4 0.448146 0.229731 0.340195
388 2 0.109234 0.298085 0.25154
390 4 0.118355 0.319382 0.260943
372 4 0.127489 0.335578 0.25638
706 2 0.315164 0.256123 0.316051
727 2 0.332518 0.328183 0.320193
728 4 0.32637 0.330509 0.296069
617 4 0.0816317 0.396826 0.297866
678 4 0.0756881 0.380891 0.286179
616 2 0.0751169 0.393273 0.321743
733 2 0.14844 0.400846 0.260135
370 2 0.137547 0.343624 0.277811
735 4 0.133483 0.380848 0.26137
677 4 0.115068 0.378893 0.255423
676 2 0.0953781 0.379892 0.270801
371 4 0.147605 0.351669 0.299242
402 4 0.154687 0.35455 0.318859
734 4 0.163397 0.420845 0.2589
400 2 0.178649 0.361403 0.316849
401 4 0.202611 0.368255 0.314839
510 4 0.202118 0.388151 0.310866
508 2 0.222335 0.396438 0.323022
303 4 0.309314 0.376151 0.258113
301 2 0.318089 0.363115 0.277562
302 4 0.326865 0.35008 0.297011
509 4 0.242553 0.404724 0.335179
2538 4 0.429284 0.375087 0.275768
445 2 0.39996 0.395948 0.301988
446 4 0.385738 0.403352 0.321174
447 4 0.414182 0.388544 0.282803
2536 2 0.432172 0.361407 0.255039
1791 4 0.00154162 0.470156 0.259481
1789 2 0.0202459 0.46242 0.274161
1790 4 0.0389503 0.454685 0.28884
1758 4 0.0504405 0.472383 0.287585
1756 2 0.0710855 0.462448 0.297598
1757 4 0.0917305 0.452514 0.307611
776 4 0.0958723 0.453154 0.327025
775 2 0.112914 0.460379 0.343835
1802 4 0.303024 0.475305 0.285303
1801 2 0.308997 0.45602 0.300054
1803 4 0.31497 0.436735 0.314805
593 4 0.304236 0.422096 0.32185
230 4 0.297361 0.486273 0.270143
713 4 0.444795 0.476143 0.317698
712 2 0.450923 0.492783 0.300071
3990 4 0.455545 0.460294 0.326929
3988 2 0.439691 0.44312 0.335811
3077 4 0.990708 0.0818825 0.3722
3076 2 0.997919 0.0660078 0.390121
3078 4 0.00513046 0.0501332 0.408043
429 4 0.152798 0.00234045 0.410258
719 4 0.139299 0.0147765 0.406479
718 2 0.132953 0.0368742 0.416308
440 4 0.247176 0.029981 0.381928
1818 4 0.241178 0.0487184 0.385574
1816 2 0.252663 0.068906 0.376313
439 2 0.247922 0.0136159 0.363039
1517 4 0.345525 0.00161459 0.328424
697 2 0.348853 0.999032 0.407384
1516 2 0.35431 0.00221528 0.351825
1518 4 0.363096 0.00281597 0.375227
699 4 0.345591 0.00890638 0.384646
256 2 0.4594 0.0557764 0.386199
257 4 0.478543 0.0398203 0.384171
641 4 0.49767 0.0365557 0.387524
258 4 0.440256 0.0717325 0.388228
470 4 0.0583495 0.179507 0.389488
369 4 0.157207 0.13577 0.346785
367 2 0.148618 0.112514 0.350035
368 4 0.140029 0.0892577 0.353284
276 4 0.205469 0.118385 0.405904
1817 4 0.264147 0.0890935 0.367053
378 4 0.261469 0.150157 0.342762
606 4 0.26269 0.100636 0.382841
604 2 0.27766 0.117428 0.393755
605 4 0.29263 0.134219 0.404669
320 4 0.310007 0.124725 0.405921
319 2 0.324376 0.144343 0.411739
724 2 0.358237 0.104997 0.335988
424 2 0.404875 0.0835216 0.372039
726 4 0.372626 0.099525 0.355691
425 4 0.385912 0.0845482 0.355775
426 4 0.423838 0.082495 0.388303
529 2 0.0631496 0.198441 0.35887
2653 2 0.0237068 0.237922 0.381637
530 4 0.0572996 0.221509 0.36654
2655 4 0.0390427 0.219893 0.37358
2654 4 0.00837094 0.255952 0.389694
531 4 0.0689997 0.175373 0.351201
398 4 0.0852039 0.168711 0.341026
598 2 0.175134 0.172621 0.342909
599 4 0.190057 0.191714 0.349067
686 4 0.194174 0.210204 0.355795
685 2 0.201515 0.232101 0.346213
687 4 0.208856 0.253998 0.336631
614 4 0.278561 0.236986 0.340679
613 2 0.279973 0.21223 0.343889
615 4 0.281384 0.187474 0.3471
584 4 0.392706 0.2598 0.424181
418 2 0.412215 0.253788 0.33791
270 4 0.493325 0.249294 0.348962
420 4 0.429942 0.236686 0.333616
268 2 0.470736 0.239513 0.344579
443 4 0.0537922 0.30614 0.359426
1034 4 0.0633813 0.288913 0.364065
1033 2 0.07915 0.273895 0.376353
442 2 0.0421179 0.326411 0.368257
2850 4 0.00984633 0.280903 0.41545
1035 4 0.0949186 0.258877 0.388641
249 4 0.110071 0.272362 0.393433
247 2 0.126422 0.269312 0.412102
404 4 0.224338 0.264347 0.329698
709 2 0.185836 0.305978 0.382504
710 4 0.176487 0.328983 0.379583
711 4 0.195186 0.282973 0.385425
405 4 0.272771 0.257209 0.339896
403 2 0.248554 0.260778 0.334797
708 4 0.321999 0.265 0.338404
559 2 0.307694 0.286734 0.410454
561 4 0.300329 0.306716 0.397351
336 4 0.307815 0.32472 0.399622
632 4 0.341487 0.267677 0.341587
633 4 0.385538 0.290817 0.336612
419 4 0.394488 0.27089 0.342205
583 2 0.407875 0.269289 0.406716
631 2 0.363513 0.279247 0.3391
729 4 0.338667 0.325857 0.344316
585 4 0.423045 0.278779 0.389251
238 2 0.427303 0.31954 0.389716
240 4 0.433368 0.295444 0.392506
444 4 0.0304436 0.346682 0.377087
539 4 0.0260176 0.356164 0.394708
538 2 0.0201278 0.379525 0.388018
540 4 0.014238 0.402885 0.381327
618 4 0.068602 0.38972 0.34562
681 4 0.0786844 0.376252 0.357076
679 2 0.0854534 0.386624 0.378797
680 4 0.0922223 0.396996 0.400517
407 4 0.183636 0.339875 0.364335
503 4 0.229478 0.362084 0.384242
406 2 0.203359 0.355188 0.36564
408 4 0.223082 0.3705 0.366946
502 2 0.249104 0.37718 0.387725
504 4 0.268729 0.392275 0.391208
334 2 0.325609 0.339619 0.408928
120 3 0.381106 0.405567 0.341267
118 3 0.412909 0.399185 0.360386
116 1 0.395904 0.414396 0.356158
239 4 0.421239 0.343636 0.386925
2742 4 0.466563 0.379172 0.371349
2740 2 0.448348 0.394025 0.362819
2741 4 0.430133 0.408879 0.354289
2693 4 0.0013365 0.459528 0.335299
2813 4 0.00461033 0.419198 0.377106
3717 4 0.00920201 0.476357 0.343951
777 4 0.129955 0.467605 0.360644
413 4 0.147849 0.468968 0.371838
412 2 0.149913 0.455723 0.392944
414 4 0.151977 0.442477 0.41405
437 4 0.224937 0.50685 0.391316
635 4 0.263387 0.41089 0.395847
2 3 0.316782 0.483929 0.41616
636 4 0.269421 0.460299 0.40065
5 3 0.31698 0.478706 0.379207
592 2 0.309365 0.424489 0.346205
1 1 0.308993 0.470747 0.398993
4 3 0.285797 0.471366 0.398991
634 2 0.266404 0.435595 0.398249
3 3 0.316336 0.448989 0.402318
594 4 0.314494 0.426881 0.370559
668 4 0.323055 0.434694 0.388157
119 3 0.384995 0.419777 0.375918
753 4 0.370709 0.425666 0.413828
669 4 0.372184 0.426373 0.392377
667 2 0.34762 0.430533 0.390267
117 3 0.40508 0.433531 0.347281
3989 4 0.423837 0.425946 0.344692
1127 4 0.00991114 0.0368918 0.422045
1126 2 0.00643256 0.0521801 0.441522
340 2 0.0973006 0.0554214 0.457799
342 4 0.113258 0.052712 0.438741
720 4 0.126608 0.0589719 0.426137
341 4 0.0813435 0.0581309 0.476857
2430 4 0.085336 0.0435406 0.489755
1151 4 0.229057 0.0652121 0.486049
1150 2 0.218585 0.0450517 0.496493
467 4 0.281503 0.0835248 0.500445
3487 2 0.484018 0.998066 0.490988
3489 4 0.500217 0.00858375 0.475109
274 2 0.214944 0.113547 0.428531
275 4 0.22442 0.108708 0.451158
857 4 0.215418 0.112629 0.469412
856 2 0.213106 0.133664 0.482729
858 4 0.210794 0.154699 0.496047
466 2 0.288912 0.0975511 0.481118
468 4 0.296321 0.111577 0.46179
469 2 0.0539698 0.187487 0.412776
471 4 0.0495902 0.195468 0.436063
261 4 0.0401768 0.206715 0.449059
259 2 0.0480189 0.222802 0.46652
348 4 0.0614142 0.241148 0.504382
260 4 0.0558611 0.238888 0.483982
544 2 0.119841 0.242797 0.459412
546 4 0.102039 0.229443 0.470811
10 3 0.156149 0.257856 0.456202
545 4 0.137644 0.256151 0.448013
1220 4 0.213409 0.174248 0.49307
489 4 0.303102 0.227673 0.458606
410 4 0.301949 0.208854 0.455737
409 2 0.3135 0.192255 0.441031
487 2 0.313663 0.243164 0.47515
717 4 0.381349 0.251597 0.438145
321 4 0.338745 0.163961 0.417556
411 4 0.325052 0.175657 0.426326
2848 2 0.0155166 0.304924 0.419454
2849 4 0.021187 0.328945 0.423457
248 4 0.142773 0.266262 0.430771
326 4 0.160776 0.295839 0.500246
325 2 0.137454 0.28688 0.499269
9 3 0.160446 0.276623 0.423844
8 3 0.167814 0.293646 0.457016
6 1 0.168553 0.273588 0.445373
375 4 0.169283 0.29652 0.479222
7 3 0.190402 0.266494 0.44416
373 2 0.180001 0.317004 0.488748
560 4 0.31506 0.266753 0.423557
716 4 0.334889 0.263072 0.423638
488 4 0.324223 0.258655 0.491693
651 4 0.320373 0.278096 0.488393
715 2 0.358119 0.257334 0.430892
649 2 0.342135 0.28991 0.484925
650 4 0.363897 0.301724 0.481457
812 4 0.383117 0.304675 0.478008
811 2 0.383091 0.327239 0.488779
930 4 0.44356 0.256839 0.457553
928 2 0.466497 0.249563 0.464345
929 4 0.489434 0.242288 0.471138
4434 4 0.0112692 0.335732 0.439197
570 4 0.10601 0.397468 0.415516
568 2 0.124635 0.413309 0.420746
335 4 0.343403 0.354517 0.418233
926 4 0.410173 0.345492 0.404166
925 2 0.411776 0.359582 0.424759
927 4 0.413379 0.373672 0.445353
586 2 0.358683 0.366812 0.455488
588 4 0.361823 0.376596 0.478282
587 4 0.355543 0.357027 0.432693
752 4 0.406276 0.403328 0.440972
813 4 0.383065 0.349804 0.49955
663 4 0.479896 0.416402 0.481299
880 2 0.415498 0.403945 0.479472
882 4 0.411486 0.38855 0.460183
1936 2 0.00191824 0.442022 0.499467
383 4 0.0374747 0.476568 0.439094
1937 4 0.0119916 0.464823 0.501427
384 4 0.0125537 0.4731 0.48231
382 2 0.0250142 0.474834 0.460702
569 4 0.143261 0.429149 0.425976
1436 4 0.129564 0.449428 0.458469
1435 2 0.148396 0.463127 0.467572
1557 4 0.186377 0.476753 0.48753
1437 4 0.167228 0.476825 0.476676
434 4 0.282155 0.488357 0.408638
772 2 0.311831 0.427664 0.436661
773 4 0.289285 0.419439 0.429648
774 4 0.334378 0.435889 0.443674
751 2 0.388492 0.414497 0.4274
661 2 0.485122 0.440382 0.486079
662 4 0.490348 0.464361 0.490858
1075 2 0.0355517 0.0132339 0.54159
1077 4 0.034791 0.0183263 0.566058
1076 4 0.0363124 0.00814149 0.517123
2428 2 0.0877138 0.0244262 0.505697
2429 4 0.0900915 0.00531183 0.52164
1646 4 0.217236 0.0164093 0.522542
1152 4 0.208113 0.0248912 0.506937
1030 2 0.308707 0.083177 0.536838
1031 4 0.291643 0.0851222 0.518665
1182 4 0.342825 0.0704122 0.558699
1180 2 0.340788 0.052217 0.575727
575 4 0.401634 0.0651892 0.526186
574 2 0.378189 0.0688383 0.534071
576 4 0.354743 0.0724875 0.541955
4466 4 0.412876 0.0532358 0.537053
4465 2 0.424384 0.0348088 0.54943
4467 4 0.435892 0.0163819 0.561807
1218 4 0.430372 0.99472 0.561352
909 4 0.255756 0.119021 0.596691
1227 4 0.264433 0.12789 0.580281
1225 2 0.270712 0.138677 0.558616
1226 4 0.27699 0.149464 0.53695
1212 4 0.285556 0.162839 0.523315
1032 4 0.32577 0.0812318 0.55501
306 4 0.498805 0.093095 0.579733
515 4 0.485788 0.134262 0.527222
304 2 0.491137 0.106366 0.559978
514 2 0.482787 0.158036 0.520084
305 4 0.483469 0.119638 0.540223
1270 2 0.0148462 0.225838 0.577736
1219 2 0.20793 0.181003 0.516512
1242 4 0.2053 0.205123 0.551621
1240 2 0.200797 0.225778 0.564972
1221 4 0.20245 0.187758 0.539954
1241 4 0.196293 0.246433 0.578324
1210 2 0.28786 0.187581 0.526095
1211 4 0.290165 0.212322 0.528876
265 2 0.375307 0.211784 0.554124
267 4 0.381285 0.235054 0.5472
872 4 0.396793 0.246632 0.552837
266 4 0.369329 0.188514 0.561048
888 4 0.368863 0.185862 0.581017
516 4 0.479786 0.181811 0.512947
1026 4 0.472686 0.200166 0.512457
1024 2 0.493877 0.212066 0.51833
346 2 0.0826987 0.253809 0.507822
327 4 0.114131 0.27792 0.498292
347 4 0.103983 0.266471 0.511262
790 2 0.225533 0.328788 0.525148
791 4 0.245732 0.323074 0.538732
1166 4 0.219641 0.295846 0.55377
1165 2 0.231739 0.274188 0.556891
792 4 0.205334 0.334502 0.511564
1167 4 0.243837 0.252529 0.560011
374 4 0.190718 0.337487 0.498275
1189 2 0.247083 0.321907 0.583569
1191 4 0.258021 0.310006 0.564492
871 2 0.418374 0.257688 0.558935
873 4 0.439956 0.268743 0.565033
906 4 0.435628 0.286558 0.574307
904 2 0.460248 0.288064 0.5784
1238 4 0.388854 0.366423 0.507068
1237 2 0.385581 0.367456 0.531835
1239 4 0.382308 0.368489 0.556602
1029 4 0.372707 0.352113 0.562492
1027 2 0.378013 0.357836 0.586246
1173 4 0.272819 0.468638 0.544565
1171 2 0.273356 0.45884 0.567563
1909 2 0.434271 0.444004 0.532418
1911 4 0.443401 0.455519 0.552647
1330 2 0.490278 0.43058 0.561413
889 2 0.439913 0.487192 0.574164
891 4 0.452587 0.467126 0.566296
1331 4 0.467125 0.431655 0.570794
1742 4 0.500396 0.500663 0.533062
1910 4 0.42514 0.432488 0.512189
881 4 0.41951 0.419339 0.498762
2318 4 0.0390797 0.0283675 0.583254
2317 2 0.029149 0.0508823 0.587687
4507 2 0.0447756 0.00833199 0.621164
2319 4 0.0192183 0.073397 0.592119
938 4 0.0636195 0.996918 0.660634
4508 4 0.0496521 0.00221894 0.644914
4509 4 0.0398991 0.014445 0.597415
1092 4 0.241315 0.0398197 0.633552
950 4 0.236212 0.996893 0.600116
961 2 0.331724 0.000759802 0.593904
1090 2 0.249847 0.0525848 0.653286
962 4 0.349442 0.0183819 0.594753
1181 4 0.338751 0.0340217 0.592756
90 3 0.470942 0.0259366 0.583536
810 4 0.452499 0.0317347 0.589438
809 4 0.446807 0.0744166 0.614866
808 2 0.449653 0.0530756 0.602152
2281 2 0.440916 0.00545065 0.639861
2282 4 0.449292 0.995768 0.618384
3476 4 0.0201819 0.0930413 0.591248
3475 2 0.0159275 0.116819 0.597704
907 2 0.249714 0.139687 0.609403
908 4 0.243672 0.160353 0.622114
1284 4 0.25717 0.154665 0.635553
1282 2 0.262442 0.156801 0.659901
898 2 0.372123 0.142883 0.654429
899 4 0.371118 0.122889 0.669409
1194 4 0.372145 0.105001 0.661054
900 4 0.373128 0.162877 0.639448
4225 2 0.441966 0.0871043 0.644882
4226 4 0.45815 0.0865036 0.625831
1155 4 0.00159738 0.196355 0.651298
1153 2 0.0167962 0.200278 0.631835
1154 4 0.031995 0.2042 0.612373
1271 4 0.0253868 0.210183 0.594137
798 4 0.145605 0.222974 0.644504
1277 4 0.16065 0.216137 0.630862
1278 4 0.185127 0.236637 0.592374
1276 2 0.172888 0.226387 0.611618
887 4 0.385445 0.1659 0.623764
886 2 0.377154 0.175881 0.60239
803 4 0.200115 0.319405 0.657103
802 2 0.215426 0.320537 0.637368
804 4 0.230738 0.321669 0.617633
1190 4 0.236146 0.333808 0.602645
917 4 0.27158 0.264305 0.623095
918 4 0.25532 0.259706 0.576029
916 2 0.26345 0.262005 0.599562
905 4 0.484868 0.28957 0.582494
954 4 0.490624 0.308809 0.641786
952 2 0.481881 0.28913 0.654492
3122 4 0.489718 0.327734 0.634458
896 4 0.0706099 0.400849 0.634272
806 4 0.371004 0.334663 0.665986
805 2 0.370868 0.34836 0.645068
807 4 0.370733 0.362057 0.62415
1028 4 0.383319 0.36356 0.610001
1245 4 0.00857885 0.46881 0.581335
895 2 0.0774983 0.424614 0.637874
2171 4 0.0116423 0.482741 0.596269
897 4 0.0843867 0.448378 0.641477
2015 4 0.0987583 0.462827 0.637433
2014 2 0.11712 0.478377 0.630636
2016 4 0.135483 0.493928 0.62384
2152 2 0.211002 0.495631 0.62638
2154 4 0.22572 0.47591 0.621953
1160 4 0.225219 0.456505 0.622776
1159 2 0.249295 0.453698 0.61664
1172 4 0.273893 0.449043 0.59056
1161 4 0.27337 0.450892 0.610503
1001 4 0.325156 0.501122 0.648889
1000 2 0.308722 0.496668 0.630578
1002 4 0.292288 0.492215 0.612268
3023 4 0.495282 0.422526 0.623892
1268 4 0.479499 0.427507 0.612697
1267 2 0.458016 0.43918 0.607461
1269 4 0.436534 0.450853 0.602224
944 4 0.00681385 0.0596091 0.68461
943 2 0.0288565 0.0649256 0.695148
945 4 0.0508992 0.0702421 0.705685
863 4 0.0441434 0.0738974 0.723122
862 2 0.0672843 0.078767 0.731244
1083 4 0.00475171 0.0250214 0.669487
1081 2 0.00651327 0.00217242 0.679487
937 2 0.0779873 0.00983618 0.676504
1893 4 0.155683 0.00586871 0.684096
939 4 0.0923552 0.0227543 0.692375
1892 4 0.110513 0.0190002 0.701065
1891 2 0.133098 0.0124345 0.692581
864 4 0.0904253 0.0836365 0.739366
1148 4 0.209227 0.0162159 0.722022
1147 2 0.229419 0.0247082 0.734079
1091 4 0.258379 0.0653499 0.67302
1050 4 0.26073 0.0852379 0.668382
2321 4 0.408343 0.00609097 0.709801
1193 4 0.411673 0.0781748 0.675837
44 3 0.42053 0.0322661 0.66186
2283 4 0.432539 0.0151333 0.661339
45 3 0.412642 0.0241894 0.697779
980 4 0.428608 0.0153366 0.712536
43 3 0.41056 0.0598864 0.685987
41 1 0.42177 0.0396872 0.683809
979 2 0.431869 0.0221449 0.736373
1163 4 0.438365 0.999615 0.675439
42 3 0.443872 0.0428115 0.689366
2286 4 0.092672 0.0961154 0.723871
2284 2 0.105864 0.115075 0.714297
2285 4 0.119056 0.134035 0.704722
34 3 0.107305 0.140875 0.690575
31 1 0.118583 0.160279 0.684682
35 3 0.132586 0.156125 0.667209
33 3 0.130688 0.168222 0.702814
1004 4 0.286552 0.160299 0.67932
1048 2 0.262327 0.0951017 0.691303
1283 4 0.267714 0.158936 0.684249
1022 4 0.273993 0.118585 0.724838
1049 4 0.263923 0.104965 0.714223
1003 2 0.308857 0.160986 0.690597
1021 2 0.291445 0.117749 0.742724
1005 4 0.331163 0.161673 0.701874
831 4 0.325998 0.154544 0.720353
1192 2 0.391909 0.091588 0.668446
829 2 0.348347 0.156571 0.731381
830 4 0.370695 0.158598 0.742408
4227 4 0.425783 0.0877051 0.663932
3387 4 0.00906665 0.210782 0.66464
32 3 0.103209 0.176214 0.678448
796 2 0.144417 0.233537 0.667135
797 4 0.14323 0.244101 0.689767
47 3 0.472545 0.24317 0.741759
1299 4 0.479415 0.252801 0.725458
695 4 0.144499 0.261472 0.697835
694 2 0.123325 0.274767 0.697568
696 4 0.102151 0.288062 0.6973
1259 4 0.129324 0.314103 0.710726
1213 2 0.110949 0.300284 0.745481
1215 4 0.104754 0.288924 0.724086
1258 2 0.139746 0.335173 0.702204
1135 2 0.192998 0.321237 0.68933
1136 4 0.187279 0.308621 0.668515
1008 4 0.352998 0.328139 0.667377
1006 2 0.333782 0.332884 0.682655
1297 2 0.470407 0.255002 0.702238
953 4 0.473138 0.26945 0.667198
1298 4 0.461398 0.257203 0.679018
1260 4 0.150168 0.356243 0.693683
821 4 0.080656 0.414668 0.743531
1209 4 0.147813 0.412444 0.703328
1207 2 0.156367 0.388981 0.70456
1208 4 0.164921 0.365519 0.705792
993 4 0.140636 0.429648 0.712825
1137 4 0.198717 0.333853 0.710146
948 4 0.211385 0.338017 0.724046
946 2 0.193987 0.34412 0.740936
1007 4 0.314566 0.33763 0.697933
1067 4 0.297784 0.346641 0.692787
1066 2 0.296683 0.370703 0.699494
1068 4 0.295582 0.394765 0.706201
1176 4 0.298093 0.408043 0.690055
1206 4 0.359507 0.389488 0.720439
1140 4 0.355389 0.408743 0.715847
1204 2 0.376015 0.384828 0.738632
992 4 0.0992814 0.423196 0.740191
991 2 0.119959 0.426422 0.726508
1236 4 0.235296 0.499909 0.724148
1120 2 0.198884 0.492552 0.749059
1230 4 0.324559 0.491218 0.666294
1174 2 0.286476 0.427682 0.70028
1235 4 0.269924 0.464075 0.71995
1175 4 0.274859 0.44732 0.710505
1234 2 0.25261 0.481992 0.722049
1228 2 0.342586 0.479638 0.679183
1229 4 0.360613 0.468058 0.692071
1139 4 0.368056 0.456247 0.706702
1138 2 0.361723 0.432495 0.711274
1100 4 0.397755 0.472117 0.735025
1099 2 0.415279 0.456051 0.727282
1101 4 0.432803 0.439984 0.719539
3183 4 0.452699 0.444227 0.719595
3181 2 0.467171 0.427532 0.731301
3182 4 0.481642 0.410836 0.743006
2047 2 0.233498 0.069249 0.822968
1896 4 0.226845 0.0308278 0.819386
1894 2 0.203386 0.0226152 0.822112
1149 4 0.24961 0.0332006 0.746137
2398 2 0.278659 0.0500289 0.755343
2400 4 0.253699 0.0513536 0.754684
2399 4 0.303619 0.0487042 0.756002
1111 2 0.406543 0.0200361 0.794813
1113 4 0.391252 0.0196714 0.814592
974 4 0.38487 0.0189657 0.832517
3253 2 0.474595 0.993757 0.803946
1112 4 0.421834 0.0204009 0.775033
981 4 0.435131 0.0289532 0.760209
3098 4 0.461777 0.0323726 0.811454
3255 4 0.465638 0.013695 0.816088
3097 2 0.456176 0.0559837 0.817481
3099 4 0.450575 0.0795947 0.823508
3246 4 0.0104594 0.146303 0.812147
3245 4 0.0529123 0.121589 0.821512
3244 2 0.0316858 0.133946 0.81683
833 4 0.0700587 0.122412 0.832804
832 2 0.0832299 0.143468 0.829911
840 4 0.231269 0.111549 0.814824
838 2 0.247829 0.126229 0.826462