ITEM: TIMESTEP
1160000
ITEM: NUMBER OF ATOMS
4590
ITEM: BOX BOUNDS pp pp pp
-9.9985700000000008e+00 9.9985700000000008e+00
-9.9985700000000008e+00 9.9985700000000008e+00
-9.9985700000000008e+00 9.9985700000000008e+00
ITEM: ATOMS id type xs ys zs
465 4 0.0360055 0.0844231 0.99299
490 2 0.234596 0.0849763 0.0802295
492 4 0.213063 0.0890005 0.0922845
491 4 0.256129 0.0809521 0.0681744
486 4 0.305003 0.0103534 0.0682271
653 4 0.299141 0.0289616 0.0718042
484 2 0.324021 0.0135669 0.0523159
533 4 0.279325 0.991042 0.0182833
1607 4 0.408329 0.0190431 0.0481143
1608 4 0.358367 0.0211721 0.0480887
1606 2 0.383348 0.0201076 0.0481015
485 4 0.343039 0.0167805 0.0364047
745 2 0.428684 0.0340176 0.0187661
297 4 0.451346 0.0333545 0.0557777
295 2 0.465366 0.0462547 0.0719701
746 4 0.435036 0.0347935 0.042937
2976 4 0.482481 0.0775046 0.0223555
296 4 0.479386 0.0591549 0.0881625
702 4 0.0662776 0.0852347 0.0750316
700 2 0.0816871 0.0945928 0.0577067
701 4 0.0970965 0.103951 0.0403818
421 2 0.142925 0.108237 0.0224984
422 4 0.145677 0.0994378 0.0457404
567 4 0.158206 0.100409 0.0606411
565 2 0.17601 0.0936187 0.0768301
359 4 0.202987 0.111278 0.0298613
358 2 0.217915 0.128669 0.0398557
360 4 0.232843 0.14606 0.04985
354 4 0.242394 0.164011 0.0506288
462 4 0.282505 0.129492 0.0591134
460 2 0.290968 0.152731 0.0554393
770 4 0.491852 0.163128 0.0621026
2469 4 0.493218 0.145551 0.0717586
2974 2 0.505922 0.0859904 0.0204357
476 4 0.130091 0.248205 0.0665646
352 2 0.230395 0.185921 0.0495575
353 4 0.218396 0.207832 0.0484861
461 4 0.299431 0.17597 0.0517653
571 2 0.303457 0.236792 0.0477617
572 4 0.287705 0.231612 0.0664764
558 4 0.319089 0.176453 0.0481225
573 4 0.319208 0.241971 0.029047
756 4 0.272655 0.218511 0.0669606
556 2 0.338307 0.191567 0.0428865
557 4 0.357525 0.206681 0.0376505
664 2 0.379445 0.218648 0.0172634
665 4 0.374014 0.197803 0.0299582
666 4 0.384876 0.239493 0.00456865
769 2 0.475729 0.167681 0.0435416
771 4 0.459607 0.172234 0.0249805
1013 4 0.447282 0.190124 0.0242958
620 4 0.0274856 0.327816 0.029105
292 2 0.0533575 0.313487 0.0219894
294 4 0.0371645 0.314797 0.0409959
293 4 0.0695506 0.312178 0.00298284
1169 4 0.081788 0.328671 0.00124965
475 2 0.119472 0.268191 0.0771929
477 4 0.108852 0.288177 0.0878213
483 4 0.214686 0.316542 0.991123
287 4 0.199022 0.303322 0.992875
357 4 0.319377 0.241504 0.00845777
957 4 0.328254 0.335548 0.0467059
671 4 0.39812 0.311787 0.0784249
609 4 0.392519 0.328297 0.0680996
607 2 0.368152 0.328512 0.0624995
608 4 0.343784 0.328727 0.0568994
670 2 0.416921 0.298299 0.0689483
672 4 0.435722 0.284812 0.0594716
323 4 0.444293 0.270754 0.0728443
1168 2 0.102496 0.336638 0.0127777
1170 4 0.123204 0.344604 0.0243057
454 2 0.15557 0.362153 0.0332077
456 4 0.142629 0.347106 0.0179989
455 4 0.16851 0.377201 0.0484166
507 4 0.171254 0.392148 0.0342155
251 4 0.244465 0.397241 0.0566876
250 2 0.240081 0.408483 0.0347885
956 4 0.328432 0.353362 0.99998
955 2 0.328343 0.344455 0.0233429
626 4 0.143467 0.442742 0.0709793
625 2 0.148044 0.462408 0.0562311
627 4 0.15262 0.482073 0.0414828
795 4 0.154391 0.490821 0.0231157
793 2 0.132297 0.493186 0.0116499
2358 4 0.0915223 0.503508 0.00623516
505 2 0.18168 0.412852 0.0248441
506 4 0.192105 0.433556 0.0154727
252 4 0.235696 0.419725 0.0128894
244 2 0.224502 0.492537 0.00711597
246 4 0.241504 0.474526 0.00369771
1289 4 0.244368 0.412045 0.995813
65 3 0.34244 0.486674 0.0783939
494 4 0.455452 0.454269 0.0593959
563 4 0.456736 0.471535 0.0692052
493 2 0.468808 0.443724 0.0777156
562 2 0.451912 0.494853 0.0615754
1568 4 0.475362 0.49873 0.0833101
380 4 0.0506529 0.0737958 0.0803131
1666 2 0.0676807 0.0157868 0.143384
1667 4 0.0775388 0.0368596 0.134222
20 3 0.0819835 0.064678 0.152065
1806 4 0.0920211 0.0468755 0.145813
449 4 0.142706 0.0206293 0.138074
1805 4 0.138539 0.0402623 0.128694
1804 2 0.11528 0.0435689 0.137254
448 2 0.16734 0.0238576 0.135256
1475 4 0.233985 0.0444161 0.141543
1505 4 0.216653 0.0626779 0.170615
450 4 0.191973 0.027086 0.132437
675 4 0.211337 0.0791258 0.15991
1604 4 0.206386 0.0136815 0.136933
1474 2 0.255172 0.0519683 0.130622
654 4 0.287069 0.0652355 0.10404
1476 4 0.276359 0.0595205 0.119701
652 2 0.293105 0.0470986 0.0879222
312 4 0.449495 0.0886817 0.146318
381 4 0.0534562 0.0984859 0.12371
379 2 0.0520546 0.0861409 0.102011
17 3 0.0628224 0.094561 0.140543
16 1 0.0772294 0.0864922 0.156558
18 3 0.0967127 0.0990874 0.156151
578 4 0.101286 0.118094 0.150785
577 2 0.123446 0.123422 0.161066
566 4 0.193814 0.0868279 0.0930192
673 2 0.201526 0.102124 0.159759
674 4 0.191715 0.125121 0.159609
736 2 0.24108 0.14156 0.0996737
738 4 0.230459 0.11979 0.105876
737 4 0.251701 0.163329 0.0934709
285 4 0.189576 0.160415 0.158176
253 2 0.369817 0.134627 0.141107
255 4 0.360559 0.147779 0.160251
254 4 0.379075 0.121474 0.121964
629 4 0.49093 0.0675179 0.102579
628 2 0.480213 0.077123 0.123026
630 4 0.469496 0.0867281 0.143473
2467 2 0.48665 0.133537 0.0926797
2468 4 0.480082 0.121522 0.113601
764 4 0.492086 0.135228 0.147325
763 2 0.474872 0.148813 0.159339
310 2 0.443338 0.0871977 0.170506
284 4 0.167883 0.202568 0.142263
279 4 0.185505 0.206204 0.133544
277 2 0.192011 0.227415 0.122013
283 2 0.178729 0.181491 0.15022
755 4 0.25398 0.213676 0.113097
754 2 0.263317 0.216093 0.0900288
519 4 0.3914 0.219653 0.133474
517 2 0.406644 0.21814 0.113712
518 4 0.421887 0.216628 0.0939496
324 4 0.434263 0.222126 0.0788023
765 4 0.457659 0.162397 0.171353
363 4 0.0732931 0.271253 0.150682
339 4 0.0715162 0.290252 0.14593
361 2 0.0775603 0.262019 0.173523
338 4 0.0946216 0.28805 0.101636
337 2 0.0830689 0.289151 0.123783
298 2 0.166108 0.337793 0.154893
299 4 0.182249 0.322031 0.144114
278 4 0.198517 0.248626 0.110483
537 4 0.184696 0.301896 0.146772
535 2 0.18762 0.283833 0.129732
536 4 0.190544 0.265771 0.112692
623 4 0.36747 0.269134 0.15947
740 4 0.375123 0.287561 0.153455
739 2 0.391216 0.302387 0.141356
741 4 0.407308 0.317214 0.129257
322 2 0.439278 0.24644 0.0758233
300 4 0.149967 0.353556 0.165672
387 4 0.420437 0.331641 0.126149
385 2 0.434777 0.351951 0.123498
386 4 0.449118 0.372261 0.120846
107 3 0.478454 0.410149 0.171202
550 2 0.0610781 0.442332 0.102349
552 4 0.0489095 0.42958 0.120083
551 4 0.0732467 0.455083 0.0846149
314 4 0.00428673 0.497715 0.093718
1439 4 0.248109 0.472253 0.144746
1560 4 0.259099 0.498269 0.0939992
1438 2 0.257082 0.488472 0.127965
1440 4 0.266055 0.504691 0.111184
64 3 0.342031 0.517382 0.100177
596 4 0.477776 0.399278 0.154365
595 2 0.48306 0.41243 0.133767
597 4 0.488343 0.425583 0.113169
495 4 0.482163 0.433178 0.0960353
1404 4 0.0566502 0.0282431 0.258392
1402 2 0.0551364 0.004953 0.249422
1539 4 0.118464 0.0233816 0.202099
688 2 0.158809 0.0251241 0.205582
690 4 0.135928 0.0313227 0.197631
1537 2 0.0993456 0.00871897 0.195415
1504 2 0.205165 0.0467431 0.186084
689 4 0.18169 0.0189255 0.213532
1506 4 0.193677 0.0308083 0.201553
743 4 0.40225 0.0805108 0.252991
19 3 0.0670845 0.0882637 0.177351
2481 4 0.0610785 0.103383 0.190998
2479 2 0.0560526 0.127678 0.187881
2480 4 0.0510266 0.151972 0.184765
236 4 0.146948 0.0907795 0.227449
579 4 0.145607 0.12875 0.171346
237 4 0.146463 0.124286 0.190331
235 2 0.146705 0.107533 0.20889
582 4 0.218192 0.161774 0.216763
580 2 0.212582 0.159362 0.192517
581 4 0.206971 0.156951 0.16827
27 3 0.236931 0.155438 0.218842
29 3 0.246165 0.137085 0.250315
26 1 0.254304 0.145731 0.23038
30 3 0.263287 0.129035 0.217762
24 3 0.332359 0.119985 0.244116
28 3 0.270377 0.16189 0.23473
758 4 0.347453 0.160966 0.164246
757 2 0.347597 0.160452 0.189244
759 4 0.347742 0.159938 0.214242
25 3 0.341619 0.154513 0.232294
23 3 0.368728 0.128944 0.237678
21 1 0.348229 0.136883 0.245107
311 4 0.437181 0.0857136 0.194694
393 4 0.107173 0.217757 0.23282
391 2 0.0973311 0.226011 0.211368
392 4 0.0874895 0.234266 0.189916
513 4 0.0949694 0.223036 0.248576
611 4 0.272233 0.244274 0.227266
707 4 0.278233 0.239884 0.248161
528 4 0.403334 0.225546 0.192783
624 4 0.388456 0.22887 0.180425
521 4 0.444969 0.170731 0.184601
520 2 0.457076 0.183531 0.202342
526 2 0.426508 0.234002 0.196861
522 4 0.469183 0.196331 0.220084
527 4 0.449682 0.242458 0.200938
2651 4 0.469655 0.241375 0.205112
762 4 0.472411 0.204928 0.238087
389 4 0.0821989 0.302039 0.246366
362 4 0.0818276 0.252785 0.196364
390 4 0.115632 0.265803 0.238002
388 2 0.0989154 0.283921 0.242184
404 4 0.176892 0.252388 0.250249
610 2 0.292223 0.259291 0.227044
612 4 0.312214 0.274308 0.226821
308 4 0.329425 0.284318 0.224035
307 2 0.322166 0.307115 0.231299
622 2 0.377963 0.249002 0.169947
2536 2 0.386446 0.306713 0.229748
2537 4 0.39247 0.330069 0.223159
2538 4 0.380422 0.283358 0.236338
2652 4 0.491649 0.274299 0.174567
2650 2 0.480652 0.257837 0.189839
750 4 0.0844967 0.347831 0.239214
748 2 0.0599651 0.35112 0.242758
366 4 0.0300847 0.353027 0.227541
603 4 0.0720977 0.38598 0.205614
749 4 0.0354335 0.354409 0.246302
601 2 0.0949573 0.393371 0.212542
602 4 0.117817 0.400761 0.21947
309 4 0.314906 0.329912 0.238563
497 4 0.301001 0.344308 0.239513
301 2 0.329394 0.409022 0.252042
12 3 0.393484 0.35942 0.176746
645 4 0.383161 0.392401 0.197528
13 3 0.378769 0.375848 0.20718
11 1 0.392691 0.358847 0.199729
14 3 0.384345 0.338262 0.206436
729 4 0.376548 0.347034 0.241387
542 4 0.409718 0.333892 0.234629
15 3 0.41369 0.361798 0.208034
109 3 0.48896 0.396393 0.204564
2794 2 0.0019096 0.47382 0.170796
2796 4 0.0197915 0.488722 0.179927
1791 4 0.0361605 0.496819 0.190101
1789 2 0.0482741 0.496138 0.211963
1790 4 0.0603876 0.495457 0.233826
1758 4 0.0741234 0.497033 0.248834
264 4 0.11868 0.419875 0.228203
416 4 0.157093 0.469165 0.210471
263 4 0.143642 0.463109 0.225314
262 2 0.131161 0.441492 0.226759
417 4 0.202843 0.479796 0.193307
415 2 0.179968 0.47448 0.201889
291 4 0.209275 0.462848 0.203065
289 2 0.232288 0.453412 0.200507
303 4 0.315478 0.428316 0.244344
767 4 0.299517 0.418166 0.237538
290 4 0.255301 0.443975 0.197948
768 4 0.274692 0.440116 0.200086
766 2 0.287104 0.429141 0.218812
643 2 0.387849 0.416924 0.196193
659 4 0.376127 0.447788 0.204221
644 4 0.392538 0.441448 0.194858
658 2 0.376746 0.471963 0.19787
108 3 0.476365 0.432129 0.201618
106 1 0.488556 0.415358 0.191201
110 3 0.509806 0.42252 0.18723
234 4 0.0601471 0.0480534 0.25825
232 2 0.0631781 0.0724528 0.253705
2757 4 0.999203 0.0515457 0.300886
2755 2 0.0208006 0.0476351 0.312861
2756 4 0.0423986 0.0437245 0.324837
722 4 0.1501 0.0776621 0.241896
318 4 0.11842 0.0563897 0.361203
731 4 0.162337 0.999812 0.315141
1701 4 0.18032 0.00511462 0.32264
1830 4 0.235511 0.0166885 0.296547
1700 4 0.216022 0.0194176 0.290678
1699 2 0.198171 0.0122661 0.306659
1829 4 0.281321 0.0212265 0.277015
1828 2 0.258416 0.0189575 0.286781
1496 4 0.301524 0.022745 0.27672
1495 2 0.326054 0.0189259 0.279697
1497 4 0.350585 0.0151068 0.282674
1517 4 0.352184 0.021828 0.301961
1516 2 0.356463 0.0292223 0.32546
333 4 0.413976 0.0658323 0.258055
331 2 0.428476 0.057794 0.276772
332 4 0.442977 0.0497556 0.295489
351 4 0.444865 0.0669897 0.305181
349 2 0.449858 0.0716566 0.329233
233 4 0.0662091 0.0968521 0.249159
398 4 0.058531 0.151857 0.330262
530 4 0.0418424 0.163923 0.332324
721 2 0.166268 0.0889064 0.257302
723 4 0.182435 0.100151 0.272709
693 4 0.183785 0.119926 0.273572
691 2 0.208238 0.121901 0.268738
692 4 0.23269 0.123877 0.263905
473 4 0.248871 0.133508 0.273983
472 2 0.270751 0.125871 0.28337
474 4 0.29263 0.118234 0.292758
683 4 0.310369 0.112628 0.286908
682 2 0.318721 0.121223 0.308852
744 4 0.381967 0.126219 0.253099
742 2 0.392108 0.103365 0.253045
22 3 0.350396 0.143779 0.266945
632 4 0.370625 0.138232 0.265244
631 2 0.382598 0.144221 0.286362
633 4 0.394571 0.15021 0.30748
726 4 0.390166 0.102456 0.338021
724 2 0.367713 0.113269 0.335982
529 2 0.0464223 0.179269 0.313122
531 4 0.0510021 0.194614 0.29392
512 4 0.0594153 0.203228 0.277632
511 2 0.0771923 0.213132 0.263104
443 4 0.0439722 0.223557 0.320902
545 4 0.123052 0.157603 0.302782
544 2 0.14137 0.173326 0.309295
546 4 0.159688 0.189049 0.315808
600 4 0.174753 0.195346 0.327563
248 4 0.229959 0.169632 0.292663
247 2 0.221793 0.193052 0.289505
403 2 0.187219 0.23967 0.269138
405 4 0.197546 0.226952 0.288027
249 4 0.213628 0.216473 0.286346
708 4 0.251785 0.228293 0.288989
706 2 0.265009 0.234088 0.268575
377 4 0.248087 0.217629 0.305986
376 2 0.256489 0.229118 0.326543
760 2 0.495424 0.205174 0.247861
617 4 0.0647855 0.305534 0.256706
2493 4 0.00379162 0.264174 0.314308
618 4 0.0382766 0.285284 0.293961
444 4 0.0439519 0.272259 0.309551
616 2 0.0515311 0.295409 0.275334
442 2 0.0439621 0.247908 0.315226
372 4 0.129237 0.271484 0.252837
370 2 0.149458 0.282787 0.262245
371 4 0.16968 0.294091 0.271652
402 4 0.178523 0.305384 0.28553
400 2 0.190139 0.313252 0.306226
401 4 0.201754 0.321119 0.326923
560 4 0.402748 0.33439 0.320686
543 4 0.433728 0.354043 0.273593
735 4 0.15545 0.36855 0.320936
677 4 0.142108 0.381356 0.329952
733 2 0.1776 0.366877 0.309457
345 4 0.199287 0.350764 0.283571
343 2 0.224284 0.350379 0.283134
734 4 0.199749 0.365205 0.297977
344 4 0.24928 0.349994 0.282696
496 2 0.28044 0.350167 0.252478
498 4 0.259879 0.356027 0.265443
727 2 0.369842 0.368051 0.253155
728 4 0.363136 0.389068 0.264922
302 4 0.343311 0.389728 0.259739
541 2 0.421723 0.343968 0.254111
447 4 0.436282 0.35572 0.292141
446 4 0.460406 0.398878 0.299633
445 2 0.448344 0.377299 0.295887
120 3 0.474643 0.405857 0.312824
1756 2 0.0856705 0.486783 0.268501
1757 4 0.0972175 0.476533 0.288168
776 4 0.0919197 0.477951 0.306664
775 2 0.109022 0.472939 0.324201
413 4 0.140193 0.462432 0.32898
116 1 0.467612 0.42146 0.32785
117 3 0.451653 0.434795 0.31802
3989 4 0.495374 0.44847 0.318618
118 3 0.485471 0.434736 0.33442
1772 4 0.0582454 0.0347373 0.330709
1771 2 0.0515566 0.0178568 0.347899
316 2 0.102757 0.0727919 0.350676
429 4 0.114522 0.0391624 0.350792
428 4 0.128465 0.00591589 0.385447
427 2 0.121493 0.0225391 0.368119
697 2 0.352784 0.00646879 0.381254
699 4 0.360236 0.0206529 0.362059
1518 4 0.360743 0.0366166 0.348959
426 4 0.411994 0.0549619 0.365016
424 2 0.398488 0.0756072 0.360951
258 4 0.427822 0.0532586 0.377623
256 2 0.445965 0.0406291 0.389307
257 4 0.464107 0.0279997 0.400992
350 4 0.45485 0.0763234 0.353284
453 4 0.472429 0.0851506 0.3533
397 2 0.0703596 0.129973 0.332783
399 4 0.0821883 0.108089 0.335304
317 4 0.0870944 0.0891942 0.340149
368 4 0.113798 0.0894933 0.410835
684 4 0.327073 0.129818 0.330796
320 4 0.246543 0.108863 0.41728
319 2 0.247793 0.133823 0.416477
321 4 0.249042 0.158782 0.415675
725 4 0.345261 0.124081 0.333943
425 4 0.384981 0.0962525 0.356885
451 2 0.483114 0.0984993 0.371543
452 4 0.493799 0.111848 0.389786
2655 4 0.00598537 0.218376 0.354315
2654 4 0.0544014 0.220374 0.366669
2653 2 0.0301934 0.219375 0.360492
2846 4 0.050051 0.222367 0.386378
2845 2 0.0552932 0.221648 0.410815
1035 4 0.0982254 0.182896 0.383311
1033 2 0.108975 0.189134 0.405007
598 2 0.183636 0.19813 0.350769
599 4 0.192519 0.200914 0.373975
686 4 0.209181 0.191779 0.381901
685 2 0.215678 0.203217 0.403165
378 4 0.26489 0.240607 0.3471
614 4 0.282743 0.244705 0.356442
613 2 0.302953 0.253197 0.368469
268 2 0.48807 0.190976 0.360761
269 4 0.465999 0.187345 0.371936
420 4 0.459815 0.207677 0.376837
418 2 0.445611 0.209133 0.397363
270 4 0.510141 0.194607 0.349587
2849 4 0.0172555 0.320899 0.389471
2850 4 0.0311653 0.275036 0.375195
2848 2 0.0242104 0.297967 0.382333
510 4 0.213019 0.322239 0.343585
615 4 0.323162 0.261689 0.380496
716 4 0.342621 0.261347 0.375482
715 2 0.355618 0.25509 0.395905
559 2 0.386712 0.346173 0.335825
2927 4 0.00096604 0.381055 0.362908
676 2 0.143317 0.387562 0.354143
678 4 0.144527 0.393767 0.378334
508 2 0.217428 0.338715 0.361868
509 4 0.221837 0.355191 0.380152
502 2 0.224766 0.373598 0.406949
503 4 0.208958 0.358975 0.394243
504 4 0.240575 0.38822 0.419655
561 4 0.370676 0.357955 0.350964
336 4 0.351379 0.355926 0.356688
334 2 0.345578 0.370184 0.376392
335 4 0.339777 0.384441 0.396096
587 4 0.355948 0.392268 0.406584
119 3 0.45829 0.411001 0.346347
752 4 0.425531 0.398525 0.392343
751 2 0.434731 0.410528 0.372431
753 4 0.443932 0.42253 0.35252
927 4 0.413022 0.400133 0.408332
925 2 0.410186 0.376814 0.416899
926 4 0.407351 0.353496 0.425466
2692 2 0.0109869 0.418775 0.354964
2693 4 0.00700696 0.441389 0.345066
501 4 0.0408381 0.471596 0.401181
499 2 0.0599129 0.48492 0.392026
548 4 0.0210928 0.47267 0.397686
777 4 0.126125 0.467926 0.341739
412 2 0.153069 0.444735 0.341071
414 4 0.165945 0.427038 0.353163
1395 4 0.0803104 0.505581 0.401468
569 4 0.168994 0.425637 0.373957
1436 4 0.237674 0.468994 0.398162
568 2 0.185006 0.431409 0.392273
1435 2 0.219605 0.48281 0.408544
438 4 0.24553 0.473158 0.380318
435 4 0.306568 0.496859 0.371714
437 4 0.294217 0.484326 0.382666
436 2 0.269873 0.478742 0.381492
433 2 0.320386 0.496471 0.392549
230 4 0.36225 0.513503 0.351709
1802 4 0.36733 0.501641 0.365618
1742 4 0.474896 0.490439 0.357126
720 4 0.123352 0.0346777 0.449369
718 2 0.122659 0.0531172 0.432496
342 4 0.136125 0.0406847 0.463474
340 2 0.156969 0.0285125 0.469998
719 4 0.121966 0.0715567 0.415624
341 4 0.177812 0.0163403 0.476522
1817 4 0.258241 0.0320757 0.422454
2430 4 0.191509 0.00147792 0.478678
1150 2 0.229182 0.0554576 0.479308
1152 4 0.219806 0.0498182 0.456825
606 4 0.228758 0.0635468 0.443443
604 2 0.239152 0.0771699 0.425234
1816 2 0.262908 0.00751276 0.422681
843 4 0.355119 0.0129929 0.469586
841 2 0.363145 0.998566 0.488365
641 4 0.470594 0.0297684 0.420784
642 4 0.479911 0.0495149 0.465773
640 2 0.475252 0.0396416 0.443278
457 2 0.0231195 0.143244 0.44901
459 4 0.0478515 0.1412 0.452065
470 4 0.0606395 0.153535 0.464952
469 2 0.0814039 0.165392 0.472262
369 4 0.108499 0.126102 0.444486
367 2 0.111148 0.107798 0.427661
276 4 0.123903 0.137202 0.450437
274 2 0.140252 0.154467 0.45817
605 4 0.249545 0.0907929 0.407025
411 4 0.265525 0.16851 0.425566
468 4 0.366779 0.11016 0.51216
982 2 0.0488441 0.210952 0.471243
2847 4 0.0605355 0.22093 0.435253
984 4 0.0525008 0.200894 0.49384
983 4 0.0451874 0.221011 0.448646
471 4 0.102168 0.177249 0.479572
1034 4 0.119724 0.195373 0.426703
275 4 0.156601 0.171732 0.465902
857 4 0.155363 0.172003 0.485383
259 2 0.112469 0.209761 0.473445
348 4 0.104194 0.237218 0.500879
261 4 0.108525 0.187342 0.463101
687 4 0.222175 0.214654 0.424429
409 2 0.270857 0.191936 0.432491
410 4 0.27619 0.215362 0.439416
489 4 0.269103 0.233688 0.443872
487 2 0.28683 0.247721 0.454551
419 4 0.431407 0.210589 0.417888
584 4 0.432582 0.226911 0.43417
304 2 0.457716 0.216867 0.468087
305 4 0.474249 0.203526 0.481274
515 4 0.48695 0.194433 0.49241
306 4 0.441184 0.230208 0.454901
347 4 0.118516 0.284564 0.493534
346 2 0.111355 0.260891 0.497207
373 2 0.17106 0.291088 0.492146
375 4 0.159131 0.306678 0.476659
711 4 0.164598 0.32318 0.489813
488 4 0.304556 0.261754 0.46523
651 4 0.297532 0.271709 0.482542
717 4 0.368615 0.248833 0.416329
240 4 0.40531 0.285645 0.439875
585 4 0.405505 0.267107 0.446494
583 2 0.419043 0.247009 0.440332
238 2 0.408934 0.309377 0.432887
239 4 0.412558 0.333109 0.425898
680 4 0.106597 0.420273 0.448914
408 4 0.126351 0.414073 0.44472
407 4 0.13488 0.367576 0.461029
406 2 0.130616 0.390825 0.452875
710 4 0.154452 0.362212 0.460245
635 4 0.252308 0.403772 0.425243
709 2 0.159525 0.342696 0.475029
588 4 0.342853 0.384877 0.454277
772 2 0.347298 0.365501 0.484127
773 4 0.357112 0.377508 0.464514
586 2 0.349401 0.388573 0.43043
936 4 0.0181301 0.420088 0.486324
538 2 0.0814146 0.490179 0.48685
539 4 0.0845527 0.473124 0.468837
679 2 0.0921608 0.437333 0.460126
681 4 0.0777249 0.454394 0.471338
634 2 0.238264 0.413233 0.443639
1437 4 0.201535 0.496627 0.418925
570 4 0.201019 0.437181 0.410589
636 4 0.224219 0.422693 0.462035
4 3 0.325314 0.47226 0.453217
667 2 0.349669 0.470451 0.493839
592 2 0.394518 0.472973 0.457487
3 3 0.361819 0.482833 0.453381
594 4 0.378065 0.489546 0.46642
1 1 0.341427 0.485098 0.442543
668 4 0.357789 0.486018 0.476036
5 3 0.343413 0.478582 0.420811
593 4 0.410971 0.4564 0.448554
1126 2 0.00663336 0.0639129 0.548097
1128 4 0.0222603 0.0529777 0.564265
939 4 0.0329048 0.0382027 0.555732
937 2 0.050406 0.0291343 0.571115
2237 4 0.0276507 0.0175283 0.502861
2236 2 0.0485234 0.0150389 0.5164
962 4 0.236488 0.0408519 0.545693
1151 4 0.238557 0.0610971 0.501791
961 2 0.25959 0.0322702 0.541472
963 4 0.282692 0.0236886 0.537251
430 2 0.306354 0.00313737 0.528654
432 4 0.290435 0.0193879 0.518276
1218 4 0.409383 0.995828 0.557605
4465 2 0.426889 0.0565225 0.561564
4467 4 0.434946 0.0451223 0.582308
88 3 0.463724 0.996894 0.578272
3009 4 0.487955 0.0605232 0.572608
1181 4 0.239513 0.0645773 0.520852
1180 2 0.256096 0.0832215 0.519248
1182 4 0.272679 0.101866 0.517644
1032 4 0.274957 0.120924 0.518228
1030 2 0.294195 0.136563 0.514989
1031 4 0.313433 0.152201 0.51175
467 4 0.332915 0.146811 0.515423
574 2 0.397349 0.0894548 0.524005
576 4 0.374234 0.0922615 0.514895
466 2 0.349847 0.128485 0.513792
575 4 0.420464 0.0866481 0.533114
4466 4 0.418832 0.0679226 0.54082
877 2 0.0455099 0.195717 0.52839
879 4 0.0439591 0.205697 0.551263
1272 4 0.0452328 0.214404 0.569566
878 4 0.0470607 0.185736 0.505517
1270 2 0.046973 0.202432 0.591448
856 2 0.1568 0.174575 0.510213
858 4 0.158237 0.177147 0.535042
1220 4 0.167391 0.186635 0.549232
260 4 0.116414 0.23218 0.48379
1219 2 0.190115 0.192275 0.558004
1221 4 0.21284 0.197915 0.566777
1212 4 0.208498 0.217008 0.568206
1210 2 0.221638 0.23643 0.576883
267 4 0.334063 0.191308 0.551067
265 2 0.340661 0.172938 0.566693
516 4 0.496886 0.208487 0.539362
514 2 0.491918 0.20146 0.515886
695 4 0.0709898 0.302215 0.562255
694 2 0.0886868 0.317214 0.571585
325 2 0.130312 0.3118 0.525642
327 4 0.122081 0.299606 0.505425
326 4 0.138542 0.323994 0.54586
791 4 0.204623 0.279306 0.565822
790 2 0.190198 0.274705 0.545924
1191 4 0.207688 0.296442 0.57555
1189 2 0.195473 0.317086 0.582604
792 4 0.175774 0.270103 0.526026
374 4 0.182989 0.275498 0.507633
1190 4 0.183257 0.337731 0.589657
813 4 0.329188 0.300696 0.533747
650 4 0.316157 0.285703 0.526791
649 2 0.306845 0.278706 0.504666
811 2 0.347488 0.286434 0.543069
812 4 0.365788 0.272172 0.55239
872 4 0.428153 0.287774 0.521974
871 2 0.449518 0.291039 0.534547
873 4 0.470882 0.294304 0.54712
906 4 0.484062 0.280708 0.549585
904 2 0.496605 0.274967 0.570439
7 3 0.149636 0.339089 0.5523
9 3 0.162826 0.374096 0.548664
6 1 0.16875 0.351877 0.551768
8 3 0.182087 0.344704 0.534188
804 4 0.199038 0.35231 0.580654
10 3 0.17992 0.349493 0.571471
802 2 0.213277 0.372862 0.580772
803 4 0.227516 0.393415 0.58089
1160 4 0.233909 0.397478 0.562658
929 4 0.331327 0.350296 0.522826
928 2 0.335478 0.344777 0.546857
930 4 0.33963 0.339258 0.570888
1238 4 0.340518 0.353479 0.586664
774 4 0.337484 0.353494 0.503741
1938 4 0.0473119 0.459467 0.5342
1936 2 0.048569 0.47645 0.552508
935 4 0.0363053 0.452758 0.519537
934 2 0.0272177 0.436423 0.502931
1937 4 0.0498261 0.493433 0.570816
540 4 0.0782764 0.507233 0.504864
1159 2 0.249707 0.414803 0.571345
897 4 0.159028 0.476048 0.557406
895 2 0.181322 0.47994 0.568036
1161 4 0.265505 0.432128 0.580031
881 4 0.323939 0.491996 0.556672
880 2 0.332592 0.472196 0.54409
882 4 0.341245 0.452397 0.531509
1000 2 0.385365 0.45383 0.566458
1002 4 0.372684 0.445289 0.586243
1001 4 0.398045 0.46237 0.546673
669 4 0.341549 0.454885 0.511642
890 4 0.357536 0.435639 0.594781
938 4 0.0679071 0.0200659 0.586499
1083 4 0.993761 0.0668521 0.666078
945 4 0.108492 0.0454514 0.632192
2318 4 0.111625 0.0250392 0.638182
943 2 0.10962 0.0514806 0.656432
949 2 0.295981 0.00444799 0.642429
950 4 0.296729 0.00498684 0.617442
1283 4 0.3135 0.0772272 0.625394
1004 4 0.328698 0.0775234 0.637065
810 4 0.502678 0.0569043 0.586449
90 3 0.443727 0.0287771 0.577179
86 1 0.4427 0.00633989 0.580943
809 4 0.489479 0.0495863 0.634125
808 2 0.496078 0.0532453 0.610287
4226 4 0.488653 0.068337 0.640025
852 4 0.0108185 0.0776275 0.665841
1153 2 0.0745426 0.158638 0.626897
1155 4 0.0901065 0.143307 0.639059
907 2 0.239775 0.114461 0.6276
909 4 0.219532 0.122486 0.639888
1227 4 0.20392 0.112521 0.647072
1225 2 0.200035 0.132232 0.661957
908 4 0.260017 0.106435 0.615312
1282 2 0.290691 0.0872057 0.627709
1284 4 0.267882 0.0971842 0.630024
1003 2 0.333332 0.08236 0.661155
888 4 0.336293 0.123368 0.603796
886 2 0.343838 0.138367 0.622324
887 4 0.351382 0.153365 0.640852
900 4 0.366125 0.167871 0.641644
4225 2 0.48319 0.0863001 0.656538
1154 4 0.0589787 0.173969 0.614735
1271 4 0.0487133 0.19046 0.61333
266 4 0.347258 0.154567 0.582319
898 2 0.390276 0.171732 0.646843
899 4 0.414426 0.175593 0.652042
1194 4 0.409824 0.19144 0.663248
696 4 0.106384 0.332212 0.580915
948 4 0.141735 0.297227 0.67134
1211 4 0.234777 0.255852 0.58556
796 2 0.240089 0.28913 0.656163
797 4 0.252049 0.294614 0.634901
953 4 0.424285 0.281733 0.668491
1243 2 0.0146489 0.405457 0.643891
1244 4 0.0186024 0.38493 0.657609
1260 4 0.0814194 0.3777 0.627469
1207 2 0.092453 0.386568 0.663213
1259 4 0.0992006 0.345547 0.593546
1258 2 0.09031 0.361623 0.610508
1208 4 0.0907514 0.369666 0.644866
1172 4 0.274375 0.381121 0.597795
1171 2 0.29273 0.396287 0.605426
1173 4 0.311086 0.411453 0.613057
1237 2 0.348977 0.362994 0.608184
1027 2 0.36974 0.360215 0.660903
1029 4 0.36596 0.379858 0.645902
1239 4 0.357437 0.37251 0.629703
1245 4 0.0106955 0.425984 0.630174
896 4 0.203616 0.483831 0.578667
1136 4 0.227587 0.444082 0.611569
1137 4 0.196617 0.438171 0.650385
1135 2 0.212102 0.441127 0.630977
891 4 0.311888 0.432401 0.614943
889 2 0.334712 0.43402 0.604862
862 2 0.0777816 0.064725 0.710506
863 4 0.068417 0.0657572 0.687345
864 4 0.0871462 0.0636927 0.733666
944 4 0.110749 0.0575098 0.680671
2286 4 0.107296 0.0634764 0.730441
825 4 0.241589 0.0216044 0.703958
951 4 0.295232 0.00390915 0.667415
824 4 0.279555 0.012029 0.672851
823 2 0.260572 0.0168167 0.688404
2399 4 0.31381 0.0448196 0.732422
2398 2 0.289731 0.0380986 0.732831
1049 4 0.32075 0.0390684 0.714288
1048 2 0.332749 0.0201033 0.703265
2400 4 0.265651 0.0313775 0.733241
1050 4 0.344748 0.00113811 0.692241
1141 2 0.390768 0.075849 0.7493
2321 4 0.430773 0.0403112 0.729285
1162 2 0.492841 0.0429454 0.696519
1163 4 0.471999 0.0563056 0.700021
42 3 0.453902 0.0613451 0.709226
41 1 0.431048 0.0621348 0.706729
45 3 0.42223 0.0417844 0.711901
2320 2 0.434776 0.0316746 0.752406
44 3 0.426089 0.0675495 0.684718
850 2 0.0352751 0.0786603 0.670939
851 4 0.0597317 0.0796931 0.676036
1226 4 0.196149 0.151942 0.676842
831 4 0.340077 0.107193 0.693583
829 2 0.327974 0.127487 0.701761
830 4 0.315872 0.14778 0.709939
1005 4 0.337966 0.0871967 0.685244
978 4 0.332022 0.159922 0.718107
1143 4 0.372798 0.0811831 0.732754
43 3 0.4225 0.0783223 0.720988
4227 4 0.477727 0.104263 0.67305
1215 4 0.0894464 0.224913 0.745603
1213 2 0.104022 0.2046 0.745938
1278 4 0.173826 0.256502 0.681458
1240 2 0.234446 0.224155 0.708301
1241 4 0.215941 0.225458 0.725065
1242 4 0.252952 0.222852 0.691537
916 2 0.288169 0.249402 0.692884
917 4 0.269081 0.233646 0.696432
1167 4 0.319838 0.249997 0.686903
977 4 0.367928 0.194371 0.72308
976 2 0.349975 0.177147 0.720593
1193 4 0.439572 0.209342 0.699238
1192 2 0.424698 0.200391 0.681243
1064 4 0.159913 0.329079 0.727296
946 2 0.152543 0.309401 0.690318
947 4 0.16335 0.321575 0.709296
798 4 0.22813 0.283645 0.677425
1277 4 0.214631 0.283252 0.692416
1276 2 0.194229 0.269877 0.686937
918 4 0.307256 0.265158 0.689336
1007 4 0.314675 0.303019 0.748189
1165 2 0.344483 0.252772 0.683726
1166 4 0.369128 0.255547 0.680549
805 2 0.374824 0.298208 0.683617
806 4 0.369562 0.27432 0.688798
807 4 0.380087 0.322096 0.678436
1019 4 0.38902 0.344565 0.745936
952 2 0.447614 0.286202 0.676298
954 4 0.470944 0.290671 0.684104
1206 4 0.443511 0.32392 0.714252
1209 4 0.0941545 0.40347 0.68156
993 4 0.0915378 0.401828 0.702099
991 2 0.0723075 0.417329 0.705982
1063 2 0.156121 0.348387 0.742723
1028 4 0.37352 0.340572 0.675905
1205 4 0.408252 0.338365 0.746638
3122 4 0.456386 0.339148 0.711176
3123 4 0.499267 0.333765 0.686018
1204 2 0.425882 0.331143 0.730445
3121 2 0.477826 0.336456 0.698597
3239 4 0.99845 0.491971 0.716909
2172 4 0.0189792 0.486139 0.714334
2170 2 0.0376432 0.469508 0.713837
2171 4 0.0563072 0.452877 0.713341
992 4 0.0530772 0.432831 0.709865
1067 4 0.185087 0.447222 0.663356
1066 2 0.194114 0.466581 0.676353
1176 4 0.217743 0.474954 0.698685
1174 2 0.238093 0.4658 0.709967
1068 4 0.203141 0.485941 0.689349
1138 2 0.296965 0.499266 0.70178
1139 4 0.313075 0.480196 0.703181
1175 4 0.258443 0.456646 0.721248
1229 4 0.320461 0.460232 0.702723
1235 4 0.268492 0.450752 0.738208
1101 4 0.383388 0.455772 0.715147
1228 2 0.34299 0.454374 0.711852
1230 4 0.365518 0.448517 0.720982
1099 2 0.407587 0.461397 0.712327
1269 4 0.46433 0.411955 0.698407
1268 4 0.446188 0.458477 0.701088
1267 2 0.455259 0.435216 0.699748
1100 4 0.431787 0.467021 0.709507
2276 4 0.00711955 0.00236087 0.818801
912 4 0.0700988 0.0362937 0.837697
1295 4 0.0579262 0.0281245 0.851333
910 2 0.0832316 0.0472682 0.819469
2284 2 0.11579 0.0536375 0.7518
2285 4 0.124285 0.0437987 0.773159
911 4 0.0963644 0.0582427 0.80124
1202 4 0.110055 0.0694148 0.791903
2049 4 0.130174 0.0277883 0.78118
2047 2 0.13249 0.00853046 0.796958
874 2 0.244909 0.0630407 0.832878
876 4 0.245427 0.0458629 0.814717
1149 4 0.260787 0.0213335 0.750107
1257 4 0.303617 0.0640312 0.793626
1085 4 0.341206 0.0722964 0.826065
1142 4 0.408738 0.0705148 0.765847
819 4 0.347982 0.0905497 0.818615
1113 4 0.422891 0.0735128 0.778481
2322 4 0.438778 0.0230379 0.775527
1112 4 0.443996 0.0765607 0.823714
1111 2 0.433443 0.0750367 0.801098
2442 4 0.43635 0.00399428 0.782621
834 4 0.00829196 0.131536 0.787623
1201 2 0.120355 0.0910845 0.798941
1203 4 0.130655 0.112754 0.805978
33 3 0.148771 0.12247 0.816388
34 3 0.16055 0.158596 0.815629
31 1 0.166829 0.13649 0.81242
1073 4 0.143398 0.17277 0.821795
35 3 0.174403 0.133573 0.791141
32 3 0.183655 0.131315 0.827227
1255 2 0.299113 0.086953 0.784711
1256 4 0.29461 0.109875 0.775795
840 4 0.282361 0.113584 0.792077
838 2 0.279822 0.135175 0.804429
839 4 0.277283 0.156765 0.816781
817 2 0.369145 0.10386 0.818948