ITEM: TIMESTEP
4690000
ITEM: NUMBER OF ATOMS
4590
ITEM: BOX BOUNDS pp pp pp
-9.9985700000000008e+00 9.9985700000000008e+00
-9.9985700000000008e+00 9.9985700000000008e+00
-9.9985700000000008e+00 9.9985700000000008e+00
ITEM: ATOMS id type xs ys zs
700 2 0.0348146 0.0224334 0.018803
701 4 0.0114759 0.0264163 0.0268416
3234 4 0.000757881 0.0195262 0.011871
702 4 0.0581534 0.0184506 0.0107645
3753 4 0.0718383 0.0207524 0.995312
450 4 0.0989872 0.0305617 0.0826832
1633 2 0.140801 0.0211571 0.00133372
1635 4 0.142775 0.999108 0.0129582
565 2 0.292277 0.0516786 0.0551417
2265 4 0.324779 0.0281182 0.0509103
2263 2 0.327892 0.0174976 0.0284895
567 4 0.284961 0.0755881 0.0551659
674 4 0.279605 0.0176997 0.0570236
566 4 0.299592 0.0277692 0.0551176
2264 4 0.331006 0.00687704 0.00606878
987 4 0.34345 0.0289691 0.0587178
985 2 0.361657 0.045888 0.0614498
986 4 0.379863 0.0628069 0.0641818
2975 4 0.399432 0.0646405 0.0610888
1661 4 0.347439 0.0205755 0.0769441
2806 2 0.0301449 0.166634 0.00609876
555 4 0.0588936 0.161539 0.0350207
2808 4 0.0514561 0.170712 0.0185237
553 2 0.0836141 0.157916 0.0359957
554 4 0.108335 0.154293 0.0369708
836 4 0.116255 0.139672 0.0473573
837 4 0.15331 0.109489 0.0326377
835 2 0.134782 0.12458 0.0399975
1134 4 0.171249 0.101307 0.0339472
1132 2 0.189635 0.104815 0.0173697
1133 4 0.208022 0.108322 0.000792234
653 4 0.271308 0.0838342 0.0676851
490 2 0.284403 0.167397 0.0707057
654 4 0.275273 0.133643 0.0697165
491 4 0.274049 0.14882 0.0838533
652 2 0.273291 0.108738 0.0687008
54 3 0.27175 0.157864 0.0130561
460 2 0.374612 0.114374 0.0448306
462 4 0.388832 0.116998 0.0652284
2469 4 0.381742 0.136301 0.0705164
461 4 0.360391 0.111749 0.0244328
1086 4 0.350878 0.127389 0.0169756
2623 2 0.0209375 0.195922 0.0508099
2624 4 0.0360235 0.176781 0.045224
2625 4 0.00585147 0.215063 0.0563959
492 4 0.294757 0.185974 0.0575581
354 4 0.278374 0.205694 0.00128479
360 4 0.299599 0.206685 0.00294713
358 2 0.303678 0.203105 0.0273547
359 4 0.307756 0.199524 0.0517623
754 2 0.25695 0.230402 0.0768702
254 4 0.357475 0.222138 0.0517735
253 2 0.362178 0.211358 0.0738386
323 4 0.371153 0.233843 0.0432154
322 2 0.391429 0.248426 0.0444125
518 4 0.472177 0.23566 0.0649803
527 4 0.4719 0.228606 0.0849211
517 2 0.451312 0.247863 0.0585835
771 4 0.49207 0.161082 0.0446428
769 2 0.496937 0.175105 0.0647636
666 4 0.448798 0.190338 0.00937839
557 4 0.456134 0.208403 0.00578179
337 2 0.0475673 0.309737 0.0261371
339 4 0.0668715 0.316337 0.0405927
477 4 0.0135919 0.305243 0.998236
338 4 0.0282632 0.303136 0.0116815
483 4 0.157172 0.284748 0.0476238
481 2 0.153787 0.309208 0.0515517
287 4 0.172211 0.284493 0.0329428
286 2 0.17502 0.274581 0.0101603
756 4 0.265535 0.253618 0.0804001
357 4 0.31519 0.270198 0.0360585
355 2 0.336657 0.278718 0.0264798
324 4 0.411704 0.263008 0.0456096
1304 4 0.365105 0.292972 0.0347111
356 4 0.358125 0.287237 0.0169012
1303 2 0.384507 0.304527 0.0239769
37 3 0.3975 0.335142 0.00987454
1305 4 0.403909 0.316081 0.0132426
519 4 0.430447 0.260065 0.0521866
1095 4 0.480593 0.291659 0.071604
1093 2 0.493753 0.289852 0.0504209
495 4 0.486978 0.339016 0.0599269
620 4 0.0107678 0.348527 0.058845
294 4 0.00477725 0.362747 0.0461875
292 2 0.0233091 0.364955 0.029548
293 4 0.041841 0.367163 0.0129085
1169 4 0.0596526 0.369595 0.00187855
456 4 0.134297 0.332166 0.067941
482 4 0.150401 0.333668 0.0554795
252 4 0.21431 0.380984 0.031924
250 2 0.211377 0.40476 0.0390839
1289 4 0.195231 0.372466 0.0277848
1288 2 0.181228 0.353327 0.0198589
1290 4 0.167226 0.334189 0.0119329
955 2 0.368812 0.380701 0.0230123
957 4 0.388306 0.377814 0.0384017
608 4 0.388822 0.372749 0.0588245
524 4 0.411558 0.396166 0.0371343
1673 4 0.387448 0.405479 0.0543832
607 2 0.384422 0.358806 0.0791072
903 4 0.344006 0.400237 0.9971
956 4 0.349318 0.383588 0.0076229
523 2 0.426409 0.39769 0.0170768
38 3 0.430881 0.35113 0.016409
493 2 0.500642 0.357766 0.0506022
494 4 0.514305 0.376515 0.0412775
36 1 0.418141 0.339651 0.000778201
525 4 0.44126 0.399214 0.997019
794 4 0.19861 0.490769 0.027171
793 2 0.199044 0.466113 0.031304
795 4 0.199478 0.441457 0.035437
251 4 0.208443 0.428536 0.0462438
1672 2 0.389303 0.430281 0.0518144
1674 4 0.391158 0.455083 0.0492455
4184 4 0.501436 0.49906 0.999192
17 3 0.0301785 0.0688284 0.105002
16 1 0.0408913 0.070187 0.125313
18 3 0.0570318 0.0868187 0.124182
381 4 0.0205267 0.052632 0.109377
20 3 0.0506815 0.0501625 0.129984
234 4 0.00514729 0.0649788 0.144814
19 3 0.0252941 0.075385 0.141687
379 2 0.00810704 0.0342209 0.097889
464 4 0.0752293 0.0790251 0.113056
465 4 0.106295 0.0476124 0.0896281
448 2 0.103434 0.0103035 0.0966478
463 2 0.0907623 0.0633187 0.101342
1769 4 0.252703 0.0435609 0.155327
1475 4 0.246135 0.0236493 0.0924189
1474 2 0.247983 0.0256737 0.117272
1476 4 0.24983 0.0276981 0.142125
1660 2 0.335076 0.00105793 0.0865047
2974 2 0.41681 0.0629712 0.078989
2976 4 0.434187 0.0613018 0.0968892
630 4 0.42537 0.0583378 0.115983
628 2 0.420382 0.0495914 0.138869
2481 4 0.00614264 0.095075 0.140653
2479 2 0.00457924 0.118249 0.131396
578 4 0.0799513 0.0861775 0.132361
2480 4 0.00301584 0.141424 0.12214
1538 4 0.0157951 0.07615 0.162143
2798 4 0.00302044 0.155667 0.107893
577 2 0.0920666 0.100384 0.148991
579 4 0.104182 0.11459 0.165622
311 4 0.322061 0.124144 0.15518
2467 2 0.379487 0.15812 0.0825166
310 2 0.344873 0.133801 0.151785
312 4 0.367686 0.143458 0.14839
23 3 0.36558 0.164553 0.142066
764 4 0.370728 0.15886 0.163178
2682 4 0.490935 0.149429 0.163072
361 2 0.0652814 0.249935 0.136259
362 4 0.0412342 0.249605 0.129417
647 4 0.0222344 0.24485 0.126906
363 4 0.0893285 0.250266 0.1431
278 4 0.103787 0.240238 0.15283
755 4 0.248365 0.207185 0.0733404
255 4 0.366881 0.200579 0.0959037
309 4 0.335458 0.19183 0.152016
2468 4 0.377231 0.17994 0.0945168
21 1 0.36676 0.185391 0.131927
24 3 0.361142 0.18361 0.109484
22 3 0.351827 0.199531 0.142232
25 3 0.387792 0.193872 0.134023
759 4 0.399373 0.182108 0.14482
757 2 0.420975 0.185311 0.132644
758 4 0.442577 0.188515 0.120467
528 4 0.456555 0.202985 0.125031
526 2 0.464227 0.215795 0.104976
770 4 0.501804 0.189128 0.0848844
535 2 0.131881 0.332013 0.143973
537 4 0.127998 0.326487 0.168047
573 4 0.319977 0.293658 0.0875252
571 2 0.297661 0.282548 0.0855883
572 4 0.275345 0.271438 0.0836514
672 4 0.322281 0.31226 0.0796558
670 2 0.341066 0.325744 0.0891676
671 4 0.35985 0.339229 0.0986794
597 4 0.484657 0.299136 0.0900698
595 2 0.48592 0.319502 0.10452
536 4 0.135764 0.337538 0.119898
454 2 0.129071 0.342248 0.0902171
455 4 0.123844 0.35233 0.112493
345 4 0.248822 0.375975 0.0897103
343 2 0.265267 0.381903 0.107587
344 4 0.281712 0.387832 0.125464
498 4 0.290321 0.377689 0.140759
496 2 0.291979 0.392333 0.160957
609 4 0.380022 0.344862 0.0993899
741 4 0.37567 0.346373 0.158423
739 2 0.399192 0.343008 0.166207
387 4 0.361322 0.333762 0.15591
623 4 0.435253 0.344014 0.157622
622 2 0.458253 0.345449 0.147921
596 4 0.487184 0.339869 0.118969
624 4 0.481253 0.346885 0.138221
109 3 0.494798 0.358844 0.14859
542 4 0.487834 0.397935 0.10725
541 2 0.466324 0.407771 0.0991419
108 3 0.494077 0.380842 0.117606
602 4 0.0561481 0.493742 0.133776
601 2 0.0551554 0.478076 0.153238
750 4 0.0158158 0.430707 0.133345
603 4 0.0541626 0.462411 0.1727
748 2 0.0223478 0.427541 0.157272
2796 4 0.99139 0.505818 0.148801
704 4 0.00176068 0.43175 0.119873
64 3 0.241007 0.503233 0.154778
63 3 0.215251 0.479181 0.140546
1584 4 0.419654 0.446112 0.140527
1575 4 0.403093 0.445002 0.152055
4277 4 0.419832 0.490066 0.0912206
1582 2 0.415101 0.464703 0.12444
1583 4 0.410548 0.483295 0.108353
543 4 0.444813 0.417606 0.0910344
1539 4 0.0487907 0.0849279 0.19868
2757 4 0.000733512 0.00563602 0.23092
1462 2 0.146846 0.0141049 0.229688
1505 4 0.14586 0.0732283 0.206405
1464 4 0.157035 0.00376817 0.209328
689 4 0.168626 0.0147234 0.197649
688 2 0.167913 0.998079 0.179003
1504 2 0.166586 0.0677763 0.219283
1506 4 0.187313 0.0623243 0.232162
1700 4 0.200761 0.0493819 0.240881
1621 2 0.255691 0.0255745 0.245284
1768 2 0.258389 0.0360135 0.178476
1623 4 0.258565 0.0297444 0.220798
1770 4 0.264074 0.0284662 0.201625
474 4 0.262446 0.0754094 0.238529
1830 4 0.282019 0.069142 0.234644
484 2 0.41185 0.0101225 0.179205
629 4 0.415394 0.040845 0.161756
486 4 0.421999 0.0216218 0.159458
1537 2 0.0322929 0.0805389 0.180412
237 4 0.118207 0.109063 0.177247
235 2 0.138044 0.122716 0.183975
236 4 0.157881 0.136369 0.190702
722 4 0.159684 0.153682 0.200409
721 2 0.179987 0.16038 0.213375
723 4 0.200289 0.167078 0.226341
472 2 0.258472 0.096123 0.251958
763 2 0.391772 0.151697 0.174623
765 4 0.412817 0.144533 0.186068
744 4 0.426551 0.153867 0.198023
761 4 0.484327 0.167866 0.165942
742 2 0.428996 0.149366 0.222496
743 4 0.43144 0.144865 0.246969
277 2 0.110997 0.222703 0.169131
512 4 0.120726 0.233458 0.2248
279 4 0.118206 0.205168 0.185432
737 4 0.123122 0.212342 0.226011
736 2 0.148105 0.21152 0.226612
738 4 0.173088 0.210697 0.227214
284 4 0.190943 0.219456 0.233282
612 4 0.307227 0.203946 0.215067
308 4 0.317592 0.195911 0.198545
307 2 0.326525 0.193871 0.175281
610 2 0.315449 0.218908 0.233335
611 4 0.323671 0.23387 0.251603
522 4 0.489235 0.196232 0.229708
520 2 0.479915 0.218867 0.224612
760 2 0.487923 0.176814 0.189011
762 4 0.49152 0.185762 0.21208
521 4 0.470595 0.241502 0.219516
511 2 0.113105 0.257211 0.226502
300 4 0.109478 0.297424 0.218595
513 4 0.105484 0.280964 0.228204
298 2 0.123614 0.30555 0.199639
299 4 0.137749 0.313676 0.180683
386 4 0.332338 0.326568 0.19602
768 4 0.34805 0.331923 0.209576
364 2 0.0160975 0.397217 0.207769
366 4 0.0331098 0.409262 0.193961
497 4 0.293637 0.406977 0.181156
766 2 0.355359 0.334322 0.233367
385 2 0.34683 0.330165 0.175965
2537 4 0.3355 0.400512 0.228468
740 4 0.422713 0.339642 0.173991
14 3 0.466637 0.373046 0.233471
11 1 0.452274 0.390868 0.229665
15 3 0.435372 0.384409 0.215835
12 3 0.443423 0.397709 0.249764
645 4 0.463048 0.408713 0.200842
1665 4 0.0259565 0.495136 0.204711
749 4 0.0288798 0.424376 0.181199
1663 2 0.0481899 0.499001 0.215478
1430 4 0.236542 0.493444 0.171614
1431 4 0.269378 0.508614 0.206145
1429 2 0.25296 0.501029 0.188879
290 4 0.251754 0.469082 0.243236
659 4 0.267194 0.480395 0.23539
658 2 0.291399 0.475566 0.23139
660 4 0.315603 0.470737 0.227389
639 4 0.333166 0.46196 0.231949
1573 2 0.390918 0.441284 0.173576
638 4 0.363653 0.450894 0.193885
637 2 0.348409 0.456427 0.212917
1574 4 0.378744 0.437565 0.195096
13 3 0.463932 0.408554 0.220194
1576 2 0.465224 0.498951 0.175811
1578 4 0.464306 0.474791 0.182184
644 4 0.470445 0.456723 0.188967
643 2 0.466747 0.432718 0.194905
1773 4 0.0723093 0.995704 0.308596
2755 2 0.0113447 0.0146502 0.251688
2756 4 0.021956 0.0236643 0.272457
1772 4 0.0402319 0.0228893 0.281528
1771 2 0.0562706 0.00929641 0.295062
1463 4 0.136657 0.0244417 0.250047
1469 4 0.0982557 0.0607322 0.323131
732 4 0.128907 0.0410178 0.258736
730 2 0.112068 0.057824 0.266429
731 4 0.0952292 0.0746301 0.274123
1468 2 0.111827 0.0403624 0.328237
1470 4 0.125398 0.0199925 0.333344
1406 4 0.179587 0.0285188 0.299748
1701 4 0.185378 0.0435419 0.288104
1699 2 0.19307 0.0464619 0.264492
1405 2 0.177165 0.0152477 0.3208
1622 4 0.252817 0.0214046 0.269769
1828 2 0.29946 0.0580424 0.248708
1829 4 0.3169 0.0469428 0.262773
1496 4 0.335145 0.0459142 0.273861
1517 4 0.368966 0.0211387 0.31592
1497 4 0.360431 0.0118592 0.300348
1495 2 0.347788 0.0288867 0.287104
316 2 0.0740715 0.0884845 0.31089
317 4 0.0643146 0.0978536 0.331919
397 2 0.0376741 0.124569 0.328351
531 4 0.0394814 0.159605 0.325889
399 4 0.0471535 0.102233 0.322315
318 4 0.0838284 0.0791155 0.289862
693 4 0.200643 0.152835 0.240849
691 2 0.219358 0.137564 0.247307
27 3 0.246057 0.146291 0.313115
692 4 0.238074 0.122293 0.253765
473 4 0.254499 0.116837 0.265387
29 3 0.25511 0.128512 0.281262
28 3 0.267458 0.115437 0.314743
30 3 0.281207 0.147523 0.300632
26 1 0.262625 0.134475 0.30239
683 4 0.296752 0.105739 0.322708
682 2 0.321376 0.10797 0.318984
377 4 0.278727 0.0992269 0.31383
684 4 0.346 0.110201 0.31526
725 4 0.360719 0.122593 0.313987
724 2 0.381547 0.117864 0.326988
351 4 0.460569 0.121226 0.313955
332 4 0.447482 0.123421 0.299272
331 2 0.44213 0.139424 0.280821
349 2 0.4806 0.106421 0.311785
333 4 0.436779 0.155427 0.262369
283 2 0.206687 0.221624 0.252585
285 4 0.222432 0.223792 0.271887
581 4 0.229502 0.208084 0.28227
580 2 0.234491 0.185959 0.292794
582 4 0.23948 0.163834 0.303318
707 4 0.341201 0.226291 0.25395
706 2 0.351097 0.240236 0.272193
389 4 0.114222 0.254736 0.308695
388 2 0.124055 0.275157 0.298137
390 4 0.133888 0.295578 0.287579
372 4 0.150686 0.299042 0.296885
370 2 0.167338 0.317498 0.299583
371 4 0.183989 0.335954 0.302282
708 4 0.360993 0.25418 0.290437
632 4 0.380601 0.252082 0.297616
631 2 0.394876 0.257651 0.317375
728 4 0.331354 0.345926 0.325825
633 4 0.40915 0.26322 0.337133
402 4 0.186017 0.348898 0.287641
401 4 0.196963 0.395483 0.302157
400 2 0.19149 0.372191 0.294899
510 4 0.191087 0.413586 0.307656
2538 4 0.322735 0.389315 0.275504
447 4 0.33555 0.394109 0.290505
302 4 0.340203 0.349858 0.308929
2536 2 0.329118 0.394914 0.251986
767 4 0.362667 0.336722 0.257158
303 4 0.342691 0.336385 0.260835
301 2 0.341447 0.343122 0.284882
445 2 0.349487 0.397995 0.310897
446 4 0.363424 0.401882 0.331289
2742 4 0.449176 0.391675 0.328175
2740 2 0.430773 0.408598 0.327827
1789 2 0.0105371 0.44732 0.318384
1790 4 0.0177766 0.471178 0.320272
1758 4 0.0357777 0.4646 0.320933
733 2 0.144606 0.434319 0.302048
734 4 0.162425 0.431412 0.28475
735 4 0.126787 0.437227 0.319345
777 4 0.131708 0.488322 0.331525
1320 4 0.127681 0.493249 0.31265
677 4 0.119489 0.428594 0.335299
417 4 0.173386 0.418934 0.27475
289 2 0.232161 0.467481 0.258687
291 4 0.212569 0.46588 0.274139
416 4 0.214662 0.447026 0.277559
415 2 0.194024 0.43298 0.276155
1801 2 0.315503 0.479323 0.287921
1803 4 0.297436 0.470486 0.302776
593 4 0.288786 0.481515 0.316661
1802 4 0.33357 0.48816 0.273066
2741 4 0.41237 0.425521 0.327479
230 4 0.33955 0.501879 0.259203
713 4 0.424185 0.487315 0.319305
427 2 0.0670068 0.0170281 0.414644
429 4 0.0581309 0.0403514 0.413087
439 2 0.247919 0.0103909 0.357176
440 4 0.234845 0.0230868 0.374295
1818 4 0.239739 0.0411493 0.384778
1816 2 0.254681 0.0605641 0.37978
1817 4 0.269623 0.0799789 0.374782
641 4 0.46697 0.0305742 0.402436
256 2 0.460766 0.0494514 0.371127
257 4 0.467149 0.0275179 0.381293
258 4 0.454383 0.0713849 0.36096
640 2 0.478501 0.0118397 0.41432
426 4 0.437642 0.0792349 0.366044
398 4 0.0281948 0.146904 0.334386
368 4 0.143045 0.12545 0.355542
367 2 0.15498 0.147085 0.351712
604 2 0.243035 0.112271 0.412508
606 4 0.258442 0.0974832 0.399503
378 4 0.269759 0.0727699 0.355306
376 2 0.274243 0.0859984 0.334568
425 4 0.412511 0.0999463 0.328094
726 4 0.402375 0.113134 0.339989
424 2 0.425076 0.0895906 0.347069
470 4 0.0711508 0.170798 0.394527
2654 4 0.00369306 0.247024 0.348172
529 2 0.0437609 0.179427 0.340516
2653 2 0.0242181 0.232771 0.349041
2655 4 0.0447432 0.218519 0.349909
530 4 0.0480404 0.19925 0.355142
469 2 0.0633723 0.184806 0.413722
369 4 0.166914 0.16872 0.347882
544 2 0.136985 0.227303 0.412429
546 4 0.126473 0.204625 0.411833
600 4 0.162595 0.179394 0.363937
598 2 0.185227 0.189029 0.368424
599 4 0.207859 0.198664 0.372911
686 4 0.207434 0.217414 0.376332
685 2 0.206614 0.234754 0.394327
585 4 0.403356 0.216927 0.418681
1033 2 0.0677778 0.298355 0.409105
1034 4 0.0438588 0.298336 0.416389
247 2 0.126223 0.283279 0.403173
1035 4 0.0916969 0.298373 0.401821
249 4 0.10727 0.293571 0.390522
687 4 0.205794 0.252094 0.412322
407 4 0.186594 0.325688 0.380022
710 4 0.192473 0.311872 0.391815
709 2 0.191874 0.287502 0.397374
711 4 0.191275 0.263132 0.402934
614 4 0.322008 0.279108 0.37939
405 4 0.305437 0.281378 0.389242
403 2 0.281733 0.289335 0.389323
404 4 0.258029 0.297291 0.389404
613 2 0.338984 0.285072 0.362029
615 4 0.35596 0.291036 0.344667
419 4 0.428431 0.257795 0.339052
418 2 0.44405 0.275363 0.347571
420 4 0.45967 0.292932 0.35609
268 2 0.482191 0.316394 0.383576
269 4 0.472956 0.297698 0.369779
926 4 0.446754 0.322386 0.408402
618 4 0.0272884 0.389796 0.340331
616 2 0.0469242 0.399666 0.352255
2693 4 0.00906642 0.381802 0.3442
442 2 0.0840922 0.361023 0.391382
444 4 0.0608907 0.367529 0.398056
539 4 0.0591019 0.37564 0.417138
538 2 0.0424376 0.394279 0.417363
617 4 0.06656 0.409536 0.36418
443 4 0.107294 0.354518 0.384707
679 2 0.170952 0.35526 0.412704
681 4 0.15166 0.339996 0.417179
406 2 0.20323 0.341433 0.369995
680 4 0.190243 0.370524 0.408229
503 4 0.238907 0.361791 0.364836
570 4 0.184877 0.387541 0.414646
408 4 0.219866 0.357177 0.359968
508 2 0.206408 0.417171 0.327088
729 4 0.302159 0.349296 0.366285
727 2 0.316756 0.347611 0.346055
504 4 0.285854 0.347736 0.354881
502 2 0.26238 0.354763 0.359858
120 3 0.372792 0.390152 0.343965
116 1 0.380991 0.407427 0.356335
119 3 0.389583 0.399449 0.376358
2924 4 0.461978 0.398005 0.342769
2923 2 0.486733 0.398904 0.339369
751 2 0.453207 0.407747 0.406673
752 4 0.440052 0.387501 0.400173
927 4 0.434721 0.370866 0.41079
925 2 0.440738 0.346626 0.409596
1756 2 0.0587204 0.468851 0.329918
1757 4 0.0816632 0.473103 0.338903
678 4 0.0732526 0.426398 0.354221
676 2 0.0963709 0.427496 0.34476
776 4 0.0898849 0.476999 0.356491
775 2 0.110797 0.482661 0.344008
413 4 0.202364 0.499063 0.416777
509 4 0.221729 0.420755 0.346519
635 4 0.221896 0.430362 0.364394
634 2 0.244728 0.440402 0.366139
592 2 0.285806 0.471203 0.339244
2 3 0.305021 0.462303 0.398612
636 4 0.26756 0.450443 0.367884
5 3 0.268605 0.469039 0.393993
1 1 0.284216 0.460625 0.408281
594 4 0.282825 0.460892 0.361827
668 4 0.311867 0.442921 0.401885
667 2 0.32905 0.436556 0.384874
3 3 0.279744 0.438275 0.412625
774 4 0.299028 0.432014 0.410444
3990 4 0.422348 0.486303 0.338396
3988 2 0.415927 0.46221 0.340267
3989 4 0.409506 0.438118 0.342137
118 3 0.397563 0.418503 0.344457
117 3 0.363975 0.422215 0.360911
669 4 0.346234 0.43019 0.367863
753 4 0.466361 0.427993 0.413173
1128 4 0.999606 0.085966 0.451008
719 4 0.0563979 0.0598409 0.417691
2238 4 0.0306339 0.0157756 0.475154
718 2 0.0644477 0.0711041 0.438512
720 4 0.0724976 0.0823673 0.459333
342 4 0.075517 0.0694175 0.475788
857 4 0.143792 0.0473746 0.47567
856 2 0.142673 0.0709798 0.483838
275 4 0.154015 0.0102916 0.441036
274 2 0.174765 0.0134816 0.427454
340 2 0.0893176 0.0531556 0.488837
276 4 0.195514 0.0166715 0.413873
1150 2 0.172239 0.023993 0.496925
1152 4 0.188244 0.00624651 0.504278
459 4 0.997855 0.100093 0.465471
858 4 0.141555 0.094585 0.492007
1220 4 0.137621 0.108896 0.506313
605 4 0.227628 0.127059 0.425513
468 4 0.223419 0.112649 0.438162
466 2 0.21833 0.107596 0.462115
467 4 0.213241 0.102544 0.486068
319 2 0.321583 0.151914 0.467826
321 4 0.305225 0.158218 0.449997
320 4 0.33794 0.145609 0.485654
471 4 0.0555938 0.198814 0.432917
261 4 0.0408216 0.210304 0.442431
259 2 0.0456116 0.226381 0.460972
260 4 0.0504015 0.242457 0.479514
7 3 0.173451 0.239204 0.455587
411 4 0.30113 0.173219 0.436532
489 4 0.265346 0.220344 0.442237
410 4 0.269609 0.21029 0.425005
409 2 0.28537 0.191755 0.430769
487 2 0.259175 0.244072 0.447143
583 2 0.404356 0.238854 0.430656
929 4 0.494948 0.23948 0.46005
1025 4 0.499227 0.232545 0.479853
4434 4 0.00383261 0.331597 0.475526
348 4 0.0525361 0.260768 0.472908
2850 4 0.0426216 0.311472 0.431166
2849 4 0.0135842 0.312134 0.471874
2848 2 0.0281029 0.311803 0.45152
346 2 0.0758605 0.268744 0.477094
248 4 0.145175 0.272987 0.415824
545 4 0.147498 0.249982 0.413025
326 4 0.16233 0.290726 0.459327
325 2 0.138037 0.287967 0.464562
327 4 0.113744 0.285207 0.469798
347 4 0.0991849 0.276721 0.48128
10 3 0.159165 0.260593 0.428544
9 3 0.196204 0.253898 0.429529
8 3 0.180042 0.276206 0.455711
375 4 0.179188 0.294862 0.4705
6 1 0.177124 0.257558 0.442216
373 2 0.189781 0.303448 0.491458
560 4 0.231493 0.318105 0.467915
488 4 0.253003 0.2678 0.45205
584 4 0.405355 0.26078 0.442631
649 2 0.344765 0.314729 0.478627
651 4 0.358276 0.310323 0.458054
717 4 0.40937 0.278312 0.450967
716 4 0.372753 0.311746 0.444477
715 2 0.391061 0.295029 0.447722
239 4 0.447505 0.311315 0.424306
1010 4 0.489895 0.247601 0.486976
238 2 0.466302 0.308379 0.440531
240 4 0.485098 0.305442 0.456756
1011 4 0.483706 0.295712 0.474822
1009 2 0.486801 0.271656 0.480899
540 4 0.0257734 0.412919 0.417589
568 2 0.186278 0.412504 0.414888
559 2 0.252504 0.331658 0.467659
772 2 0.29982 0.412255 0.425744
773 4 0.300612 0.392495 0.441044
561 4 0.273514 0.345211 0.467403
336 4 0.290477 0.334085 0.464355
334 2 0.300345 0.355963 0.457342
335 4 0.310214 0.37784 0.45033
588 4 0.381555 0.415568 0.454013
586 2 0.358382 0.418058 0.463067
383 4 0.0352088 0.504213 0.446048
382 2 0.0348069 0.4886 0.465574
1937 4 0.0266463 0.455583 0.479216
2813 4 0.00607259 0.417524 0.421838
384 4 0.0344051 0.472987 0.4851
1436 4 0.117148 0.443074 0.469451
1435 2 0.125547 0.466139 0.474207
1437 4 0.133946 0.489205 0.478963
412 2 0.202312 0.474297 0.413334
414 4 0.202261 0.449532 0.409891
569 4 0.18768 0.437467 0.415131
4 3 0.284153 0.472712 0.428088
434 4 0.284261 0.496074 0.431926
1400 4 0.26992 0.485919 0.440061
1401 4 0.278261 0.469406 0.48652
1399 2 0.274091 0.477662 0.46329
1587 4 0.283019 0.459624 0.505202
587 4 0.335209 0.420548 0.472121
880 2 0.454694 0.46713 0.474549
881 4 0.468769 0.463754 0.454161
882 4 0.440618 0.470507 0.494937
663 4 0.487836 0.46038 0.459752
2428 2 0.0935233 0.999576 0.521212
2430 4 0.106208 0.018931 0.511743
341 4 0.103118 0.0368938 0.501886
1151 4 0.156233 0.0417396 0.489573
1645 2 0.215806 0.00955909 0.528694
950 4 0.221495 0.0301682 0.563504
1647 4 0.227731 0.0228033 0.546232
1646 4 0.203882 0.996315 0.511157
949 2 0.227021 0.0431286 0.58416
1032 4 0.303934 0.0872236 0.575514
1182 4 0.301715 0.0675857 0.577831
1180 2 0.302605 0.042606 0.577197
4466 4 0.415371 0.0593859 0.575497
4465 2 0.416631 0.0345546 0.578142
575 4 0.424261 0.0668165 0.558878
574 2 0.44006 0.0733033 0.540616
576 4 0.455859 0.0797901 0.522354
4467 4 0.41789 0.00972334 0.580788
1221 4 0.165308 0.150184 0.51174
1219 2 0.151464 0.12954 0.509027
1030 2 0.28775 0.0925225 0.557206
1031 4 0.271566 0.0978214 0.538899
1225 2 0.27897 0.15522 0.547291
1226 4 0.272099 0.143264 0.526434
1227 4 0.285841 0.167177 0.568149
909 4 0.269616 0.164997 0.577826
514 2 0.487038 0.156865 0.532893
515 4 0.484294 0.133622 0.541689
305 4 0.490677 0.118864 0.552982
1212 4 0.171135 0.168637 0.506645
1240 2 0.184271 0.243616 0.543425
1241 4 0.188386 0.246678 0.567897
1278 4 0.174066 0.233791 0.573209
1210 2 0.195789 0.168144 0.502508
1211 4 0.220443 0.167651 0.498371
888 4 0.408366 0.171993 0.570648
265 2 0.395726 0.205572 0.553771
266 4 0.39958 0.180892 0.554889
267 4 0.391872 0.230251 0.552653
872 4 0.397824 0.251161 0.552688
516 4 0.489782 0.180109 0.524097
1026 4 0.49645 0.192384 0.509519
1024 2 0.497839 0.212464 0.494686
1272 4 0.0212785 0.258918 0.552469
1270 2 0.0195979 0.265778 0.576455
897 4 0.110896 0.335116 0.584281
1242 4 0.180157 0.240554 0.518953
374 4 0.200373 0.312035 0.512416
792 4 0.190384 0.32016 0.527289
790 2 0.204074 0.336632 0.54019
917 4 0.234588 0.251205 0.598307
812 4 0.32531 0.319264 0.518263
871 2 0.417187 0.263818 0.562176
650 4 0.331255 0.319135 0.499199
873 4 0.43655 0.276476 0.571664
906 4 0.45535 0.278645 0.576391
1191 4 0.22595 0.337874 0.562813
791 4 0.217764 0.353103 0.553091
1189 2 0.248233 0.33685 0.574109
811 2 0.340572 0.336039 0.528792
813 4 0.355833 0.352814 0.539322
1238 4 0.359333 0.371762 0.546029
1237 2 0.381561 0.371124 0.557463
1239 4 0.403788 0.370485 0.568896
890 4 0.343085 0.417632 0.569452
1159 2 0.238432 0.428433 0.576496
1161 4 0.256663 0.424114 0.559939
1173 4 0.323852 0.419744 0.56824
1171 2 0.299841 0.421951 0.561627
1172 4 0.275829 0.424157 0.555013
1585 2 0.282669 0.480328 0.519217
889 2 0.357718 0.431375 0.584357
1911 4 0.38773 0.458577 0.517247
1909 2 0.410403 0.468755 0.514508
891 4 0.372352 0.445118 0.599263
1910 4 0.433076 0.478934 0.511769
951 4 0.232546 0.0560889 0.604817
1092 4 0.249383 0.0619677 0.614261
1090 2 0.253815 0.0713332 0.637016
1181 4 0.303496 0.0176263 0.576563
1091 4 0.258247 0.0806988 0.659772
809 4 0.450515 0.0466112 0.6403
808 2 0.461469 0.0360713 0.620448
810 4 0.472423 0.0255314 0.600596
90 3 0.466888 0.00648709 0.603038
4226 4 0.444924 0.0518471 0.657942
4225 2 0.425505 0.0546223 0.673446
89 3 0.432414 0.996395 0.591753
33 3 0.0690244 0.0777571 0.650547
32 3 0.0730925 0.114961 0.654004
31 1 0.0638487 0.0962178 0.663616
850 2 0.00426826 0.113938 0.662333
35 3 0.0412529 0.0987832 0.66484
852 4 0.0213671 0.0989745 0.67277
908 4 0.258844 0.154674 0.625556
907 2 0.26423 0.159835 0.601691
1284 4 0.269979 0.150026 0.641206
1282 2 0.276594 0.16725 0.658081
887 4 0.403624 0.145912 0.61305
898 2 0.386257 0.125647 0.634285
900 4 0.396438 0.127767 0.611547
886 2 0.405995 0.158952 0.591849
899 4 0.376077 0.123527 0.657024
796 2 0.15299 0.235264 0.659552
798 4 0.163146 0.2365 0.636737
1277 4 0.174519 0.24511 0.621916
1276 2 0.174292 0.239451 0.597562
1271 4 0.0179173 0.272638 0.60044
1154 4 0.021854 0.260561 0.615778
1153 2 0.00335317 0.25814 0.632423
1166 4 0.140367 0.283107 0.636359
895 2 0.10441 0.328059 0.607375
1165 2 0.163979 0.288253 0.629942
1167 4 0.187591 0.293398 0.623526
918 4 0.204998 0.288563 0.613455
916 2 0.219793 0.269884 0.605881
804 4 0.287762 0.289114 0.608273
802 2 0.278126 0.295514 0.63044
803 4 0.26849 0.301914 0.652607
904 2 0.478922 0.270962 0.579631
905 4 0.502494 0.263279 0.582871
896 4 0.0979248 0.321002 0.630468
1190 4 0.270515 0.335826 0.585406
1008 4 0.34227 0.355023 0.660644
806 4 0.358956 0.342984 0.658868
805 2 0.374861 0.345654 0.639761
807 4 0.390766 0.348324 0.620654
1028 4 0.409169 0.352058 0.621577
1027 2 0.411592 0.367073 0.601732
1140 4 0.431773 0.397634 0.667248
1029 4 0.414016 0.382089 0.581887
1138 2 0.442977 0.408186 0.647543
3024 4 0.509619 0.346533 0.640901
1160 4 0.2202 0.432752 0.593054
2154 4 0.232228 0.4385 0.608157
2152 2 0.227432 0.459711 0.620496
2153 4 0.222635 0.480922 0.632836
2352 4 0.209402 0.496555 0.635682
1229 4 0.308891 0.438884 0.631498
1228 2 0.32708 0.451664 0.642944
1269 4 0.393275 0.444235 0.591435
1267 2 0.417152 0.437108 0.58937
1230 4 0.345269 0.464444 0.65439
1001 4 0.353239 0.468402 0.635101
1000 2 0.368179 0.486514 0.626503
1268 4 0.441029 0.429981 0.587305
1139 4 0.454182 0.418738 0.627838
2168 4 0.483051 0.484612 0.643383
2306 4 0.486534 0.48308 0.623173
863 4 0.0239178 0.0356849 0.707989
862 2 0.0469086 0.0432767 0.714232
2286 4 0.0887151 0.057701 0.719996
864 4 0.0698993 0.0508686 0.720474
945 4 0.00940365 0.0450024 0.697195
943 2 0.00599612 0.0661458 0.684291
944 4 0.00258859 0.0872893 0.671387
2284 2 0.086666 0.080185 0.709252
939 4 0.140086 0.0206441 0.678649
1892 4 0.144352 0.039499 0.680828
1891 2 0.165441 0.047033 0.691948
1893 4 0.18653 0.0545671 0.703068
2398 2 0.200648 0.0447016 0.743296
2399 4 0.188277 0.0533216 0.723351
2320 2 0.331023 0.019786 0.724976
45 3 0.357144 0.0463819 0.665351
4227 4 0.406087 0.0573974 0.688951
44 3 0.38933 0.0394648 0.683622
1193 4 0.386478 0.0652995 0.680982
41 1 0.367927 0.0317461 0.679068
2321 4 0.34976 0.0352113 0.718964
980 4 0.371002 0.0276911 0.716077
43 3 0.356049 0.0292042 0.698838
979 2 0.384329 0.0276091 0.737232
42 3 0.369458 0.0113037 0.668632
34 3 0.0726813 0.0935755 0.68491
2285 4 0.0846169 0.102669 0.698507
1050 4 0.263235 0.0897079 0.677027
1048 2 0.262616 0.0966743 0.701032
1049 4 0.261996 0.103641 0.725038
1022 4 0.254979 0.123222 0.721374
1021 2 0.258533 0.129282 0.745371
1192 2 0.377814 0.0882667 0.676226
1194 4 0.36915 0.111234 0.671471
3114 4 0.507437 0.160494 0.715889
797 4 0.142833 0.234028 0.682366
695 4 0.142116 0.244058 0.699653
1283 4 0.283208 0.184475 0.674955
1004 4 0.285792 0.195196 0.690987
1003 2 0.306683 0.191451 0.704205
1005 4 0.327574 0.187706 0.717423
831 4 0.332007 0.191576 0.736102
829 2 0.356034 0.194415 0.729793
978 4 0.390095 0.211637 0.734058
830 4 0.380061 0.197253 0.723483
694 2 0.149301 0.267648 0.703786
1259 4 0.148706 0.307644 0.717673
696 4 0.156485 0.291238 0.707919
1258 2 0.127014 0.320059 0.716949
1137 4 0.222711 0.321657 0.701096
1135 2 0.238973 0.311713 0.684914
946 2 0.194569 0.332135 0.728033
1136 4 0.255235 0.30177 0.668732
954 4 0.486446 0.275393 0.683311
952 2 0.493337 0.265675 0.705294
789 4 0.473947 0.322808 0.737712
787 2 0.493648 0.33805 0.735537
953 4 0.500228 0.255956 0.727276
1208 4 0.0863773 0.336395 0.711715
1209 4 0.0821732 0.383195 0.694605
992 4 0.0903185 0.400884 0.699411
1260 4 0.105323 0.332474 0.716224
1207 2 0.0842753 0.359795 0.70316
948 4 0.204934 0.33052 0.705337
1176 4 0.255015 0.386581 0.719375
1174 2 0.250485 0.410498 0.725086
1068 4 0.253529 0.368254 0.710171
1006 2 0.320454 0.354244 0.672837
1007 4 0.298639 0.353466 0.68503
1067 4 0.29469 0.341145 0.701713
1066 2 0.274109 0.354699 0.705942
1206 4 0.421263 0.388584 0.681027
1204 2 0.418368 0.378116 0.703549
1205 4 0.415473 0.367649 0.72607
1019 4 0.421679 0.354814 0.737961
1018 2 0.438562 0.336965 0.742606
3432 4 0.14803 0.480079 0.67468
2016 4 0.158304 0.464783 0.683952
2014 2 0.144833 0.44868 0.697533
991 2 0.107898 0.411766 0.713473
2015 4 0.131363 0.432577 0.711113
993 4 0.125477 0.422648 0.727535
1234 2 0.24123 0.467427 0.731907
1175 4 0.245955 0.434416 0.730797
1236 4 0.240018 0.487298 0.747034
1235 4 0.242442 0.447555 0.716779
3183 4 0.476993 0.3999 0.748388
2277 4 0.0305115 0.012917 0.816414
911 4 0.0386189 0.996092 0.816989
2275 2 0.0261168 0.0296646 0.834453
1195 2 0.155665 0.0112303 0.827945
1197 4 0.13176 0.00391096 0.82753
1196 4 0.17957 0.0185496 0.828361
2400 4 0.213018 0.0360816 0.763242
1895 4 0.1914 0.0294807 0.840719
2048 4 0.244437 0.0536034 0.809642
1896 4 0.235561 0.0380917 0.818893
1894 2 0.213481 0.0337862 0.829806
1149 4 0.226093 0.0218353 0.770401
1147 2 0.227977 0.000525674 0.783344
2047 2 0.254985 0.0720969 0.822754
981 4 0.397656 0.0275271 0.758387
1111 2 0.411267 0.0313183 0.783581
1112 4 0.401337 0.0123921 0.770606
3253 2 0.469259 0.00118671 0.820856
1113 4 0.421198 0.0502445 0.796556
3255 4 0.466816 0.0229994 0.832832
3037 2 0.00309568 0.12692 0.796923
3038 4 0.0252186 0.137323 0.802171