ITEM: TIMESTEP
340000
ITEM: NUMBER OF ATOMS
4590
ITEM: BOX BOUNDS pp pp pp
-9.9985700000000008e+00 9.9985700000000008e+00
-9.9985700000000008e+00 9.9985700000000008e+00
-9.9985700000000008e+00 9.9985700000000008e+00
ITEM: ATOMS id type xs ys zs
1668 4 0.0573053 0.0190109 0.0454835
1666 2 0.0664989 0.0209132 0.0686575
465 4 0.0404883 0.0575566 0.0306998
463 2 0.0548418 0.0585854 0.0102524
3234 4 0.023626 0.0688137 0.0281934
533 4 0.13931 0.00784154 0.00619058
702 4 0.101356 0.0672637 0.081083
700 2 0.119556 0.0836714 0.0761107
492 4 0.269369 0.0412291 0.0203949
486 4 0.303283 0.0165453 0.0647033
484 2 0.318835 0.0197616 0.0453908
485 4 0.334387 0.0229778 0.0260782
1608 4 0.353291 0.0165921 0.0333105
297 4 0.432542 0.0320726 0.0580083
745 2 0.438374 0.0688241 0.0377391
746 4 0.431344 0.0519416 0.0547903
747 4 0.445404 0.0857066 0.0206879
589 2 0.0545069 0.140487 0.0157314
590 4 0.0425621 0.118589 0.0140061
3232 2 0.0104874 0.0889843 0.021433
591 4 0.0664517 0.162385 0.0174568
701 4 0.137756 0.100079 0.0711384
421 2 0.185185 0.156486 0.0507661
422 4 0.192005 0.132724 0.0545137
565 2 0.224891 0.110993 0.0551716
567 4 0.200241 0.114365 0.057653
566 4 0.249542 0.107621 0.0526902
359 4 0.256486 0.0944509 0.0672936
358 2 0.28024 0.102249 0.0669045
360 4 0.303993 0.110047 0.0665154
462 4 0.302212 0.125573 0.0796638
460 2 0.319875 0.139387 0.0686015
558 4 0.34838 0.161703 0.0431955
461 4 0.337538 0.153202 0.0575392
836 4 0.0750495 0.19732 0.9993
1132 2 0.153602 0.201295 0.0166344
1133 4 0.138381 0.214135 0.00151361
423 4 0.178366 0.180248 0.0470184
1134 4 0.168823 0.188456 0.0317552
352 2 0.235153 0.215559 0.062594
354 4 0.217252 0.212775 0.0798273
353 4 0.253054 0.218342 0.0453607
571 2 0.302441 0.247473 0.0344108
573 4 0.296151 0.236621 0.0127812
254 4 0.407166 0.161842 0.0611336
255 4 0.411433 0.172336 0.0124264
253 2 0.4093 0.167089 0.03678
556 2 0.342311 0.182658 0.0309788
557 4 0.336243 0.203613 0.0187621
665 4 0.350687 0.21677 0.0138781
769 2 0.477802 0.218192 0.0558121
1013 4 0.48593 0.234003 0.0175994
770 4 0.467694 0.214404 0.0783655
771 4 0.48791 0.22198 0.0332587
293 4 0.0992461 0.29419 0.0256401
292 2 0.0948621 0.306688 0.00443249
506 4 0.154443 0.330821 0.0318689
481 2 0.241419 0.305081 0.0268599
482 4 0.241024 0.280112 0.0281226
483 4 0.241813 0.330049 0.0255972
572 4 0.308731 0.258326 0.0560404
756 4 0.291236 0.261569 0.065481
754 2 0.299748 0.279565 0.08061
740 4 0.365537 0.318913 0.0877704
620 4 0.0172111 0.373987 0.0541611
619 2 0.00210589 0.356869 0.0643584
454 2 0.110109 0.39004 0.0253574
455 4 0.118804 0.393407 0.0485575
456 4 0.101414 0.386674 0.00215732
507 4 0.1876 0.345675 0.0662307
505 2 0.171021 0.338248 0.0490498
287 4 0.227451 0.334823 0.0131578
286 2 0.206861 0.34193 0.000880123
250 2 0.273314 0.415958 0.0396623
251 4 0.281087 0.392691 0.0444996
956 4 0.321217 0.340965 0.0135572
955 2 0.322496 0.361093 0.028336
957 4 0.323776 0.381221 0.0431149
609 4 0.35929 0.416699 0.074717
228 4 0.483312 0.39471 0.0497944
226 2 0.476058 0.418566 0.0479438
241 2 0.196179 0.49012 0.0141024
242 4 0.189037 0.472938 0.0308035
246 4 0.255588 0.454246 0.0247009
252 4 0.265542 0.439225 0.0348249
244 2 0.251248 0.471845 0.00747843
272 4 0.302915 0.476973 0.0100764
525 4 0.313544 0.490302 0.0217968
608 4 0.34571 0.422891 0.0269891
607 2 0.3525 0.419795 0.0508531
562 2 0.476375 0.47332 0.0397056
227 4 0.468804 0.442423 0.0460932
563 4 0.47026 0.457608 0.0581697
564 4 0.48249 0.489032 0.0212415
1667 4 0.0756925 0.0228154 0.0918316
1806 4 0.093625 0.0320202 0.0972427
1805 4 0.139237 0.0315679 0.117738
449 4 0.156253 0.0405314 0.113449
1804 2 0.116431 0.0317941 0.10749
448 2 0.175061 0.0249057 0.11867
450 4 0.19387 0.00928005 0.123891
1475 4 0.247637 0.0396102 0.162902
653 4 0.301992 0.0134555 0.0843148
652 2 0.307578 0.00315681 0.106404
1476 4 0.276266 0.016879 0.128779
1474 2 0.261951 0.0282446 0.14584
2723 4 0.486921 0.0538859 0.143939
295 2 0.432252 0.0283682 0.0827342
296 4 0.431962 0.0246637 0.10746
237 4 0.144006 0.100649 0.157555
235 2 0.163244 0.110662 0.169998
582 4 0.231197 0.121982 0.157915
628 2 0.411641 0.125267 0.153402
629 4 0.420221 0.118404 0.130942
380 4 0.0179054 0.178926 0.153764
363 4 0.0670159 0.241999 0.142569
361 2 0.0837524 0.228573 0.155407
477 4 0.148818 0.216562 0.0933895
337 2 0.118184 0.239379 0.107298
338 4 0.140848 0.233035 0.0988557
475 2 0.173431 0.214052 0.0897748
476 4 0.198045 0.211543 0.0861602
738 4 0.205386 0.164934 0.124717
736 2 0.213756 0.180407 0.106948
737 4 0.222127 0.195879 0.08918
278 4 0.202221 0.23605 0.160014
518 4 0.460383 0.200897 0.0936687
517 2 0.461173 0.208959 0.117324
519 4 0.461963 0.217021 0.140979
339 4 0.0955202 0.245724 0.115741
536 4 0.166807 0.314984 0.135847
535 2 0.157852 0.327907 0.155289
755 4 0.308259 0.297561 0.095739
322 2 0.416403 0.275791 0.117499
324 4 0.412231 0.253898 0.128834
323 4 0.420576 0.297684 0.106164
672 4 0.434819 0.311328 0.104042
670 2 0.445227 0.331755 0.0940632
627 4 0.178586 0.397541 0.0875213
739 2 0.37528 0.338342 0.100131
12 3 0.401631 0.355269 0.161569
741 4 0.385022 0.357771 0.112491
387 4 0.378457 0.380386 0.112004
385 2 0.376719 0.401243 0.0983236
14 3 0.391858 0.372056 0.129393
11 1 0.387891 0.371184 0.152238
15 3 0.36617 0.365565 0.156144
13 3 0.392606 0.391753 0.161887
645 4 0.399463 0.410541 0.165869
671 4 0.455636 0.352182 0.0840842
2651 4 0.491574 0.345508 0.116729
315 4 0.0163248 0.490152 0.131293
626 4 0.173133 0.438043 0.116341
625 2 0.17586 0.417792 0.101931
639 4 0.223314 0.503531 0.165961
386 4 0.374981 0.4221 0.0846436
660 4 0.401777 0.474419 0.132511
1574 4 0.415856 0.487577 0.136272
494 4 0.496134 0.435376 0.102131
658 2 0.418604 0.456726 0.127124
495 4 0.454808 0.437605 0.130201
493 2 0.475471 0.43649 0.116166
659 4 0.435431 0.439034 0.121737
1421 4 0.0178789 0.995006 0.177034
2480 4 0.0743426 0.0505534 0.223624
1422 4 0.0488008 0.0311137 0.19255
2479 2 0.0723076 0.072645 0.212091
1420 2 0.0333399 0.0130597 0.184792
1402 2 0.0460647 0.0148124 0.239638
674 4 0.0770748 0.0307662 0.214335
1539 4 0.129671 0.00285519 0.187494
673 2 0.0992738 0.0248847 0.204446
675 4 0.121473 0.0190031 0.194557
1505 4 0.243203 0.0282792 0.179292
1504 2 0.222352 0.0258219 0.19287
1506 4 0.201501 0.0233646 0.206448
693 4 0.229583 0.0770616 0.230111
691 2 0.250937 0.0821235 0.242093
25 3 0.362789 0.0696585 0.226538
759 4 0.377295 0.0740452 0.213065
21 1 0.354495 0.0770607 0.246414
379 2 0.0171416 0.160944 0.171121
20 3 0.0504601 0.106914 0.167757
381 4 0.0163778 0.142963 0.188477
17 3 0.0345939 0.134685 0.186989
2481 4 0.0702726 0.0947366 0.200559
19 3 0.0550937 0.108888 0.20507
16 1 0.0530575 0.121055 0.185418
18 3 0.0718815 0.134256 0.182288
578 4 0.0897384 0.131448 0.19305
577 2 0.114559 0.131434 0.190028
579 4 0.139379 0.131419 0.187006
236 4 0.182482 0.120675 0.18244
723 4 0.212614 0.0846955 0.223025
721 2 0.201788 0.104281 0.211872
722 4 0.190963 0.123867 0.200719
580 2 0.249574 0.135484 0.168168
581 4 0.267952 0.148987 0.178422
27 3 0.305988 0.107601 0.232833
630 4 0.40306 0.13213 0.175862
757 2 0.399322 0.085744 0.214831
758 4 0.421349 0.0974428 0.216597
312 4 0.421444 0.133778 0.184281
310 2 0.420302 0.15304 0.200182
511 2 0.0401141 0.183876 0.236764
513 4 0.0443722 0.192962 0.213862
393 4 0.0602275 0.181202 0.21149
395 4 0.0654837 0.235208 0.224785
391 2 0.0756081 0.190099 0.193898
394 2 0.051258 0.243086 0.205791
396 4 0.0370324 0.250964 0.186798
362 4 0.100489 0.215148 0.168245
392 4 0.0909887 0.198996 0.176307
277 2 0.225807 0.231495 0.166952
279 4 0.249393 0.226941 0.17389
285 4 0.257711 0.163148 0.184236
284 4 0.262516 0.21228 0.176255
283 2 0.260114 0.187714 0.180245
764 4 0.407663 0.226797 0.210664
763 2 0.408426 0.2131 0.231568
623 4 0.391269 0.236034 0.205773
765 4 0.40919 0.199402 0.252472
522 4 0.474996 0.178784 0.249785
311 4 0.41916 0.172302 0.216083
370 2 0.171872 0.254049 0.235658
371 4 0.169973 0.255791 0.210788
612 4 0.291341 0.309358 0.228545
610 2 0.294769 0.319861 0.206115
308 4 0.288638 0.292711 0.241495
611 4 0.298198 0.330365 0.183685
622 2 0.384387 0.257521 0.194997
624 4 0.377506 0.279008 0.184222
526 2 0.461461 0.277376 0.196693
528 4 0.441996 0.261794 0.194834
527 4 0.480927 0.292959 0.198552
2538 4 0.490246 0.309535 0.202798
2536 2 0.486604 0.333311 0.209627
646 2 0.00895732 0.350167 0.18725
647 4 0.0201066 0.370383 0.196852
262 2 0.0615579 0.409517 0.199011
263 4 0.0833276 0.407229 0.211095
365 4 0.0253688 0.375762 0.214255
364 2 0.0363796 0.375369 0.2367
264 4 0.0397882 0.411805 0.186927
300 4 0.109983 0.339159 0.231989
537 4 0.148898 0.34083 0.174731
298 2 0.12239 0.33966 0.210287
299 4 0.134798 0.340161 0.188585
290 4 0.227878 0.395994 0.200692
302 4 0.34232 0.40333 0.210234
2537 4 0.482962 0.357087 0.216456
446 4 0.452282 0.378043 0.236096
415 2 0.191948 0.476549 0.223667
417 4 0.198715 0.456523 0.210312
291 4 0.205344 0.437872 0.216158
289 2 0.216611 0.416933 0.208425
416 4 0.185182 0.496575 0.237022
766 2 0.316482 0.483468 0.215933
768 4 0.297414 0.49585 0.205528
767 4 0.335551 0.471087 0.226339
303 4 0.333186 0.451167 0.221585
301 2 0.337753 0.427249 0.21591
230 4 0.365626 0.470878 0.241036
714 4 0.416329 0.4979 0.223115
643 2 0.419565 0.424238 0.171655
644 4 0.439668 0.437935 0.17744
597 4 0.457815 0.448784 0.177738
595 2 0.480652 0.44133 0.184672
712 2 0.433878 0.489207 0.207571
713 4 0.451428 0.480514 0.192027
1404 4 0.0516809 0.036724 0.250293
234 4 0.0612456 0.042602 0.268064
232 2 0.0604661 0.0538639 0.290374
233 4 0.0596866 0.0651258 0.312684
731 4 0.157273 0.0690656 0.285973
730 2 0.148092 0.0512126 0.300878
732 4 0.138911 0.0333597 0.315783
429 4 0.150503 0.0267182 0.330248
688 2 0.173938 0.00545915 0.265774
689 4 0.190314 0.0227525 0.273386
24 3 0.331547 0.0737067 0.247159
692 4 0.272291 0.0871853 0.254075
23 3 0.364718 0.0658068 0.263943
742 2 0.398319 0.0697334 0.279552
744 4 0.377462 0.0802877 0.270678
699 4 0.389929 0.0122348 0.325859
1749 4 0.496294 0.0194872 0.32377
1747 2 0.480607 0.00713454 0.308719
743 4 0.419176 0.059179 0.288426
333 4 0.436215 0.0502861 0.294866
331 2 0.457011 0.0586444 0.305949
332 4 0.477808 0.0670027 0.317032
351 4 0.493778 0.0763995 0.32546
318 4 0.0661341 0.0831916 0.316318
529 2 0.0401796 0.140379 0.274644
531 4 0.0259841 0.15856 0.264994
530 4 0.054375 0.122199 0.284295
398 4 0.066686 0.130296 0.297309
316 2 0.0451563 0.0928007 0.32595
397 2 0.0836299 0.138285 0.313869
247 2 0.227016 0.114506 0.298666
249 4 0.212191 0.134633 0.29923
248 4 0.241841 0.0943793 0.298102
405 4 0.213529 0.149237 0.286836
26 1 0.297801 0.110992 0.254061
29 3 0.274998 0.106698 0.25408
28 3 0.301717 0.133029 0.260179
30 3 0.30837 0.0969195 0.268514
22 3 0.358793 0.0995614 0.24851
632 4 0.369675 0.0987485 0.266157
631 2 0.374641 0.123003 0.269655
633 4 0.379607 0.147257 0.273153
761 4 0.491267 0.114545 0.286875
760 2 0.470283 0.126836 0.292685
762 4 0.449299 0.139128 0.298495
512 4 0.0358561 0.17479 0.259665
545 4 0.153551 0.167119 0.268164
372 4 0.17377 0.252307 0.260529
600 4 0.170422 0.207654 0.301683
544 2 0.1692 0.183085 0.27936
546 4 0.18485 0.199051 0.290557
403 2 0.229375 0.166424 0.277963
404 4 0.24522 0.18361 0.26909
598 2 0.182889 0.213591 0.322528
707 4 0.270933 0.234187 0.268225
706 2 0.284146 0.23539 0.289417
708 4 0.29736 0.236592 0.31061
377 4 0.30854 0.226656 0.325033
614 4 0.362025 0.233081 0.311975
520 2 0.451202 0.185514 0.253489
521 4 0.427408 0.192244 0.257194
443 4 0.0119482 0.254005 0.29276
444 4 0.0547506 0.267298 0.314941
442 2 0.0333494 0.260651 0.303851
750 4 0.0616021 0.320207 0.295082
388 2 0.143676 0.278662 0.307721
678 4 0.167805 0.305232 0.293171
390 4 0.163431 0.285438 0.293973
389 4 0.123921 0.271887 0.32147
617 4 0.105957 0.278916 0.329868
676 2 0.17012 0.329785 0.289049
402 4 0.196857 0.255603 0.310447
400 2 0.200084 0.276023 0.32451
307 2 0.307909 0.297874 0.256566
497 4 0.261788 0.264907 0.329113
309 4 0.32718 0.303037 0.271638
344 4 0.249805 0.320545 0.292778
498 4 0.257765 0.30201 0.295828
496 2 0.259777 0.283459 0.31247
729 4 0.344539 0.312681 0.273539
541 2 0.413205 0.323533 0.28443
542 4 0.401413 0.302446 0.290867
748 2 0.0569181 0.342471 0.28471
749 4 0.0522341 0.364735 0.274338
366 4 0.0473903 0.374976 0.259145
603 4 0.0503005 0.410441 0.299255
343 2 0.231984 0.337728 0.289266
345 4 0.214164 0.354911 0.285755
734 4 0.167108 0.410643 0.270523
677 4 0.172435 0.354337 0.284927
735 4 0.188216 0.366953 0.282625
733 2 0.177662 0.388798 0.276574
727 2 0.340064 0.337092 0.276583
728 4 0.33559 0.361503 0.279627
543 4 0.424998 0.344621 0.277994
120 3 0.492214 0.373784 0.286441
447 4 0.417964 0.360909 0.268181
445 2 0.435123 0.369476 0.252138
119 3 0.479516 0.408831 0.291745
601 2 0.0531078 0.434879 0.294776
602 4 0.0559151 0.459318 0.290297
1757 4 0.0987495 0.494881 0.282117
775 2 0.108707 0.483436 0.319523
776 4 0.0979351 0.497978 0.30227
436 2 0.2787 0.475231 0.328694
437 4 0.299348 0.464235 0.319866
435 4 0.318231 0.456762 0.316758
229 2 0.368984 0.492741 0.252695
1743 4 0.45136 0.483563 0.276897
3990 4 0.495967 0.488422 0.322918
1741 2 0.467911 0.491496 0.293877
1742 4 0.484462 0.499428 0.310857
1780 2 0.135521 0.00739382 0.405524
1782 4 0.139651 0.0149778 0.38206
428 4 0.124755 0.00920759 0.369378
427 2 0.137629 0.0179629 0.349813
604 2 0.191903 0.0852781 0.408115
1816 2 0.264343 0.0183784 0.397987
1817 4 0.254896 0.0412229 0.401737
1518 4 0.37195 0.00748098 0.333834
698 4 0.412296 0.0460776 0.355101
697 2 0.401112 0.0291562 0.34048
258 4 0.415545 0.0654598 0.360212
256 2 0.410013 0.0783461 0.380913
425 4 0.350892 0.0818989 0.397037
317 4 0.0241785 0.10241 0.335582
399 4 0.100574 0.146274 0.33043
606 4 0.173963 0.0975095 0.395716
320 4 0.243872 0.132146 0.415354
473 4 0.252765 0.127222 0.341311
472 2 0.26387 0.148235 0.349079
725 4 0.329875 0.141787 0.374929
684 4 0.337574 0.158231 0.368119
726 4 0.354138 0.102384 0.393888
724 2 0.342006 0.122085 0.384409
257 4 0.404481 0.0912325 0.401613
349 2 0.494122 0.0933985 0.343793
350 4 0.494467 0.110397 0.362126
467 4 0.433496 0.12498 0.421833
2655 4 0.041297 0.20303 0.366167
2653 2 0.0172962 0.209328 0.369244
687 4 0.224682 0.175365 0.375907
685 2 0.217606 0.197297 0.366205
686 4 0.21053 0.219229 0.356504
599 4 0.195355 0.219527 0.343373
274 2 0.21522 0.23551 0.408919
276 4 0.233951 0.25046 0.401789
682 2 0.314184 0.166994 0.366986
683 4 0.290794 0.175758 0.365852
474 4 0.274974 0.169247 0.356847
376 2 0.311271 0.238586 0.346836
378 4 0.314001 0.250516 0.36864
613 2 0.364592 0.242344 0.335057
715 2 0.361123 0.224678 0.393308
716 4 0.362769 0.241386 0.374779
419 4 0.432284 0.210836 0.334232
418 2 0.434958 0.218841 0.357768
420 4 0.437633 0.226846 0.381304
618 4 0.0581556 0.264693 0.333533
616 2 0.0820564 0.271805 0.331701
401 4 0.203311 0.296443 0.338573
510 4 0.213192 0.30131 0.355384
508 2 0.212736 0.325899 0.350872
615 4 0.367159 0.251608 0.358139
559 2 0.4197 0.319278 0.377173
561 4 0.427922 0.297066 0.369161
269 4 0.446652 0.260754 0.390232
268 2 0.459709 0.261587 0.411539
549 4 0.0393722 0.413156 0.372752
407 4 0.110044 0.3604 0.410481
509 4 0.21228 0.350488 0.34636
502 2 0.18448 0.372578 0.363365
503 4 0.19618 0.361853 0.344045
504 4 0.17278 0.383303 0.382685
560 4 0.411477 0.341491 0.385185
336 4 0.349485 0.357487 0.401784
752 4 0.472588 0.405649 0.398187
751 2 0.457422 0.411614 0.379224
547 2 0.052353 0.434097 0.377012
548 4 0.0653338 0.455038 0.381273
501 4 0.0822785 0.455968 0.389227
413 4 0.125449 0.477569 0.353473
412 2 0.147773 0.466559 0.355845
777 4 0.119479 0.468894 0.336776
499 2 0.0982271 0.466268 0.405497
414 4 0.170097 0.45555 0.358217
569 4 0.171479 0.457084 0.378225
568 2 0.188035 0.451202 0.396015
570 4 0.204591 0.445319 0.413805
438 4 0.258051 0.486226 0.337523
433 2 0.335355 0.454434 0.334829
2 3 0.353455 0.496874 0.389778
594 4 0.393266 0.476998 0.404839
3 3 0.381044 0.471351 0.39002
5 3 0.352004 0.467893 0.366306
434 4 0.352478 0.452106 0.3529
4 3 0.346511 0.462443 0.403154
1 1 0.358234 0.474522 0.387184
753 4 0.442256 0.417579 0.360261
720 4 0.0628306 0.0695454 0.450893
718 2 0.0836164 0.074649 0.463819
1781 4 0.13139 0.99981 0.428989
719 4 0.104402 0.0797526 0.476746
368 4 0.118943 0.0800645 0.464718
367 2 0.141494 0.0858928 0.455626
340 2 0.179727 0.0153057 0.47511
341 4 0.193241 0.033289 0.486026
605 4 0.209843 0.0730468 0.420513
1152 4 0.189839 0.053082 0.484725
1150 2 0.209166 0.0683758 0.488937
1151 4 0.228493 0.0836695 0.493149
424 2 0.363 0.078658 0.418672
426 4 0.375109 0.075417 0.440307
2879 4 0.477018 0.073859 0.429454
2880 4 0.47743 0.0273695 0.447873
3488 4 0.469316 0.024908 0.466975
2878 2 0.477224 0.0506142 0.438663
3487 2 0.463586 0.0299547 0.490784
459 4 0.000287829 0.149024 0.484147
470 4 0.0128661 0.163677 0.477572
369 4 0.164045 0.0917212 0.446534
319 2 0.255491 0.13316 0.437471
321 4 0.267109 0.134174 0.459588
466 2 0.414888 0.137825 0.432507
468 4 0.39628 0.15067 0.443181
576 4 0.384611 0.139742 0.457612
574 2 0.376996 0.145562 0.480705
642 4 0.435059 0.0830618 0.476466
640 2 0.447369 0.100257 0.463127
641 4 0.45968 0.117453 0.449788
516 4 0.459124 0.156512 0.488063
469 2 0.0259877 0.184462 0.48215
471 4 0.0391093 0.205248 0.486728
1033 2 0.0927061 0.191418 0.496427
259 2 0.0946293 0.244777 0.458882
261 4 0.089179 0.220739 0.463087
1035 4 0.0865701 0.207824 0.478584
275 4 0.19649 0.220559 0.416049
411 4 0.240387 0.217048 0.452219
409 2 0.262322 0.220098 0.440611
410 4 0.284257 0.223147 0.429003
487 2 0.315471 0.242923 0.428246
489 4 0.302479 0.221839 0.424809
717 4 0.359478 0.20797 0.411837
267 4 0.39946 0.212067 0.476428
265 2 0.394575 0.207871 0.500588
515 4 0.454276 0.206099 0.483771
304 2 0.470921 0.225375 0.454624
514 2 0.4567 0.181306 0.485917
305 4 0.470303 0.208113 0.472703
306 4 0.471538 0.242636 0.436545
2845 2 0.00689276 0.260621 0.447823
983 4 0.00925832 0.254923 0.485722
2847 4 0.0198078 0.260412 0.469232
347 4 0.0945088 0.328406 0.415465
260 4 0.10008 0.268814 0.454678
348 4 0.103029 0.287209 0.442501
346 2 0.098769 0.307807 0.428983
325 2 0.11464 0.333632 0.49503
327 4 0.108412 0.332754 0.47083
373 2 0.21836 0.322086 0.443731
374 4 0.239715 0.309098 0.444402
651 4 0.325595 0.27651 0.44697
649 2 0.316485 0.287727 0.467375
650 4 0.307375 0.298943 0.48778
488 4 0.328463 0.264008 0.431684
270 4 0.472766 0.262419 0.432847
584 4 0.468568 0.277708 0.443914
583 2 0.453439 0.295887 0.452026
585 4 0.438309 0.314065 0.460139
680 4 0.0747322 0.398804 0.440206
406 2 0.101658 0.380998 0.421909
408 4 0.0932724 0.401596 0.433336
375 4 0.197006 0.335074 0.44306
710 4 0.176095 0.395775 0.471799
636 4 0.186219 0.402485 0.456013
709 2 0.181229 0.373144 0.462489
711 4 0.186363 0.350513 0.453179
587 4 0.373315 0.413213 0.428825
334 2 0.356477 0.376549 0.416377
335 4 0.363469 0.39561 0.43097
240 4 0.421412 0.404584 0.500571
238 2 0.425694 0.385591 0.484884
239 4 0.429976 0.366598 0.469196
925 2 0.461612 0.363147 0.445907
927 4 0.480046 0.373033 0.432209
926 4 0.443178 0.35326 0.459604
540 4 0.0791279 0.499693 0.466369
679 2 0.0764113 0.421116 0.451365
538 2 0.0756125 0.47681 0.456926
539 4 0.0720972 0.453927 0.447483
681 4 0.0780904 0.443429 0.462524
500 4 0.114176 0.476567 0.421768
1395 4 0.125226 0.487966 0.435181
635 4 0.20489 0.44414 0.435595
634 2 0.195554 0.423313 0.445804
667 2 0.323394 0.476759 0.43742
669 4 0.304601 0.477374 0.453901
592 2 0.406551 0.466908 0.423463
668 4 0.342187 0.476144 0.420939
588 4 0.348008 0.456185 0.425128
586 2 0.360662 0.434699 0.426977
663 4 0.457162 0.448365 0.47741
661 2 0.465184 0.469157 0.488747
593 4 0.419837 0.456818 0.442087
1126 2 0.0445514 0.068791 0.542195
1127 4 0.0419909 0.0492581 0.526798
2237 4 0.0459143 0.0289096 0.528496
2236 2 0.0505876 0.00951134 0.513428
1059 4 0.13809 0.0262254 0.544974
1057 2 0.135837 0.00825819 0.562216
962 4 0.222225 0.0205492 0.5188
2430 4 0.20637 0.0186802 0.53011
2428 2 0.183288 0.0112213 0.536174
961 2 0.246473 0.0241045 0.523756
1181 4 0.243577 0.0731429 0.500185
963 4 0.270721 0.0276599 0.528712
430 2 0.301456 0.0536703 0.51653
432 4 0.278456 0.0452863 0.521618
431 4 0.324456 0.0620544 0.511442
841 2 0.366547 0.053214 0.514043
842 4 0.390919 0.054202 0.519542
1216 2 0.406213 0.0247465 0.53891
1217 4 0.40429 0.0487019 0.532009
843 4 0.342176 0.052226 0.508544
1218 4 0.408136 0.000791143 0.54581
3489 4 0.457855 0.0350014 0.514593
1128 4 0.0471118 0.0883239 0.557593
3078 4 0.0181656 0.0788259 0.566253
939 4 0.0605417 0.103397 0.555937
937 2 0.077445 0.121562 0.559018
938 4 0.0943483 0.139727 0.562099
1154 4 0.134156 0.153253 0.570559
1153 2 0.134636 0.129182 0.577305
1180 2 0.255342 0.094036 0.507275
1182 4 0.267106 0.114929 0.514364
1030 2 0.285139 0.125901 0.54014
1032 4 0.285438 0.108065 0.522619
1031 4 0.28484 0.143737 0.55766
887 4 0.273214 0.137662 0.574436
575 4 0.369381 0.151382 0.503799
877 2 0.0406898 0.190993 0.568621
878 4 0.0177171 0.186315 0.577313
879 4 0.0636625 0.195672 0.559929
1200 4 0.998854 0.236536 0.544064
1272 4 0.0747438 0.183256 0.571136
1270 2 0.0994583 0.181419 0.56782
1271 4 0.124173 0.179582 0.564503
1034 4 0.098842 0.175012 0.51427
1220 4 0.185964 0.179121 0.564983
1219 2 0.170287 0.174861 0.583989
858 4 0.203608 0.187024 0.563704
856 2 0.196502 0.19737 0.542079
857 4 0.189397 0.207717 0.520454
266 4 0.389691 0.203674 0.524748
899 4 0.363508 0.173209 0.579212
695 4 0.0785998 0.272487 0.554606
696 4 0.124466 0.291725 0.559793
694 2 0.101533 0.282106 0.5572
1259 4 0.139685 0.305776 0.567512
6 1 0.149308 0.303833 0.526693
9 3 0.14256 0.2943 0.546742
7 3 0.136517 0.322524 0.522669
1258 2 0.135382 0.326395 0.580984
10 3 0.146443 0.288977 0.509672
8 3 0.171597 0.310142 0.528027
792 4 0.243602 0.298727 0.550407
811 2 0.292807 0.276019 0.52287
812 4 0.283043 0.265458 0.543323
813 4 0.302571 0.286581 0.502417
790 2 0.247242 0.294919 0.57485
873 4 0.385384 0.280998 0.539222
871 2 0.402329 0.294164 0.526388
930 4 0.330339 0.331265 0.571197
872 4 0.419273 0.307331 0.513555
905 4 0.471492 0.268136 0.557256
1010 4 0.490465 0.264486 0.55228
904 2 0.452272 0.273626 0.572276
326 4 0.120868 0.334511 0.51923
803 4 0.235293 0.365349 0.579067
929 4 0.328083 0.373554 0.544604
928 2 0.329211 0.35241 0.557901
774 4 0.333216 0.387862 0.558523
772 2 0.342271 0.402581 0.540453
1938 4 0.0391361 0.452388 0.540378
1936 2 0.0510678 0.471409 0.551378
935 4 0.0266082 0.44434 0.527149
1937 4 0.0629996 0.490431 0.562378
934 2 0.00333955 0.453475 0.52769
1159 2 0.131163 0.449381 0.564671
1160 4 0.112551 0.4465 0.548225
384 4 0.132962 0.503549 0.507085
896 4 0.166477 0.460503 0.587179
1172 4 0.236586 0.421884 0.563276
897 4 0.209408 0.437979 0.574919
895 2 0.187943 0.449241 0.581049
1171 2 0.258754 0.43312 0.566016
1173 4 0.280922 0.444356 0.568755
773 4 0.351326 0.4173 0.522382
662 4 0.473205 0.489949 0.500083
1332 4 0.458982 0.489322 0.514965
945 4 0.12196 0.0289386 0.643388
2318 4 0.11853 0.00829217 0.638129
943 2 0.114201 0.0458068 0.660134
824 4 0.2386 0.0376723 0.628947
823 2 0.219389 0.0283152 0.64193
825 4 0.200179 0.0189581 0.654913
951 4 0.250174 0.0236811 0.634288
950 4 0.298432 0.0361523 0.638325
949 2 0.274303 0.0299167 0.636306
1283 4 0.259266 0.082489 0.624588
4467 4 0.44153 0.999872 0.589188
808 2 0.47882 0.0540652 0.639914
809 4 0.47241 0.0481605 0.663349
4466 4 0.475857 0.0359027 0.594102
4465 2 0.458694 0.0178873 0.591645
810 4 0.48523 0.0599699 0.616478
44 3 0.425709 0.0428274 0.669205
1081 2 0.0182756 0.146715 0.669708
1082 4 0.998898 0.137484 0.656883
1155 4 0.135117 0.105111 0.584052
909 4 0.186652 0.145761 0.630248
1282 2 0.236037 0.0864055 0.63297
1284 4 0.212808 0.0903219 0.641352
908 4 0.218123 0.10883 0.642347
907 2 0.202388 0.127295 0.636298
900 4 0.329266 0.137789 0.587792
886 2 0.280509 0.157244 0.588164
898 2 0.346387 0.155499 0.583502
3179 4 0.999412 0.220594 0.606885
1221 4 0.15461 0.170601 0.602996
888 4 0.287805 0.176827 0.601893
1194 4 0.370801 0.190331 0.587649
1192 2 0.378796 0.209227 0.60194
1193 4 0.386791 0.228122 0.61623
1243 2 0.0509366 0.31107 0.625501
1245 4 0.0544684 0.312241 0.650226
1244 4 0.0474048 0.309898 0.600776
1209 4 0.0627091 0.327531 0.660828
947 4 0.166768 0.254413 0.634805
946 2 0.154437 0.272303 0.647177
948 4 0.142105 0.290193 0.659549
798 4 0.194362 0.287236 0.653359
1189 2 0.196873 0.31828 0.627937
1190 4 0.185534 0.299489 0.639916
804 4 0.214235 0.325404 0.600551
1238 4 0.317137 0.325812 0.585024
791 4 0.250882 0.291112 0.599292
906 4 0.433051 0.279115 0.587296
954 4 0.458686 0.297856 0.646877
952 2 0.450497 0.287789 0.625505
953 4 0.442308 0.277721 0.604133
3122 4 0.469574 0.30958 0.659432
1260 4 0.13108 0.347015 0.594457
802 2 0.224764 0.345376 0.589809
1191 4 0.208212 0.337071 0.615958
1136 4 0.186376 0.357241 0.636103
1135 2 0.172193 0.368564 0.653303
1237 2 0.313091 0.335482 0.607724
1239 4 0.309045 0.345152 0.630424
1027 2 0.319095 0.358361 0.658552
1029 4 0.323489 0.358663 0.633939
1039 2 0.0687214 0.458788 0.600859
1040 4 0.0567752 0.443573 0.585018
3239 4 0.00259712 0.444514 0.66164
1161 4 0.149775 0.452262 0.581117
1041 4 0.0806677 0.474004 0.616701
2171 4 0.0949299 0.458882 0.659724
992 4 0.0974572 0.439921 0.651074
2170 2 0.0976253 0.482097 0.650837
991 2 0.11542 0.431228 0.666138
891 4 0.296424 0.444576 0.583289
889 2 0.305908 0.458358 0.60187
890 4 0.315393 0.47214 0.620452
1002 4 0.379183 0.469409 0.586684
1953 4 0.361539 0.476569 0.593664
1000 2 0.393868 0.451438 0.595986
1951 2 0.353757 0.495986 0.607361
1001 4 0.408554 0.433466 0.605288
1267 2 0.459995 0.454378 0.649112
1269 4 0.479985 0.468539 0.644109
1268 4 0.440005 0.440217 0.654114
863 4 0.100151 0.0625086 0.695226
862 2 0.0949302 0.0644978 0.719597
944 4 0.106441 0.0626749 0.67688
864 4 0.0897098 0.0664871 0.743969
2399 4 0.327622 0.0120358 0.715419
2398 2 0.305398 0.000838401 0.717843
1149 4 0.273075 0.998533 0.734055
1049 4 0.339535 0.00425415 0.730468
1050 4 0.38921 0.00943008 0.727964
1048 2 0.364372 0.00684212 0.729216
1163 4 0.484547 0.0466843 0.678259
2321 4 0.447674 0.0253224 0.711432
43 3 0.429177 0.0746468 0.689696
42 3 0.458948 0.0601639 0.671903
41 1 0.439631 0.0549579 0.683256
45 3 0.444841 0.0425556 0.701632
2320 2 0.453446 0.00672852 0.727121
1113 4 0.43157 0.082235 0.738499
832 2 0.99874 0.140607 0.739646
2990 4 0.00526863 0.0923024 0.683913
1083 4 0.0376533 0.155947 0.682533
852 4 0.0504682 0.14981 0.696562
850 2 0.0721676 0.139018 0.690411
851 4 0.0938671 0.128226 0.684259
1225 2 0.232036 0.158186 0.731464
1226 4 0.218029 0.142147 0.74457
1004 4 0.318777 0.0867148 0.666408
1003 2 0.31311 0.105761 0.681583
1005 4 0.307442 0.124807 0.696759
831 4 0.301911 0.141844 0.689714
829 2 0.307968 0.1661 0.690092
1141 2 0.396068 0.0854465 0.740615
1143 4 0.373527 0.076155 0.735069
1142 4 0.418608 0.0947381 0.746161
1278 4 0.162944 0.201674 0.719768
1107 4 0.11166 0.212322 0.744336
1214 4 0.0963211 0.223689 0.751532
1227 4 0.246042 0.174224 0.718358
1211 4 0.217064 0.193617 0.702309
1276 2 0.186926 0.194603 0.719925
1277 4 0.210908 0.187532 0.720081
1210 2 0.237951 0.192559 0.688604
1212 4 0.258837 0.191501 0.674899
830 4 0.314025 0.190356 0.69047
976 2 0.29885 0.221389 0.70928
977 4 0.29202 0.233814 0.729875
978 4 0.305679 0.208965 0.688685
918 4 0.288286 0.24249 0.748176
1167 4 0.371335 0.247296 0.687068
1144 2 0.459702 0.177928 0.73905
1146 4 0.475705 0.174853 0.720086
1263 4 0.503912 0.210538 0.681872
1207 2 0.0713946 0.333674 0.683455
796 2 0.208471 0.273279 0.668569
797 4 0.222579 0.259322 0.683779
1064 4 0.194569 0.316018 0.738385
1165 2 0.359834 0.264658 0.700906
1007 4 0.339196 0.275329 0.73218
1166 4 0.348333 0.282019 0.714744
1206 4 0.397864 0.338669 0.665493
3121 2 0.492421 0.309813 0.669587
3188 4 0.00196458 0.373936 0.730062
1208 4 0.0800801 0.339818 0.706083
821 4 0.125474 0.350196 0.730421
892 2 0.13843 0.412662 0.714671
893 4 0.151401 0.398206 0.730418
941 4 0.145014 0.387552 0.744702
1137 4 0.15801 0.379886 0.670502
1063 2 0.193984 0.340984 0.73963
1065 4 0.1934 0.365949 0.740874
807 4 0.322892 0.341114 0.692131
1028 4 0.3147 0.358059 0.683164
805 2 0.331487 0.348644 0.714371
1204 2 0.401667 0.347565 0.688549
806 4 0.340083 0.356174 0.73661
1205 4 0.40547 0.35646 0.711605
1019 4 0.394179 0.352526 0.728677
993 4 0.133383 0.422534 0.681203
894 4 0.12546 0.427118 0.698924
1067 4 0.189273 0.44415 0.711812
1068 4 0.226425 0.473265 0.728327
1066 2 0.207849 0.458708 0.72007
1176 4 0.235141 0.49092 0.730857
1174 2 0.254388 0.489994 0.714923
1138 2 0.295973 0.453712 0.70143
1140 4 0.276941 0.468984 0.706882
1139 4 0.315005 0.438439 0.695978
1175 4 0.273634 0.489069 0.69899
1229 4 0.330771 0.447781 0.705082
1228 2 0.355049 0.453251 0.707499
1230 4 0.379327 0.458722 0.709915
1101 4 0.394222 0.449962 0.699502
3329 4 0.501437 0.445376 0.726487
1099 2 0.414931 0.444533 0.686585
1100 4 0.43564 0.439104 0.673668
2987 4 0.4885 0.460488 0.730182
1250 4 0.418751 0.492762 0.749126
1295 4 0.0174411 0.0511061 0.830704
1294 2 0.00749667 0.0282321 0.828953
910 2 0.0584142 0.0655563 0.820367
912 4 0.035514 0.0557533 0.822526
911 4 0.0813143 0.0753594 0.818208
1256 4 0.250788 0.0857279 0.792278
1257 4 0.26399 0.0571827 0.753399
1255 2 0.257389 0.0714553 0.772839
1086 4 0.333884 0.0410501 0.83464
974 4 0.345194 0.0275555 0.825986
1084 2 0.340706 0.0637931 0.826804
1111 2 0.448122 0.0671565 0.749627
1112 4 0.464675 0.052078 0.760754
833 4 0.0189825 0.14489 0.753685
1202 4 0.0974853 0.088092 0.816859
1201 2 0.105954 0.111595 0.817895
1203 4 0.114422 0.135098 0.818931
1287 4 0.12851 0.14582 0.827484
33 3 0.113032 0.143684 0.801714
31 1 0.130036 0.159406 0.800269
32 3 0.144161 0.153526 0.783092
34 3 0.142105 0.159864 0.820082
840 4 0.253977 0.0935339 0.809971
838 2 0.275041 0.101831 0.820584
839 4 0.296106 0.110127 0.831197
959 4 0.30084 0.129921 0.831806
1085 4 0.347527 0.0865361 0.818968
819 4 0.360739 0.100952 0.817789
817 2 0.372727 0.121711 0.824897
818 4 0.384716 0.14247 0.832005
3270 4 0.502707 0.158237 0.82812
1213 2 0.0716746 0.220077 0.753696
1215 4 0.0470281 0.216466 0.75586
1105 2 0.122128 0.201707 0.764409
35 3 0.12125 0.179988 0.796045
1106 4 0.132595 0.191093 0.784482
1073 4 0.143822 0.21609 0.806668
1072 2 0.132837 0.212476 0.828836
1129 2 0.222759 0.228549 0.808777
1130 4 0.241323 0.223643 0.792762