ITEM: TIMESTEP
5810000
ITEM: NUMBER OF ATOMS
4590
ITEM: BOX BOUNDS pp pp pp
-9.9985700000000008e+00 9.9985700000000008e+00
-9.9985700000000008e+00 9.9985700000000008e+00
-9.9985700000000008e+00 9.9985700000000008e+00
ITEM: ATOMS id type xs ys zs
380 4 0.0279319 0.0200106 0.0928173
3751 2 0.0618204 0.0772454 0.00201977
1633 2 0.109603 0.0142879 0.0626637
421 2 0.111968 0.0109787 0.00635627
422 4 0.11242 0.995133 0.0256922
1634 4 0.111831 0.0122367 0.0378443
1133 4 0.226251 0.0712379 0.00811954
1132 2 0.205701 0.0846542 0.0129026
567 4 0.299928 0.0718827 0.0376245
565 2 0.29441 0.0657202 0.0612202
2263 2 0.286984 0.012168 0.0185632
566 4 0.288892 0.0595578 0.0848159
2265 4 0.284411 0.0341079 0.00685003
653 4 0.315834 0.0783546 0.0261941
985 2 0.363042 0.0218719 0.0258542
986 4 0.379351 0.0385189 0.0167945
2975 4 0.398316 0.0332868 0.0207719
987 4 0.346733 0.00522499 0.0349138
462 4 0.354941 0.0824911 0.0747919
311 4 0.361995 0.0695614 0.0882298
2974 2 0.416465 0.0357955 0.0377863
2976 4 0.434614 0.0383043 0.0548008
700 2 0.0222443 0.0879687 0.0554105
701 4 0.00325505 0.0822532 0.0706394
3753 4 0.0508779 0.0868122 0.0223647
702 4 0.0412336 0.0936842 0.0401816
835 2 0.145299 0.116171 0.0160772
837 4 0.166579 0.103121 0.0175
553 2 0.0939827 0.155186 0.0102469
554 4 0.105896 0.135712 0.0204466
836 4 0.124019 0.129222 0.0146544
1134 4 0.185151 0.0980706 0.0176857
652 2 0.314065 0.101346 0.0165265
491 4 0.292597 0.136462 0.0106008
490 2 0.284117 0.159926 0.0122378
460 2 0.366773 0.0895158 0.0539149
1086 4 0.379037 0.114521 0.02452
461 4 0.378604 0.0965405 0.0330379
2522 4 0.00966348 0.235132 0.0228306
339 4 0.0268188 0.225382 0.0213029
492 4 0.275638 0.183391 0.0138748
360 4 0.263021 0.234389 0.021759
358 2 0.272835 0.211886 0.0265006
359 4 0.282649 0.189383 0.0312422
354 4 0.264675 0.251082 0.0332213
322 2 0.366191 0.195191 0.0620026
323 4 0.348378 0.190345 0.0788671
324 4 0.384003 0.200037 0.0451381
519 4 0.399864 0.210845 0.0412104
517 2 0.422903 0.201867 0.037502
769 2 0.460222 0.172227 0.00781695
518 4 0.445943 0.19289 0.0337937
770 4 0.444392 0.175049 0.0269646
2625 4 0.0766055 0.26814 0.0689196
2623 2 0.0535132 0.269605 0.0783947
294 4 0.0382159 0.285627 0.0266279
292 2 0.0592788 0.29539 0.0173425
293 4 0.0803417 0.305153 0.00805714
2624 4 0.030421 0.271071 0.0878697
620 4 0.0258023 0.293831 0.0131458
456 4 0.160462 0.308046 0.075874
1169 4 0.0917702 0.31758 0.0204038
482 4 0.158337 0.3129 0.0569353
353 4 0.25104 0.293481 0.0559621
483 4 0.183853 0.288168 0.0217511
481 2 0.171095 0.300534 0.0393432
287 4 0.193826 0.274856 0.0103762
352 2 0.257857 0.272281 0.0445917
355 2 0.369405 0.340409 0.0440135
356 4 0.368992 0.329826 0.0213636
1070 4 0.453437 0.267081 0.988499
625 2 0.131871 0.384085 0.00678196
626 4 0.108596 0.379532 0.0146989
1168 2 0.103712 0.339546 0.0201288
1170 4 0.115653 0.361512 0.0198539
345 4 0.212764 0.387073 0.0399495
343 2 0.235993 0.379166 0.0447543
1288 2 0.189071 0.40233 0.0242339
1289 4 0.207367 0.406028 0.0408699
252 4 0.220257 0.412929 0.0558731
1290 4 0.170775 0.398633 0.00759785
498 4 0.277346 0.380019 0.0520285
344 4 0.259222 0.371259 0.0495591
496 2 0.293862 0.39872 0.0536714
497 4 0.310378 0.41742 0.0553144
957 4 0.307668 0.421919 0.0360361
357 4 0.369818 0.350991 0.0666633
1304 4 0.388007 0.33341 0.0201167
1674 4 0.389496 0.391755 0.0837726
1672 2 0.400887 0.406916 0.0674771
608 4 0.401958 0.378353 0.0909664
543 4 0.488751 0.386368 0.0559386
552 4 0.0119766 0.491751 0.0331961
1955 4 0.0305539 0.48972 0.0270241
3450 4 0.00679759 0.428406 0.00683497
1222 2 0.146374 0.476222 0.005343
1224 4 0.143221 0.455171 0.992225
1223 4 0.149527 0.497273 0.0184608
250 2 0.220918 0.437841 0.0538455
251 4 0.221578 0.462754 0.0518179
793 2 0.238386 0.496557 0.0491701
795 4 0.22637 0.477526 0.0382795
955 2 0.302276 0.438841 0.0184368
1673 4 0.412279 0.422078 0.0511816
17 3 0.0498539 0.0787168 0.113783
381 4 0.0481973 0.0591509 0.116441
379 2 0.0380646 0.0395808 0.104629
18 3 0.0773532 0.0856311 0.138453
16 1 0.0543553 0.0851207 0.135413
20 3 0.0449487 0.0701595 0.149777
234 4 0.0266452 0.0692029 0.159668
1635 4 0.107374 0.016339 0.0874832
1605 4 0.120588 0.00287986 0.0931948
463 2 0.0939801 0.05407 0.110766
450 4 0.115638 0.00177399 0.113298
465 4 0.100155 0.0335701 0.0978504
464 4 0.0878057 0.07457 0.123681
448 2 0.0976814 0.00517983 0.130361
1475 4 0.277876 0.0596055 0.101152
1474 2 0.274892 0.0349664 0.104184
1476 4 0.271908 0.0103274 0.107216
310 2 0.383249 0.0620509 0.0990486
312 4 0.404503 0.0545404 0.109867
630 4 0.471582 0.0218543 0.155259
2723 4 0.481996 0.0320776 0.141658
2722 2 0.493223 0.0512962 0.130265
2724 4 0.504449 0.0705149 0.118873
2798 4 0.0023287 0.144678 0.0827017
19 3 0.0454206 0.106233 0.139
2481 4 0.0382877 0.107558 0.120119
2479 2 0.0264795 0.126984 0.10971
2480 4 0.0146713 0.146411 0.0993016
578 4 0.0979637 0.0927762 0.134165
577 2 0.104073 0.107008 0.153794
2467 2 0.345573 0.155299 0.162717
756 4 0.314629 0.229474 0.146922
572 4 0.330223 0.24179 0.148903
254 4 0.33404 0.186598 0.0920406
255 4 0.359035 0.185372 0.135335
2468 4 0.355664 0.175919 0.152809
253 2 0.346538 0.185985 0.113688
24 3 0.35819 0.199237 0.153586
25 3 0.395551 0.203869 0.154177
759 4 0.397601 0.224338 0.157023
757 2 0.417235 0.235274 0.146063
527 4 0.490595 0.231188 0.129243
526 2 0.470764 0.244289 0.137008
758 4 0.436868 0.246211 0.135104
362 4 0.0346151 0.24335 0.173185
361 2 0.0589467 0.247023 0.168752
647 4 0.0216483 0.248007 0.158078
363 4 0.0832784 0.250697 0.164319
454 2 0.149604 0.292496 0.0921672
535 2 0.118704 0.292688 0.142125
455 4 0.138746 0.276946 0.10846
536 4 0.134975 0.290211 0.123301
537 4 0.102434 0.295165 0.160948
278 4 0.101252 0.243468 0.158851
671 4 0.391808 0.323524 0.125294
571 2 0.339386 0.256566 0.130934
573 4 0.348549 0.271341 0.112964
672 4 0.355777 0.28947 0.118748
670 2 0.373792 0.306497 0.122021
528 4 0.450934 0.25739 0.144772
597 4 0.489603 0.311063 0.096292
595 2 0.49202 0.328995 0.113549
749 4 0.0403442 0.404163 0.147334
366 4 0.0283621 0.389142 0.152824
364 2 0.00387164 0.39051 0.157674
609 4 0.386604 0.33533 0.111314
607 2 0.394281 0.356842 0.10114
596 4 0.494437 0.346926 0.130806
622 2 0.462929 0.363085 0.147791
624 4 0.485655 0.362892 0.137364
109 3 0.4941 0.380831 0.139297
15 3 0.448578 0.409778 0.165432
623 4 0.440204 0.363277 0.158217
748 2 0.0491928 0.427478 0.145525
750 4 0.0580414 0.450794 0.143716
603 4 0.0764259 0.45666 0.150793
2794 2 0.0176131 0.500543 0.0921589
3599 4 0.00956743 0.496314 0.132533
2796 4 0.00767931 0.493411 0.113968
601 2 0.0967104 0.464609 0.138524
602 4 0.116995 0.472559 0.126256
1584 4 0.387909 0.463294 0.132182
1575 4 0.39561 0.469059 0.150459
1582 2 0.393494 0.480754 0.115178
1583 4 0.399079 0.498214 0.098174
12 3 0.440908 0.445743 0.171804
232 2 0.0106601 0.0708212 0.178826
1464 4 0.0784342 0.0519233 0.205488
689 4 0.073414 0.0493561 0.22487
688 2 0.0596814 0.0289583 0.229401
690 4 0.0459489 0.00856051 0.233932
1462 2 0.0952939 0.0695358 0.199945
732 4 0.130093 0.0908583 0.203582
1505 4 0.241226 0.00913304 0.240985
1700 4 0.223122 0.00255157 0.236651
692 4 0.24425 0.0628325 0.199066
1504 2 0.258083 0.00464325 0.223072
1506 4 0.274939 0.000153462 0.205159
472 2 0.254087 0.0616573 0.241306
473 4 0.245572 0.0577119 0.21813
629 4 0.431527 0.00116311 0.176895
628 2 0.451554 0.0115087 0.166077
1463 4 0.112154 0.0871482 0.194401
730 2 0.153505 0.0848237 0.209957
731 4 0.176917 0.0787891 0.216333
579 4 0.110182 0.121241 0.173423
235 2 0.147131 0.136225 0.181028
237 4 0.129104 0.12467 0.168116
236 4 0.165157 0.14778 0.193939
722 4 0.182718 0.137897 0.192831
721 2 0.20615 0.129199 0.19215
723 4 0.229583 0.120502 0.191468
693 4 0.23961 0.108167 0.178476
691 2 0.24193 0.0855 0.188771
2469 4 0.335483 0.134678 0.172626
764 4 0.344983 0.121455 0.185376
763 2 0.359388 0.106358 0.199151
765 4 0.373792 0.0912609 0.212927
744 4 0.392111 0.0998084 0.212738
742 2 0.408999 0.109602 0.22836
743 4 0.425887 0.119396 0.243982
333 4 0.444333 0.117292 0.248807
279 4 0.147755 0.243287 0.17724
511 2 0.115183 0.24447 0.241524
277 2 0.124503 0.243377 0.168045
754 2 0.313792 0.229681 0.171911
755 4 0.312955 0.229887 0.196899
21 1 0.376696 0.203427 0.166942
23 3 0.378564 0.187036 0.183259
22 3 0.374002 0.223846 0.177187
309 4 0.38522 0.236667 0.166741
307 2 0.377435 0.256501 0.179825
760 2 0.492442 0.221289 0.19463
762 4 0.48092 0.218831 0.216684
522 4 0.462807 0.218628 0.22627
520 2 0.454045 0.24061 0.234347
299 4 0.103144 0.307342 0.17738
300 4 0.0963803 0.270722 0.210755
513 4 0.10201 0.256833 0.224237
298 2 0.0997624 0.289032 0.194068
611 4 0.330473 0.258638 0.242628
610 2 0.34364 0.269955 0.224636
612 4 0.356807 0.281273 0.206644
308 4 0.36965 0.276335 0.192909
706 2 0.400739 0.330986 0.231994
707 4 0.384503 0.317638 0.245536
768 4 0.375507 0.299976 0.242693
521 4 0.445284 0.262591 0.242424
708 4 0.416975 0.344335 0.218452
741 4 0.40944 0.359601 0.207984
739 2 0.427373 0.355518 0.191044
385 2 0.427049 0.404616 0.228871
740 4 0.445305 0.351435 0.174105
387 4 0.438873 0.40424 0.206844
1665 4 0.0459653 0.514897 0.174371
734 4 0.155281 0.461409 0.248124
733 2 0.138734 0.442845 0.245529
735 4 0.122187 0.424281 0.242934
1429 2 0.265353 0.504975 0.202365
1431 4 0.270022 0.4856 0.217464
659 4 0.278637 0.472347 0.205317
658 2 0.294169 0.46214 0.222043
660 4 0.309701 0.451934 0.238769
1573 2 0.378581 0.464299 0.168137
639 4 0.330197 0.450804 0.239471
638 4 0.365792 0.454732 0.204567
637 2 0.347994 0.452768 0.222019
1574 4 0.361552 0.459539 0.185816
645 4 0.484525 0.438894 0.1919
14 3 0.431408 0.41989 0.197379
644 4 0.491928 0.487207 0.181331
643 2 0.488227 0.46305 0.186616
11 1 0.447235 0.425864 0.181497
13 3 0.467926 0.4287 0.191609
316 2 0.077043 0.0638532 0.302119
317 4 0.0634543 0.0835979 0.295
1469 4 0.0914051 0.0261388 0.315491
318 4 0.0906316 0.0441085 0.309237
1468 2 0.106786 0.0123023 0.329533
1701 4 0.191963 0.999844 0.275669
1699 2 0.207542 0.00119763 0.25616
441 4 0.275621 0.0136835 0.339453
1828 2 0.300836 0.0528862 0.28488
1829 4 0.322427 0.0450882 0.294788
1830 4 0.279244 0.0606842 0.274971
474 4 0.262601 0.0656027 0.264481
1496 4 0.333303 0.0335107 0.28282
1495 2 0.339502 0.0147157 0.267539
1497 4 0.345701 0.995921 0.252258
399 4 0.0462359 0.0886795 0.285942
397 2 0.0421474 0.112973 0.290219
398 4 0.0380589 0.137266 0.294496
531 4 0.0286755 0.15465 0.289903
581 4 0.249301 0.16233 0.303806
580 2 0.2443 0.150447 0.325229
331 2 0.448176 0.104768 0.270103
351 4 0.455195 0.101913 0.308533
332 4 0.45202 0.0922434 0.2914
349 2 0.476169 0.100126 0.322026
529 2 0.0318412 0.167281 0.268558
530 4 0.035007 0.179912 0.247213
512 4 0.128355 0.232108 0.258811
737 4 0.14525 0.231844 0.267589
736 2 0.16721 0.220859 0.272309
285 4 0.246755 0.181268 0.299182
738 4 0.18917 0.209874 0.277028
284 4 0.20993 0.207217 0.277474
283 2 0.228343 0.194243 0.288328
389 4 0.0263473 0.273265 0.301405
388 2 0.0489512 0.282965 0.305895
390 4 0.0715551 0.292665 0.310384
372 4 0.0912504 0.289642 0.309399
370 2 0.107017 0.307876 0.302758
371 4 0.122785 0.32611 0.296118
402 4 0.125699 0.333356 0.277657
302 4 0.30646 0.324424 0.302495
301 2 0.331192 0.321037 0.303931
303 4 0.355923 0.317649 0.305367
767 4 0.354164 0.308139 0.287174
766 2 0.364836 0.304057 0.264934
632 4 0.435746 0.264431 0.260357
631 2 0.432562 0.285818 0.272913
633 4 0.429377 0.307204 0.285468
419 4 0.448257 0.312474 0.283838
418 2 0.463113 0.322892 0.301041
616 2 0.0707267 0.370142 0.31226
618 4 0.051262 0.374215 0.327417
2693 4 0.0440217 0.367937 0.34542
2692 2 0.0322432 0.34592 0.344114
617 4 0.0901914 0.366069 0.297104
400 2 0.14578 0.348252 0.277695
401 4 0.165862 0.363149 0.277733
678 4 0.098115 0.381966 0.290092
676 2 0.109307 0.39911 0.275739
677 4 0.120499 0.416254 0.261386
510 4 0.169188 0.362722 0.297354
508 2 0.187765 0.378861 0.301781
509 4 0.206342 0.395 0.306207
635 4 0.203821 0.41201 0.314753
728 4 0.299054 0.340189 0.312775
2537 4 0.382106 0.349202 0.254407
2536 2 0.375687 0.371964 0.262523
446 4 0.359576 0.403539 0.332732
2538 4 0.369268 0.394726 0.270638
447 4 0.356032 0.402793 0.282856
445 2 0.357804 0.403166 0.307794
420 4 0.47797 0.33331 0.318244
386 4 0.415224 0.404992 0.250899
269 4 0.480067 0.333293 0.339596
1790 4 0.00852236 0.413453 0.313158
1791 4 0.0215646 0.409275 0.265062
1758 4 0.0155871 0.424958 0.329018
1789 2 0.0150435 0.411364 0.28911
1756 2 0.0183524 0.446831 0.340814
417 4 0.164349 0.480165 0.252287
1318 2 0.130878 0.50744 0.33181
415 2 0.179887 0.476786 0.271583
416 4 0.195425 0.473407 0.290879
291 4 0.215283 0.475406 0.285899
289 2 0.238537 0.481077 0.278669
634 2 0.224132 0.425833 0.319393
1802 4 0.34142 0.490777 0.310001
1803 4 0.31629 0.4517 0.328497
593 4 0.297844 0.451652 0.321995
1801 2 0.328855 0.471239 0.319249
592 2 0.276903 0.439177 0.327566
594 4 0.255962 0.426702 0.333136
712 2 0.403643 0.484822 0.274579
713 4 0.410453 0.461525 0.280581
3989 4 0.456916 0.42285 0.297401
3990 4 0.424567 0.450582 0.271225
3988 2 0.440741 0.436716 0.284313
2741 4 0.472918 0.430942 0.306187
2740 2 0.496227 0.439118 0.310064
1470 4 0.122166 0.998466 0.343575
1682 4 0.116726 0.997935 0.406748
276 4 0.115359 0.0640417 0.338578
440 4 0.242712 0.03606 0.369736
378 4 0.320906 0.0493382 0.363042
1816 2 0.255343 0.060492 0.394774
1818 4 0.258493 0.0399722 0.380838
439 2 0.259166 0.0248717 0.354594
376 2 0.308784 0.070143 0.356305
424 2 0.41145 0.0717964 0.380105
426 4 0.419462 0.0548481 0.36356
257 4 0.478547 0.0323026 0.37588
641 4 0.487111 0.0232321 0.391523
256 2 0.454432 0.0386538 0.377702
258 4 0.430318 0.045005 0.379523
2493 4 0.0124224 0.161422 0.398062
274 2 0.123736 0.0865694 0.34547
275 4 0.132113 0.109097 0.352363
368 4 0.138527 0.124579 0.362016
367 2 0.130778 0.147575 0.368043
30 3 0.241661 0.0973725 0.354181
582 4 0.239299 0.138564 0.346652
1817 4 0.252194 0.0810117 0.408709
606 4 0.261486 0.0991762 0.398238
27 3 0.256783 0.131429 0.352087
29 3 0.254963 0.113902 0.385286
377 4 0.296662 0.0909477 0.349568
683 4 0.297996 0.103167 0.368979
26 1 0.25797 0.110936 0.36247
28 3 0.278834 0.101648 0.358371
682 2 0.311348 0.120315 0.381341
684 4 0.324701 0.137463 0.393703
425 4 0.403437 0.0887447 0.39665
724 2 0.408618 0.12786 0.416077
726 4 0.402001 0.107232 0.403592
350 4 0.497144 0.0983401 0.335519
453 4 0.494047 0.111375 0.350823
2655 4 0.01065 0.235626 0.359073
2653 2 0.0341619 0.244116 0.35853
2654 4 0.0576738 0.252606 0.357986
470 4 0.022331 0.178849 0.402167
546 4 0.0715252 0.19894 0.419406
369 4 0.123029 0.170571 0.37407
545 4 0.112692 0.180864 0.397513
600 4 0.129546 0.170669 0.402691
598 2 0.150002 0.181188 0.412494
544 2 0.0921085 0.189902 0.408459
248 4 0.0751533 0.258233 0.346778
2846 4 0.0290971 0.292696 0.400994
2845 2 0.0148357 0.275799 0.412668
1033 2 0.071651 0.294897 0.418845
2694 4 0.0204647 0.323903 0.342809
247 2 0.0839841 0.268999 0.367545
249 4 0.0928149 0.279765 0.388312
1035 4 0.0818874 0.293619 0.396068
406 2 0.194273 0.327607 0.404144
405 4 0.277779 0.255975 0.408502
615 4 0.266142 0.302734 0.359344
614 4 0.268591 0.267619 0.394864
613 2 0.267366 0.285177 0.377104
584 4 0.399002 0.320968 0.3739
717 4 0.386731 0.332537 0.382202
715 2 0.371681 0.339683 0.400846
268 2 0.4947 0.328771 0.359359
585 4 0.445951 0.31148 0.359529
583 2 0.422477 0.316224 0.366715
2813 4 0.0196556 0.411214 0.394729
540 4 0.020171 0.391277 0.388298
538 2 0.0339705 0.37732 0.403788
408 4 0.202099 0.343964 0.386928
503 4 0.211476 0.355626 0.373213
502 2 0.230545 0.369598 0.381357
504 4 0.249615 0.38357 0.3895
727 2 0.294717 0.352605 0.33404
729 4 0.29038 0.365021 0.355305
668 4 0.329259 0.400987 0.411631
773 4 0.267235 0.36365 0.407409
772 2 0.288844 0.375887 0.41032
2 3 0.310044 0.410467 0.41572
774 4 0.310453 0.388125 0.41323
716 4 0.35663 0.346829 0.41949
120 3 0.372761 0.391036 0.340236
667 2 0.351253 0.400965 0.399737
119 3 0.400077 0.389425 0.366099
751 2 0.407983 0.383557 0.400498
753 4 0.393074 0.394725 0.383821
669 4 0.373246 0.400943 0.387843
116 1 0.384729 0.40313 0.355373
117 3 0.370399 0.411948 0.371058
1757 4 0.0211177 0.468703 0.35261
3717 4 0.0254666 0.487699 0.349217
776 4 0.0680289 0.454246 0.376647
775 2 0.085818 0.465639 0.363271
2812 2 0.00913691 0.43215 0.403458
1320 4 0.114557 0.492099 0.342921
777 4 0.103607 0.477031 0.349894
636 4 0.244444 0.439656 0.324033
413 4 0.219642 0.498123 0.421726
412 2 0.195718 0.496396 0.414667
435 4 0.293532 0.493442 0.372286
433 2 0.293164 0.48153 0.394266
5 3 0.283297 0.429422 0.397884
434 4 0.292795 0.469618 0.416247
1 1 0.299078 0.430635 0.414258
118 3 0.395757 0.420517 0.344673
718 2 0.0495237 0.0717319 0.448436
720 4 0.0466776 0.0488449 0.458094
719 4 0.0523698 0.094619 0.438779
342 4 0.0504215 0.0363007 0.473008
1443 4 0.111153 0.984569 0.421189
576 4 0.363758 0.0622665 0.478746
3487 2 0.450907 0.0245507 0.477769
3488 4 0.458394 0.0212244 0.501393
3489 4 0.443421 0.0278769 0.454146
428 4 0.0364253 0.145489 0.425244
427 2 0.0449114 0.122185 0.422068
429 4 0.0533976 0.0988806 0.418893
466 2 0.250026 0.104721 0.488605
468 4 0.245863 0.0997935 0.464448
604 2 0.265568 0.108767 0.420965
605 4 0.26965 0.118358 0.443693
319 2 0.273287 0.154398 0.454073
320 4 0.25873 0.135091 0.44771
725 4 0.415235 0.148488 0.428563
471 4 0.0150742 0.199553 0.447104
469 2 0.0187026 0.189201 0.424635
261 4 0.0736079 0.218526 0.425135
259 2 0.0693408 0.241661 0.433605
599 4 0.170457 0.191706 0.422297
686 4 0.180761 0.196529 0.438618
685 2 0.185936 0.210603 0.458626
687 4 0.191111 0.224677 0.478634
488 4 0.203819 0.228162 0.49516
487 2 0.228193 0.227783 0.489598
10 3 0.173739 0.219153 0.488333
489 4 0.252567 0.227405 0.484036
321 4 0.287844 0.173706 0.460436
411 4 0.293607 0.190997 0.450497
410 4 0.272304 0.225057 0.480277
409 2 0.282956 0.208027 0.465387
1010 4 0.45935 0.214067 0.500067
1009 2 0.448927 0.23536 0.49212
2847 4 0.000574329 0.258901 0.424341
2850 4 0.0455849 0.309149 0.44592
260 4 0.0650737 0.264796 0.442075
348 4 0.0633783 0.280352 0.453853
1034 4 0.0614145 0.296175 0.441621
2848 2 0.0258442 0.31527 0.459992
346 2 0.0764276 0.290019 0.472864
2849 4 0.00610354 0.32139 0.474064
325 2 0.127528 0.278519 0.499168
327 4 0.105538 0.287928 0.491882
347 4 0.089477 0.299686 0.491876
375 4 0.172202 0.267743 0.503798
407 4 0.186448 0.311251 0.42136
404 4 0.235132 0.24579 0.432548
710 4 0.194168 0.294345 0.429969
711 4 0.220236 0.253826 0.443364
709 2 0.207202 0.274086 0.436666
373 2 0.185396 0.288331 0.498581
559 2 0.216561 0.331601 0.476602
374 4 0.198591 0.308919 0.493365
561 4 0.235069 0.334317 0.46001
336 4 0.254018 0.330145 0.463915
403 2 0.256456 0.250882 0.420525
812 4 0.325801 0.307663 0.489659
650 4 0.328733 0.308686 0.468925
334 2 0.259901 0.338664 0.441155
649 2 0.337442 0.31982 0.448301
651 4 0.346152 0.330954 0.427676
239 4 0.426858 0.304407 0.440188
238 2 0.426052 0.286657 0.45778
240 4 0.425245 0.268908 0.475372
1011 4 0.438503 0.256652 0.484173
926 4 0.438005 0.321338 0.444103
4434 4 0.990214 0.333196 0.47449
444 4 0.0667876 0.359934 0.420516
539 4 0.0477701 0.363363 0.419279
442 2 0.0884557 0.361598 0.432882
443 4 0.110124 0.363262 0.445247
680 4 0.109696 0.38347 0.443667
679 2 0.12272 0.404105 0.438215
335 4 0.265783 0.347183 0.418396
752 4 0.422893 0.372389 0.417176
927 4 0.410695 0.356962 0.422063
925 2 0.42435 0.33915 0.433083
569 4 0.170714 0.477281 0.417676
568 2 0.152778 0.460798 0.423313
570 4 0.134841 0.444315 0.42895
681 4 0.135744 0.424741 0.432764
437 4 0.244714 0.483605 0.468887
438 4 0.231819 0.481954 0.420599
436 2 0.238267 0.48278 0.444743
1400 4 0.292426 0.456268 0.432157
3 3 0.288993 0.435186 0.434653
1399 2 0.298738 0.47392 0.448702
4 3 0.314503 0.447208 0.409175
1401 4 0.30505 0.491573 0.465246
881 4 0.469626 0.462684 0.438895
663 4 0.480723 0.44956 0.427657
880 2 0.457781 0.462717 0.460914
882 4 0.445936 0.462749 0.482934
1910 4 0.44589 0.481796 0.486053
340 2 0.0575261 0.0388203 0.496848
341 4 0.0646307 0.04134 0.520688
2428 2 0.0521658 0.0114595 0.543666
2430 4 0.0631022 0.0333325 0.538456
3476 4 0.0176393 0.0640231 0.560752
2429 4 0.0412295 0.989586 0.548876
857 4 0.121532 0.0565131 0.533017
1151 4 0.121608 0.037596 0.526414
856 2 0.130366 0.0786875 0.525572
1150 2 0.139532 0.0209013 0.531432
1152 4 0.157456 0.0042067 0.536451
1646 4 0.176411 0.998914 0.537766
1182 4 0.257995 0.0524326 0.532725
1032 4 0.271621 0.0667807 0.535966
1180 2 0.261539 0.030079 0.543352
1181 4 0.265083 0.00772544 0.55398
4465 2 0.410521 0.00370783 0.521807
4466 4 0.393588 0.0187922 0.511276
574 2 0.369557 0.0443965 0.495245
575 4 0.375356 0.0265265 0.511744
3009 4 0.479915 0.025584 0.560616
88 3 0.47105 0.0104381 0.567198
3007 2 0.47658 0.0273656 0.5359
86 1 0.45322 0.00489959 0.580975
3008 4 0.473245 0.0291471 0.511184
3475 2 0.0340977 0.0828447 0.560969
3477 4 0.0505561 0.101666 0.561186
851 4 0.019165 0.133739 0.577773
2586 4 0.00184333 0.124264 0.576456
858 4 0.139201 0.100862 0.518127
1219 2 0.131416 0.130797 0.504677
1220 4 0.134093 0.106461 0.499601
1221 4 0.12874 0.155133 0.509754
1212 4 0.128542 0.15951 0.531083
1210 2 0.120098 0.156847 0.554467
467 4 0.254189 0.109649 0.512762
1226 4 0.26137 0.123775 0.52522
1225 2 0.265188 0.148272 0.528465
1031 4 0.265046 0.115856 0.542973
1030 2 0.268334 0.0913184 0.539469
306 4 0.456516 0.0740988 0.568114
514 2 0.48465 0.144979 0.542195
305 4 0.45183 0.121415 0.552624
515 4 0.472001 0.12719 0.55439
304 2 0.454173 0.0977569 0.560369
1211 4 0.111654 0.154183 0.57785
1240 2 0.169829 0.246981 0.583047
7 3 0.168705 0.218438 0.525306
6 1 0.174304 0.231676 0.507346
9 3 0.195662 0.240129 0.510627
1227 4 0.269005 0.172768 0.531711
909 4 0.268324 0.182328 0.549048
907 2 0.278901 0.204215 0.554902
908 4 0.289477 0.226102 0.560757
1284 4 0.28507 0.226514 0.581826
266 4 0.39472 0.253336 0.567551
888 4 0.390864 0.243156 0.584666
516 4 0.497299 0.162767 0.529999
1024 2 0.482401 0.196604 0.51474
1025 4 0.471457 0.219059 0.515828
1242 4 0.174162 0.254184 0.559499
326 4 0.149519 0.26911 0.506453
8 3 0.159042 0.249087 0.505814
1190 4 0.190765 0.259718 0.550942
1189 2 0.205771 0.279714 0.55055
1191 4 0.220778 0.29971 0.550159
790 2 0.231412 0.329134 0.539901
791 4 0.231656 0.304988 0.533412
560 4 0.198054 0.328885 0.493193
811 2 0.326484 0.328829 0.502952
265 2 0.41236 0.267757 0.557254
267 4 0.43 0.282178 0.546957
906 4 0.483325 0.252353 0.563025
872 4 0.445346 0.294272 0.553554
871 2 0.466503 0.282856 0.560425
873 4 0.487661 0.27144 0.567296
1165 2 0.161636 0.366538 0.568003
1166 4 0.146674 0.385422 0.561315
1167 4 0.176597 0.347653 0.574691
792 4 0.231167 0.353279 0.54639
1238 4 0.333569 0.36524 0.527677
1237 2 0.339187 0.376133 0.54947
1239 4 0.344805 0.387027 0.571264
813 4 0.327167 0.349995 0.516245
1173 4 0.280398 0.42066 0.584085
1911 4 0.432462 0.479593 0.534173
1909 2 0.439176 0.480695 0.510113
1268 4 0.43074 0.487706 0.552133
2285 4 0.0813069 0.0863732 0.644557
2284 2 0.0757911 0.0808379 0.668308
1892 4 0.124987 0.987749 0.648763
1891 2 0.140886 0.996123 0.666149
1092 4 0.230364 0.0143291 0.649133
45 3 0.294528 0.0495639 0.64972
42 3 0.31237 0.0242431 0.670539
4225 2 0.370415 0.0703965 0.627061
4226 4 0.38506 0.0521239 0.618297
809 4 0.395499 0.03532 0.624633
4227 4 0.355769 0.0886692 0.635825
90 3 0.448116 0.022479 0.594524
808 2 0.416691 0.0373255 0.611517
810 4 0.437884 0.0393311 0.598401
33 3 0.0712906 0.105004 0.601126
31 1 0.0784585 0.116093 0.620206
35 3 0.0609178 0.126797 0.630025
852 4 0.0307373 0.152547 0.62264
850 2 0.0249512 0.143143 0.600206
944 4 0.0430699 0.139004 0.632949
943 2 0.0438809 0.148034 0.656251
34 3 0.0878483 0.100977 0.635097
32 3 0.0944112 0.131565 0.614265
1194 4 0.370351 0.141798 0.663958
899 4 0.368413 0.147783 0.645349
1193 4 0.357325 0.0942922 0.65534
1192 2 0.363838 0.118045 0.659649
3114 4 0.491542 0.146255 0.640419
3385 2 0.00715956 0.234143 0.661278
798 4 0.149283 0.191011 0.657159
1277 4 0.159331 0.190308 0.64023
1241 4 0.165496 0.239778 0.606595
1278 4 0.178846 0.23039 0.617573
1276 2 0.169089 0.210349 0.628901
1283 4 0.30626 0.23188 0.626802
1282 2 0.295665 0.229197 0.604314
1004 4 0.309302 0.22009 0.642088
1003 2 0.296511 0.217413 0.663404
898 2 0.370032 0.166893 0.629306
886 2 0.383155 0.224453 0.599362
900 4 0.371651 0.186003 0.613264
887 4 0.375446 0.205751 0.614058
3387 4 0.00818824 0.258713 0.656758
1153 2 0.0126186 0.279355 0.622058
1154 4 0.0103991 0.297894 0.605427
804 4 0.29586 0.302332 0.639252
806 4 0.301919 0.300114 0.619621
805 2 0.319965 0.31736 0.621065
802 2 0.278174 0.300181 0.656795
3023 4 0.48497 0.317042 0.643416
1139 4 0.466744 0.325544 0.648062
3022 2 0.498626 0.312787 0.622908
1138 2 0.457767 0.337198 0.66828
897 4 0.140625 0.400321 0.573107
895 2 0.1213 0.4086 0.586641
896 4 0.101974 0.416879 0.600174
992 4 0.130303 0.37172 0.659648
918 4 0.192613 0.34056 0.584709
1136 4 0.198869 0.360671 0.640969
916 2 0.195306 0.341252 0.609557
917 4 0.197998 0.341945 0.634406
1135 2 0.205815 0.37383 0.661063
807 4 0.338012 0.334606 0.622509
1172 4 0.25335 0.41067 0.624943
1029 4 0.348904 0.386897 0.590587
1028 4 0.328549 0.350538 0.618234
1027 2 0.338727 0.368717 0.60441
1281 4 0.0761482 0.491715 0.650166
1279 2 0.0532956 0.500915 0.645888
1041 4 0.0844463 0.503874 0.636413
2352 4 0.224309 0.486034 0.665947
1161 4 0.248367 0.425357 0.636978
890 4 0.294081 0.434054 0.576403
1171 2 0.266874 0.415665 0.604514
1159 2 0.250231 0.426308 0.661894
889 2 0.313183 0.449276 0.581747
891 4 0.332285 0.464499 0.587092
1001 4 0.339394 0.460839 0.605366
1000 2 0.344582 0.48455 0.611372
2286 4 0.0702752 0.0753026 0.692059
862 2 0.0740931 0.0565075 0.721294
864 4 0.080968 0.0769722 0.708681
863 4 0.0672182 0.0360427 0.733908
912 4 0.0631379 0.0163001 0.732942
910 2 0.0576301 0.00551591 0.754818
2400 4 0.158067 0.0445183 0.727535
2398 2 0.149623 0.0289213 0.709911
2399 4 0.141179 0.0133243 0.692287
1893 4 0.156785 0.00449704 0.683536
1149 4 0.166473 0.0608117 0.733287
1147 2 0.185433 0.0638411 0.749304
1090 2 0.244438 0.0246665 0.667028
1091 4 0.258513 0.035004 0.684923
1048 2 0.256883 0.0707363 0.70556
1050 4 0.251784 0.0466608 0.701139
43 3 0.275838 0.0307857 0.676473
41 1 0.296071 0.0404751 0.670545
44 3 0.301814 0.0568664 0.685931
980 4 0.312057 0.0533253 0.704048
979 2 0.335047 0.0558058 0.71356
981 4 0.358037 0.0582863 0.723073
1111 2 0.395024 0.072211 0.72209
1112 4 0.375491 0.0605235 0.711744
1113 4 0.414557 0.0838985 0.732436
3400 2 0.455962 0.0170604 0.733268
945 4 0.044692 0.157063 0.679553
2991 4 0.0383369 0.16815 0.696133
1023 4 0.261116 0.145879 0.732933
1049 4 0.261982 0.0948117 0.709982
1022 4 0.279297 0.101714 0.718114
1021 2 0.270206 0.123796 0.725524
2990 4 0.0139045 0.210012 0.683829
2989 2 0.0261207 0.189081 0.689981
3244 2 0.997703 0.237475 0.732608
833 4 0.0318795 0.239853 0.733421
832 2 0.055044 0.247102 0.739423
796 2 0.141782 0.202751 0.677921
797 4 0.134281 0.214492 0.698684
695 4 0.122234 0.230898 0.694159
694 2 0.129617 0.249372 0.709305
1005 4 0.283719 0.214735 0.68472
1131 4 0.284575 0.227569 0.699046
1129 2 0.276243 0.241766 0.717866
953 4 0.478338 0.234326 0.69937
952 2 0.499586 0.223318 0.692123
1298 4 0.477252 0.245773 0.715858
1107 4 0.0673297 0.300049 0.729795
1214 4 0.0780231 0.306973 0.713752
3245 4 0.0171996 0.251997 0.738455
1105 2 0.0709641 0.296961 0.754339
1213 2 0.091406 0.327492 0.708747
696 4 0.137 0.267846 0.72445
1259 4 0.145482 0.284388 0.730028
1258 2 0.1448 0.302299 0.712596
1260 4 0.144117 0.320211 0.695163
803 4 0.260488 0.298029 0.674338
1130 4 0.267911 0.255963 0.736687
801 4 0.279495 0.264973 0.749949
1297 2 0.478754 0.25728 0.738006
822 4 0.0838388 0.403284 0.735099
820 2 0.0888405 0.383665 0.720427
1208 4 0.160869 0.331948 0.700144
1215 4 0.104789 0.348011 0.703742
1207 2 0.152181 0.351637 0.687415
821 4 0.0938421 0.364047 0.705755
991 2 0.118564 0.392104 0.668126
1209 4 0.143492 0.371327 0.674687
1137 4 0.212761 0.386989 0.681157
948 4 0.217461 0.40509 0.687868
946 2 0.195844 0.41557 0.6948
1006 2 0.303366 0.349855 0.749029
1067 4 0.290271 0.380793 0.747674
1007 4 0.287344 0.364294 0.73638
1101 4 0.394801 0.391661 0.716968
1099 2 0.37973 0.408831 0.727129
1100 4 0.364659 0.426 0.73729
1019 4 0.406421 0.37578 0.723273
1205 4 0.481641 0.40442 0.704495
1204 2 0.473864 0.382162 0.696173
1206 4 0.466087 0.359903 0.687851
1140 4 0.44879 0.348852 0.688498
788 4 0.470149 0.353323 0.727686
1018 2 0.430389 0.370542 0.728098
1020 4 0.454357 0.365304 0.732923
787 2 0.493318 0.347026 0.734669
3430 2 0.0443945 0.473482 0.708285
2016 4 0.0581567 0.436835 0.70179
3432 4 0.0472483 0.449535 0.714887
3431 4 0.0415407 0.497429 0.701684
2014 2 0.0749179 0.429742 0.684645
993 4 0.106824 0.412488 0.676604
2015 4 0.0916791 0.42265 0.667501
2153 4 0.244267 0.486536 0.668161
947 4 0.174227 0.42605 0.701733
2350 2 0.202476 0.494082 0.675096
1160 4 0.252095 0.427259 0.68681
2152 2 0.254632 0.48367 0.690734
1229 4 0.278218 0.479899 0.728966
2154 4 0.264997 0.480804 0.713307
1228 2 0.273893 0.455783 0.733956
1988 4 0.361083 0.438572 0.751506
1953 4 0.44889 0.499041 0.693163
1249 2 0.487194 0.45597 0.745062
2169 4 0.431116 0.496565 0.685185
1951 2 0.467016 0.493873 0.709592
1952 4 0.485142 0.488705 0.726022
911 4 0.0521224 0.994732 0.776693
1895 4 0.205523 0.000799755 0.800197
1148 4 0.204392 0.0668706 0.76532
1196 4 0.192129 0.99778 0.815332
1894 2 0.218501 0.0219745 0.803091
1896 4 0.23148 0.0431493 0.805985
2048 4 0.252011 0.0434826 0.802544
2047 2 0.252031 0.0684708 0.803418
2321 4 0.289242 0.005429 0.751496
1142 4 0.348967 0.99977 0.784134
3255 4 0.478221 0.0343987 0.820318
3253 2 0.475515 0.0356348 0.795492
3254 4 0.47281 0.0368709 0.770666
3401 4 0.469711 0.0298814 0.749754
1185 4 0.9994 0.08744 0.796197
3393 4 0.0148922 0.092922 0.786771
3391 2 0.0125533 0.102743 0.763896
1256 4 0.265108 0.157125 0.748723
2049 4 0.252051 0.0934591 0.804293
840 4 0.245472 0.109207 0.792855
839 4 0.255484 0.144181 0.827166
838 2 0.250478 0.126694 0.81001
1255 2 0.283269 0.16542 0.763775
834 4 0.0782085 0.254352 0.745426
1266 4 0.152792 0.252994 0.794965
831 4 0.314131 0.164863 0.765727
1257 4 0.30143 0.173715 0.778826
829 2 0.338627 0.169806 0.766559
978 4 0.383271 0.177788 0.773104
830 4 0.363123 0.174749 0.767392
976 2 0.387231 0.186331 0.796267