ITEM: TIMESTEP
5080000
ITEM: NUMBER OF ATOMS
4590
ITEM: BOX BOUNDS pp pp pp
-9.9985700000000008e+00 9.9985700000000008e+00
-9.9985700000000008e+00 9.9985700000000008e+00
-9.9985700000000008e+00 9.9985700000000008e+00
ITEM: ATOMS id type xs ys zs
700 2 0.0222383 0.0399821 0.0173299
701 4 0.0125946 0.0383115 0.0403383
1633 2 0.140294 0.0109079 0.028191
1634 4 0.130716 0.0173516 0.00601189
422 4 0.122478 0.034847 0.000935615
1134 4 0.15384 0.0844931 0.017659
566 4 0.256264 0.061926 0.0746408
1132 2 0.177401 0.0905728 0.011908
567 4 0.272243 0.0678723 0.02763
565 2 0.264253 0.0648991 0.0511354
2263 2 0.313451 0.0147486 0.0298433
2265 4 0.326657 0.035682 0.0262952
653 4 0.282974 0.0854387 0.029258
987 4 0.359151 0.0047041 0.0548231
985 2 0.376893 0.0223014 0.0556896
986 4 0.394634 0.0398986 0.0565562
1661 4 0.352211 0.996393 0.0701828
2975 4 0.411614 0.0397333 0.067136
295 2 0.496945 0.990127 0.0290704
555 4 0.0584311 0.132249 0.0234927
553 2 0.074126 0.125163 0.0416208
2808 4 0.0486595 0.136145 0.0064739
554 4 0.0898209 0.118076 0.059749
836 4 0.107306 0.113624 0.0524994
835 2 0.128522 0.106537 0.041326
837 4 0.149737 0.0994499 0.0301525
1133 4 0.200963 0.0966525 0.00615701
933 4 0.220654 0.0934961 0.000506933
652 2 0.294796 0.107383 0.0272886
654 4 0.306617 0.129327 0.0253192
491 4 0.304425 0.148678 0.0333026
52 3 0.276107 0.154816 0.0139036
460 2 0.356743 0.126513 0.0347747
462 4 0.358815 0.134715 0.0583037
2469 4 0.352188 0.153323 0.0613066
461 4 0.35467 0.118312 0.0112457
771 4 0.480618 0.171416 0.0234581
2640 4 0.498393 0.165321 0.0298457
2623 2 0.0428068 0.244015 0.0550113
2625 4 0.0180155 0.24523 0.0519957
2523 4 0.00384081 0.249163 0.0356841
2521 2 0.00740016 0.248751 0.0109386
475 2 0.0911157 0.204543 0.00136493
476 4 0.100591 0.183613 0.0112311
490 2 0.30007 0.170664 0.0443843
492 4 0.295715 0.192651 0.055466
360 4 0.269203 0.229906 0.0157713
358 2 0.2788 0.221255 0.0371782
359 4 0.288396 0.212605 0.058585
354 4 0.272337 0.215475 0.00338763
519 4 0.41169 0.246291 0.0548491
518 4 0.443299 0.209148 0.0438061
517 2 0.427494 0.227719 0.0493276
769 2 0.470668 0.188291 0.0389959
770 4 0.460717 0.205165 0.0545337
557 4 0.465026 0.212739 0.0083581
666 4 0.459154 0.194231 0.00142793
2624 4 0.0675981 0.242801 0.0580269
292 2 0.0329254 0.325075 0.017478
293 4 0.0550162 0.322081 0.00615492
294 4 0.0108346 0.328069 0.0288011
620 4 0.00931288 0.318962 0.0469056
482 4 0.167697 0.311146 0.0610789
626 4 0.123069 0.330692 0.0100777
481 2 0.170316 0.304081 0.0372374
483 4 0.172935 0.297017 0.0133959
573 4 0.302446 0.301926 0.083827
672 4 0.316646 0.295046 0.071107
322 2 0.389369 0.266359 0.0741919
670 2 0.33622 0.308476 0.0789604
323 4 0.374435 0.267239 0.094227
1305 4 0.405144 0.293853 0.00692
324 4 0.404302 0.26548 0.0541568
2873 4 0.0180466 0.392512 0.00581246
1168 2 0.0880953 0.330779 0.0103388
1170 4 0.109165 0.326538 0.0231156
627 4 0.161193 0.362936 0.0128307
1290 4 0.165617 0.368984 0.0323129
625 2 0.142131 0.346814 0.0114542
1288 2 0.178867 0.379997 0.0504324
252 4 0.212085 0.394055 0.0648376
250 2 0.230594 0.408209 0.0557693
1289 4 0.192118 0.39101 0.0685518
345 4 0.265623 0.348744 0.0660064
671 4 0.355795 0.321905 0.0868138
608 4 0.405742 0.358092 0.0646257
524 4 0.419678 0.371484 0.0585732
607 2 0.388286 0.346633 0.0783796
523 2 0.418133 0.371871 0.0336204
525 4 0.416587 0.372257 0.0086676
495 4 0.474386 0.346451 0.0351746
552 4 0.0123363 0.444109 0.0178735
550 2 0.999273 0.454441 0.0365222
1223 4 0.15612 0.465643 0.00719754
2358 4 0.156679 0.482642 0.0176991
251 4 0.249103 0.422364 0.046701
794 4 0.239941 0.479872 0.0853879
243 4 0.229259 0.498111 0.0805875
793 2 0.244321 0.460556 0.0701268
795 4 0.248702 0.44124 0.0548657
1673 4 0.361322 0.449169 0.0649964
17 3 0.0425809 0.0747482 0.136018
381 4 0.0438673 0.0563429 0.127988
379 2 0.0222655 0.0544854 0.115535
16 1 0.0407917 0.0909528 0.152247
1421 4 0.000518508 0.0380141 0.0897675
450 4 0.106215 0.0472627 0.0991076
448 2 0.102341 0.0225678 0.0985298
465 4 0.0941833 0.0540122 0.113113
463 2 0.0863229 0.0703724 0.13031
1475 4 0.255676 0.0532675 0.0941109
1769 4 0.289988 0.0491218 0.150525
1474 2 0.265114 0.0535368 0.117263
1476 4 0.274552 0.0538062 0.140416
1660 2 0.341502 0.989111 0.0915715
2974 2 0.425397 0.0371663 0.0878394
2976 4 0.439179 0.0345993 0.108543
630 4 0.431475 0.0246892 0.124398
628 2 0.432339 0.017943 0.148458
18 3 0.0620742 0.0966972 0.15949
464 4 0.0784626 0.0867327 0.147507
19 3 0.030231 0.109517 0.143178
2481 4 0.015364 0.105928 0.132187
578 4 0.0746609 0.109404 0.145431
577 2 0.095527 0.119713 0.154569
579 4 0.116393 0.130023 0.163707
237 4 0.132114 0.13661 0.174228
311 4 0.349713 0.10572 0.110544
310 2 0.359468 0.102245 0.133302
312 4 0.369222 0.0987691 0.156061
23 3 0.376365 0.161645 0.15232
2467 2 0.35999 0.167356 0.080474
2723 4 0.485874 0.0931651 0.136172
2722 2 0.494881 0.083974 0.114735
279 4 0.126523 0.207271 0.154254
755 4 0.284467 0.209929 0.122502
754 2 0.274185 0.232076 0.117119
254 4 0.365112 0.248728 0.0979353
2468 4 0.367792 0.181389 0.0996414
253 2 0.365244 0.224496 0.104098
255 4 0.365376 0.200264 0.11026
21 1 0.37347 0.182585 0.142754
24 3 0.363933 0.180431 0.12171
22 3 0.359377 0.194961 0.156073
25 3 0.393536 0.193232 0.141138
759 4 0.396591 0.204388 0.125547
309 4 0.365834 0.204793 0.171865
757 2 0.415592 0.218395 0.133791
527 4 0.491305 0.219126 0.107337
758 4 0.434593 0.232402 0.142035
528 4 0.447438 0.233893 0.126268
526 2 0.469371 0.22651 0.116802
362 4 0.0462654 0.278885 0.154945
361 2 0.0631713 0.261215 0.160154
646 2 0.00747345 0.266288 0.158676
456 4 0.157293 0.310555 0.0789212
535 2 0.117056 0.316155 0.160648
454 2 0.148537 0.311983 0.102298
455 4 0.139781 0.313411 0.125675
536 4 0.127381 0.30591 0.14031
571 2 0.291608 0.282945 0.0959692
756 4 0.263903 0.254222 0.111737
572 4 0.28077 0.263964 0.108111
622 2 0.477855 0.318494 0.157985
624 4 0.500223 0.323781 0.148141
623 4 0.455487 0.313207 0.167828
343 2 0.277987 0.358244 0.0855528
344 4 0.290351 0.367743 0.105099
498 4 0.303613 0.380086 0.114245
496 2 0.320669 0.395565 0.123975
609 4 0.37083 0.335175 0.0921334
497 4 0.337726 0.411043 0.133706
542 4 0.498188 0.367207 0.108257
602 4 0.0669002 0.496095 0.0950534
750 4 0.0621741 0.454912 0.147321
603 4 0.0520129 0.464918 0.131206
601 2 0.0594565 0.480506 0.11313
1674 4 0.372855 0.427405 0.108517
1672 2 0.367088 0.438287 0.0867568
1573 2 0.410925 0.453535 0.163054
1582 2 0.407998 0.489964 0.122689
1584 4 0.408881 0.470576 0.138453
1575 4 0.425979 0.464059 0.146089
234 4 0.0236474 0.065446 0.175544
20 3 0.0285898 0.0828086 0.169666
1462 2 0.103992 0.019837 0.234611
1463 4 0.10746 0.0405222 0.248222
1700 4 0.206343 0.0524258 0.253666
1622 4 0.261483 0.019838 0.2536
1621 2 0.269981 0.0284994 0.231738
1623 4 0.27848 0.0371607 0.209877
1768 2 0.292594 0.0445164 0.174962
1770 4 0.295201 0.039911 0.199399
1830 4 0.299485 0.0485036 0.248809
629 4 0.433203 0.0111968 0.172519
1537 2 0.00190326 0.125017 0.184076
1539 4 0.0194269 0.140521 0.192892
235 2 0.152319 0.150769 0.178286
236 4 0.172523 0.164929 0.182345
721 2 0.201766 0.147825 0.210593
723 4 0.220277 0.139239 0.225044
693 4 0.23321 0.151749 0.234212
722 4 0.183255 0.156411 0.196143
691 2 0.250025 0.133638 0.238011
692 4 0.26684 0.115527 0.24181
764 4 0.376471 0.104465 0.173337
763 2 0.39223 0.122157 0.181328
765 4 0.407988 0.139849 0.189319
744 4 0.412569 0.15162 0.204335
742 2 0.43542 0.142519 0.208826
743 4 0.458271 0.133418 0.213318
333 4 0.455458 0.138214 0.23218
277 2 0.112086 0.225942 0.162509
737 4 0.147156 0.218582 0.227753
512 4 0.1433 0.238675 0.225852
736 2 0.162858 0.209875 0.245154
308 4 0.346626 0.250749 0.176317
307 2 0.35623 0.227771 0.174091
760 2 0.492853 0.223505 0.182305
522 4 0.467392 0.215965 0.208808
520 2 0.45679 0.233115 0.223595
762 4 0.481854 0.228536 0.204188
647 4 0.0319599 0.267916 0.163466
278 4 0.0976489 0.244613 0.170765
363 4 0.0800772 0.243544 0.165362
300 4 0.0939549 0.281629 0.22679
513 4 0.113573 0.278656 0.221549
537 4 0.106731 0.326399 0.180986
511 2 0.128436 0.258665 0.2237
298 2 0.0946026 0.301827 0.212066
299 4 0.0952503 0.322026 0.197343
612 4 0.338767 0.259617 0.192895
610 2 0.349746 0.260446 0.215344
766 2 0.359564 0.317827 0.238957
768 4 0.365282 0.30074 0.221622
611 4 0.360725 0.261276 0.237794
521 4 0.446188 0.250266 0.238382
740 4 0.441689 0.32726 0.167636
739 2 0.423289 0.334396 0.182989
365 4 0.0112689 0.39002 0.211875
364 2 0.0174877 0.413657 0.206602
2538 4 0.331301 0.385163 0.25464
387 4 0.395304 0.355503 0.186042
741 4 0.404888 0.341531 0.198341
386 4 0.346177 0.36229 0.19246
385 2 0.370741 0.358897 0.189251
2537 4 0.340714 0.375753 0.206437
2536 2 0.336008 0.380458 0.230539
11 1 0.457374 0.411161 0.199456
12 3 0.450662 0.390147 0.205978
15 3 0.480103 0.411701 0.198131
748 2 0.0499602 0.445605 0.167054
366 4 0.0237066 0.437294 0.20133
749 4 0.0377462 0.436299 0.186787
291 4 0.216035 0.460194 0.242989
416 4 0.197021 0.467722 0.243964
415 2 0.173718 0.459772 0.24832
660 4 0.351858 0.492021 0.218051
639 4 0.353659 0.473472 0.224438
638 4 0.380534 0.445833 0.192585
637 2 0.367096 0.459652 0.208511
1574 4 0.395871 0.443011 0.180019
13 3 0.448119 0.415889 0.17871
14 3 0.449988 0.426595 0.215128
3800 4 0.500131 0.415901 0.201382
644 4 0.504301 0.48096 0.189618
1578 4 0.494632 0.494516 0.179613
316 2 0.0531889 0.0656297 0.318199
318 4 0.0590143 0.0429426 0.30945
1469 4 0.0646041 0.034366 0.326865
1468 2 0.0836854 0.0185206 0.330029
1470 4 0.102767 0.00267518 0.333192
732 4 0.111915 0.0389994 0.267664
730 2 0.132303 0.0492324 0.2779
731 4 0.152691 0.0594654 0.288137
1406 4 0.174288 0.0203536 0.299699
1506 4 0.206987 0.0694197 0.265629
1701 4 0.174761 0.0238533 0.279875
1699 2 0.190552 0.0381395 0.266771
441 4 0.270478 0.00841951 0.328762
474 4 0.288491 0.0645789 0.252712
1828 2 0.318895 0.0392399 0.261562
1829 4 0.338304 0.0299761 0.274315
1496 4 0.335876 0.0225324 0.293367
453 4 0.496262 0.0812596 0.32269
350 4 0.477482 0.0842763 0.317528
317 4 0.0473634 0.0883168 0.326947
399 4 0.0412483 0.0983606 0.310757
397 2 0.0412728 0.119205 0.324567
1505 4 0.215512 0.118684 0.266676
1504 2 0.211249 0.0940517 0.266153
473 4 0.27158 0.110749 0.261826
472 2 0.280036 0.0876639 0.257269
29 3 0.271939 0.125743 0.274488
28 3 0.299448 0.128266 0.30059
26 1 0.287857 0.139667 0.284035
683 4 0.317247 0.124002 0.31127
682 2 0.335877 0.125772 0.327853
377 4 0.301484 0.107072 0.305938
376 2 0.293823 0.0892305 0.321691
30 3 0.302336 0.147013 0.268065
27 3 0.277217 0.157731 0.293502
331 2 0.462234 0.130537 0.254991
349 2 0.46789 0.094879 0.297016
351 4 0.458298 0.105482 0.276504
332 4 0.469009 0.12286 0.277802
738 4 0.178561 0.201167 0.262555
284 4 0.17586 0.195199 0.281597
283 2 0.198086 0.184906 0.286619
285 4 0.220313 0.174613 0.291641
581 4 0.230405 0.188511 0.300708
580 2 0.254646 0.182465 0.30172
582 4 0.278886 0.17642 0.302732
389 4 0.130618 0.256387 0.319618
388 2 0.121457 0.275106 0.305801
390 4 0.112296 0.293824 0.291985
372 4 0.110023 0.3122 0.292128
370 2 0.12742 0.329018 0.285826
615 4 0.305756 0.284237 0.332667
301 2 0.331126 0.333452 0.287477
303 4 0.344472 0.322429 0.269434
707 4 0.360633 0.27214 0.25405
708 4 0.402665 0.263966 0.279881
706 2 0.381649 0.268053 0.266965
767 4 0.353846 0.334914 0.256292
632 4 0.416524 0.277173 0.282533
631 2 0.419932 0.287526 0.305036
633 4 0.42334 0.297878 0.327539
676 2 0.104063 0.391103 0.314839
371 4 0.144817 0.345835 0.279525
677 4 0.122706 0.393729 0.298385
402 4 0.160021 0.358522 0.280028
400 2 0.168909 0.374489 0.297094
735 4 0.115627 0.413029 0.294885
401 4 0.177798 0.390456 0.31416
510 4 0.194144 0.383063 0.320417
728 4 0.322424 0.344876 0.324917
727 2 0.300364 0.355272 0.330437
302 4 0.31778 0.344475 0.30552
447 4 0.325469 0.397102 0.269873
445 2 0.344501 0.404487 0.28431
118 3 0.382013 0.393444 0.335251
446 4 0.363533 0.411872 0.298747
1318 2 0.129426 0.49567 0.295187
777 4 0.0904571 0.489773 0.314598
733 2 0.133152 0.426391 0.283073
734 4 0.150676 0.439754 0.271262
1320 4 0.110017 0.491151 0.310287
417 4 0.150416 0.451822 0.252676
289 2 0.232958 0.459672 0.261388
290 4 0.24988 0.45915 0.279788
1801 2 0.277637 0.492312 0.306308
1803 4 0.269854 0.476862 0.324361
593 4 0.264724 0.457209 0.325371
120 3 0.364355 0.421399 0.317242
3990 4 0.387181 0.487817 0.28204
3988 2 0.396146 0.471981 0.299187
713 4 0.375648 0.494129 0.266133
3989 4 0.405111 0.456145 0.316333
2741 4 0.415386 0.438947 0.320091
2740 2 0.440385 0.43944 0.320142
2924 4 0.477728 0.432316 0.334302
2742 4 0.465384 0.439933 0.320192
427 2 0.0622693 0.0587044 0.408875
428 4 0.0701106 0.0715994 0.38894
1683 4 0.105643 0.00373925 0.352758
276 4 0.170376 0.0499485 0.379782
275 4 0.201954 0.0228192 0.352077
274 2 0.186165 0.0363838 0.365929
439 2 0.257111 0.0121502 0.349561
440 4 0.243745 0.0158809 0.37036
1818 4 0.247575 0.0119771 0.389967
1816 2 0.250526 0.0304746 0.406529
378 4 0.286162 0.0713889 0.337444
1817 4 0.253478 0.0489721 0.423092
424 2 0.426673 0.0788854 0.387222
641 4 0.512637 0.04088 0.361559
257 4 0.496893 0.0536025 0.360311
256 2 0.472025 0.0533534 0.362907
258 4 0.447158 0.0531042 0.365502
426 4 0.444954 0.0622617 0.383399
531 4 0.059573 0.150335 0.337497
398 4 0.0412974 0.140049 0.338376
368 4 0.177869 0.104247 0.345424
367 2 0.188879 0.123473 0.357014
369 4 0.199889 0.142698 0.368604
600 4 0.183928 0.155182 0.362907
320 4 0.322945 0.142449 0.407668
425 4 0.408391 0.095509 0.391046
684 4 0.354506 0.127543 0.344435
725 4 0.363559 0.123436 0.362376
724 2 0.386388 0.114905 0.367961
726 4 0.409218 0.106374 0.373547
530 4 0.063475 0.198735 0.349455
529 2 0.061524 0.174535 0.343476
2655 4 0.0534557 0.216252 0.351446
2653 2 0.0409764 0.237893 0.350394
470 4 0.0142419 0.219102 0.3959
469 2 0.0305766 0.217253 0.41474
546 4 0.133882 0.198202 0.413659
598 2 0.184624 0.178625 0.371574
599 4 0.18532 0.202068 0.380241
686 4 0.188355 0.222233 0.375416
685 2 0.199109 0.228955 0.396965
687 4 0.209862 0.235677 0.418514
585 4 0.413551 0.219118 0.397926
2654 4 0.028497 0.259534 0.349342
2845 2 0.00389761 0.274463 0.376218
2846 4 0.0246591 0.275678 0.362338
2850 4 0.0528569 0.287512 0.411854
248 4 0.148603 0.25974 0.422606
614 4 0.303095 0.265312 0.378878
405 4 0.3026 0.277203 0.395531
403 2 0.310448 0.294664 0.411615
613 2 0.304425 0.274774 0.355773
419 4 0.442908 0.297784 0.327866
418 2 0.461452 0.312253 0.336348
420 4 0.479996 0.326722 0.34483
269 4 0.48735 0.337192 0.359775
617 4 0.0772208 0.386372 0.349451
616 2 0.054566 0.376055 0.351796
618 4 0.0319111 0.365738 0.354142
2693 4 0.0132986 0.36529 0.34507
444 4 0.0552805 0.369042 0.405839
442 2 0.080039 0.369777 0.409254
678 4 0.0854203 0.388478 0.331293
680 4 0.112312 0.38356 0.400694
406 2 0.220962 0.345584 0.410214
508 2 0.198132 0.387034 0.344779
503 4 0.222794 0.354479 0.368131
408 4 0.217671 0.356402 0.387913
502 2 0.244459 0.352971 0.355741
509 4 0.202119 0.391005 0.369141
635 4 0.218102 0.395111 0.380665
634 2 0.237515 0.410859 0.381181
729 4 0.278304 0.365668 0.335956
504 4 0.266125 0.351462 0.343352
119 3 0.344052 0.394245 0.333616
751 2 0.387062 0.410307 0.406837
116 1 0.36329 0.407146 0.334973
268 2 0.483377 0.361799 0.357797
270 4 0.479404 0.386405 0.355819
2814 4 0.997936 0.457037 0.390192
775 2 0.0784469 0.478447 0.333377
776 4 0.0664367 0.467121 0.352156
1757 4 0.0478366 0.469757 0.356848
1756 2 0.0236525 0.466407 0.351455
413 4 0.184276 0.487791 0.413985
636 4 0.256929 0.426607 0.381698
433 2 0.264347 0.493009 0.408211
434 4 0.28098 0.476226 0.416386
592 2 0.261859 0.450255 0.349217
2 3 0.308019 0.444194 0.388644
5 3 0.275327 0.426364 0.391134
1 1 0.291949 0.436322 0.403099
594 4 0.258994 0.443302 0.373063
668 4 0.322336 0.432157 0.39638
774 4 0.322449 0.420431 0.413792
117 3 0.362708 0.419339 0.35447
753 4 0.373981 0.422851 0.389611
669 4 0.365409 0.431346 0.370988
667 2 0.343873 0.431751 0.383684
429 4 0.054428 0.0458093 0.428811
719 4 0.0461118 0.0563986 0.443608
718 2 0.0544906 0.0515476 0.466661
720 4 0.0628695 0.0466966 0.489714
1151 4 0.160601 0.0450379 0.496026
606 4 0.236028 0.0579758 0.430393
604 2 0.238768 0.0739484 0.449434
576 4 0.406522 0.0785453 0.491666
468 4 0.227106 0.102769 0.459826
466 2 0.226581 0.127081 0.465641
467 4 0.226056 0.151394 0.471456
605 4 0.241507 0.089921 0.468475
319 2 0.317245 0.150663 0.430586
321 4 0.311544 0.158876 0.453503
471 4 0.0469114 0.215405 0.43358
261 4 0.058022 0.22259 0.448131
259 2 0.0658939 0.218469 0.471502
260 4 0.0737658 0.214347 0.494874
878 4 0.0123298 0.253338 0.503645
544 2 0.144487 0.219506 0.421331
348 4 0.0915639 0.215361 0.50338
346 2 0.105096 0.233954 0.513196
545 4 0.155092 0.24081 0.429003
10 3 0.16801 0.240633 0.444664
7 3 0.195361 0.234746 0.469366
6 1 0.187421 0.248995 0.453146
488 4 0.225186 0.246146 0.429989
487 2 0.2366 0.225194 0.43747
9 3 0.203291 0.250789 0.436314
489 4 0.248013 0.204243 0.44495
410 4 0.257156 0.197029 0.461414
411 4 0.295061 0.164447 0.462967
409 2 0.276108 0.180738 0.46219
583 2 0.404424 0.230397 0.418289
584 4 0.395296 0.241676 0.438652
1025 4 0.474567 0.225505 0.485568
1010 4 0.473545 0.2441 0.493535
1024 2 0.477308 0.202436 0.494814
1034 4 0.0637131 0.304053 0.41183
2848 2 0.0340793 0.300048 0.422598
4434 4 0.0202922 0.326664 0.446177
3461 4 0.00943113 0.266713 0.488331
2849 4 0.0153018 0.312585 0.433341
3460 2 0.00949312 0.291596 0.490784
3462 4 0.00955511 0.316479 0.493236
1033 2 0.0885598 0.306215 0.413604
249 4 0.128825 0.302043 0.404716
1035 4 0.113406 0.308377 0.415378
247 2 0.138714 0.280891 0.413661
325 2 0.152004 0.257554 0.495586
407 4 0.224252 0.334765 0.432514
8 3 0.183584 0.269804 0.462667
326 4 0.17192 0.264519 0.482168
710 4 0.229379 0.319037 0.444421
709 2 0.24618 0.300581 0.445934
375 4 0.191905 0.269656 0.483574
711 4 0.262981 0.282125 0.447447
404 4 0.318296 0.312125 0.427699
717 4 0.38812 0.259076 0.42986
650 4 0.325653 0.3187 0.475974
649 2 0.344417 0.313619 0.460248
651 4 0.36318 0.308537 0.444522
716 4 0.37752 0.307933 0.431014
715 2 0.38282 0.283504 0.430437
812 4 0.324719 0.325264 0.495066
1009 2 0.461539 0.262476 0.481562
238 2 0.452134 0.313065 0.449283
240 4 0.443413 0.300013 0.468744
1011 4 0.449532 0.280851 0.469589
540 4 0.00819888 0.409811 0.421591
538 2 0.0296782 0.397104 0.420058
539 4 0.0511576 0.384397 0.418524
936 4 0.00688773 0.377124 0.469165
4433 4 0.0245319 0.373023 0.46444
4432 2 0.022412 0.349843 0.455308
679 2 0.134189 0.382066 0.41271
443 4 0.104797 0.370513 0.412668
681 4 0.156065 0.380573 0.424725
570 4 0.169329 0.39417 0.414983
568 2 0.177434 0.413244 0.428971
560 4 0.225482 0.354387 0.479238
559 2 0.248792 0.359141 0.486933
561 4 0.272102 0.363894 0.494629
335 4 0.31082 0.364401 0.437216
334 2 0.298696 0.362799 0.459024
336 4 0.286571 0.361197 0.480833
773 4 0.328146 0.374191 0.431962
772 2 0.325298 0.397311 0.422877
752 4 0.400142 0.397763 0.424063
927 4 0.415666 0.374743 0.428274
925 2 0.432666 0.356852 0.424266
239 4 0.460855 0.326118 0.429822
587 4 0.443685 0.396344 0.42536
926 4 0.449666 0.33896 0.420258
412 2 0.185382 0.469502 0.430999
414 4 0.186488 0.451213 0.448013
569 4 0.185539 0.432319 0.442958
1399 2 0.302577 0.48762 0.4483
4 3 0.283384 0.454155 0.415225
1587 4 0.29899 0.49122 0.482434
3 3 0.301681 0.42092 0.417468
1401 4 0.308858 0.501629 0.468035
1400 4 0.296295 0.473611 0.428565
586 2 0.436342 0.413673 0.441821
588 4 0.428999 0.431002 0.458282
882 4 0.446223 0.473324 0.491256
663 4 0.490236 0.465101 0.468107
881 4 0.491722 0.453585 0.484857
880 2 0.468973 0.463455 0.488056
2428 2 0.0352403 0.00142853 0.571437
2430 4 0.0468005 0.0217438 0.562558
340 2 0.0544935 0.0381518 0.529282
341 4 0.057894 0.0341766 0.553732
342 4 0.0510929 0.042127 0.504832
857 4 0.158564 0.0649247 0.500178
1645 2 0.212783 0.0221959 0.543275
1646 4 0.208495 0.0128663 0.520477
1152 4 0.191344 0.00796899 0.509496
1647 4 0.217071 0.0315256 0.566073
950 4 0.210212 0.0287172 0.583875
1150 2 0.175972 0.0265034 0.502761
1182 4 0.276196 0.0481416 0.546453
1032 4 0.28837 0.0615139 0.539821
1180 2 0.278483 0.0249862 0.555606
1181 4 0.280769 0.00183091 0.564759
4466 4 0.384609 0.0330491 0.532703
4465 2 0.399431 0.0174198 0.5454
575 4 0.379641 0.0446462 0.516746
574 2 0.393082 0.0615957 0.504206
4467 4 0.414254 0.00179058 0.558096
3488 4 0.417241 0.996706 0.495306
88 3 0.466473 0.997067 0.572633
3007 2 0.445369 7.86735e-05 0.523607
3009 4 0.458542 0.993256 0.543734
89 3 0.42867 0.9987 0.576191
3008 4 0.432196 0.00690182 0.503479
856 2 0.162723 0.0817434 0.518206
1221 4 0.150543 0.161994 0.523395
1219 2 0.154295 0.137275 0.523668
1220 4 0.158047 0.112556 0.52394
858 4 0.166883 0.0985622 0.536234
1030 2 0.289106 0.0855061 0.546821
1031 4 0.289841 0.109498 0.553822
1225 2 0.28767 0.147201 0.542447
1226 4 0.294077 0.123116 0.540436
1227 4 0.281263 0.171286 0.544459
514 2 0.476702 0.145041 0.528773
305 4 0.464803 0.118135 0.559038
515 4 0.477081 0.130442 0.549069
516 4 0.476323 0.15964 0.508478
304 2 0.446037 0.116559 0.575486
879 4 0.0210177 0.227511 0.545576
877 2 0.0166738 0.240424 0.52461
1272 4 0.0286586 0.230854 0.5635
1212 4 0.148289 0.178242 0.535915
327 4 0.132088 0.250589 0.509003
1210 2 0.168895 0.191286 0.530397
1240 2 0.192192 0.233929 0.563809
1242 4 0.191024 0.253797 0.548674
1211 4 0.189501 0.204329 0.524878
909 4 0.271913 0.182761 0.557654
907 2 0.255919 0.18329 0.576866
266 4 0.405678 0.228051 0.544359
888 4 0.408665 0.211043 0.557279
886 2 0.401385 0.199752 0.578366
265 2 0.427909 0.239483 0.543854
1026 4 0.48005 0.179367 0.504061
872 4 0.461512 0.254803 0.558673
3264 4 0.00835053 0.332334 0.505407
347 4 0.118627 0.252547 0.523013
792 4 0.19422 0.319339 0.515508
374 4 0.207405 0.303943 0.51651
373 2 0.199655 0.286799 0.500042
267 4 0.45014 0.250915 0.543349
871 2 0.475568 0.274575 0.564728
873 4 0.489624 0.294347 0.570784
790 2 0.202743 0.33749 0.530445
791 4 0.211265 0.35564 0.545382
1191 4 0.229143 0.347122 0.546068
1189 2 0.244665 0.362788 0.557851
1190 4 0.260186 0.378454 0.569634
811 2 0.330792 0.340482 0.513952
813 4 0.336866 0.355699 0.532839
1238 4 0.347953 0.36665 0.546675
1237 2 0.365192 0.360018 0.563528
1239 4 0.382431 0.353385 0.580381
1279 2 0.0622104 0.491207 0.581189
1281 4 0.0855423 0.489301 0.572405
1436 4 0.146684 0.478427 0.539004
1435 2 0.138098 0.490555 0.518895
1173 4 0.300551 0.433259 0.568326
890 4 0.312506 0.440032 0.553764
889 2 0.328253 0.455482 0.565534
891 4 0.343999 0.470932 0.577304
1909 2 0.431563 0.470446 0.528917
1911 4 0.431312 0.474977 0.553506
1268 4 0.445615 0.461946 0.560756
1910 4 0.431814 0.465915 0.504329
2306 4 0.498423 0.45929 0.573137
33 3 0.0407329 0.0825854 0.639002
1892 4 0.145872 0.0234442 0.662095
939 4 0.157364 0.00722104 0.65753
949 2 0.228985 0.0369714 0.598179
951 4 0.247759 0.0452256 0.612483
1092 4 0.239181 0.0538542 0.62885
1090 2 0.242806 0.0757556 0.640355
43 3 0.327196 0.0169957 0.64958
1193 4 0.38489 0.074352 0.637325
4227 4 0.389357 0.0824221 0.65442
4225 2 0.412564 0.0732307 0.65587
86 1 0.448927 0.00151135 0.587152
809 4 0.452015 0.0577364 0.649503
808 2 0.453161 0.0395821 0.632349
810 4 0.454307 0.0214278 0.615194
90 3 0.450592 0.0228012 0.595065
4226 4 0.435772 0.0640394 0.65732
32 3 0.0652358 0.110917 0.635908
31 1 0.0526809 0.09863 0.650759
34 3 0.0669267 0.0883632 0.665926
35 3 0.0383396 0.112506 0.661734
1050 4 0.259123 0.11053 0.661353
1091 4 0.246431 0.097657 0.651861
1283 4 0.267722 0.171809 0.653129
898 2 0.379294 0.149839 0.614596
899 4 0.375064 0.125999 0.620837
1194 4 0.363515 0.112573 0.61318
1192 2 0.374203 0.0934627 0.625253
306 4 0.427271 0.114982 0.591934
1270 2 0.0231596 0.24378 0.584185
1271 4 0.0176605 0.256706 0.604869
1154 4 0.0168858 0.2549 0.625375
1241 4 0.193361 0.214061 0.578944
1278 4 0.191339 0.209934 0.598319
1277 4 0.19302 0.233195 0.642555
1276 2 0.192179 0.221565 0.620437
1284 4 0.241357 0.169913 0.610679
908 4 0.239924 0.183819 0.596078
1282 2 0.254539 0.170861 0.631904
798 4 0.191712 0.227503 0.661992
796 2 0.172243 0.234272 0.676146
1004 4 0.283657 0.162243 0.660658
900 4 0.383524 0.173679 0.608355
887 4 0.394104 0.188461 0.599454
1153 2 0.00638164 0.256496 0.648009
1165 2 0.168426 0.324016 0.614748
1166 4 0.146301 0.335282 0.617706
1167 4 0.19055 0.312749 0.61179
918 4 0.208706 0.304155 0.606901
916 2 0.22699 0.294718 0.621107
917 4 0.245274 0.28528 0.635313
1136 4 0.247649 0.315479 0.654497
802 2 0.28196 0.285153 0.648698
803 4 0.257055 0.285879 0.650795
806 4 0.319855 0.291072 0.66085
804 4 0.306865 0.284427 0.646601
805 2 0.338917 0.302855 0.64976
807 4 0.357979 0.314638 0.638669
1028 4 0.374461 0.310776 0.629746
1027 2 0.38219 0.325063 0.610737
3023 4 0.477737 0.315214 0.65809
993 4 0.0666086 0.412006 0.662782
991 2 0.0840576 0.39477 0.667644
897 4 0.127086 0.339763 0.610981
896 4 0.108658 0.385865 0.605005
895 2 0.117872 0.362814 0.607993
1171 2 0.285694 0.420723 0.584052
1159 2 0.255765 0.416557 0.630632
1161 4 0.271507 0.401489 0.618371
1172 4 0.270838 0.408187 0.599778
1029 4 0.389919 0.339349 0.591728
1139 4 0.466423 0.33176 0.656613
1138 2 0.464509 0.356679 0.657352
1140 4 0.462596 0.381598 0.65809
1280 4 0.0388785 0.493113 0.589974
2016 4 0.0840254 0.479121 0.649168
2014 2 0.0795801 0.454864 0.65329
3432 4 0.0926091 0.494978 0.658336
1041 4 0.0970702 0.505094 0.58048
2154 4 0.220556 0.432314 0.652137
2152 2 0.215099 0.454847 0.661501
2153 4 0.209642 0.477379 0.670866
2352 4 0.197443 0.490582 0.662271
1160 4 0.240023 0.431624 0.642893
1228 2 0.316614 0.435031 0.668187
1230 4 0.298348 0.428692 0.652333
1001 4 0.352752 0.48935 0.581907
1000 2 0.359999 0.505943 0.59915
1267 2 0.435493 0.456727 0.583016
1269 4 0.425371 0.451507 0.605275
2285 4 0.0700632 0.0729573 0.677303
862 2 0.0812155 0.0273984 0.738085
912 4 0.0444465 0.00560011 0.740764
863 4 0.0638728 0.0111786 0.745916
2286 4 0.0969406 0.0477258 0.711092
2284 2 0.0835019 0.0603416 0.694197
864 4 0.0985582 0.0436182 0.730254
1891 2 0.146304 0.038231 0.682253
1893 4 0.146735 0.0530179 0.702411
2399 4 0.146405 0.0430039 0.719804
2398 2 0.164024 0.0546261 0.733208
2400 4 0.181643 0.0662484 0.746612
45 3 0.321797 0.050586 0.66571
980 4 0.333954 0.0382966 0.714131
2321 4 0.321464 0.0247211 0.705474
41 1 0.332976 0.030809 0.667305
44 3 0.327877 0.0204326 0.687423
2320 2 0.304444 0.00662274 0.708291
42 3 0.355614 0.0348185 0.666533
979 2 0.347698 0.0318812 0.734008
2997 4 0.499817 0.0102038 0.678128
4464 4 0.486839 0.00292311 0.692829
852 4 0.0202864 0.104813 0.674534
945 4 0.0300087 0.0811871 0.72632
943 2 0.0341289 0.0936248 0.705024
944 4 0.0382491 0.106063 0.683729
1022 4 0.292798 0.122841 0.720431
1048 2 0.272964 0.11208 0.682119
1049 4 0.286804 0.11363 0.702885
1021 2 0.278293 0.136505 0.735534
1023 4 0.263788 0.150168 0.750637
3114 4 0.48652 0.154036 0.722816
797 4 0.152774 0.24104 0.690299
695 4 0.138606 0.236806 0.70422
1003 2 0.292852 0.181822 0.673199
1005 4 0.302047 0.201402 0.68574
831 4 0.320934 0.209339 0.681779
829 2 0.33159 0.218818 0.702316
978 4 0.341692 0.235066 0.742083
830 4 0.342247 0.228297 0.722854
1298 4 0.477737 0.243049 0.739656
1155 4 0.995878 0.258092 0.670643
1258 2 0.120854 0.310035 0.737548
694 2 0.134224 0.252811 0.722923
1259 4 0.131138 0.287488 0.734224
696 4 0.129842 0.268817 0.741626
1260 4 0.110569 0.332581 0.740872
1135 2 0.234614 0.328946 0.671047
1020 4 0.390107 0.329665 0.719821
953 4 0.477375 0.26005 0.72946
954 4 0.459782 0.306281 0.722119
952 2 0.468579 0.283165 0.72579
1208 4 0.107138 0.347983 0.727598
992 4 0.101507 0.377534 0.672506
1209 4 0.115131 0.366441 0.681814
1207 2 0.111135 0.357212 0.704706
1137 4 0.221579 0.342413 0.687598
948 4 0.211123 0.359034 0.690491
947 4 0.166044 0.348636 0.709477
946 2 0.188583 0.353835 0.699984
1008 4 0.327678 0.357618 0.678964
1006 2 0.307697 0.348282 0.690744
1007 4 0.287715 0.338946 0.702523
1068 4 0.261499 0.39162 0.733972
1067 4 0.28681 0.351499 0.718148
1066 2 0.274155 0.371559 0.72606
1176 4 0.259289 0.410712 0.742295
1018 2 0.403168 0.350769 0.716786
1019 4 0.416229 0.371873 0.713752
1205 4 0.418187 0.392192 0.710687
1206 4 0.450534 0.386118 0.673038
1204 2 0.434361 0.389155 0.691862
1101 4 0.424872 0.412052 0.734582
2015 4 0.0751348 0.430606 0.657413
1981 2 0.0975763 0.48957 0.750197
1229 4 0.33488 0.44137 0.684041
911 4 0.028671 0.0110422 0.787904
910 2 0.0365587 0.00832116 0.764334
2276 4 0.0659359 0.984774 0.832625
1196 4 0.141404 0.0380308 0.809789
1195 2 0.128716 0.0216402 0.823772
1895 4 0.156525 0.0487604 0.818187
1149 4 0.192833 0.0573511 0.758642
1147 2 0.210611 0.0552995 0.776104
1148 4 0.228389 0.0532478 0.793565
1894 2 0.174682 0.0655525 0.821862
1896 4 0.19284 0.0823446 0.825537
981 4 0.361443 0.0254659 0.753885
1112 4 0.372028 0.0320324 0.77066
974 4 0.397461 0.0790344 0.82493
973 2 0.386328 0.0578597 0.8322
1111 2 0.395099 0.0316163 0.780291
1113 4 0.418169 0.0312002 0.789922
3038 4 0.016107 0.12172 0.798584
3246 4 0.0252896 0.134329 0.784298
3244 2 0.0483349 0.140207 0.776581
833 4 0.0742 0.157197 0.751156
3245 4 0.0713802 0.146084 0.768865
2048 4 0.211338 0.0817668 0.819238
2047 2 0.236074 0.0852145 0.818051
2049 4 0.26081 0.0886623 0.816864
1256 4 0.274432 0.161669 0.762727
840 4 0.264581 0.0980247 0.833591
3269 4 0.396321 0.0976734 0.818989
3268 2 0.413729 0.10662 0.834548
832 2 0.0848073 0.179419 0.755492
921 4 0.103416 0.236098 0.810597
834 4 0.0954146 0.201642 0.759828
920 4 0.0887304 0.22069 0.765346
919 2 0.096073 0.228394 0.787972
1129 2 0.254925 0.232706 0.800333
1257 4 0.250478 0.200393 0.783401
1131 4 0.266084 0.211931 0.792023
1255 2 0.262455 0.181031 0.773064
976 2 0.362535 0.229057 0.754519
1146 4 0.397085 0.234831 0.777611
1144 2 0.399196 0.228301 0.801655
977 4 0.383378 0.223049 0.766955
1297 2 0.492408 0.239583 0.759604
1105 2 0.0481488 0.30277 0.785308
1107 4 0.0363555 0.319811 0.771319
1106 4 0.0599422 0.285729 0.799296
1074 4 0.116527 0.249589 0.808545
815 4 0.105653 0.311534 0.828532
1073 4 0.115316 0.298919 0.816656
1072 2 0.115921 0.274254 0.8126
799 2 0.224437 0.28798 0.818937
801 4 0.228417 0.263542 0.815457
800 4 0.220458 0.312419 0.822416
1130 4 0.243766 0.253481 0.808642
941 4 0.228807 0.322758 0.806946
789 4 0.444513 0.33233 0.802037
1215 4 0.0633546 0.381754 0.760654
1214 4 0.0438338 0.3375 0.773352
821 4 0.0806814 0.389315 0.769038