ITEM: TIMESTEP
2260000
ITEM: NUMBER OF ATOMS
4590
ITEM: BOX BOUNDS pp pp pp
-9.9985700000000008e+00 9.9985700000000008e+00
-9.9985700000000008e+00 9.9985700000000008e+00
-9.9985700000000008e+00 9.9985700000000008e+00
ITEM: ATOMS id type xs ys zs
3752 4 0.0661181 0.018201 0.0493693
3751 2 0.0507996 0.0356648 0.0401207
3753 4 0.035481 0.0531286 0.0308722
702 4 0.0182392 0.0519775 0.0403108
465 4 0.06798 0.00612795 0.0318998
422 4 0.205269 0.0499152 0.0193103
567 4 0.20691 0.0409584 0.0381224
565 2 0.212998 0.0411716 0.0623726
421 2 0.184963 0.0442796 0.00585388
490 2 0.292722 0.0370909 0.0463165
654 4 0.311931 0.0756845 0.0558394
491 4 0.305485 0.0565313 0.0555002
492 4 0.279958 0.0176504 0.0371328
1634 4 0.262867 0.00930555 0.0290595
652 2 0.336789 0.0736604 0.0576166
653 4 0.361647 0.0716363 0.0593939
486 4 0.381072 0.0711144 0.0583597
484 2 0.390097 0.048972 0.06567
485 4 0.399122 0.0268295 0.0729802
1608 4 0.391251 0.0109412 0.0824426
745 2 0.455322 0.00959994 0.0133461
295 2 0.452353 0.0148701 0.0697929
297 4 0.462046 0.00321535 0.0499088
380 4 0.0562339 0.120793 0.0628658
358 2 0.262913 0.163808 0.0243839
359 4 0.266189 0.154011 0.0471536
460 2 0.297313 0.141592 0.0635804
461 4 0.321793 0.136502 0.0635559
462 4 0.272833 0.146682 0.063605
558 4 0.330237 0.151753 0.0516112
771 4 0.446549 0.107152 0.0406487
1013 4 0.44292 0.118403 0.0249016
769 2 0.438311 0.12475 0.0563852
770 4 0.430073 0.142347 0.0721218
1012 2 0.457652 0.126562 0.00641942
2976 4 0.507852 0.0821686 0.0875966
2808 4 0.0202108 0.19584 0.991618
2806 2 0.0109095 0.217826 0.999054
555 4 0.0203951 0.179828 0.980137
915 4 0.1436 0.206598 0.0424793
913 2 0.149709 0.221679 0.0234944
914 4 0.155818 0.23676 0.00450946
572 4 0.254943 0.256213 0.0700816
556 2 0.347837 0.166683 0.0419938
557 4 0.365438 0.181614 0.0323765
517 2 0.387453 0.206898 0.0567415
518 4 0.36838 0.198657 0.0428316
519 4 0.406526 0.215138 0.0706514
1070 4 0.399589 0.241124 0.989148
1095 4 0.417234 0.229676 0.0620413
3347 4 0.468783 0.222028 0.0251809
1093 2 0.439399 0.223025 0.0525728
1094 4 0.461564 0.216374 0.0431043
3346 2 0.491515 0.222139 0.0147686
475 2 0.0967087 0.29228 0.0571054
476 4 0.110945 0.308766 0.0448275
1169 4 0.111964 0.322628 0.01311
288 4 0.162155 0.256082 0.999917
293 4 0.0978442 0.336735 0.0139094
477 4 0.0824727 0.275795 0.0693832
483 4 0.213963 0.292783 0.0248128
481 2 0.212768 0.315115 0.0359935
286 2 0.18332 0.267067 0.007437
287 4 0.204485 0.278052 0.0149569
573 4 0.263662 0.268822 0.0224822
571 2 0.259302 0.262518 0.0462819
357 4 0.28354 0.273639 0.0177329
355 2 0.302445 0.27918 0.00233552
608 4 0.329809 0.330762 0.0704771
607 2 0.342372 0.309192 0.069035
609 4 0.354935 0.287622 0.0675929
671 4 0.347986 0.283212 0.086128
294 4 0.0627664 0.365987 0.0342707
620 4 0.0641067 0.357157 0.0522361
619 2 0.0412818 0.361207 0.0616059
621 4 0.0184568 0.365258 0.0709757
292 2 0.0803053 0.351361 0.02409
1168 2 0.132348 0.332314 0.00234692
482 4 0.211573 0.337448 0.0471742
456 4 0.159278 0.375312 0.0262912
454 2 0.177498 0.362222 0.0373296
455 4 0.195718 0.349131 0.048368
957 4 0.321103 0.34396 0.0580836
955 2 0.311171 0.345697 0.0352029
956 4 0.30124 0.347435 0.0123221
38 3 0.358033 0.384228 0.0177244
37 3 0.366255 0.348237 0.0106749
251 4 0.128373 0.449854 0.0205418
795 4 0.111087 0.45531 0.0124123
250 2 0.152726 0.451659 0.0151712
793 2 0.106007 0.475996 0.999319
252 4 0.177079 0.453464 0.00980052
1289 4 0.183516 0.458193 0.991715
64 3 0.332425 0.476975 0.0277047
61 1 0.326764 0.49653 0.0388386
63 3 0.329475 0.493693 0.0617079
1568 4 0.47976 0.50353 0.076896
566 4 0.219085 0.0413849 0.0866228
1475 4 0.254662 0.0310106 0.162693
673 2 0.230619 0.0399418 0.127948
674 4 0.222966 0.0479873 0.105545
688 2 0.176304 0.00801128 0.158792
675 4 0.238272 0.0318963 0.150351
311 4 0.417838 0.0682104 0.110211
310 2 0.418349 0.076681 0.133731
296 4 0.442659 0.0265248 0.089677
628 2 0.471877 0.0609773 0.0967061
629 4 0.451077 0.0471275 0.0958556
2745 4 0.481545 0.0231768 0.14382
2743 2 0.501804 0.0334292 0.154292
20 3 0.0613326 0.0893694 0.137601
379 2 0.0589398 0.123556 0.0875685
381 4 0.0616457 0.126319 0.112271
17 3 0.0478909 0.122833 0.127989
16 1 0.0558544 0.110059 0.145384
19 3 0.0393321 0.108307 0.161581
18 3 0.0746219 0.12039 0.154298
578 4 0.0927104 0.126218 0.146192
577 2 0.115135 0.12204 0.135951
579 4 0.137559 0.117862 0.12571
237 4 0.147278 0.11818 0.144498
235 2 0.162818 0.12826 0.161293
236 4 0.178359 0.138341 0.178087
255 4 0.387607 0.129997 0.156417
253 2 0.392708 0.147852 0.139673
312 4 0.41886 0.0851517 0.15725
630 4 0.492677 0.0748271 0.0975567
2469 4 0.430574 0.148753 0.0918288
2467 2 0.442601 0.14318 0.11303
2724 4 0.473567 0.145621 0.132768
2468 4 0.454627 0.137608 0.134231
2722 2 0.48654 0.140872 0.153609
764 4 0.418488 0.100624 0.170461
738 4 0.199046 0.19549 0.162832
736 2 0.189364 0.216471 0.15328
737 4 0.179682 0.237451 0.143727
279 4 0.1736 0.231635 0.125326
322 2 0.377616 0.204464 0.119326
323 4 0.370023 0.228214 0.117463
254 4 0.397809 0.165707 0.122929
324 4 0.385208 0.180714 0.121189
672 4 0.368364 0.241449 0.104602
2650 2 0.44775 0.219423 0.117436
2651 4 0.433477 0.217588 0.137883
2652 4 0.462024 0.221259 0.096989
527 4 0.432316 0.222023 0.15681
363 4 0.089925 0.255374 0.148668
2624 4 0.0325257 0.292853 0.111377
338 4 0.0768056 0.265284 0.0866114
337 2 0.0820752 0.267463 0.110956
339 4 0.0873448 0.269643 0.135301
647 4 0.0187663 0.286314 0.153929
2623 2 0.0083182 0.286841 0.109634
535 2 0.134117 0.298693 0.137439
536 4 0.151496 0.289032 0.122279
278 4 0.15989 0.276893 0.109063
298 2 0.0878701 0.318553 0.162694
537 4 0.116738 0.308355 0.152598
277 2 0.166745 0.254264 0.117194
345 4 0.216157 0.335981 0.157542
343 2 0.23886 0.33612 0.168017
755 4 0.270451 0.268501 0.133423
754 2 0.261751 0.260109 0.111536
756 4 0.25305 0.251716 0.0896487
670 2 0.358175 0.26233 0.0953648
624 4 0.374462 0.242167 0.15561
622 2 0.394093 0.255193 0.147235
739 2 0.413407 0.313689 0.141899
623 4 0.413724 0.268219 0.13886
740 4 0.413364 0.288837 0.13915
657 4 0.0158319 0.355713 0.0899347
655 2 0.99688 0.352224 0.105866
299 4 0.109095 0.326497 0.152131
385 2 0.393862 0.37016 0.14668
386 4 0.377808 0.384173 0.15976
387 4 0.409917 0.356148 0.1336
741 4 0.413449 0.338541 0.144648
495 4 0.475548 0.40941 0.122077
595 2 0.472624 0.392774 0.162589
597 4 0.471531 0.407277 0.14225
315 4 0.994094 0.429249 0.0644653
264 4 0.140672 0.455749 0.151846
262 2 0.164266 0.461786 0.146184
602 4 0.136513 0.445299 0.16882
263 4 0.18786 0.467822 0.140521
1575 4 0.421444 0.495139 0.145254
1573 2 0.414906 0.48577 0.167494
493 2 0.49346 0.413131 0.105033
1567 2 0.491746 0.491235 0.0950716
232 2 0.0439754 0.0121879 0.220749
233 4 0.0573635 0.0320841 0.227825
689 4 0.196676 0.0107747 0.173022
1506 4 0.205384 0.024241 0.185771
1504 2 0.204164 0.0457804 0.19841
1505 4 0.202944 0.0673198 0.211049
1474 2 0.26324 0.017866 0.182156
1476 4 0.271819 0.00472144 0.201619
2481 4 0.0288487 0.124363 0.16874
2479 2 0.0213984 0.141267 0.18559
722 4 0.194013 0.128176 0.183026
721 2 0.19368 0.122673 0.207414
693 4 0.195221 0.0976211 0.237738
723 4 0.193346 0.117169 0.231802
23 3 0.348663 0.15473 0.240885
521 4 0.454604 0.142383 0.197833
763 2 0.432423 0.112959 0.187159
765 4 0.446357 0.125294 0.203858
520 2 0.459085 0.161054 0.213848
2480 4 0.0139482 0.158171 0.202439
391 2 0.0939568 0.218743 0.223445
362 4 0.0978278 0.233992 0.193177
392 4 0.0931358 0.215507 0.198665
361 2 0.0938764 0.244683 0.170922
580 2 0.236986 0.17022 0.250859
581 4 0.223646 0.181563 0.23301
284 4 0.200984 0.205036 0.180221
285 4 0.231394 0.192243 0.217801
283 2 0.216189 0.198639 0.199011
612 4 0.292806 0.228836 0.231225
308 4 0.298257 0.24326 0.22055
610 2 0.291158 0.222256 0.255291
25 3 0.35222 0.190038 0.2283
759 4 0.354039 0.180696 0.211345
758 4 0.389173 0.1954 0.17894
757 2 0.371606 0.188048 0.195143
528 4 0.40412 0.199663 0.191532
526 2 0.418218 0.210843 0.174171
21 1 0.346973 0.177212 0.246373
522 4 0.463567 0.179725 0.229863
762 4 0.480218 0.18824 0.226322
760 2 0.488905 0.208557 0.238023
300 4 0.0666454 0.310609 0.173258
648 4 0.0487038 0.321039 0.173894
646 2 0.033735 0.303676 0.163911
389 4 0.111111 0.285245 0.182701
390 4 0.13601 0.283195 0.226021
388 2 0.12356 0.28422 0.204361
372 4 0.149964 0.292557 0.237033
307 2 0.289115 0.262966 0.208171
309 4 0.279972 0.282672 0.195791
497 4 0.296024 0.293914 0.198842
496 2 0.282896 0.315174 0.197902
366 4 0.0596026 0.375646 0.243818
749 4 0.0747613 0.385685 0.238973
748 2 0.0883394 0.40177 0.225479
733 2 0.149041 0.419479 0.237008
735 4 0.127529 0.416838 0.249475
417 4 0.184255 0.420148 0.20981
344 4 0.261564 0.336259 0.178491
498 4 0.269769 0.336433 0.196962
11 1 0.394509 0.391702 0.2245
12 3 0.393267 0.388533 0.20175
14 3 0.380325 0.376609 0.234962
15 3 0.415943 0.38828 0.231392
542 4 0.433887 0.397306 0.23306
541 2 0.4505 0.379559 0.227212
108 3 0.478542 0.346183 0.21575
543 4 0.467114 0.361812 0.221363
109 3 0.482745 0.345965 0.177978
107 3 0.487157 0.377836 0.197405
106 1 0.490407 0.355069 0.197898
596 4 0.473718 0.378271 0.182927
2794 2 0.00677943 0.47298 0.204042
2796 4 0.0285282 0.483377 0.197404
3600 4 0.0730874 0.505292 0.240889
750 4 0.101917 0.417855 0.211984
603 4 0.107961 0.436634 0.20895
601 2 0.122237 0.440967 0.188885
734 4 0.170553 0.422119 0.22454
291 4 0.240435 0.422054 0.178666
416 4 0.220822 0.427466 0.176494
415 2 0.202539 0.423807 0.193152
289 2 0.258236 0.429621 0.19451
290 4 0.276038 0.437188 0.210354
658 2 0.291128 0.48765 0.190528
768 4 0.289776 0.427176 0.221557
659 4 0.30697 0.470067 0.198592
766 2 0.286282 0.418043 0.244569
1862 4 0.263007 0.506503 0.244888
1861 2 0.285317 0.497702 0.251959
13 3 0.387984 0.41342 0.229416
645 4 0.38937 0.432905 0.226807
643 2 0.391926 0.447548 0.206702
644 4 0.394482 0.46219 0.186596
1574 4 0.408368 0.476402 0.189735
3696 4 0.469938 0.465536 0.233366
2484 4 0.00392805 0.038495 0.301918
2757 4 0.0162992 0.0338885 0.317261
2755 2 0.0284133 0.0165801 0.330635
731 4 0.0931185 0.0503725 0.285745
730 2 0.0835454 0.0275073 0.282471
318 4 0.110927 0.0589071 0.287202
316 2 0.0987218 0.0807061 0.286192
1699 2 0.202909 0.0061513 0.310546
1700 4 0.219839 0.0240312 0.314887
1830 4 0.235623 0.0364394 0.318395
1828 2 0.258972 0.0419015 0.325477
1496 4 0.294442 0.0630712 0.335344
332 4 0.417242 0.061035 0.271821
453 4 0.484871 0.0586077 0.304934
351 4 0.430012 0.0460024 0.270615
349 2 0.451074 0.0460909 0.28409
350 4 0.472135 0.0461795 0.297566
531 4 0.0736412 0.170709 0.307511
399 4 0.101448 0.115757 0.291616
317 4 0.086517 0.102505 0.285181
397 2 0.110151 0.138583 0.296947
398 4 0.118855 0.161408 0.302278
474 4 0.234877 0.0874624 0.33854
691 2 0.211746 0.103445 0.255577
472 2 0.237003 0.0922865 0.314099
692 4 0.22827 0.10927 0.273415
473 4 0.239129 0.0971107 0.289657
582 4 0.250326 0.158878 0.268708
27 3 0.262738 0.144294 0.263052
29 3 0.249693 0.112767 0.278818
30 3 0.286699 0.117927 0.274167
28 3 0.268259 0.138471 0.299771
26 1 0.266977 0.128248 0.27898
377 4 0.288178 0.140259 0.302483
376 2 0.293556 0.161128 0.315161
683 4 0.29829 0.129819 0.288349
682 2 0.319017 0.118203 0.296136
333 4 0.418337 0.107321 0.252924
684 4 0.339744 0.106587 0.303924
724 2 0.368933 0.0953085 0.324329
743 4 0.405505 0.122243 0.245218
742 2 0.390148 0.138849 0.255878
725 4 0.345097 0.102837 0.323739
744 4 0.374792 0.155454 0.266537
425 4 0.410864 0.0796115 0.316423
726 4 0.392769 0.0877803 0.324919
331 2 0.417789 0.0841781 0.262372
424 2 0.427038 0.090957 0.331748
393 4 0.0947778 0.22198 0.248224
529 2 0.0570608 0.168574 0.326104
512 4 0.0659371 0.172335 0.28783
511 2 0.0758546 0.189758 0.272888
513 4 0.085772 0.207181 0.257946
24 3 0.325425 0.182025 0.253509
707 4 0.271799 0.221285 0.284541
611 4 0.28951 0.215676 0.279357
706 2 0.268664 0.231278 0.307245
378 4 0.298934 0.181997 0.32784
632 4 0.363345 0.16171 0.282892
631 2 0.380733 0.176834 0.292593
22 3 0.361669 0.181822 0.263459
633 4 0.39812 0.191958 0.302295
419 4 0.410267 0.208602 0.297687
418 2 0.434968 0.206041 0.294777
268 2 0.500555 0.215533 0.293205
269 4 0.480308 0.201104 0.290558
420 4 0.45967 0.203479 0.291868
370 2 0.159886 0.302003 0.257949
371 4 0.169809 0.31145 0.278865
400 2 0.192947 0.32673 0.308884
402 4 0.172767 0.319444 0.296043
405 4 0.249597 0.245757 0.34033
401 4 0.213126 0.334016 0.321725
729 4 0.292941 0.293676 0.270914
708 4 0.26553 0.241271 0.32995
727 2 0.304795 0.314996 0.276399
559 2 0.405402 0.333976 0.320937
560 4 0.416419 0.33338 0.2985
365 4 0.022884 0.360564 0.274232
444 4 0.0631924 0.336762 0.338584
364 2 0.0412433 0.368105 0.259025
618 4 0.0708873 0.348228 0.324402
2717 4 0.0148514 0.350527 0.290977
616 2 0.0937828 0.350513 0.314616
617 4 0.116678 0.352797 0.304831
678 4 0.115786 0.371647 0.297559
677 4 0.128145 0.410461 0.268551
676 2 0.121966 0.391054 0.283055
510 4 0.225026 0.351128 0.317898
303 4 0.277479 0.390461 0.273645
301 2 0.293243 0.371115 0.272105
302 4 0.309008 0.351769 0.270564
728 4 0.31665 0.336317 0.281884
767 4 0.282787 0.408911 0.267581
2537 4 0.426847 0.347367 0.292201
2536 2 0.427033 0.371139 0.284454
2538 4 0.427219 0.394911 0.276707
447 4 0.420646 0.40831 0.289589
1790 4 0.0605483 0.484568 0.327923
776 4 0.105052 0.424243 0.324701
1757 4 0.0998392 0.437477 0.338234
1430 4 0.201577 0.498002 0.238098
1863 4 0.307626 0.488901 0.259031
229 2 0.33231 0.484047 0.288348
230 4 0.337489 0.483671 0.312806
1802 4 0.341346 0.467513 0.322706
445 2 0.415121 0.424215 0.308074
3641 4 0.497421 0.483368 0.326651
3694 2 0.490656 0.469452 0.246805
3990 4 0.477998 0.485054 0.327067
429 4 0.163356 0.0271623 0.384418
427 2 0.165485 0.00270591 0.379671
1151 4 0.216324 0.0582034 0.4034
1829 4 0.282322 0.0473636 0.332559
440 4 0.276056 0.004223 0.392054
1495 2 0.305449 0.071495 0.356154
1818 4 0.293046 0.0132627 0.391256
1816 2 0.291839 0.032266 0.407461
1497 4 0.316457 0.0799189 0.376964
1517 4 0.326816 0.0628157 0.376597
1516 2 0.343375 0.0468216 0.386353
1518 4 0.359933 0.0308275 0.396109
699 4 0.374642 0.0235542 0.407933
2655 4 0.0304532 0.175063 0.35951
546 4 0.151214 0.163374 0.400637
544 2 0.126274 0.165073 0.401199
600 4 0.167614 0.172687 0.392848
641 4 0.473884 0.0839674 0.412705
258 4 0.441104 0.104111 0.366395
426 4 0.443211 0.102303 0.347074
256 2 0.460284 0.100186 0.381949
257 4 0.479463 0.0962606 0.397503
2654 4 0.0142997 0.178057 0.406741
2846 4 0.0135778 0.196389 0.417216
530 4 0.0404803 0.166438 0.344697
2653 2 0.0223765 0.17656 0.383126
249 4 0.0912708 0.228656 0.371244
1035 4 0.0770491 0.239422 0.381103
545 4 0.101335 0.166772 0.40176
247 2 0.0945064 0.207865 0.384752
248 4 0.097742 0.187075 0.39826
598 2 0.179356 0.190954 0.405242
685 2 0.21239 0.239969 0.414943
614 4 0.298241 0.183527 0.348092
613 2 0.303362 0.202927 0.363013
615 4 0.308482 0.222327 0.377933
716 4 0.327878 0.219896 0.383971
715 2 0.349448 0.232533 0.384442
717 4 0.371019 0.245169 0.384914
584 4 0.386474 0.241127 0.396851
583 2 0.408051 0.252219 0.402895
2850 4 0.00409584 0.29226 0.353351
442 2 0.0669833 0.32219 0.358545
443 4 0.0707742 0.307617 0.378506
711 4 0.088512 0.309778 0.386206
1033 2 0.0754191 0.264009 0.376861
1034 4 0.0737891 0.288597 0.37262
709 2 0.110345 0.312071 0.398174
710 4 0.132178 0.314364 0.410143
403 2 0.239471 0.25005 0.362785
687 4 0.231291 0.252941 0.40496
404 4 0.229346 0.254344 0.38524
561 4 0.394385 0.334573 0.343375
336 4 0.384544 0.32387 0.356417
334 2 0.373681 0.325658 0.378866
585 4 0.429629 0.263312 0.408939
407 4 0.150472 0.320321 0.403017
777 4 0.143866 0.400682 0.345656
406 2 0.160439 0.340851 0.41323
413 4 0.164191 0.394667 0.348594
775 2 0.124459 0.412462 0.335178
508 2 0.23432 0.359871 0.339401
408 4 0.170406 0.361382 0.423444
412 2 0.158974 0.391165 0.372795
414 4 0.153757 0.387664 0.396996
509 4 0.243613 0.368614 0.360903
504 4 0.240139 0.411782 0.39492
502 2 0.244101 0.38838 0.387056
503 4 0.248064 0.364979 0.379192
335 4 0.362819 0.327446 0.401316
587 4 0.368537 0.34725 0.399309
586 2 0.364585 0.361659 0.419357
751 2 0.398599 0.411695 0.409814
2742 4 0.489312 0.416726 0.381632
2507 4 0.493962 0.40116 0.394756
1758 4 0.0587745 0.465298 0.331876
1756 2 0.0793068 0.451388 0.335055
635 4 0.229911 0.423066 0.407738
1436 4 0.198155 0.476688 0.367315
438 4 0.209577 0.48338 0.351668
1435 2 0.196784 0.481422 0.391828
634 2 0.24309 0.444156 0.410327
436 2 0.231929 0.493119 0.346124
433 2 0.285646 0.491179 0.365116
1400 4 0.297582 0.498032 0.405036
1 1 0.295131 0.470156 0.416125
4 3 0.27343 0.466083 0.423256
434 4 0.298879 0.488767 0.386193
5 3 0.295931 0.470316 0.393366
594 4 0.328944 0.454767 0.414596
3 3 0.309392 0.453847 0.424435
446 4 0.409595 0.44012 0.326558
592 2 0.34712 0.455064 0.397429
1801 2 0.354066 0.457992 0.342013
593 4 0.365296 0.455362 0.380261
1803 4 0.366786 0.448471 0.361319
120 3 0.405235 0.433704 0.345061
753 4 0.402237 0.430752 0.394042
119 3 0.402691 0.444873 0.380928
2740 2 0.469269 0.429117 0.37327
117 3 0.4255 0.462699 0.356956
116 1 0.416833 0.442188 0.362729
3988 2 0.461739 0.47185 0.340722
118 3 0.434298 0.427963 0.3683
3989 4 0.445481 0.458645 0.354378
2741 4 0.449226 0.441508 0.364908
368 4 0.145883 0.0763322 0.421433
719 4 0.143004 0.0602526 0.432937
720 4 0.118464 0.031815 0.465949
718 2 0.130734 0.0460338 0.449443
342 4 0.10701 0.0218258 0.480008
1645 2 0.190328 0.0132235 0.472046
1646 4 0.196649 0.03602 0.463949
1152 4 0.209361 0.0441226 0.450876
1150 2 0.212843 0.051163 0.427138
606 4 0.280304 0.0648608 0.433161
1817 4 0.290632 0.0512694 0.423666
470 4 0.0162123 0.134777 0.500216
367 2 0.153926 0.0977616 0.431496
369 4 0.16197 0.119191 0.441559
275 4 0.180912 0.136596 0.489446
276 4 0.179919 0.128241 0.440152
274 2 0.180415 0.132418 0.464799
605 4 0.257313 0.105872 0.416125
319 2 0.262623 0.14624 0.423974
604 2 0.268808 0.0853662 0.424643
320 4 0.258935 0.121963 0.428684
468 4 0.368814 0.103173 0.492881
640 2 0.486847 0.0872473 0.433833
306 4 0.422954 0.123922 0.483857
574 2 0.418962 0.0876513 0.49952
304 2 0.430076 0.142945 0.498438
576 4 0.432221 0.10773 0.49272
983 4 0.988807 0.235791 0.456585
2847 4 0.00534914 0.224355 0.457847
2845 2 0.00946346 0.210372 0.437531
469 2 0.0250901 0.157649 0.495395
471 4 0.0339678 0.180521 0.490573
261 4 0.0461821 0.181008 0.473767
259 2 0.0637491 0.195923 0.464065
260 4 0.0813161 0.210838 0.454363
348 4 0.0989998 0.215247 0.4625
346 2 0.110254 0.233574 0.475253
686 4 0.193488 0.226998 0.424926
599 4 0.191098 0.209221 0.417636
411 4 0.261333 0.189333 0.422111
321 4 0.26631 0.170518 0.419264
409 2 0.27839 0.200619 0.436494
410 4 0.295448 0.211904 0.450876
489 4 0.298608 0.225191 0.434359
487 2 0.309676 0.246165 0.442284
984 4 0.00767172 0.265583 0.492043
982 2 0.998239 0.250687 0.474314
347 4 0.121508 0.251902 0.488005
326 4 0.126663 0.314266 0.49727
325 2 0.127221 0.289425 0.500061
327 4 0.127778 0.264584 0.502852
10 3 0.108891 0.323238 0.498375
375 4 0.141531 0.328412 0.50207
488 4 0.320744 0.267138 0.45021
651 4 0.324646 0.26921 0.469272
649 2 0.312523 0.282191 0.486871
650 4 0.3004 0.295172 0.504469
240 4 0.421421 0.279764 0.41728
238 2 0.417057 0.302489 0.426751
239 4 0.412693 0.325214 0.436222
4432 2 0.00260838 0.39531 0.499631
681 4 0.0643251 0.409887 0.45461
7 3 0.138339 0.345293 0.492107
679 2 0.0848138 0.396491 0.44952
568 2 0.143201 0.388216 0.437058
570 4 0.120079 0.395832 0.442762
680 4 0.105303 0.383094 0.444429
9 3 0.11194 0.341549 0.465618
6 1 0.11579 0.342553 0.488477
8 3 0.104469 0.360621 0.497631
569 4 0.166323 0.3806 0.431354
927 4 0.413822 0.390338 0.431399
588 4 0.360632 0.376068 0.439406
773 4 0.356694 0.360142 0.451174
772 2 0.360311 0.357809 0.475804
774 4 0.363928 0.355476 0.500434
752 4 0.39496 0.392638 0.425587
926 4 0.424593 0.341787 0.436638
925 2 0.419207 0.366062 0.434019
382 2 0.0208588 0.491882 0.469826
538 2 0.0516641 0.445438 0.476363
539 4 0.0575762 0.427222 0.460288
540 4 0.045752 0.463653 0.492439
383 4 0.0378494 0.47846 0.482331
548 4 0.990858 0.48996 0.424478
1437 4 0.195413 0.486156 0.416341
668 4 0.324297 0.440607 0.432542
882 4 0.334039 0.436081 0.493389
667 2 0.323086 0.443456 0.457353
669 4 0.321875 0.446306 0.482164
2 3 0.301849 0.490666 0.424086
636 4 0.256269 0.465246 0.412915
662 4 0.465602 0.444711 0.463918
663 4 0.50279 0.419195 0.485521
1743 4 0.449212 0.455878 0.465984
661 2 0.484196 0.431953 0.47472
1742 4 0.415287 0.4896 0.480565
1741 2 0.432249 0.472739 0.473275
1077 4 0.0346451 0.0707043 0.579873
4507 2 0.0631402 0.0371531 0.581255
4508 4 0.0520042 0.0594198 0.578939
1075 2 0.0142457 0.0775766 0.567152
2428 2 0.134349 0.0486649 0.553364
2430 4 0.12293 0.0294104 0.542227
341 4 0.108077 0.0328978 0.528762
2429 4 0.145769 0.0679194 0.564501
340 2 0.107543 0.0273618 0.504385
1181 4 0.27209 0.0346462 0.562114
962 4 0.283112 0.0339084 0.546305
961 2 0.283023 0.0106275 0.537186
1180 2 0.273878 0.0593345 0.558583
4466 4 0.417332 0.0651637 0.52317
575 4 0.405703 0.0675731 0.50632
4465 2 0.431258 0.0538129 0.540559
4467 4 0.445185 0.0424621 0.557949
90 3 0.456614 0.0278796 0.565265
3007 2 0.486951 0.0279295 0.517439
3008 4 0.484971 0.046041 0.500315
3009 4 0.488932 0.00981808 0.534563
86 1 0.456062 0.00519878 0.567245
459 4 0.0198327 0.117344 0.507483
856 2 0.177636 0.171734 0.511629
857 4 0.172209 0.155228 0.49365
1182 4 0.275666 0.0840228 0.555051
1030 2 0.296386 0.107907 0.540985
1032 4 0.280269 0.103876 0.559671
1031 4 0.312503 0.111938 0.522299
467 4 0.327869 0.123584 0.513071
466 2 0.348342 0.113378 0.502976
305 4 0.437198 0.161967 0.51302
515 4 0.457089 0.164615 0.516464
1270 2 0.0397675 0.257122 0.574601
879 4 0.0406683 0.267264 0.539788
858 4 0.183063 0.188241 0.529608
1220 4 0.198003 0.193674 0.518068
1221 4 0.233779 0.222617 0.53764
1219 2 0.215891 0.208145 0.527854
1212 4 0.248616 0.223649 0.549885
1210 2 0.263742 0.23985 0.538313
1211 4 0.278869 0.256051 0.526741
514 2 0.459235 0.180238 0.535868
516 4 0.461381 0.195861 0.555271
1026 4 0.468806 0.207525 0.569778
905 4 0.463656 0.255643 0.564213
904 2 0.445221 0.252244 0.547667
1010 4 0.474787 0.253279 0.582256
877 2 0.0218324 0.271512 0.523902
1272 4 0.0297152 0.269841 0.555565
878 4 0.00299643 0.27576 0.508017
791 4 0.23203 0.327746 0.544917
790 2 0.218642 0.324375 0.52407
792 4 0.205254 0.321004 0.503223
811 2 0.32015 0.320838 0.531271
813 4 0.303374 0.304794 0.521978
812 4 0.336925 0.336882 0.540563
871 2 0.401598 0.276543 0.513982
872 4 0.388459 0.29777 0.51259
906 4 0.426785 0.248845 0.531121
873 4 0.414737 0.255315 0.515375
936 4 0.0207618 0.405549 0.528702
4433 4 0.00814634 0.390501 0.523535
1191 4 0.224783 0.337982 0.560073
1189 2 0.210993 0.337976 0.58093
374 4 0.190808 0.332405 0.509588
373 2 0.16617 0.330408 0.505829
930 4 0.351003 0.365707 0.555722
928 2 0.3507 0.368767 0.530908
1238 4 0.355725 0.374286 0.573276
929 4 0.350397 0.371826 0.506094
934 2 0.0301974 0.425378 0.540659
935 4 0.039633 0.445206 0.552616
1938 4 0.0241242 0.45541 0.561871
1936 2 0.0158576 0.477246 0.552925
1161 4 0.259072 0.473018 0.562016
1172 4 0.265419 0.452836 0.567012
880 2 0.332448 0.454636 0.510073
1159 2 0.252628 0.49548 0.570912
1171 2 0.285635 0.45132 0.581648
881 4 0.330857 0.473191 0.526758
1910 4 0.333036 0.492621 0.527337
1911 4 0.371026 0.497271 0.559523
1909 2 0.352031 0.494946 0.54343
890 4 0.365623 0.447698 0.590202
889 2 0.341227 0.444671 0.585637
4509 4 0.0742761 0.0148865 0.583571
1083 4 0.0347814 0.997283 0.657135
1081 2 0.0247826 0.0200433 0.654454
1082 4 0.0147838 0.0428033 0.651773
2318 4 0.0914822 0.0819394 0.635068
2317 2 0.10056 0.0614579 0.623965
2319 4 0.109638 0.0409764 0.612862
1893 4 0.119175 0.0285883 0.625093
1284 4 0.244145 0.0586077 0.644256
908 4 0.232079 0.0732408 0.638928
1092 4 0.327869 0.0302515 0.63401
2117 4 0.328632 0.0161216 0.618153
1090 2 0.338554 0.0205004 0.654404
44 3 0.41677 0.0417244 0.657033
2283 4 0.422147 0.0325734 0.640589
4227 4 0.455014 0.0857711 0.652533
43 3 0.441488 0.0703911 0.653619
1163 4 0.468324 0.0438547 0.680304
42 3 0.449546 0.0408444 0.675407
41 1 0.432605 0.0545808 0.668094
1162 2 0.489007 0.0392132 0.667045
87 3 0.447958 0.999604 0.588034
2281 2 0.431419 0.0152682 0.625106
938 4 0.0827113 0.0970522 0.643833
937 2 0.0830365 0.121443 0.638341
939 4 0.0833618 0.145834 0.632849
907 2 0.223837 0.0905706 0.622899
909 4 0.215595 0.1079 0.60687
1227 4 0.231861 0.119088 0.606151
1225 2 0.230038 0.144024 0.606346
887 4 0.410164 0.167237 0.614951
4225 2 0.478268 0.0946977 0.650354
4226 4 0.501522 0.103624 0.648175
900 4 0.421294 0.166626 0.630888
898 2 0.435313 0.176908 0.648858
1271 4 0.0498199 0.244403 0.593636
1154 4 0.0604409 0.228044 0.591274
1153 2 0.078236 0.210633 0.593594
1155 4 0.0960311 0.193222 0.595913
1226 4 0.228215 0.16896 0.606541
1277 4 0.203662 0.222777 0.606837
1276 2 0.2168 0.202813 0.614189
1278 4 0.229937 0.18285 0.62154
798 4 0.2079 0.233717 0.621631
267 4 0.310872 0.200837 0.622749
265 2 0.32874 0.186103 0.613323
886 2 0.387286 0.168578 0.604952
266 4 0.346607 0.17137 0.603897
888 4 0.364409 0.16992 0.594953
1024 2 0.487915 0.201355 0.584677
696 4 0.12295 0.294255 0.638441
694 2 0.143151 0.286983 0.625627
1259 4 0.112927 0.310411 0.63743
1258 2 0.106457 0.333926 0.642938
695 4 0.163352 0.27971 0.612813
796 2 0.195905 0.255239 0.617376
797 4 0.183911 0.276761 0.613121
1167 4 0.310672 0.247012 0.661508
1165 2 0.332427 0.248906 0.649329
1028 4 0.390494 0.30803 0.651293
1027 2 0.395148 0.324011 0.632635
807 4 0.372331 0.311854 0.661812
1166 4 0.354181 0.2508 0.637149
1009 2 0.489851 0.264076 0.599039
1011 4 0.504914 0.274873 0.615823
1260 4 0.0999863 0.357442 0.648445
1208 4 0.0845868 0.360895 0.660792
804 4 0.179771 0.338698 0.612043
1190 4 0.197202 0.33797 0.601787
1136 4 0.173367 0.399558 0.642514
803 4 0.171281 0.385413 0.627741
802 2 0.175526 0.362056 0.619892
1135 2 0.196447 0.408904 0.644784
1237 2 0.374152 0.363574 0.586349
1029 4 0.399802 0.339992 0.613977
1239 4 0.392578 0.352862 0.599422
3024 4 0.478148 0.35309 0.668571
3238 2 0.0318129 0.489208 0.653369
3239 4 0.0453115 0.468207 0.654767
2172 4 0.0568825 0.461084 0.669664
896 4 0.109733 0.490105 0.593921
1067 4 0.234564 0.42617 0.636655
1137 4 0.219527 0.41825 0.647055
891 4 0.31683 0.441645 0.581071
1066 2 0.25124 0.426053 0.655285
1173 4 0.30585 0.449805 0.596285
1000 2 0.399989 0.429724 0.607719
1002 4 0.380804 0.434973 0.592567
1951 2 0.404331 0.486998 0.662298
1230 4 0.384962 0.444842 0.665483
1101 4 0.401676 0.432911 0.662281
1952 4 0.384337 0.497356 0.651429
1001 4 0.419174 0.424475 0.62287
1953 4 0.424326 0.47664 0.673167
863 4 0.0785185 0.0149743 0.713336
2286 4 0.0798504 0.081756 0.731501
945 4 0.0872057 0.00621146 0.697365
862 2 0.0802658 0.0396089 0.717243
864 4 0.0820132 0.0642435 0.721149
1282 2 0.253006 0.0608719 0.667526
1004 4 0.275641 0.0777053 0.692058
1283 4 0.261868 0.0631361 0.690797
1091 4 0.349238 0.0107493 0.674798
2321 4 0.43131 0.0736473 0.701968
2320 2 0.427068 0.067237 0.725761
45 3 0.423079 0.0649283 0.686006
3402 4 0.472257 0.00925546 0.749723
3400 2 0.483412 0.031625 0.75032
2284 2 0.0903423 0.0996949 0.717598
2285 4 0.100834 0.117634 0.703695
32 3 0.130209 0.140858 0.733454
33 3 0.145467 0.175207 0.733378
1003 2 0.296817 0.0900535 0.687132
1005 4 0.317994 0.102402 0.682205
1257 4 0.328757 0.145608 0.735851
831 4 0.337235 0.100178 0.67862
829 2 0.34884 0.120144 0.688207
830 4 0.360444 0.140109 0.697793
978 4 0.354719 0.152136 0.712138
899 4 0.449331 0.18719 0.666829
31 1 0.125506 0.163376 0.733334
34 3 0.113361 0.168401 0.714212
1241 4 0.221388 0.183843 0.701232
1240 2 0.228868 0.207682 0.700287
1242 4 0.236348 0.231522 0.699342
917 4 0.254306 0.234573 0.690253
916 2 0.278521 0.237362 0.684681
918 4 0.302735 0.240152 0.67911
976 2 0.377278 0.160971 0.71832
977 4 0.399836 0.169807 0.724502
1194 4 0.435626 0.179483 0.680019
1192 2 0.427964 0.177513 0.703738
1193 4 0.420301 0.175542 0.727457
1298 4 0.483346 0.25152 0.742331
1146 4 0.426388 0.188773 0.741966
805 2 0.352329 0.316913 0.675937
789 4 0.405353 0.315307 0.748621
806 4 0.332327 0.321972 0.690062
953 4 0.470156 0.255026 0.72624
3122 4 0.443384 0.312376 0.697251
952 2 0.461038 0.276119 0.716384
3121 2 0.461891 0.328152 0.691436
954 4 0.45192 0.297211 0.706528
1244 4 0.00273511 0.409838 0.733839
1209 4 0.0518809 0.354006 0.697989
993 4 0.0508514 0.351084 0.717731
991 2 0.0458225 0.355886 0.741749
1207 2 0.0682338 0.357451 0.679391
948 4 0.155868 0.33111 0.73446
1008 4 0.319777 0.333594 0.69692
1006 2 0.321812 0.350351 0.715366
1007 4 0.323847 0.367109 0.733811
1175 4 0.27549 0.434077 0.733267
1099 2 0.414633 0.414568 0.673273
998 4 0.487187 0.408152 0.701924
1206 4 0.437951 0.390948 0.699814
1205 4 0.424635 0.369835 0.743146
1204 2 0.431293 0.380392 0.72148
3123 4 0.480398 0.343927 0.685622
3022 2 0.479534 0.376961 0.675879
3023 4 0.48092 0.400833 0.683187
1100 4 0.42759 0.396224 0.684264
1243 2 0.0263236 0.411296 0.725676
1245 4 0.0499121 0.412754 0.717513
2170 2 0.0559402 0.442075 0.68588
2171 4 0.0549979 0.423066 0.702096
1068 4 0.267917 0.425937 0.673914
1176 4 0.279216 0.414002 0.687618
1174 2 0.277353 0.42404 0.710442
1139 4 0.332659 0.464467 0.675889
1235 4 0.275193 0.42669 0.753889
1138 2 0.319751 0.482523 0.687401
1229 4 0.335577 0.444027 0.673306
1140 4 0.306843 0.50058 0.698914
1228 2 0.36027 0.444435 0.669394
1987 2 0.352092 0.506469 0.735946
3183 4 0.490342 0.465676 0.678675
3181 2 0.485533 0.473506 0.701929
3182 4 0.480724 0.481336 0.725182
912 4 0.0589227 0.00642403 0.770345
910 2 0.0726335 0.0239737 0.781711
3245 4 0.0181224 0.0586118 0.82831
1295 4 0.0434304 0.0060482 0.783628
1294 2 0.0219716 0.000589768 0.795242
833 4 0.00586289 0.0723887 0.817574
911 4 0.0863443 0.0415233 0.793078
1202 4 0.0959307 0.0461029 0.810852
1201 2 0.111874 0.0627085 0.820611
1203 4 0.127818 0.079314 0.830371
2048 4 0.188108 0.0839238 0.805034
1896 4 0.191798 0.069948 0.820847
2047 2 0.180295 0.100183 0.78772
1141 2 0.379869 0.00229133 0.770641
981 4 0.409879 0.080758 0.804611
979 2 0.41517 0.0657202 0.785348
973 2 0.360467 0.000697194 0.826031
1142 4 0.378354 0.0177721 0.751064
2322 4 0.422827 0.0608267 0.749554
980 4 0.420461 0.0506824 0.766086
2989 2 0.00476005 0.136956 0.765432
2990 4 0.0136684 0.133789 0.788579
834 4 0.0074158 0.114149 0.790107