ITEM: TIMESTEP
2980000
ITEM: NUMBER OF ATOMS
4590
ITEM: BOX BOUNDS pp pp pp
-9.9985700000000008e+00 9.9985700000000008e+00
-9.9985700000000008e+00 9.9985700000000008e+00
-9.9985700000000008e+00 9.9985700000000008e+00
ITEM: ATOMS id type xs ys zs
379 2 0.0124914 0.0296728 0.0731565
381 4 0.0319538 0.0410718 0.083948
465 4 0.0800595 0.0048968 0.083366
1634 4 0.206963 0.0519845 0.00622473
1633 2 0.215768 0.0346518 0.0219483
1635 4 0.224572 0.017319 0.0376719
1605 4 0.222142 0.00659266 0.0528399
652 2 0.284924 0.061749 0.0623198
653 4 0.295484 0.0447748 0.0773384
1608 4 0.377015 0.00863743 0.0720177
747 4 0.405487 0.0139597 0.0229769
985 2 0.410192 0.0824047 0.0113745
986 4 0.425313 0.0628713 0.0152452
745 2 0.430267 0.0165503 0.0250754
746 4 0.455047 0.0191409 0.0271738
297 4 0.463239 0.0242985 0.0456223
295 2 0.464721 0.0155565 0.0690009
2976 4 0.46596 0.0707246 0.05
554 4 0.073006 0.150292 0.00677231
836 4 0.0734855 0.132092 0.0141992
1132 2 0.16413 0.113689 0.0196489
837 4 0.123236 0.133064 0.0191687
1134 4 0.140997 0.123133 0.0187358
835 2 0.0983605 0.132578 0.016684
1133 4 0.187263 0.104244 0.0205621
360 4 0.249035 0.155718 0.020171
933 4 0.195428 0.105358 0.00305443
354 4 0.248244 0.167571 0.00384542
654 4 0.274365 0.0787231 0.0473011
491 4 0.259769 0.0738889 0.0340281
490 2 0.260166 0.0915636 0.0163468
358 2 0.270984 0.163392 0.029364
2469 4 0.410917 0.130137 0.0647359
987 4 0.395071 0.101938 0.0075038
770 4 0.4275 0.132409 0.0518247
2974 2 0.469935 0.087576 0.0319608
769 2 0.43659 0.136206 0.0288433
771 4 0.445679 0.140003 0.00586191
2975 4 0.47391 0.104427 0.0139216
2792 4 0.492341 0.105423 0.0225488
630 4 0.459212 0.076699 0.0682887
553 2 0.052451 0.164474 0.00802128
555 4 0.0318961 0.178655 0.00927025
2808 4 0.0155397 0.172538 0.0186871
359 4 0.292934 0.171066 0.0385569
462 4 0.29318 0.182471 0.0545663
460 2 0.318064 0.184506 0.0532263
461 4 0.342949 0.186542 0.0518864
558 4 0.349486 0.185879 0.0704657
556 2 0.367852 0.201975 0.0651002
557 4 0.386218 0.21807 0.0597347
518 4 0.401375 0.205683 0.0640181
517 2 0.424098 0.212633 0.0562389
1095 4 0.438418 0.237673 0.0420971
519 4 0.446822 0.219583 0.0484597
3348 4 0.487741 0.196014 0.00611985
2895 4 0.493313 0.210106 0.0176675
475 2 0.108057 0.278623 0.0614852
476 4 0.109487 0.26935 0.0383086
1169 4 0.10582 0.323936 0.0173332
456 4 0.167038 0.322133 0.0667964
482 4 0.178685 0.307043 0.0684417
483 4 0.199824 0.274391 0.037015
481 2 0.189254 0.290717 0.0527284
287 4 0.188748 0.27753 0.0202784
573 4 0.271874 0.236441 0.0742459
357 4 0.274923 0.255655 0.0730493
355 2 0.284448 0.273519 0.0583763
356 4 0.293974 0.291384 0.0437034
1304 4 0.305004 0.30717 0.0405555
1303 2 0.322261 0.314767 0.0241337
1305 4 0.339517 0.322364 0.00771187
671 4 0.366313 0.328702 0.0856916
1093 2 0.45589 0.252074 0.0314883
1094 4 0.473361 0.266475 0.0208794
281 4 0.467182 0.316851 0.979404
292 2 0.0699128 0.345464 0.0238379
620 4 0.0294721 0.3538 0.0370403
619 2 0.0146823 0.362422 0.055264
294 4 0.0458355 0.352204 0.0240283
621 4 0.999892 0.371044 0.0734877
552 4 0.00252219 0.393743 0.995164
1168 2 0.124792 0.337497 0.00831372
293 4 0.09399 0.338724 0.0236476
454 2 0.145545 0.330737 0.0762403
455 4 0.124052 0.339341 0.0856841
955 2 0.327731 0.375105 0.0235311
607 2 0.364177 0.364108 0.0645339
957 4 0.339593 0.379595 0.0450794
608 4 0.355132 0.386527 0.0581504
609 4 0.373222 0.341689 0.0709175
280 2 0.464637 0.338566 0.991534
251 4 0.142178 0.462077 0.0326387
795 4 0.135848 0.479037 0.038605
250 2 0.159216 0.458122 0.0147721
793 2 0.131731 0.501782 0.0290699
252 4 0.176255 0.454166 0.996905
1289 4 0.195465 0.445993 0.999332
64 3 0.310446 0.503711 8.71811e-05
1583 4 0.405391 0.500918 0.0730146
562 2 0.495042 0.496478 0.0857696
17 3 0.0315762 0.0582236 0.0952305
20 3 0.0320997 0.0602049 0.132496
16 1 0.0420445 0.067658 0.113412
463 2 0.0795876 0.0274435 0.0941643
464 4 0.0791157 0.0499902 0.104963
18 3 0.0644153 0.0615006 0.113217
578 4 0.0950304 0.0597917 0.110111
577 2 0.110973 0.0736757 0.123463
579 4 0.126915 0.0875597 0.136814
237 4 0.145754 0.0777944 0.138241
486 4 0.33598 0.0324368 0.101911
567 4 0.292321 0.0443587 0.097782
565 2 0.289303 0.0195431 0.0982871
484 2 0.357863 0.0214816 0.096781
485 4 0.379745 0.0105265 0.0916511
312 4 0.402592 0.080184 0.155465
310 2 0.420331 0.0711218 0.140354
311 4 0.438071 0.0620597 0.125242
628 2 0.446151 0.0766891 0.0896097
629 4 0.43309 0.0766791 0.110931
2745 4 0.469404 0.0184876 0.109308
2743 2 0.488639 0.0166768 0.12518
296 4 0.466203 0.00681452 0.0923796
19 3 0.0401699 0.0907427 0.112003
2481 4 0.0212269 0.094862 0.111534
235 2 0.166398 0.0880368 0.147942
236 4 0.187042 0.0982791 0.157644
2467 2 0.402176 0.143873 0.0837123
2468 4 0.393436 0.157609 0.102689
255 4 0.380892 0.170181 0.11172
764 4 0.406727 0.100477 0.158169
279 4 0.168954 0.19689 0.15004
277 2 0.179524 0.207752 0.130153
278 4 0.190093 0.218614 0.110267
737 4 0.165269 0.203626 0.168109
572 4 0.263015 0.2418 0.12317
253 2 0.377165 0.192839 0.121614
254 4 0.373438 0.215497 0.131509
322 2 0.372042 0.250919 0.125397
324 4 0.363937 0.231325 0.138647
2651 4 0.479975 0.201444 0.107301
527 4 0.473848 0.210448 0.124492
526 2 0.454578 0.196559 0.132296
758 4 0.435845 0.181839 0.161114
528 4 0.435307 0.182669 0.140101
2650 2 0.499977 0.211985 0.096624
363 4 0.10026 0.24255 0.160816
339 4 0.108174 0.257269 0.147796
337 2 0.108864 0.26645 0.124549
338 4 0.109554 0.27563 0.101302
477 4 0.106627 0.287895 0.0846617
571 2 0.267445 0.239121 0.0987078
756 4 0.274879 0.255005 0.132858
754 2 0.267271 0.252846 0.156578
323 4 0.380148 0.270513 0.112146
672 4 0.374227 0.28908 0.115157
670 2 0.37027 0.308891 0.100424
741 4 0.360805 0.314338 0.162451
739 2 0.38563 0.316548 0.164446
624 4 0.462663 0.314464 0.139752
622 2 0.440865 0.307331 0.149709
623 4 0.419067 0.300198 0.159666
107 3 0.479047 0.319351 0.157337
537 4 0.0792845 0.352127 0.116738
298 2 0.0591455 0.360991 0.146332
655 2 0.0170228 0.377149 0.110865
299 4 0.0729407 0.367193 0.126422
705 4 0.0156627 0.365102 0.150132
656 4 0.0262917 0.371073 0.133278
703 2 0.99888 0.354187 0.165111
657 4 0.00775387 0.383224 0.088452
536 4 0.106532 0.343166 0.0757745
535 2 0.0929081 0.347647 0.0962562
344 4 0.256784 0.352311 0.155734
496 2 0.282791 0.344599 0.131109
498 4 0.25928 0.351268 0.136392
497 4 0.306303 0.33793 0.125825
386 4 0.318717 0.350658 0.133708
387 4 0.358746 0.333695 0.158419
385 2 0.338731 0.342176 0.146064
596 4 0.46492 0.334601 0.149142
495 4 0.473843 0.384552 0.126853
595 2 0.466692 0.359512 0.147932
597 4 0.468463 0.384423 0.146722
493 2 0.472295 0.404951 0.112478
602 4 0.0578651 0.47442 0.168037
1582 2 0.409338 0.480715 0.0872073
1573 2 0.396642 0.437411 0.128089
1584 4 0.413284 0.460512 0.1014
1574 4 0.396872 0.424424 0.149454
1575 4 0.396412 0.450397 0.106723
494 4 0.470748 0.425351 0.0981032
227 4 0.489374 0.426672 0.0923476
563 4 0.499093 0.473876 0.0956655
1538 4 0.0497948 0.0368821 0.195972
1537 2 0.056793 0.0189817 0.179979
232 2 0.019513 0.0605247 0.174943
234 4 0.0323384 0.0460188 0.190763
1539 4 0.0637913 0.00108128 0.163986
1462 2 0.147201 0.00846421 0.23642
690 4 0.193239 0.999639 0.219215
1504 2 0.240027 0.0597482 0.19344
1506 4 0.242104 0.0450818 0.213583
689 4 0.236278 0.0249774 0.2167
1505 4 0.237949 0.0744145 0.173296
688 2 0.214758 0.012308 0.217958
1476 4 0.281039 2.43307e-05 0.212737
472 2 0.26079 0.0753182 0.249856
722 4 0.178354 0.0938703 0.176138
721 2 0.190468 0.105075 0.194923
723 4 0.202582 0.11628 0.213708
693 4 0.214346 0.13133 0.222266
691 2 0.23328 0.122191 0.2358
692 4 0.252214 0.113051 0.249334
582 4 0.29517 0.168994 0.235943
473 4 0.267018 0.0989787 0.255011
27 3 0.285386 0.154391 0.246408
742 2 0.384051 0.144864 0.238629
743 4 0.39503 0.122442 0.237252
333 4 0.410999 0.122567 0.251575
763 2 0.414794 0.11018 0.179755
765 4 0.42286 0.119882 0.201342
521 4 0.440762 0.122058 0.208153
520 2 0.459887 0.137711 0.204356
522 4 0.479013 0.153363 0.200559
513 4 0.0939163 0.24412 0.240219
361 2 0.107255 0.242783 0.18482
362 4 0.114251 0.243016 0.208824
511 2 0.0914154 0.220388 0.247684
512 4 0.0889145 0.196656 0.25515
736 2 0.177964 0.201356 0.18953
738 4 0.190659 0.199085 0.210951
284 4 0.205733 0.196352 0.223487
283 2 0.227899 0.186768 0.217007
285 4 0.250066 0.177185 0.210528
581 4 0.26521 0.182447 0.198232
580 2 0.28019 0.175721 0.217087
759 4 0.41126 0.204186 0.198489
25 3 0.406545 0.217043 0.21517
24 3 0.374022 0.201135 0.204834
21 1 0.38683 0.208506 0.222724
22 3 0.375241 0.22494 0.233895
744 4 0.373071 0.167285 0.240006
23 3 0.390888 0.190939 0.23733
757 2 0.423552 0.193013 0.179802
762 4 0.485246 0.161318 0.217745
760 2 0.495564 0.184093 0.217709
393 4 0.0786207 0.255316 0.229541
2716 2 0.00279847 0.312742 0.235692
392 4 0.0591818 0.299339 0.215946
391 2 0.0689012 0.277327 0.222743
646 2 0.0620813 0.331975 0.198334
647 4 0.0641659 0.318433 0.21925
2717 4 0.00548861 0.337037 0.23043
389 4 0.110995 0.249315 0.22918
388 2 0.122503 0.268091 0.241019
390 4 0.134011 0.286868 0.252859
372 4 0.122603 0.301965 0.260825
755 4 0.259664 0.250687 0.180298
307 2 0.306912 0.274831 0.221828
309 4 0.320607 0.278461 0.201226
308 4 0.293217 0.2712 0.24243
612 4 0.297704 0.256116 0.253628
740 4 0.410456 0.318759 0.166441
108 3 0.49444 0.321261 0.191573
106 1 0.496548 0.312072 0.170371
109 3 0.495812 0.288916 0.171664
648 4 0.0599968 0.345517 0.177419
300 4 0.0453502 0.354789 0.166242
749 4 0.00334533 0.398147 0.228546
366 4 0.987564 0.386666 0.226682
364 2 0.00293056 0.368 0.233055
365 4 0.0182976 0.349334 0.239429
677 4 0.118779 0.413735 0.243957
735 4 0.134803 0.404243 0.236352
343 2 0.242246 0.344909 0.174683
345 4 0.227708 0.337507 0.193631
416 4 0.233613 0.409899 0.228374
291 4 0.248864 0.398197 0.229893
415 2 0.213707 0.410461 0.243493
289 2 0.271446 0.394634 0.219767
768 4 0.302907 0.380428 0.224554
290 4 0.294028 0.391071 0.20964
766 2 0.315376 0.37185 0.244457
643 2 0.405311 0.403303 0.181107
645 4 0.403174 0.382316 0.194529
541 2 0.482697 0.35065 0.214659
12 3 0.434538 0.366036 0.239065
11 1 0.434039 0.382632 0.223144
15 3 0.454491 0.384145 0.213242
542 4 0.466127 0.368212 0.221154
13 3 0.417941 0.377339 0.207294
14 3 0.428717 0.402738 0.233432
748 2 0.0145533 0.41786 0.218011
750 4 0.0257613 0.437572 0.207477
603 4 0.0259021 0.441612 0.188105
601 2 0.0418836 0.458016 0.178071
2794 2 0.998056 0.482368 0.204279
2796 4 0.0190386 0.495949 0.204942
3598 2 0.0483161 0.494604 0.234556
264 4 0.0705085 0.48976 0.167716
3600 4 0.0662694 0.484007 0.24836
1863 4 0.261566 0.503336 0.185944
659 4 0.311494 0.502837 0.18005
231 4 0.289231 0.491523 0.239374
644 4 0.407448 0.42429 0.167685
1463 4 0.159647 0.0252059 0.250204
732 4 0.143214 0.0378238 0.249448
730 2 0.138112 0.0598305 0.260165
731 4 0.133009 0.0818371 0.270882
368 4 0.15376 0.0696291 0.325858
1405 2 0.186113 0.996004 0.304548
1406 4 0.201237 0.0158678 0.30318
1701 4 0.203388 0.0164437 0.322591
1699 2 0.223251 0.0315578 0.324069
474 4 0.254562 0.0516577 0.244701
317 4 0.0757497 0.113075 0.294519
399 4 0.0774648 0.132155 0.290196
397 2 0.0744846 0.144253 0.311875
318 4 0.116882 0.0873531 0.282384
316 2 0.0963157 0.100214 0.288451
29 3 0.274069 0.120339 0.257591
28 3 0.270897 0.150237 0.280839
30 3 0.304806 0.136136 0.272534
26 1 0.283906 0.140202 0.264454
377 4 0.286247 0.152309 0.293599
683 4 0.305267 0.143955 0.291558
682 2 0.324321 0.130233 0.300151
376 2 0.277159 0.165292 0.312939
684 4 0.343375 0.116512 0.308744
725 4 0.352543 0.120865 0.324726
331 2 0.43405 0.127352 0.259998
351 4 0.475695 0.138592 0.274932
332 4 0.457101 0.132136 0.268421
350 4 0.482906 0.105594 0.311808
349 2 0.479301 0.122093 0.29337
706 2 0.261137 0.240038 0.316543
378 4 0.268071 0.178275 0.332279
632 4 0.385378 0.177011 0.251788
631 2 0.397055 0.184743 0.272502
633 4 0.408731 0.192475 0.293215
419 4 0.421724 0.206312 0.296882
418 2 0.428742 0.218705 0.317432
2718 4 0.000108334 0.288447 0.240955
442 2 0.0690878 0.320216 0.331282
370 2 0.143526 0.31465 0.265971
371 4 0.16445 0.327334 0.271116
402 4 0.180809 0.333622 0.280418
707 4 0.275004 0.25563 0.302768
509 4 0.270126 0.311076 0.315284
611 4 0.294619 0.261075 0.303293
610 2 0.296162 0.258596 0.27846
728 4 0.323739 0.304602 0.318738
302 4 0.318376 0.323081 0.311922
727 2 0.343658 0.294721 0.307302
729 4 0.363576 0.28484 0.295865
616 2 0.0760273 0.376376 0.297735
678 4 0.0817619 0.397742 0.273532
617 4 0.0682109 0.397722 0.287323
618 4 0.0838437 0.35503 0.308147
676 2 0.10027 0.405739 0.258744
444 4 0.0779677 0.337748 0.315824
733 2 0.155408 0.412184 0.24808
508 2 0.252106 0.328309 0.317143
400 2 0.197194 0.339471 0.298376
401 4 0.213579 0.34532 0.316334
510 4 0.234085 0.345541 0.319003
734 4 0.176013 0.420126 0.259808
301 2 0.32025 0.343602 0.29776
303 4 0.322124 0.364122 0.283597
767 4 0.327844 0.363273 0.26436
560 4 0.402039 0.348175 0.323039
2536 2 0.414729 0.380155 0.306711
2538 4 0.411807 0.400392 0.29232
2537 4 0.417652 0.359918 0.321102
2619 4 0.020891 0.468273 0.299598
1789 2 0.0432306 0.440633 0.305516
1790 4 0.0663813 0.432366 0.300947
1791 4 0.0200799 0.4489 0.310085
1758 4 0.0851984 0.438775 0.303378
1665 4 0.0856061 0.487866 0.254179
1756 2 0.102104 0.427223 0.317728
417 4 0.1938 0.411023 0.258613
229 2 0.306131 0.492445 0.257778
230 4 0.323031 0.493367 0.276183
1802 4 0.325664 0.48646 0.294989
1801 2 0.31476 0.476574 0.315202
447 4 0.403544 0.416196 0.300313
445 2 0.391998 0.431271 0.31658
2756 4 0.996667 0.00839697 0.34768
3077 4 0.0212089 0.0228111 0.387209
3076 2 0.015721 0.0334902 0.409141
1700 4 0.243115 0.046672 0.325547
1829 4 0.295134 0.0777329 0.346181
1496 4 0.309059 0.0667772 0.336697
1495 2 0.332883 0.0601948 0.340478
1830 4 0.263536 0.0493756 0.319758
1828 2 0.279335 0.0635543 0.332969
439 2 0.282367 0.00559071 0.368793
440 4 0.268496 0.00777587 0.389481
1816 2 0.277329 0.0436927 0.410379
1818 4 0.274747 0.0274728 0.391526
1497 4 0.356706 0.0536123 0.34426
1516 2 0.357778 0.0462576 0.387608
1518 4 0.359611 0.0380926 0.411169
1517 4 0.355944 0.0544226 0.364046
398 4 0.0715043 0.156351 0.333553
529 2 0.0616213 0.145578 0.372031
530 4 0.0500429 0.147256 0.394129
531 4 0.0731998 0.143901 0.349933
367 2 0.167037 0.0880722 0.336287
600 4 0.187637 0.124879 0.348901
369 4 0.180313 0.106515 0.346717
598 2 0.18216 0.140376 0.367743
599 4 0.176683 0.155873 0.386585
605 4 0.289863 0.123194 0.405318
320 4 0.28472 0.143165 0.40559
726 4 0.383218 0.0959145 0.35534
724 2 0.36788 0.10839 0.340033
425 4 0.388747 0.0907686 0.374924
424 2 0.409145 0.0983716 0.387225
453 4 0.492824 0.0968704 0.32672
426 4 0.429542 0.105975 0.399526
258 4 0.442969 0.103854 0.414306
2655 4 0.0399728 0.165113 0.392983
2846 4 0.0391479 0.230945 0.405092
2654 4 0.0364728 0.21488 0.396407
2653 2 0.0382228 0.189997 0.394695
248 4 0.0809225 0.222428 0.414353
247 2 0.0914065 0.243304 0.405441
405 4 0.244775 0.231168 0.348158
686 4 0.179218 0.176338 0.383104
687 4 0.181184 0.224898 0.371325
685 2 0.180201 0.200618 0.377215
404 4 0.197046 0.236136 0.362228
403 2 0.220911 0.233652 0.355193
708 4 0.24727 0.224446 0.330319
614 4 0.281112 0.191074 0.340615
613 2 0.302805 0.196838 0.351633
615 4 0.324497 0.202602 0.36265
716 4 0.326579 0.221779 0.36989
715 2 0.347732 0.234921 0.367648
584 4 0.387962 0.246954 0.371007
420 4 0.43576 0.231097 0.337983
269 4 0.451938 0.242231 0.338262
268 2 0.475576 0.250382 0.338252
2849 4 0.988819 0.328957 0.381694
443 4 0.0602079 0.302683 0.34674
1034 4 0.0698374 0.299324 0.365339
1033 2 0.0898936 0.289526 0.376605
1035 4 0.10995 0.279728 0.387871
249 4 0.101891 0.264181 0.396529
711 4 0.172676 0.308464 0.414301
709 2 0.184276 0.317419 0.394043
335 4 0.318972 0.329125 0.393137
587 4 0.321418 0.327071 0.4135
717 4 0.368885 0.248063 0.365406
583 2 0.405456 0.264598 0.373811
336 4 0.353281 0.327915 0.356776
334 2 0.336127 0.32852 0.374956
270 4 0.499213 0.258533 0.338243
238 2 0.441967 0.305081 0.399812
585 4 0.42295 0.282241 0.376614
240 4 0.43283 0.282663 0.393559
239 4 0.451105 0.3275 0.406064
2813 4 0.0101788 0.412108 0.407781
776 4 0.116927 0.398039 0.343072
775 2 0.136715 0.401048 0.358057
777 4 0.156503 0.404057 0.373042
710 4 0.195877 0.326375 0.373785
407 4 0.196677 0.339383 0.358085
503 4 0.233764 0.362015 0.391863
406 2 0.217258 0.351455 0.365561
408 4 0.237838 0.363526 0.373038
413 4 0.175615 0.411938 0.373895
502 2 0.252935 0.367947 0.40678
561 4 0.367167 0.341521 0.358259
559 2 0.384603 0.344848 0.340649
751 2 0.389838 0.404717 0.409383
927 4 0.40616 0.37846 0.418339
926 4 0.436141 0.340553 0.405498
925 2 0.42115 0.359507 0.411919
2812 2 0.00411504 0.436365 0.407868
547 2 0.028401 0.485178 0.410659
501 4 0.0583826 0.500965 0.396018
499 2 0.0795172 0.496816 0.383318
1757 4 0.11901 0.41567 0.332077
500 4 0.100652 0.492666 0.370619
1395 4 0.119945 0.495197 0.3765
1393 2 0.139161 0.497627 0.392312
435 4 0.247039 0.501715 0.388005
412 2 0.172682 0.422785 0.396232
1803 4 0.303857 0.466689 0.335415
594 4 0.317811 0.466318 0.403584
592 2 0.312084 0.465211 0.379271
593 4 0.306357 0.464104 0.354957
433 2 0.263527 0.49342 0.404873
5 3 0.284598 0.465846 0.420478
446 4 0.380452 0.446346 0.332847
753 4 0.392514 0.42589 0.396354
120 3 0.384492 0.448145 0.351619
119 3 0.383308 0.441418 0.388646
116 1 0.395669 0.450632 0.371305
117 3 0.398776 0.47304 0.375475
118 3 0.416404 0.4403 0.369996
668 4 0.338144 0.469038 0.414405
2506 2 0.502284 0.45317 0.340229
2507 4 0.482446 0.445587 0.353425
1473 4 0.4884 0.461914 0.397761
1471 2 0.474079 0.480998 0.405233
3988 2 0.424384 0.496355 0.365067
2742 4 0.471063 0.433114 0.365304
2740 2 0.449348 0.445023 0.368736
3989 4 0.416425 0.472672 0.364091
2741 4 0.427633 0.456933 0.372169
3078 4 0.0102331 0.0441693 0.431074
2238 4 0.0316108 0.0262824 0.480223
2236 2 0.0133088 0.014914 0.467536
1076 4 0.0399905 0.0353219 0.496077
342 4 0.113709 0.000252548 0.458574
340 2 0.125025 0.0116325 0.477747
341 4 0.136342 0.0230125 0.496921
2430 4 0.152177 0.0295766 0.505399
1782 4 0.228803 0.00302899 0.428747
1152 4 0.223133 0.0291214 0.482444
1150 2 0.231489 0.0474215 0.497292
1646 4 0.218525 0.00978453 0.478707
606 4 0.277583 0.0803877 0.428067
1817 4 0.279911 0.0599126 0.429232
699 4 0.365705 0.0206994 0.418316
697 2 0.35661 0.0022029 0.432469
3489 4 0.484609 0.0700359 0.454138
3487 2 0.480713 0.0653939 0.478396
3488 4 0.476818 0.060752 0.502654
261 4 0.0149435 0.160069 0.496335
471 4 0.00238922 0.153847 0.481026
274 2 0.165772 0.110006 0.452435
275 4 0.15056 0.127003 0.462675
857 4 0.153757 0.146185 0.46286
276 4 0.180985 0.0930097 0.442194
856 2 0.169753 0.155855 0.479467
604 2 0.283723 0.101791 0.416693
319 2 0.293748 0.161982 0.419359
256 2 0.461744 0.0973005 0.429464
257 4 0.480518 0.0907472 0.444621
2845 2 0.0368338 0.240806 0.427952
545 4 0.0676108 0.211452 0.422622
544 2 0.0796594 0.195598 0.437745
346 2 0.0816988 0.217993 0.491943
259 2 0.0342181 0.175167 0.501407
348 4 0.064845 0.207019 0.506799
546 4 0.091708 0.179745 0.452867
347 4 0.0985526 0.228967 0.477087
327 4 0.115508 0.240241 0.47526
411 4 0.301141 0.199302 0.437719
321 4 0.302777 0.1808 0.433127
409 2 0.310113 0.222535 0.439933
410 4 0.319085 0.245768 0.442148
2847 4 0.0345197 0.250668 0.450812
9 3 0.15426 0.305875 0.422222
326 4 0.135527 0.283039 0.45888
10 3 0.128285 0.286861 0.441751
325 2 0.125517 0.26164 0.46707
375 4 0.151609 0.295183 0.461581
7 3 0.147266 0.314509 0.458127
6 1 0.137748 0.307312 0.438461
8 3 0.121537 0.322581 0.431945
373 2 0.172135 0.290203 0.474962
374 4 0.19266 0.285223 0.488344
792 4 0.207721 0.29873 0.48797
489 4 0.303507 0.251063 0.453384
487 2 0.300229 0.275724 0.455887
488 4 0.29695 0.300385 0.45839
651 4 0.301474 0.314007 0.472686
540 4 0.0277524 0.402176 0.407331
538 2 0.0469266 0.38945 0.417108
539 4 0.0661007 0.376724 0.426885
681 4 0.0844466 0.382983 0.418249
679 2 0.10251 0.3893 0.434342
570 4 0.133698 0.401782 0.464682
680 4 0.120573 0.395617 0.450436
568 2 0.150881 0.413405 0.450725
586 2 0.323469 0.349298 0.424767
504 4 0.272105 0.373879 0.421696
635 4 0.269398 0.389351 0.433708
634 2 0.274894 0.412501 0.441391
588 4 0.32552 0.371525 0.436034
773 4 0.328944 0.36489 0.456
772 2 0.329522 0.367234 0.480887
752 4 0.387161 0.383545 0.422411
929 4 0.390006 0.349771 0.483418
2814 4 0.998051 0.460622 0.407955
382 2 0.997777 0.469711 0.457285
548 4 0.01598 0.464837 0.41822
383 4 0.0111606 0.470541 0.436182
1436 4 0.148228 0.466328 0.418117
569 4 0.168065 0.425029 0.436767
1435 2 0.165544 0.470401 0.435687
1557 4 0.191839 0.488752 0.465736
414 4 0.169749 0.433632 0.418568
1437 4 0.18286 0.474474 0.453258
1400 4 0.289398 0.495018 0.435782
1 1 0.300851 0.465066 0.436411
434 4 0.280015 0.485126 0.421741
636 4 0.280389 0.435652 0.449075
2 3 0.301048 0.484929 0.448012
4 3 0.296563 0.447754 0.451253
3 3 0.321575 0.461999 0.426436
669 4 0.378792 0.455285 0.440083
882 4 0.395548 0.457208 0.452076
880 2 0.389646 0.462229 0.475849
667 2 0.358468 0.462161 0.427244
662 4 0.488542 0.414795 0.466047
1743 4 0.486317 0.435173 0.467317
1741 2 0.472687 0.449354 0.482754
1077 4 0.054164 0.0183208 0.540919
1075 2 0.0470773 0.0268213 0.518498
2428 2 0.156854 0.0279517 0.529907
2429 4 0.16153 0.0263268 0.554416
1151 4 0.239845 0.0657216 0.51214
1181 4 0.317491 0.0115664 0.554925
962 4 0.310944 0.000539399 0.571136
1180 2 0.337199 0.0262263 0.550247
1182 4 0.356906 0.0408862 0.54557
1032 4 0.369174 0.0476957 0.531645
1030 2 0.359394 0.069853 0.525434
575 4 0.425512 0.0589165 0.500563
4466 4 0.424021 0.0464197 0.514887
4465 2 0.422205 0.0252086 0.528
4467 4 0.420389 0.0039975 0.541114
90 3 0.458566 0.0172104 0.563671
3007 2 0.485218 0.0254786 0.519417
810 4 0.451714 0.0364255 0.56442
3008 4 0.489312 0.0488195 0.511441
86 1 0.464617 0.995269 0.562904
88 3 0.480877 0.992104 0.546656
909 4 0.221121 0.171494 0.564044
907 2 0.243561 0.161211 0.568032
1220 4 0.198448 0.173348 0.5111
858 4 0.18575 0.165526 0.496074
908 4 0.266 0.150928 0.572021
466 2 0.315328 0.100072 0.512932
468 4 0.291705 0.100509 0.521115
1031 4 0.349613 0.0920102 0.519223
467 4 0.33895 0.0996352 0.504749
574 2 0.432949 0.0820819 0.506328
576 4 0.440385 0.105247 0.512094
306 4 0.437782 0.116319 0.526726
304 2 0.448367 0.132415 0.542665
305 4 0.458952 0.148512 0.558603
515 4 0.468221 0.16056 0.572149
514 2 0.49139 0.16993 0.571398
1270 2 0.0448096 0.241618 0.562398
1272 4 0.0474861 0.224372 0.544493
260 4 0.0534927 0.190265 0.506479
879 4 0.0292317 0.22249 0.535404
877 2 0.0157833 0.228835 0.515302
1219 2 0.218208 0.18851 0.513301
1221 4 0.237968 0.203671 0.515502
1212 4 0.252673 0.188942 0.514689
1210 2 0.272952 0.203359 0.517151
1211 4 0.293232 0.217776 0.519612
265 2 0.392104 0.232203 0.544234
888 4 0.394904 0.208218 0.574723
266 4 0.383541 0.21942 0.563943
267 4 0.400667 0.244986 0.524524
1271 4 0.042133 0.258865 0.580303
790 2 0.219906 0.311846 0.505425
649 2 0.3128 0.315787 0.494906
650 4 0.324126 0.317566 0.517126
812 4 0.342796 0.32177 0.522144
811 2 0.360964 0.311188 0.535676
872 4 0.396382 0.301833 0.539954
813 4 0.379132 0.300606 0.549208
871 2 0.418313 0.291357 0.534085
906 4 0.44624 0.277882 0.546942
904 2 0.453875 0.262727 0.565306
873 4 0.440244 0.280881 0.528215
791 4 0.232091 0.324962 0.52288
1191 4 0.221979 0.325941 0.540556
1189 2 0.222011 0.342727 0.559087
1190 4 0.222043 0.359513 0.577618
928 2 0.398897 0.356282 0.505863
774 4 0.330101 0.369578 0.505774
1238 4 0.423249 0.369336 0.540195
1237 2 0.422676 0.368825 0.565187
930 4 0.407787 0.362792 0.528307
896 4 0.128621 0.431187 0.55252
895 2 0.138371 0.45421 0.552777
897 4 0.148121 0.477233 0.553034
2015 4 0.157009 0.493554 0.560814
1173 4 0.297948 0.424407 0.533607
1171 2 0.292347 0.433819 0.556085
891 4 0.346361 0.442344 0.55945
1911 4 0.357767 0.456957 0.551931
1909 2 0.372921 0.454963 0.532144
1910 4 0.388076 0.452969 0.512356
889 2 0.354671 0.43212 0.580701
881 4 0.383745 0.46725 0.499622
1742 4 0.459058 0.463536 0.498192
3476 4 0.999627 0.0550842 0.625903
1892 4 0.098029 0.0335122 0.655149
939 4 0.123884 0.0625937 0.654393
937 2 0.107303 0.0797174 0.661945
1090 2 0.299854 0.0415813 0.645227
1092 4 0.282487 0.0290316 0.63234
1091 4 0.317221 0.054131 0.658114
4227 4 0.40623 0.0751219 0.63726
43 3 0.40972 0.0548717 0.639565
44 3 0.421257 0.0187918 0.636474
41 1 0.414568 0.035406 0.651227
808 2 0.452226 0.0534001 0.582772
809 4 0.452738 0.0703746 0.601123
2283 4 0.441293 0.0209246 0.639585
1163 4 0.444372 0.0247053 0.658235
2281 2 0.453274 0.010762 0.620133
42 3 0.431735 0.039634 0.665944
2319 4 0.0305098 0.0926089 0.672616
1227 4 0.209053 0.167968 0.580585
1284 4 0.285059 0.155778 0.576288
1282 2 0.292041 0.148702 0.599231
1283 4 0.299022 0.141627 0.622174
1003 2 0.321943 0.150143 0.659074
1004 4 0.312117 0.145132 0.636635
898 2 0.407115 0.155175 0.640427
4225 2 0.427511 0.0805695 0.625317
899 4 0.410205 0.149444 0.664568
4226 4 0.448791 0.086017 0.613374
1194 4 0.414232 0.130012 0.660845
3386 4 0.014745 0.206258 0.670621
1276 2 0.198362 0.23416 0.618551
1278 4 0.201011 0.211359 0.628464
1226 4 0.197083 0.19259 0.622432
1225 2 0.203068 0.180279 0.601509
886 2 0.402587 0.187088 0.585663
900 4 0.404026 0.160906 0.616286
887 4 0.410269 0.165958 0.596603
1010 4 0.468182 0.230224 0.591591
1009 2 0.492783 0.225893 0.590486
905 4 0.461509 0.247573 0.58367
1154 4 0.0395264 0.265386 0.600383
1153 2 0.0283339 0.255211 0.620293
1155 4 0.0171415 0.245036 0.640202
1259 4 0.102484 0.310824 0.657072
694 2 0.122904 0.295967 0.625618
695 4 0.130861 0.295046 0.601932
797 4 0.148383 0.295183 0.589719
696 4 0.114948 0.296887 0.649304
796 2 0.170329 0.28527 0.596449
798 4 0.192275 0.275358 0.603179
1277 4 0.195714 0.256961 0.608637
916 2 0.241544 0.28472 0.644459
917 4 0.241579 0.280718 0.66914
918 4 0.24151 0.288723 0.619778
1165 2 0.271506 0.315056 0.608254
1166 4 0.293556 0.322454 0.599077
1167 4 0.249455 0.307658 0.617431
806 4 0.344714 0.314248 0.667008
805 2 0.352901 0.329198 0.648714
1244 4 0.0160593 0.40049 0.639962
1258 2 0.109913 0.334016 0.662739
804 4 0.206576 0.361274 0.592833
803 4 0.225068 0.354587 0.638812
1136 4 0.225359 0.354521 0.658792
802 2 0.215822 0.35793 0.615822
1028 4 0.366846 0.363205 0.631422
1027 2 0.385541 0.367151 0.615295
807 4 0.361088 0.344148 0.630421
1029 4 0.404237 0.371098 0.599168
1002 4 0.347108 0.427702 0.614416
1239 4 0.422103 0.368313 0.590178
1267 2 0.478111 0.386332 0.630008
1269 4 0.457396 0.392746 0.642456
1243 2 0.00715496 0.420152 0.627341
1245 4 0.998251 0.439814 0.61472
2170 2 0.00478692 0.481534 0.609182
2171 4 0.00772492 0.456771 0.607364
2152 2 0.238493 0.453201 0.654817
2350 2 0.197804 0.478349 0.627663
2352 4 0.215217 0.471855 0.64439
2153 4 0.21368 0.456109 0.655829
1172 4 0.286745 0.44323 0.578562
1160 4 0.267304 0.439201 0.636857
2154 4 0.263306 0.450293 0.653806
1161 4 0.272545 0.432244 0.587614
1159 2 0.269924 0.435722 0.612236
1001 4 0.372384 0.424947 0.657477
890 4 0.36298 0.421896 0.601952
1000 2 0.359746 0.426325 0.635946
1951 2 0.40823 0.49465 0.633985
2307 4 0.491168 0.488898 0.589026
2305 2 0.489443 0.48467 0.613609
2306 4 0.487718 0.480442 0.638192
1953 4 0.426242 0.489485 0.61743
1082 4 0.0175457 0.0175363 0.70051
1081 2 0.0389788 0.0302257 0.702696
943 2 0.0841042 0.0507685 0.726028
944 4 0.064747 0.0352331 0.723007
1083 4 0.0604118 0.0429152 0.704883
1891 2 0.102789 0.0225464 0.677109
1893 4 0.107549 0.0115806 0.69907
945 4 0.103462 0.0663039 0.729048
1050 4 0.314568 0.0484878 0.678027
1049 4 0.319554 0.0586798 0.72673
1048 2 0.317061 0.0535838 0.702379
1022 4 0.304756 0.0567048 0.741788
2320 2 0.380204 0.0314672 0.699074
2322 4 0.360585 0.0318696 0.714569
2321 4 0.399823 0.0310648 0.683579
1143 4 0.359946 0.012177 0.717461
45 3 0.396232 0.0285459 0.662861
980 4 0.420906 0.0336438 0.757607
1162 2 0.464946 0.0277304 0.672118
3402 4 0.491917 0.0360643 0.704391
1164 4 0.48552 0.0307556 0.686001
3400 2 0.500494 0.0286606 0.72668
3401 4 0.509071 0.0212569 0.748969
851 4 0.0122742 0.0925068 0.663845
2317 2 0.0538939 0.0921582 0.663775
864 4 0.0376491 0.134465 0.727617
862 2 0.0462554 0.111458 0.732284
863 4 0.0548617 0.0884503 0.73695
2286 4 0.0377167 0.153464 0.731467
2318 4 0.077278 0.0917075 0.654935
938 4 0.0907219 0.0968411 0.669497
1005 4 0.331768 0.155154 0.681514
831 4 0.33537 0.147879 0.701482
829 2 0.354544 0.160796 0.711003
1193 4 0.419463 0.117469 0.70897
1192 2 0.416847 0.12374 0.684907
2284 2 0.0577274 0.166898 0.738123
3387 4 0.0188959 0.249093 0.69609
3385 2 0.0168205 0.227676 0.683356
2285 4 0.077738 0.180332 0.744778
33 3 0.112313 0.212196 0.729084
31 1 0.113958 0.195048 0.744629
34 3 0.0929765 0.190096 0.75321
32 3 0.122332 0.176334 0.734197
1215 4 0.223896 0.230508 0.72857
1213 2 0.211574 0.232267 0.750255
1241 4 0.267091 0.234883 0.703704
1131 4 0.306005 0.215782 0.762257
830 4 0.373719 0.173714 0.720524
978 4 0.383441 0.191291 0.729677
1242 4 0.235428 0.264182 0.678411
1240 2 0.25126 0.249533 0.691058
1006 2 0.327995 0.326167 0.700376
1008 4 0.338128 0.309316 0.684931
1297 2 0.47023 0.251986 0.739346
952 2 0.493773 0.284979 0.699172
1298 4 0.460908 0.26475 0.719972
953 4 0.473445 0.277975 0.711935
1260 4 0.117342 0.357208 0.668406
1207 2 0.115839 0.368627 0.705209
1209 4 0.119182 0.385392 0.723456
993 4 0.112708 0.404441 0.719094
1208 4 0.112496 0.351863 0.686962
991 2 0.0973399 0.416783 0.734478
946 2 0.165292 0.362536 0.75852
948 4 0.187631 0.358467 0.74805
1135 2 0.246351 0.361963 0.670156
1007 4 0.317863 0.343019 0.715821
1137 4 0.267342 0.369406 0.681519
1067 4 0.25704 0.377311 0.696915
1066 2 0.26539 0.391829 0.715481
1068 4 0.273739 0.406347 0.734047
1205 4 0.376246 0.351219 0.744071
1204 2 0.387461 0.3731 0.739534
1206 4 0.398677 0.394982 0.734998
1100 4 0.417333 0.39232 0.728298
1099 2 0.426569 0.412416 0.716634
1176 4 0.292214 0.412579 0.741329
1230 4 0.362255 0.432859 0.673124
1228 2 0.375974 0.441126 0.692324
1139 4 0.386912 0.454322 0.730991
1138 2 0.394179 0.477845 0.735352
1229 4 0.389692 0.449393 0.711524
1101 4 0.435804 0.432511 0.704969
3183 4 0.45478 0.426518 0.702203
3181 2 0.475122 0.439002 0.709654
2169 4 0.486887 0.495097 0.698907
1251 4 0.504356 0.469264 0.718198
3182 4 0.495465 0.451486 0.717105
910 2 0.0180547 0.0290448 0.753038
911 4 0.0407442 0.0377084 0.75898
1202 4 0.0494987 0.0483464 0.774559