ITEM: TIMESTEP
2450000
ITEM: NUMBER OF ATOMS
4590
ITEM: BOX BOUNDS pp pp pp
-9.9985700000000008e+00 9.9985700000000008e+00
-9.9985700000000008e+00 9.9985700000000008e+00
-9.9985700000000008e+00 9.9985700000000008e+00
ITEM: ATOMS id type xs ys zs
3752 4 0.0566367 0.0507707 0.0378467
3751 2 0.0356117 0.0476047 0.0510035
3753 4 0.0145866 0.0444387 0.0641604
702 4 0.00316767 0.0568738 0.0559264
465 4 0.0682972 0.0362463 0.0281274
463 2 0.0772639 0.0140194 0.0352507
422 4 0.183145 0.0610214 0.0347259
567 4 0.198737 0.0607552 0.0494829
565 2 0.210979 0.0476116 0.0668774
421 2 0.177231 0.04487 0.0165782
1634 4 0.251285 0.0229033 0.0373486
566 4 0.22322 0.0344681 0.084272
492 4 0.249401 0.0286462 0.0562445
490 2 0.270279 0.0410642 0.0621668
654 4 0.306605 0.0464306 0.078295
491 4 0.291157 0.0534822 0.0680891
745 2 0.459623 0.0311135 0.0131268
295 2 0.481475 0.017349 0.0746667
746 4 0.473071 0.0318932 0.0341913
297 4 0.471966 0.0202947 0.0517299
380 4 0.016635 0.124327 0.0557111
379 2 0.0307493 0.121207 0.076113
360 4 0.244352 0.152254 0.0111113
358 2 0.255698 0.159278 0.0322562
558 4 0.336799 0.154183 0.0584428
359 4 0.267044 0.166302 0.0534011
460 2 0.298039 0.162011 0.0715549
462 4 0.273039 0.162233 0.0711845
461 4 0.323039 0.161789 0.0719253
771 4 0.452711 0.134489 0.0248944
1013 4 0.439828 0.122776 0.013473
769 2 0.448191 0.145263 0.0470002
770 4 0.443672 0.156037 0.0691061
2624 4 0.0168545 0.223663 0.0496346
2623 2 0.0120254 0.239911 0.0680162
556 2 0.355959 0.169847 0.0548763
557 4 0.375118 0.185511 0.0513098
517 2 0.4022 0.205272 0.0565045
518 4 0.383293 0.193505 0.0678726
519 4 0.421108 0.217038 0.0451365
1095 4 0.428692 0.21403 0.0261277
1093 2 0.452526 0.212779 0.0335836
1094 4 0.476359 0.211528 0.0410395
3347 4 0.496033 0.209679 0.0361785
292 2 0.0851071 0.332229 0.0201272
475 2 0.109846 0.294964 0.0518079
476 4 0.111452 0.312301 0.0338626
293 4 0.106112 0.319102 0.0167141
338 4 0.106149 0.259965 0.0806689
477 4 0.10824 0.277627 0.0697532
483 4 0.183408 0.304159 0.0313223
481 2 0.173828 0.303643 0.0544119
286 2 0.178058 0.274036 0.00870985
287 4 0.189592 0.285816 0.0275087
573 4 0.263415 0.244813 0.0546344
571 2 0.267357 0.248833 0.0789957
357 4 0.276218 0.250756 0.0403476
355 2 0.289777 0.266225 0.0261332
356 4 0.303336 0.281694 0.0119187
608 4 0.331266 0.327819 0.0769102
1304 4 0.322043 0.2808 0.00309083
1305 4 0.361976 0.310819 0.0053107
1303 2 0.342009 0.295809 0.00420077
37 3 0.354464 0.329567 0.00659004
294 4 0.0641018 0.345355 0.0235403
620 4 0.0450046 0.351145 0.0270399
619 2 0.0234531 0.351475 0.0397128
621 4 0.00190162 0.351805 0.0523857
657 4 0.996795 0.361489 0.0692305
956 4 0.2953 0.351353 0.0271598
903 4 0.295925 0.366316 0.0153999
955 2 0.310413 0.347205 0.0466426
957 4 0.325526 0.343057 0.0661254
38 3 0.34252 0.363227 0.0182956
39 3 0.379402 0.354234 0.0200922
36 1 0.359849 0.351897 0.00781943
251 4 0.138566 0.443431 0.0273085
795 4 0.126013 0.45963 0.0265262
250 2 0.160998 0.435819 0.0193063
793 2 0.122052 0.479925 0.0124701
1289 4 0.203008 0.424258 0.011997
252 4 0.18343 0.428207 0.0113041
1440 4 0.244229 0.490284 0.0754145
1558 2 0.278656 0.503998 0.0558374
1560 4 0.262354 0.496878 0.0734076
61 1 0.332218 0.498347 0.0344135
64 3 0.325204 0.490083 0.013897
63 3 0.341862 0.481348 0.0469216
563 4 0.482926 0.495122 0.0749683
20 3 0.0451829 0.0871229 0.131793
674 4 0.228952 0.0391723 0.103108
673 2 0.244424 0.0222731 0.113118
652 2 0.327437 0.0589288 0.0842133
675 4 0.259896 0.00537391 0.123129
1475 4 0.257155 0.00933129 0.14297
653 4 0.348268 0.071427 0.0901315
484 2 0.385016 0.0518621 0.0994491
486 4 0.36759 0.0697552 0.0982938
485 4 0.402443 0.0339689 0.100604
1608 4 0.399496 0.0161668 0.110737
311 4 0.458125 0.0639625 0.132691
310 2 0.44391 0.0766686 0.148867
296 4 0.490983 0.0144034 0.0976035
628 2 0.487753 0.0715127 0.107536
629 4 0.474769 0.0567691 0.123003
312 4 0.429695 0.0893748 0.165043
381 4 0.0448635 0.118088 0.0965148
17 3 0.0317561 0.116041 0.112393
16 1 0.0450527 0.109834 0.130108
19 3 0.0364858 0.119166 0.149548
18 3 0.0665948 0.117622 0.126408
2481 4 0.0188151 0.113345 0.15312
578 4 0.0784759 0.123562 0.142319
577 2 0.103004 0.120346 0.138684
579 4 0.127532 0.117131 0.135048
237 4 0.130586 0.110664 0.153565
253 2 0.40367 0.161999 0.120093
255 4 0.399496 0.137709 0.124305
2469 4 0.4414 0.157357 0.0877305
2467 2 0.455131 0.141421 0.101245
2724 4 0.484917 0.115304 0.122103
2468 4 0.468863 0.125484 0.11476
737 4 0.16492 0.250182 0.146231
736 2 0.174581 0.237979 0.1658
254 4 0.407844 0.186289 0.115881
322 2 0.382406 0.213475 0.122176
323 4 0.375962 0.235376 0.132375
324 4 0.38885 0.191575 0.111977
624 4 0.38829 0.247085 0.123516
672 4 0.348012 0.253952 0.131623
2650 2 0.455511 0.227428 0.142504
2651 4 0.437027 0.241469 0.151798
2652 4 0.473994 0.213387 0.133209
646 2 0.0374147 0.303149 0.1554
648 4 0.0488894 0.32018 0.141136
2625 4 0.00719638 0.256158 0.0863979
482 4 0.164247 0.303127 0.0775014
455 4 0.151812 0.328704 0.107293
339 4 0.119468 0.251926 0.128194
363 4 0.129005 0.265975 0.139393
337 2 0.112809 0.255945 0.104432
535 2 0.120512 0.334382 0.108565
536 4 0.137007 0.319058 0.0976916
278 4 0.165994 0.290649 0.0933758
361 2 0.117681 0.277832 0.158271
277 2 0.170093 0.277948 0.11452
279 4 0.174193 0.265248 0.135664
345 4 0.222533 0.331659 0.13929
343 2 0.238985 0.323021 0.15602
756 4 0.263971 0.268065 0.114062
572 4 0.271299 0.252854 0.103357
755 4 0.288474 0.286087 0.153755
754 2 0.276223 0.277076 0.133909
609 4 0.30436 0.292243 0.0995172
607 2 0.317813 0.310031 0.0882137
498 4 0.275299 0.30544 0.165123
671 4 0.321502 0.28962 0.108695
670 2 0.334757 0.271786 0.120159
622 2 0.401761 0.268073 0.121728
623 4 0.415233 0.289061 0.11994
739 2 0.419875 0.322517 0.116604
740 4 0.430581 0.300111 0.113682
300 4 0.0466734 0.339068 0.136751
298 2 0.0687237 0.337112 0.125126
655 2 0.997426 0.360765 0.0942156
537 4 0.104016 0.349706 0.119439
299 4 0.090774 0.335155 0.113501
456 4 0.195673 0.350748 0.0977549
454 2 0.173742 0.339726 0.102524
385 2 0.385114 0.366096 0.126725
387 4 0.408553 0.360418 0.133325
386 4 0.361676 0.371774 0.120125
741 4 0.40917 0.344923 0.119527
595 2 0.483079 0.371274 0.159769
597 4 0.497424 0.386865 0.146489
1438 2 0.245285 0.470004 0.0900017
1439 4 0.246341 0.449724 0.104589
1568 4 0.46893 0.499548 0.0884973
3801 4 0.498726 0.473866 0.146346
1567 2 0.477286 0.488239 0.109172
1569 4 0.485642 0.47693 0.129848
233 4 0.0188125 0.0252504 0.204346
232 2 0.0377051 0.00888644 0.205031
1505 4 0.181887 0.0225108 0.248121
689 4 0.205033 0.00347376 0.187283
1506 4 0.205279 0.00711305 0.206691
1504 2 0.193583 0.0148119 0.227406
722 4 0.188073 0.0837901 0.175545
721 2 0.203897 0.0780816 0.194044
723 4 0.219721 0.0723731 0.212542
1474 2 0.256041 0.00128644 0.166618
332 4 0.440389 0.0713907 0.25322
235 2 0.153904 0.103522 0.159085
236 4 0.177221 0.0963797 0.164605
693 4 0.222359 0.0862888 0.225831
691 2 0.229992 0.101393 0.244237
764 4 0.418378 0.101862 0.174836
521 4 0.433758 0.14157 0.221633
763 2 0.421504 0.122117 0.189158
765 4 0.424631 0.142373 0.20348
520 2 0.447127 0.160864 0.230245
392 4 0.0613479 0.241242 0.228785
391 2 0.0821597 0.229609 0.236316
581 4 0.238295 0.212452 0.246213
738 4 0.184243 0.225777 0.185368
284 4 0.191477 0.214792 0.200044
285 4 0.219702 0.206614 0.240506
283 2 0.20559 0.210703 0.220275
612 4 0.302289 0.242899 0.234323
580 2 0.243827 0.19074 0.257311
25 3 0.341037 0.182376 0.226029
759 4 0.352546 0.188078 0.212282
758 4 0.399494 0.190257 0.195198
757 2 0.37602 0.189167 0.20374
528 4 0.396687 0.203701 0.181131
527 4 0.428173 0.240661 0.169161
526 2 0.41243 0.222181 0.175146
522 4 0.460496 0.180159 0.238857
762 4 0.461267 0.199674 0.240506
760 2 0.477054 0.218747 0.23701
761 4 0.49284 0.237819 0.233514
647 4 0.02594 0.286118 0.169663
362 4 0.106357 0.289689 0.177148
389 4 0.118391 0.288614 0.192737
390 4 0.111549 0.290399 0.242241
388 2 0.11497 0.289506 0.217489
372 4 0.125566 0.283198 0.254662
308 4 0.321235 0.250268 0.229484
344 4 0.255436 0.314383 0.172751
307 2 0.32035 0.268982 0.212925
309 4 0.319465 0.287695 0.196366
497 4 0.318152 0.30712 0.190842
496 2 0.296726 0.30628 0.177983
109 3 0.476139 0.32503 0.220617
106 1 0.486632 0.337282 0.203938
749 4 0.0580053 0.384498 0.225976
366 4 0.0406204 0.374944 0.233559
365 4 0.00352804 0.349213 0.255072
364 2 0.0220742 0.362079 0.244316
748 2 0.0706332 0.405689 0.221894
733 2 0.147949 0.407407 0.239306
734 4 0.162347 0.401576 0.219713
291 4 0.230652 0.414284 0.180344
417 4 0.176652 0.415103 0.220419
768 4 0.283442 0.411944 0.212073
766 2 0.288909 0.417192 0.2359
12 3 0.409594 0.381459 0.217022
596 4 0.468734 0.355684 0.173048
11 1 0.420224 0.394487 0.232721
15 3 0.442044 0.39712 0.226752
542 4 0.459432 0.404792 0.230957
541 2 0.477091 0.387624 0.226643
108 3 0.500407 0.353376 0.213406
543 4 0.49475 0.370456 0.222329
107 3 0.470597 0.347773 0.19121
2794 2 0.0216207 0.464243 0.198675
2796 4 0.0342752 0.485409 0.194547
2795 4 0.00896632 0.443077 0.202803
750 4 0.083261 0.42688 0.217812
603 4 0.10349 0.431202 0.216831
264 4 0.137026 0.477962 0.184611
602 4 0.12217 0.468837 0.189713
601 2 0.11283 0.45002 0.203272
262 2 0.158762 0.48469 0.174246
1431 4 0.243853 0.48673 0.24061
416 4 0.221276 0.416479 0.19789
415 2 0.198964 0.415791 0.209154
1429 2 0.219826 0.493439 0.238916
263 4 0.180499 0.491419 0.163881
289 2 0.254271 0.417584 0.187856
290 4 0.27789 0.420883 0.195368
658 2 0.304655 0.472952 0.202669
659 4 0.320996 0.454326 0.19932
645 4 0.418079 0.432914 0.233917
643 2 0.421845 0.450643 0.216692
3695 4 0.486439 0.452084 0.24561
13 3 0.409726 0.415158 0.233667
1573 2 0.430926 0.490828 0.178334
644 4 0.425611 0.468372 0.199468
1574 4 0.44247 0.47931 0.197289
3694 2 0.495978 0.455141 0.2227
1463 4 0.0862114 0.00270787 0.261625
732 4 0.0890365 0.0132978 0.278881
318 4 0.125465 0.0729866 0.267175
730 2 0.102738 0.033516 0.273526
731 4 0.11644 0.0537342 0.268172
1701 4 0.172132 0.0135706 0.299163
1699 2 0.19569 0.0169103 0.306848
1700 4 0.219247 0.02025 0.314534
1830 4 0.236889 0.0277288 0.321143
474 4 0.268229 0.0666399 0.305322
1828 2 0.255353 0.0430149 0.328254
351 4 0.454196 0.0578801 0.252557
331 2 0.417103 0.0804985 0.253199
453 4 0.489377 0.0773096 0.297604
349 2 0.463782 0.0617191 0.275329
350 4 0.473367 0.0655581 0.298101
316 2 0.121556 0.0970671 0.272654
399 4 0.110987 0.122685 0.29707
317 4 0.117647 0.121148 0.278134
397 2 0.101716 0.141615 0.310519
398 4 0.0924449 0.160545 0.323968
692 4 0.237625 0.116497 0.262643
473 4 0.246945 0.103737 0.279408
29 3 0.24759 0.125252 0.281215
23 3 0.317035 0.172626 0.253352
472 2 0.257587 0.0851885 0.292365
27 3 0.264895 0.156508 0.269541
30 3 0.283952 0.131052 0.28908
28 3 0.25778 0.152039 0.306175
26 1 0.263668 0.1411 0.286578
377 4 0.271464 0.14314 0.316727
683 4 0.288849 0.136774 0.307765
682 2 0.306587 0.120373 0.314211
684 4 0.324325 0.103972 0.320657
333 4 0.393817 0.0896063 0.253178
726 4 0.387679 0.123463 0.321354
743 4 0.390138 0.103579 0.266686
742 2 0.377388 0.125017 0.264948
725 4 0.344362 0.0985194 0.319891
744 4 0.364638 0.146455 0.263209
724 2 0.366021 0.110991 0.320623
632 4 0.369912 0.153478 0.280451
22 3 0.351428 0.15754 0.251877
451 2 0.492173 0.0967887 0.313029
452 4 0.49497 0.116268 0.328454
393 4 0.102971 0.217975 0.243847
512 4 0.101672 0.180944 0.297424
511 2 0.107913 0.192554 0.276177
513 4 0.114154 0.204164 0.25493
582 4 0.249359 0.169028 0.268409
610 2 0.289183 0.237458 0.25491
707 4 0.259797 0.234261 0.286893
611 4 0.276077 0.232017 0.275497
706 2 0.259648 0.24487 0.309533
24 3 0.347628 0.19372 0.261321
21 1 0.339249 0.176666 0.248003
631 2 0.381726 0.174887 0.285671
633 4 0.39354 0.196296 0.290892
419 4 0.412467 0.195068 0.28418
418 2 0.435981 0.20144 0.289808
269 4 0.473497 0.200046 0.308565
420 4 0.459494 0.207812 0.295437
268 2 0.484752 0.221428 0.314991
270 4 0.496008 0.242811 0.321416
2716 2 0.000330053 0.326045 0.284261
370 2 0.135825 0.30026 0.269788
371 4 0.146085 0.317322 0.284915
402 4 0.144167 0.324975 0.30391
400 2 0.157589 0.322746 0.324887
708 4 0.259498 0.255479 0.332174
729 4 0.328328 0.304815 0.261986
727 2 0.315735 0.322217 0.274782
559 2 0.409406 0.32574 0.306442
561 4 0.412451 0.308335 0.324133
2717 4 0.011827 0.332817 0.263115
616 2 0.0680323 0.373413 0.327136
617 4 0.0793651 0.39125 0.313772
678 4 0.0971194 0.40281 0.310871
676 2 0.108678 0.412449 0.290904
735 4 0.13355 0.413239 0.258898
728 4 0.303142 0.33962 0.287578
303 4 0.294111 0.403549 0.267911
301 2 0.297781 0.381352 0.27882
302 4 0.301452 0.359155 0.289729
560 4 0.406361 0.343145 0.288751
2537 4 0.404906 0.363472 0.288577
2536 2 0.406445 0.388337 0.290711
2538 4 0.407984 0.413202 0.292844
14 3 0.418876 0.383965 0.253357
1758 4 0.0796227 0.474053 0.336007
1789 2 0.0406378 0.491107 0.322893
1790 4 0.0607985 0.478486 0.330602
1775 4 0.160483 0.496824 0.295106
677 4 0.120237 0.422088 0.270938
1318 2 0.117824 0.497851 0.306578
1320 4 0.0942839 0.49229 0.312913
1862 4 0.245477 0.484425 0.260512
1863 4 0.290431 0.501556 0.274162
767 4 0.294376 0.422439 0.259728
1861 2 0.267954 0.49299 0.267337
229 2 0.323606 0.484848 0.292792
230 4 0.344464 0.471388 0.295787
1802 4 0.350014 0.451747 0.298909
445 2 0.408003 0.44481 0.313216
1801 2 0.338881 0.436193 0.315012
3990 4 0.47446 0.501964 0.326925
447 4 0.413414 0.433438 0.291616
3642 4 0.475657 0.455737 0.262378
3640 2 0.486245 0.454103 0.28497
3641 4 0.496832 0.45247 0.307562
1772 4 0.0404978 0.00595048 0.368781
2755 2 0.0139692 0.0302224 0.352189
2756 4 0.0343836 0.024299 0.365355
429 4 0.151882 0.044437 0.396804
427 2 0.153394 0.0441354 0.371848
428 4 0.154907 0.0438339 0.346892
719 4 0.138937 0.038047 0.409765
368 4 0.1189 0.0990813 0.393004
1151 4 0.218955 0.0564567 0.404813
439 2 0.288922 0.00943878 0.360484
1829 4 0.273818 0.0583011 0.335365
1496 4 0.29086 0.0639574 0.34266
440 4 0.281141 0.0208958 0.381302
1495 2 0.309551 0.0704421 0.35795
1818 4 0.290963 0.0271799 0.397295
1497 4 0.328242 0.0769269 0.37324
1517 4 0.331928 0.0735062 0.391772
697 2 0.374924 0.0149073 0.405647
1516 2 0.355091 0.0643648 0.394029
1518 4 0.378254 0.0552233 0.396286
699 4 0.379282 0.039142 0.409991
531 4 0.0868744 0.162688 0.342123
369 4 0.16593 0.110453 0.405637
367 2 0.142415 0.104767 0.39932
546 4 0.133525 0.15937 0.398131
600 4 0.179602 0.124511 0.400358
598 2 0.183123 0.149147 0.397939
376 2 0.268873 0.157687 0.336898
605 4 0.289543 0.1195 0.411394
425 4 0.398389 0.118064 0.337615
424 2 0.417662 0.120098 0.353413
257 4 0.492128 0.104692 0.388067
256 2 0.474032 0.11676 0.375736
426 4 0.436936 0.122132 0.369211
258 4 0.455936 0.128828 0.363404
641 4 0.490893 0.0985632 0.408063
529 2 0.0630784 0.17003 0.339879
2655 4 0.0411795 0.180701 0.358684
2654 4 0.0141431 0.206062 0.392248
530 4 0.0392825 0.177371 0.337634
2653 2 0.0276613 0.193382 0.375466
247 2 0.0916595 0.221455 0.411448
248 4 0.0985731 0.197475 0.409912
544 2 0.116277 0.171438 0.411623
249 4 0.084746 0.245434 0.412983
687 4 0.215298 0.236339 0.389261
599 4 0.186644 0.173783 0.39552
685 2 0.208218 0.212413 0.390876
686 4 0.201138 0.188487 0.39249
378 4 0.266282 0.172234 0.357069
614 4 0.285177 0.180556 0.357989
613 2 0.29474 0.201544 0.367647
615 4 0.304302 0.222531 0.377304
716 4 0.31303 0.23976 0.382462
715 2 0.337674 0.242033 0.3789
717 4 0.362318 0.244307 0.375339
2849 4 0.00365345 0.329529 0.383556
2493 4 0.998864 0.260834 0.38011
442 2 0.0830718 0.326629 0.358188
1035 4 0.0954281 0.262346 0.410793
443 4 0.0991741 0.314179 0.372711
1034 4 0.0993783 0.293024 0.371499
1033 2 0.0974032 0.277685 0.391146
711 4 0.10813 0.319329 0.406398
401 4 0.171012 0.320517 0.345864
510 4 0.189944 0.315697 0.339859
404 4 0.227564 0.245487 0.377929
403 2 0.243619 0.256751 0.36242
408 4 0.19284 0.337124 0.381082
405 4 0.259675 0.268014 0.34691
584 4 0.373051 0.260651 0.372197
583 2 0.386754 0.267045 0.39211
336 4 0.40169 0.312515 0.340897
334 2 0.38166 0.322291 0.35223
335 4 0.361631 0.332066 0.363563
585 4 0.400457 0.273439 0.412022
587 4 0.348438 0.327445 0.37695
586 2 0.342465 0.325203 0.401126
238 2 0.415536 0.31201 0.418135
240 4 0.413692 0.28719 0.415739
444 4 0.0669695 0.339078 0.343665
618 4 0.0566996 0.355576 0.340499
413 4 0.146452 0.402723 0.359171
775 2 0.10542 0.407815 0.361587
412 2 0.155788 0.410936 0.380863
777 4 0.128145 0.398304 0.365862
406 2 0.179333 0.342802 0.401343
508 2 0.206884 0.330981 0.350086
504 4 0.239958 0.4005 0.400799
502 2 0.233383 0.379598 0.388756
503 4 0.226809 0.358695 0.376713
509 4 0.223824 0.346266 0.360313
635 4 0.247197 0.410033 0.41715
926 4 0.404423 0.342428 0.405251
925 2 0.409673 0.366366 0.410211
927 4 0.414924 0.390303 0.415171
1395 4 0.0703241 0.498119 0.397612
500 4 0.0578467 0.489419 0.384662
1756 2 0.0738919 0.450268 0.341164
499 2 0.0377858 0.488413 0.399553
1757 4 0.0681612 0.426482 0.346321
501 4 0.0177249 0.487407 0.414443
776 4 0.0826939 0.417325 0.357312
414 4 0.165124 0.419149 0.402556
436 2 0.226563 0.485104 0.372763
1436 4 0.212463 0.463022 0.398837
438 4 0.209452 0.468269 0.37976
434 4 0.298369 0.492248 0.404153
5 3 0.293951 0.472308 0.402806
634 2 0.268043 0.423838 0.416929
594 4 0.323164 0.436577 0.399239
592 2 0.326648 0.430086 0.375345
3 3 0.326448 0.454911 0.410485
1803 4 0.327748 0.42064 0.331116
668 4 0.343574 0.442091 0.408883
593 4 0.330131 0.423596 0.351451
446 4 0.402592 0.456182 0.334816
120 3 0.411977 0.458216 0.35283
751 2 0.42667 0.4194 0.415778
753 4 0.424545 0.44166 0.404591
119 3 0.418521 0.455405 0.389802
2740 2 0.478117 0.433531 0.361317
117 3 0.443815 0.471461 0.367107
116 1 0.428014 0.454813 0.368638
3988 2 0.465113 0.482513 0.339554
118 3 0.438341 0.434328 0.365157
3989 4 0.455766 0.463062 0.352182
2741 4 0.455749 0.444686 0.360672
720 4 0.139597 0.0332256 0.459535
718 2 0.139267 0.0356363 0.43465
342 4 0.121452 0.0408138 0.464693
340 2 0.126067 0.0333797 0.488116
1645 2 0.218877 0.0175265 0.467231
1646 4 0.228442 0.0394055 0.459815
1152 4 0.232543 0.0583377 0.452902
1150 2 0.225749 0.0573972 0.428857
1816 2 0.292125 0.0436946 0.416032
606 4 0.300411 0.0783886 0.437709
1817 4 0.293288 0.0602094 0.434769
3487 2 0.473488 0.055259 0.470556
3488 4 0.472897 0.0338054 0.483385
3489 4 0.474079 0.0767126 0.457727
3008 4 0.458967 0.0193139 0.485225
642 4 0.46394 0.0715805 0.440409
469 2 0.0253152 0.160105 0.488409
470 4 0.0160927 0.144278 0.505429
459 4 0.0263013 0.126054 0.504618
275 4 0.160428 0.134351 0.481286
274 2 0.164224 0.123143 0.459259
276 4 0.16802 0.111935 0.437233
320 4 0.285964 0.139376 0.409662
319 2 0.276521 0.159104 0.421778
604 2 0.294977 0.0989443 0.424551
640 2 0.477417 0.0850719 0.424236
2847 4 0.00903069 0.219224 0.457039
2845 2 0.00780568 0.217416 0.432131
983 4 0.0193735 0.235111 0.454139
471 4 0.0345376 0.175931 0.47139
261 4 0.0418493 0.178718 0.45372
259 2 0.0538294 0.19868 0.46284
260 4 0.0658095 0.218642 0.471961
545 4 0.0990288 0.183507 0.425115
348 4 0.0850009 0.214855 0.468968
346 2 0.0996053 0.231919 0.479956
347 4 0.11421 0.248982 0.490943
856 2 0.169802 0.16563 0.503266
858 4 0.174478 0.189805 0.507607
411 4 0.283137 0.183947 0.443782
321 4 0.267078 0.178832 0.433894
409 2 0.283045 0.208778 0.446715
410 4 0.282953 0.233609 0.449648
489 4 0.2881 0.251261 0.440723
982 2 0.0234443 0.251398 0.472669
984 4 0.0275151 0.267685 0.491198
375 4 0.159159 0.312738 0.469527
326 4 0.142824 0.303838 0.477483
10 3 0.127384 0.314191 0.484983
325 2 0.131998 0.281358 0.475865
327 4 0.121173 0.258878 0.474247
7 3 0.157756 0.332489 0.473337
6 1 0.138377 0.334126 0.485622
374 4 0.205068 0.294273 0.476746
373 2 0.182113 0.303506 0.473136
792 4 0.218985 0.294856 0.490283
487 2 0.304515 0.257822 0.458406
488 4 0.320929 0.264382 0.47609
651 4 0.335833 0.263583 0.490141
649 2 0.336781 0.287285 0.498047
709 2 0.127554 0.332286 0.415343
710 4 0.146977 0.345244 0.424288
9 3 0.12508 0.350796 0.476471
569 4 0.173159 0.423303 0.420218
407 4 0.165826 0.348479 0.421603
239 4 0.41738 0.336831 0.420531
588 4 0.336491 0.322961 0.425302
773 4 0.332652 0.329209 0.44411
772 2 0.346396 0.343931 0.458927
774 4 0.36014 0.358653 0.473744
929 4 0.378397 0.362963 0.482143
752 4 0.428794 0.397139 0.426964
663 4 0.497528 0.415826 0.492257
549 4 0.00476904 0.471845 0.413639
681 4 0.0744638 0.433968 0.426296
539 4 0.0622212 0.427362 0.440276
383 4 0.0235863 0.464635 0.464972
382 2 0.0116795 0.485389 0.472228
538 2 0.0444299 0.436914 0.455022
540 4 0.0266386 0.446465 0.469767
568 2 0.151159 0.429543 0.43033
680 4 0.118103 0.418608 0.445279
679 2 0.0962835 0.426288 0.435787
570 4 0.129159 0.435782 0.440441
1437 4 0.220931 0.471549 0.447379
1435 2 0.216697 0.467286 0.423108
1557 4 0.23597 0.478337 0.458286
4 3 0.295761 0.4486 0.432
1 1 0.307277 0.464388 0.41949
1400 4 0.305636 0.497126 0.422285
2 3 0.313344 0.481795 0.433249
636 4 0.288889 0.437643 0.416708
667 2 0.347707 0.428251 0.429293
880 2 0.335397 0.431021 0.484622
669 4 0.35184 0.414411 0.449703
882 4 0.345189 0.414756 0.468351
1743 4 0.454744 0.448721 0.464995
661 2 0.477795 0.422341 0.478353
1741 2 0.459254 0.472875 0.460365
662 4 0.458061 0.428855 0.46445
1742 4 0.463763 0.497028 0.455735
4507 2 0.0769871 0.0379736 0.58366
4508 4 0.0671529 0.056711 0.570342
1077 4 0.0595636 0.0632497 0.553307
2428 2 0.143162 0.0281435 0.540895
2430 4 0.149857 0.0266554 0.51685
341 4 0.130681 0.0259456 0.511538
2429 4 0.136467 0.0296316 0.56494
1180 2 0.288724 0.0476717 0.556293
1182 4 0.309875 0.0602113 0.551753
1032 4 0.303118 0.0770711 0.545132
1181 4 0.267574 0.0351321 0.560833
962 4 0.269918 0.0223979 0.575615
4466 4 0.407101 0.0454836 0.536991
4465 2 0.416237 0.0235651 0.544821
575 4 0.420289 0.0558415 0.549285
4467 4 0.425372 0.00164669 0.552651
90 3 0.445688 0.0152343 0.567713
3007 2 0.467929 0.0177727 0.508516
3009 4 0.476891 0.0162315 0.531807
574 2 0.423789 0.0798934 0.543416
1062 4 0.48644 0.0109682 0.547589
1076 4 0.0510338 0.107694 0.574583
1075 2 0.0552987 0.0854718 0.563945
457 2 0.0104497 0.108114 0.511833
857 4 0.165126 0.141454 0.498925
1030 2 0.315195 0.0984953 0.540624
1031 4 0.327273 0.119919 0.536116
466 2 0.335761 0.148337 0.528398
467 4 0.346296 0.12576 0.530515
576 4 0.427288 0.103945 0.537547
306 4 0.439118 0.118615 0.529728
304 2 0.438446 0.143518 0.527587
305 4 0.437775 0.16842 0.525447
1220 4 0.178705 0.210271 0.51045
1221 4 0.208285 0.223042 0.548694
1219 2 0.193495 0.216657 0.529572
1212 4 0.226369 0.230835 0.552942
1210 2 0.243681 0.242437 0.566757
468 4 0.325226 0.170913 0.526281
515 4 0.428817 0.182616 0.535963
514 2 0.448602 0.19568 0.543906
516 4 0.468386 0.208744 0.551849
1026 4 0.481192 0.225218 0.557399
1024 2 0.494149 0.212148 0.574324
1270 2 0.0677446 0.251468 0.576849
879 4 0.0720071 0.272055 0.543819
877 2 0.0543018 0.269955 0.526289
1272 4 0.072166 0.254286 0.552401
878 4 0.0365966 0.267855 0.508759
1191 4 0.220568 0.321497 0.546718
790 2 0.221406 0.311591 0.508702
1189 2 0.203939 0.324656 0.565121
791 4 0.223826 0.328325 0.527121
1190 4 0.187311 0.327815 0.583525
1211 4 0.260992 0.25404 0.580573
650 4 0.337729 0.310987 0.505952
813 4 0.345867 0.31166 0.524717
811 2 0.365078 0.311638 0.54072
812 4 0.38429 0.311615 0.556723
871 2 0.411362 0.275991 0.520054
872 4 0.393855 0.282951 0.503616
905 4 0.482074 0.245274 0.552395
904 2 0.460564 0.249546 0.540385
873 4 0.42887 0.269031 0.536493
906 4 0.439054 0.253819 0.528374
1010 4 0.483729 0.262052 0.563867
936 4 0.0377979 0.400915 0.505016
4433 4 0.018319 0.394159 0.499977
8 3 0.143816 0.339469 0.507537
930 4 0.384684 0.351948 0.530516
928 2 0.381541 0.357455 0.506329
1238 4 0.382476 0.358754 0.549762
1237 2 0.388333 0.349853 0.572381
1331 4 0.495789 0.399584 0.505587
934 2 0.0368638 0.421986 0.518445
935 4 0.0359296 0.443057 0.531873
1938 4 0.0222096 0.44196 0.545284
1936 2 0.0144522 0.465728 0.544994
1937 4 0.00669485 0.489496 0.544705
896 4 0.125868 0.461289 0.554929
895 2 0.125747 0.471117 0.57792
1161 4 0.250282 0.458236 0.568289
1172 4 0.266449 0.448924 0.575831
1171 2 0.291135 0.452337 0.577866
1173 4 0.315821 0.45575 0.5799
881 4 0.325605 0.447285 0.500893
1911 4 0.32625 0.48047 0.548142
1910 4 0.342081 0.458372 0.506169
1909 2 0.334166 0.469421 0.527156
891 4 0.34949 0.464743 0.564828
889 2 0.367382 0.454503 0.578977
2307 4 0.466397 0.491265 0.594242
1081 2 0.0243934 0.0146836 0.657413
1082 4 0.00861942 0.0236062 0.640186
4509 4 0.0868214 0.0192363 0.596979
2319 4 0.0927547 0.0477072 0.628751
2317 2 0.0895826 0.0638421 0.647587
1893 4 0.0927204 0.0277289 0.63018
1891 2 0.108085 0.0101592 0.621213
2318 4 0.0864105 0.0799769 0.666423
1284 4 0.242271 0.0734458 0.645177
908 4 0.222753 0.0681907 0.642662
1282 2 0.264561 0.0781942 0.655461
1283 4 0.286852 0.0829426 0.665744
1995 4 0.472886 0.0125277 0.620045
44 3 0.426526 0.0544815 0.652835
2283 4 0.443685 0.043989 0.655359
2281 2 0.448791 0.0302381 0.63511
2282 4 0.453897 0.0164872 0.614861
87 3 0.466516 0.00835817 0.597909
939 4 0.109961 0.147355 0.665394
937 2 0.102149 0.123604 0.665635
907 2 0.217338 0.0890376 0.629963
909 4 0.211923 0.109885 0.617264
1227 4 0.215681 0.127037 0.628258
1225 2 0.219053 0.151143 0.622538
267 4 0.306128 0.158856 0.592744
1004 4 0.300532 0.0838099 0.650217
1003 2 0.317979 0.095251 0.663997
265 2 0.330063 0.164462 0.597309
4225 2 0.479427 0.107043 0.656924
900 4 0.424789 0.15837 0.614353
4226 4 0.503289 0.113901 0.653968
1154 4 0.0495744 0.240562 0.613707
1153 2 0.0404833 0.227269 0.632834
1155 4 0.0313922 0.213976 0.65196
1226 4 0.222425 0.175249 0.616818
1277 4 0.194544 0.230991 0.638627
1276 2 0.205876 0.212728 0.625852
1278 4 0.217208 0.194464 0.613076
798 4 0.204558 0.240726 0.652653
918 4 0.262086 0.248942 0.645957
916 2 0.25427 0.24065 0.668213
266 4 0.353999 0.170067 0.601873
888 4 0.370144 0.172335 0.591256
886 2 0.39437 0.17317 0.597384
887 4 0.418597 0.174006 0.603512
899 4 0.454692 0.173241 0.651574
898 2 0.439741 0.165805 0.632964
1271 4 0.0633232 0.248649 0.601296
696 4 0.137311 0.31101 0.621087
1259 4 0.126954 0.308391 0.637638
1258 2 0.105444 0.314137 0.649018
694 2 0.157675 0.300426 0.63101
1260 4 0.0839345 0.319883 0.660397
804 4 0.172247 0.337105 0.59036
796 2 0.188365 0.259659 0.654776
695 4 0.178039 0.289843 0.640933
797 4 0.172171 0.278591 0.656899
1167 4 0.276423 0.260981 0.65059
1165 2 0.299517 0.27031 0.652789
1166 4 0.322611 0.279639 0.654988
1028 4 0.366494 0.320205 0.640135
1027 2 0.379697 0.320928 0.618913
807 4 0.378981 0.329291 0.653368
1029 4 0.3929 0.32165 0.597692
3370 2 0.486142 0.273726 0.652076
3371 4 0.479349 0.283547 0.630109
1011 4 0.479366 0.272478 0.61258
1009 2 0.481548 0.267265 0.588224
803 4 0.182434 0.373029 0.623623
1136 4 0.177099 0.383842 0.638897
802 2 0.177341 0.355067 0.606992
1135 2 0.200624 0.382175 0.647201
1137 4 0.224149 0.380509 0.655506
1067 4 0.241564 0.37847 0.664597
1239 4 0.394191 0.340953 0.595001
3239 4 0.0388664 0.487694 0.653264
2172 4 0.0334722 0.469397 0.648313
2170 2 0.0316897 0.445394 0.655088
2171 4 0.0299073 0.421392 0.661862
897 4 0.125626 0.480945 0.60091
2015 4 0.131539 0.499425 0.595737
1159 2 0.238683 0.476617 0.580648
1160 4 0.227084 0.494999 0.593007
1002 4 0.3823 0.434421 0.610359
890 4 0.385274 0.444263 0.593127
1000 2 0.39329 0.448623 0.627757
1953 4 0.414173 0.480969 0.651629
1001 4 0.404279 0.462826 0.645155
1101 4 0.394057 0.425801 0.671216
1083 4 0.0401674 0.00576107 0.674639
943 2 0.0606447 0.0343546 0.694371
944 4 0.0518971 0.0214909 0.674796
863 4 0.0697241 0.0651871 0.723627
945 4 0.0693923 0.0472183 0.713946
1050 4 0.323479 0.0349613 0.683092
1091 4 0.315893 0.0212356 0.669254
2399 4 0.311379 0.0262507 0.746891
1048 2 0.324085 0.030869 0.707751
1049 4 0.324691 0.0267767 0.73241
2398 2 0.290181 0.013345 0.74994
2321 4 0.40407 0.0660511 0.698691
2320 2 0.39985 0.0692789 0.723123
45 3 0.409459 0.0725955 0.681088
2322 4 0.395629 0.0725066 0.747556
1163 4 0.453524 0.0448793 0.673775
41 1 0.429633 0.0668893 0.672195
1162 2 0.476218 0.0393231 0.682678
42 3 0.441287 0.0541547 0.687399
1164 4 0.498913 0.0337668 0.691581
862 2 0.0590608 0.0876401 0.720918
2286 4 0.0550654 0.128253 0.722499
2284 2 0.0683051 0.148205 0.7153
864 4 0.0483974 0.110093 0.71821
2285 4 0.0815447 0.168156 0.708102
938 4 0.0943379 0.0998536 0.665877
32 3 0.130372 0.154984 0.720946
831 4 0.324036 0.121157 0.684189
1005 4 0.335426 0.106692 0.677778
829 2 0.338043 0.132598 0.701454
830 4 0.35205 0.144039 0.718719
978 4 0.367755 0.132132 0.721
976 2 0.372508 0.144876 0.74198
43 3 0.441894 0.0860124 0.667465
4227 4 0.455565 0.100184 0.65988
3387 4 0.0145506 0.219955 0.741942
34 3 0.0993138 0.171494 0.707699
31 1 0.119228 0.175021 0.719074
33 3 0.132542 0.189937 0.707298
35 3 0.114943 0.183195 0.739894
1241 4 0.246174 0.179083 0.713946
1240 2 0.23769 0.200714 0.704712
1242 4 0.229206 0.222346 0.695477
917 4 0.246454 0.232358 0.690469
1194 4 0.462336 0.177337 0.668991
1192 2 0.4464 0.179428 0.688145
1193 4 0.430465 0.181519 0.707298
1208 4 0.0855729 0.317431 0.680313
948 4 0.172506 0.32506 0.730052
1215 4 0.193921 0.274433 0.728183
1213 2 0.179744 0.256033 0.737438
3372 4 0.492934 0.263904 0.674044
3122 4 0.473561 0.318259 0.697744
952 2 0.463377 0.278712 0.715593
954 4 0.470338 0.297908 0.701164
953 4 0.456416 0.259515 0.730023
1298 4 0.465541 0.26844 0.746684
991 2 0.0625685 0.385926 0.728688
1243 2 0.00573979 0.409245 0.690876
1209 4 0.0765899 0.357856 0.708346
993 4 0.0807254 0.376334 0.714422
992 4 0.0444116 0.395518 0.742953
1207 2 0.0810814 0.337644 0.69433
1066 2 0.254542 0.396914 0.675393
1006 2 0.31312 0.351281 0.683034
1007 4 0.28895 0.355168 0.677943
1068 4 0.267519 0.415358 0.68619
1235 4 0.265465 0.417587 0.746897
805 2 0.368546 0.338249 0.674249
806 4 0.358111 0.347208 0.695131
1008 4 0.337289 0.347394 0.688124
1099 2 0.411163 0.409991 0.680304
1100 4 0.42827 0.394181 0.689392
1204 2 0.408771 0.383141 0.726724
3123 4 0.4884 0.363138 0.681422
3121 2 0.480981 0.340698 0.689583
1206 4 0.423705 0.388342 0.707356
1245 4 0.023496 0.423204 0.68015
1175 4 0.28343 0.426136 0.741463
1176 4 0.281219 0.428786 0.691575
1174 2 0.282324 0.427461 0.716519
1139 4 0.347562 0.473878 0.693344
1138 2 0.348614 0.491885 0.71066
1229 4 0.339507 0.46757 0.676214
1230 4 0.381845 0.441657 0.670148
1228 2 0.360676 0.454613 0.673181
1251 4 0.48918 0.465338 0.742413