ITEM: TIMESTEP
3340000
ITEM: NUMBER OF ATOMS
4590
ITEM: BOX BOUNDS pp pp pp
-9.9985700000000008e+00 9.9985700000000008e+00
-9.9985700000000008e+00 9.9985700000000008e+00
-9.9985700000000008e+00 9.9985700000000008e+00
ITEM: ATOMS id type xs ys zs
702 4 0.0113532 0.0212115 0.0399885
380 4 0.0517923 0.00199844 0.07611
3752 4 0.125678 0.0195621 0.0717425
3751 2 0.103689 0.0101889 0.064406
3753 4 0.0817009 0.000815716 0.0570694
1633 2 0.180073 0.0398982 0.0390816
1635 4 0.180323 0.0241816 0.0585265
1634 4 0.179822 0.0556148 0.0196367
422 4 0.176263 0.0707548 0.00647054
1605 4 0.185565 0.0131186 0.0748459
567 4 0.305123 0.0491712 0.0627816
653 4 0.322347 0.0579734 0.061216
565 2 0.287287 0.0318497 0.0601336
652 2 0.323017 0.0773753 0.0454586
566 4 0.269451 0.0145282 0.0574856
674 4 0.268286 0.00525959 0.0746136
985 2 0.384901 0.0247482 0.0281238
2265 4 0.372229 0.0516437 0.0119899
986 4 0.405685 0.0128279 0.0352721
486 4 0.398685 0.0653909 0.0658808
629 4 0.402275 0.079638 0.0525988
484 2 0.391656 0.0467404 0.0809781
987 4 0.364117 0.0366685 0.0209756
2976 4 0.463445 0.0750285 0.0544793
630 4 0.451249 0.0897073 0.0535312
628 2 0.426762 0.0846726 0.053065
2974 2 0.483803 0.0834073 0.0426253
747 4 0.424215 0.0118978 0.0280265
745 2 0.446259 0.000134445 0.0270968
553 2 0.0552137 0.149262 0.00588802
554 4 0.0594615 0.126705 0.0158034
836 4 0.0724122 0.111716 0.0178918
1132 2 0.139295 0.145816 0.0270579
837 4 0.11547 0.115164 0.0430872
1134 4 0.131773 0.125248 0.0391221
835 2 0.0939413 0.11344 0.0304895
354 4 0.2409 0.166426 0.0514709
933 4 0.193917 0.143417 0.99877
654 4 0.323688 0.0967772 0.0297012
491 4 0.311864 0.106937 0.0175152
360 4 0.254386 0.152042 0.054287
359 4 0.302943 0.16361 0.0573087
358 2 0.278665 0.157826 0.0557978
490 2 0.290408 0.10968 0.00497349
462 4 0.317967 0.165215 0.0450244
2469 4 0.452434 0.162185 0.0674593
769 2 0.449579 0.135587 0.0348901
771 4 0.445449 0.126185 0.0120923
770 4 0.453708 0.144988 0.0576878
1013 4 0.435476 0.137032 0.998032
555 4 0.0509659 0.171819 0.995973
1133 4 0.146817 0.166385 0.0149938
352 2 0.223369 0.17528 0.0359969
353 4 0.205837 0.184134 0.0205228
915 4 0.18819 0.19574 0.02126
913 2 0.187762 0.216394 0.00717398
460 2 0.33131 0.186156 0.047962
461 4 0.344654 0.207096 0.0508995
558 4 0.36225 0.197325 0.0540184
556 2 0.385824 0.20444 0.0496823
557 4 0.409399 0.211556 0.0453461
518 4 0.414047 0.230127 0.0385422
665 4 0.422505 0.182618 0.000627365
517 2 0.433501 0.242604 0.0480837
2467 2 0.429802 0.168113 0.0762818
476 4 0.0933384 0.301518 0.0347103
475 2 0.0967346 0.298871 0.0593403
1169 4 0.0878777 0.318573 0.0253921
1168 2 0.105966 0.32909 0.0117041
477 4 0.100131 0.296224 0.0839703
483 4 0.189983 0.296232 0.0416959
481 2 0.185557 0.318241 0.0527043
287 4 0.203334 0.282489 0.0359661
482 4 0.18113 0.340251 0.0637127
286 2 0.196971 0.270373 0.0150403
357 4 0.281786 0.277134 0.0613026
355 2 0.29935 0.285163 0.0454206
356 4 0.316913 0.293191 0.0295386
1304 4 0.322703 0.311297 0.0223757
573 4 0.26366 0.267346 0.0625881
1303 2 0.340853 0.307474 0.00560866
670 2 0.389656 0.314686 0.0831811
519 4 0.452954 0.255082 0.0576251
1095 4 0.463548 0.268304 0.0444058
1093 2 0.475065 0.27048 0.0223197
1094 4 0.486583 0.272656 0.000233511
292 2 0.0557705 0.341006 0.036003
294 4 0.0344447 0.353701 0.0329674
620 4 0.0225448 0.357208 0.0479481
619 2 0.0118382 0.355166 0.070451
293 4 0.0770963 0.32831 0.0390386
957 4 0.3314 0.383766 0.0507375
955 2 0.312247 0.39427 0.0385725
956 4 0.293093 0.404774 0.0264076
608 4 0.346669 0.38296 0.0621666
607 2 0.359135 0.36621 0.0759214
671 4 0.37234 0.332013 0.0781731
281 4 0.454189 0.342026 0.00167232
282 4 0.459113 0.390484 0.0129979
854 4 0.473909 0.40033 0.00528606
280 2 0.456651 0.366255 0.00733511
227 4 0.500478 0.412123 0.0852149
251 4 0.156562 0.493645 0.0104897
250 2 0.173413 0.475183 0.0111017
252 4 0.190263 0.45672 0.0117137
903 4 0.291118 0.415672 0.010635
64 3 0.290645 0.499268 0.0282286
63 3 0.301303 0.466236 0.0437093
61 1 0.30355 0.489307 0.0447403
1559 4 0.29904 0.497946 0.0855271
524 4 0.358155 0.48789 0.0013306
1673 4 0.364575 0.481725 0.0197869
1672 2 0.363635 0.488928 0.0437123
853 2 0.474091 0.416759 0.986439
379 2 0.042137 0.00794579 0.0983942
381 4 0.0324817 0.0138931 0.120678
17 3 0.0463608 0.0243122 0.131444
16 1 0.0507887 0.0449032 0.140694
18 3 0.0737239 0.0471255 0.143422
19 3 0.0428744 0.0613967 0.12642
2481 4 0.0259779 0.0717952 0.130598
20 3 0.0403753 0.0464509 0.160888
2479 2 0.00335509 0.0815601 0.134844
464 4 0.087998 0.0306752 0.136307
463 2 0.0957239 0.00735248 0.131666
578 4 0.10092 0.0448502 0.142088
577 2 0.119654 0.0613822 0.141131
579 4 0.138388 0.0779141 0.140174
1608 4 0.386698 0.0312013 0.116637
485 4 0.384627 0.0280899 0.0960754
1606 2 0.392971 0.00748477 0.121469
237 4 0.141355 0.0966554 0.144368
312 4 0.405613 0.114143 0.144353
310 2 0.404003 0.109807 0.119781
764 4 0.39746 0.103655 0.159578
311 4 0.402392 0.105471 0.0952092
277 2 0.134652 0.223945 0.13891
278 4 0.1326 0.235146 0.11665
279 4 0.136705 0.212745 0.16117
361 2 0.0822946 0.246987 0.152991
363 4 0.0962357 0.252721 0.133042
324 4 0.375184 0.236326 0.102673
2468 4 0.407171 0.174042 0.0851043
255 4 0.390747 0.173582 0.0976532
253 2 0.381873 0.195943 0.104465
254 4 0.373 0.218305 0.111276
527 4 0.485822 0.227673 0.113599
526 2 0.466389 0.226162 0.12926
758 4 0.435928 0.227098 0.163048
528 4 0.446956 0.224651 0.14492
300 4 0.0451867 0.310278 0.145334
298 2 0.0613807 0.327417 0.137016
648 4 0.0411056 0.291104 0.146351
339 4 0.106515 0.269571 0.1297
338 4 0.0987538 0.308135 0.0988243
337 2 0.102634 0.288853 0.114262
756 4 0.24675 0.283068 0.119543
754 2 0.239181 0.276284 0.142387
572 4 0.236347 0.274596 0.103846
571 2 0.250004 0.270971 0.0832169
386 4 0.29843 0.307524 0.12535
385 2 0.321775 0.300301 0.130644
497 4 0.296201 0.326999 0.11935
322 2 0.385659 0.258533 0.0979495
323 4 0.396133 0.28074 0.0932259
672 4 0.406973 0.297359 0.0881891
387 4 0.34512 0.293078 0.135937
741 4 0.351537 0.294263 0.155598
739 2 0.369272 0.304995 0.16958
624 4 0.443021 0.337313 0.162714
596 4 0.448823 0.329044 0.144305
299 4 0.0775747 0.344556 0.128699
656 4 0.0158627 0.383507 0.147282
705 4 0.0186292 0.387743 0.167158
655 2 0.0035798 0.371839 0.128892
537 4 0.0803146 0.350442 0.11039
536 4 0.129393 0.359371 0.106878
455 4 0.145751 0.370507 0.103123
535 2 0.104854 0.354906 0.108634
454 2 0.165903 0.360789 0.0919607
456 4 0.186056 0.35107 0.0807983
496 2 0.287085 0.343292 0.135981
498 4 0.277968 0.359585 0.152613
609 4 0.371602 0.34946 0.0896762
495 4 0.462963 0.366134 0.0925248
493 2 0.481174 0.380544 0.0832577
595 2 0.459177 0.339828 0.124263
597 4 0.469531 0.350612 0.104221
110 3 0.499687 0.35616 0.158034
264 4 0.0679668 0.471132 0.15845
262 2 0.0796638 0.492468 0.164204
1862 4 0.243011 0.47523 0.174324
1861 2 0.257242 0.490252 0.160288
1582 2 0.400989 0.482163 0.0840554
1574 4 0.416808 0.453554 0.157532
1573 2 0.422501 0.461999 0.134697
1575 4 0.428193 0.470444 0.111861
1584 4 0.421493 0.470223 0.0919408
563 4 0.494316 0.482557 0.0805677
1537 2 0.069553 0.0238995 0.228465
1539 4 0.0785986 0.0471247 0.230453
1463 4 0.119175 0.0178305 0.244661
689 4 0.204971 0.0161596 0.19502
1504 2 0.211469 0.0434652 0.220617
1506 4 0.19914 0.0229979 0.213251
1505 4 0.223799 0.0639324 0.227983
1475 4 0.265593 0.0252485 0.192641
1474 2 0.281093 0.00681738 0.199366
235 2 0.150064 0.107329 0.165234
722 4 0.148861 0.126312 0.201663
236 4 0.158773 0.118002 0.186101
721 2 0.171549 0.127304 0.212127
723 4 0.194236 0.128295 0.22259
693 4 0.193239 0.114465 0.23619
765 4 0.417507 0.0902079 0.203373
763 2 0.407484 0.0969316 0.181476
2466 4 0.499926 0.108952 0.174399
521 4 0.430638 0.103209 0.209585
520 2 0.442177 0.121772 0.221727
522 4 0.453715 0.140336 0.233869
762 4 0.467786 0.154682 0.232677
760 2 0.488053 0.169191 0.230703
513 4 0.0646616 0.230968 0.190197
362 4 0.0683536 0.241253 0.172939
511 2 0.0792499 0.213666 0.200828
512 4 0.0938382 0.196365 0.211459
737 4 0.155407 0.212446 0.166916
736 2 0.157465 0.21954 0.190804
738 4 0.159524 0.226634 0.214691
580 2 0.24056 0.189825 0.238486
284 4 0.166255 0.222072 0.234771
283 2 0.186777 0.208029 0.23738
285 4 0.207299 0.193986 0.239988
581 4 0.220936 0.202104 0.229035
582 4 0.260183 0.177545 0.247937
25 3 0.408153 0.200694 0.219584
24 3 0.376372 0.181427 0.213549
21 1 0.385413 0.201933 0.219564
22 3 0.378702 0.217783 0.204304
23 3 0.377801 0.20808 0.240604
309 4 0.372713 0.234518 0.194602
759 4 0.417034 0.21399 0.207454
757 2 0.426481 0.220544 0.185251
646 2 0.0336487 0.291206 0.170216
391 2 0.0522159 0.280539 0.226736
392 4 0.0329398 0.28998 0.213912
647 4 0.0261917 0.291308 0.194082
389 4 0.137003 0.273207 0.232696
388 2 0.127356 0.295052 0.240108
390 4 0.11771 0.316897 0.247519
755 4 0.231611 0.269499 0.165231
610 2 0.318123 0.280408 0.246191
612 4 0.337771 0.28032 0.230728
308 4 0.351576 0.273649 0.217467
307 2 0.362145 0.254084 0.206035
740 4 0.387007 0.315727 0.183562
623 4 0.40559 0.317911 0.189606
107 3 0.492266 0.321971 0.171033
622 2 0.424306 0.327612 0.17616
703 2 0.0195174 0.367977 0.182446
704 4 0.0204055 0.348211 0.197733
749 4 0.993995 0.406356 0.226693
343 2 0.248117 0.375146 0.166535
345 4 0.224302 0.382218 0.163699
416 4 0.224389 0.413045 0.215027
344 4 0.271931 0.368075 0.16937
766 2 0.305807 0.403286 0.247109
13 3 0.409147 0.394291 0.205824
12 3 0.429861 0.36513 0.217366
541 2 0.486994 0.397355 0.205633
11 1 0.428708 0.388094 0.216656
15 3 0.446749 0.396164 0.20534
542 4 0.463857 0.406605 0.203559
14 3 0.428673 0.396277 0.238369
748 2 0.00184757 0.429775 0.222812
602 4 0.057061 0.462468 0.174331
3599 4 0.00724122 0.476696 0.221373
750 4 0.00970049 0.453194 0.218932
603 4 0.0208022 0.444649 0.203801
601 2 0.0389316 0.453559 0.189066
3598 2 0.0223813 0.47845 0.241195
1431 4 0.226095 0.463609 0.173368
1429 2 0.203865 0.472538 0.166208
1430 4 0.181635 0.481467 0.159048
291 4 0.234151 0.429144 0.219892
415 2 0.200546 0.416647 0.22164
417 4 0.176703 0.420249 0.228252
734 4 0.181239 0.435942 0.2417
290 4 0.279853 0.42445 0.239639
768 4 0.296268 0.418664 0.229855
289 2 0.257002 0.426797 0.229766
659 4 0.287889 0.452402 0.204454
658 2 0.30122 0.473137 0.200266
660 4 0.314551 0.493872 0.196079
643 2 0.399903 0.428139 0.188656
644 4 0.404969 0.446517 0.172477
645 4 0.394838 0.409761 0.204835
2755 2 0.0359 0.0596521 0.321223
2756 4 0.0418296 0.0357678 0.3168
2757 4 0.0299704 0.0835363 0.325645
1771 2 0.0415603 0.000447067 0.319842
1772 4 0.0557434 0.0207163 0.316212
731 4 0.114243 0.0766544 0.255009
730 2 0.112914 0.0542585 0.243971
732 4 0.111585 0.0318625 0.232933
318 4 0.0961525 0.0781729 0.263489
1699 2 0.181039 0.0488761 0.335503
1700 4 0.173142 0.0683394 0.321938
1701 4 0.188935 0.0294128 0.349068
474 4 0.294247 0.0728029 0.258231
1830 4 0.30519 0.0568275 0.257196
1828 2 0.321878 0.0504116 0.274675
1829 4 0.338566 0.0439958 0.292155
1496 4 0.333067 0.0542913 0.308653
399 4 0.0427005 0.103987 0.298593
317 4 0.0613887 0.0979954 0.293476
397 2 0.0462507 0.121359 0.316222
316 2 0.0787706 0.0880841 0.278482
598 2 0.157888 0.153004 0.335383
691 2 0.214869 0.110482 0.248084
692 4 0.236499 0.1065 0.259977
27 3 0.267774 0.16064 0.254707
472 2 0.276344 0.0897875 0.262255
473 4 0.258442 0.106772 0.26628
29 3 0.249512 0.129213 0.264271
28 3 0.256475 0.156055 0.290259
30 3 0.284653 0.13533 0.276326
26 1 0.264709 0.145197 0.271478
377 4 0.272301 0.157212 0.301286
683 4 0.288292 0.147678 0.292303
682 2 0.312065 0.142127 0.297708
725 4 0.335778 0.132321 0.323347
684 4 0.335838 0.136577 0.303113
743 4 0.382767 0.15493 0.281946
333 4 0.400334 0.157142 0.290158
331 2 0.416701 0.16038 0.308781
350 4 0.48847 0.125646 0.310872
351 4 0.451115 0.154232 0.327846
349 2 0.469792 0.139939 0.319359
332 4 0.433069 0.163618 0.327404
599 4 0.175388 0.170501 0.331808
686 4 0.184461 0.181406 0.317936
685 2 0.202939 0.197483 0.322965
403 2 0.251449 0.234208 0.330353
687 4 0.221416 0.213561 0.327993
376 2 0.275391 0.178826 0.31347
378 4 0.278481 0.200441 0.325653
405 4 0.267178 0.250244 0.31937
614 4 0.297194 0.209503 0.325889
744 4 0.368519 0.198627 0.262243
742 2 0.375643 0.176778 0.272094
632 4 0.375427 0.217263 0.263273
631 2 0.391578 0.233016 0.274051
633 4 0.407729 0.248769 0.28483
420 4 0.457147 0.250843 0.329781
418 2 0.439155 0.244275 0.313709
419 4 0.421163 0.237708 0.297636
393 4 0.071492 0.271097 0.239561
611 4 0.298475 0.280495 0.261654
708 4 0.268122 0.269522 0.31557
706 2 0.285436 0.275536 0.298563
707 4 0.302749 0.281551 0.281555
727 2 0.319936 0.303581 0.331211
728 4 0.316682 0.315898 0.309697
509 4 0.280078 0.343273 0.281171
560 4 0.381064 0.326196 0.324953
269 4 0.467518 0.265232 0.32014
268 2 0.484775 0.283307 0.320971
618 4 0.0630176 0.367003 0.325221
372 4 0.127124 0.329598 0.259248
370 2 0.14689 0.337125 0.272583
371 4 0.166656 0.344652 0.285918
616 2 0.0800096 0.378813 0.311186
678 4 0.110863 0.392167 0.284032
617 4 0.0970017 0.390623 0.297152
676 2 0.124257 0.412454 0.278183
510 4 0.234242 0.329979 0.296106
402 4 0.180348 0.341514 0.300467
400 2 0.203768 0.342655 0.291786
401 4 0.227189 0.343796 0.283104
508 2 0.25716 0.336626 0.288639
302 4 0.321129 0.332555 0.299551
767 4 0.315346 0.387909 0.264364
301 2 0.316895 0.355386 0.290277
303 4 0.312661 0.378217 0.281004
2537 4 0.368069 0.341935 0.320759
2536 2 0.377345 0.36358 0.312355
2538 4 0.38662 0.385225 0.30395
447 4 0.401926 0.395899 0.296507
445 2 0.397815 0.415342 0.311681
2619 4 0.00205125 0.462409 0.276603
1665 4 0.0556712 0.484584 0.265749
3600 4 0.0375214 0.480204 0.261016
1758 4 0.0663113 0.441543 0.309774
1789 2 0.0352211 0.43943 0.28975
1790 4 0.0534855 0.428177 0.302593
1791 4 0.0169568 0.450684 0.276907
3715 2 0.996387 0.497022 0.323604
1756 2 0.086582 0.442308 0.324392
677 4 0.137652 0.43274 0.272334
735 4 0.151154 0.445251 0.280545
776 4 0.122506 0.43599 0.326353
1757 4 0.106853 0.443074 0.339011
1775 4 0.170724 0.510814 0.268306
1319 4 0.176155 0.493022 0.277398
733 2 0.166197 0.440596 0.261122
1318 2 0.191398 0.49041 0.297045
1320 4 0.206642 0.487798 0.316691
438 4 0.204249 0.48361 0.335521
229 2 0.317099 0.502668 0.255476
230 4 0.316789 0.50324 0.280472
1802 4 0.302701 0.496907 0.293191
1801 2 0.297599 0.487418 0.315754
446 4 0.393704 0.434785 0.326855
428 4 0.0943878 0.0128405 0.351371
427 2 0.11234 0.0264669 0.362199
429 4 0.130292 0.0400933 0.373026
719 4 0.129495 0.0549466 0.386358
718 2 0.129408 0.0532311 0.411302
1406 4 0.182735 0.0104281 0.34643
439 2 0.262926 0.00829077 0.341217
440 4 0.267008 0.0314528 0.349704
1818 4 0.254325 0.0417295 0.363305
1816 2 0.26136 0.060972 0.377637
1817 4 0.268395 0.0802146 0.39197
1517 4 0.355868 0.0459231 0.369394
1497 4 0.350637 0.0603557 0.355078
1495 2 0.341852 0.0573235 0.331866
1516 2 0.358569 0.0420303 0.393945
1518 4 0.36127 0.0381376 0.418496
398 4 0.0498009 0.13873 0.333852
529 2 0.0338211 0.157737 0.362782
531 4 0.052655 0.144743 0.352702
368 4 0.114278 0.113888 0.396731
600 4 0.140388 0.135506 0.338957
367 2 0.128767 0.120893 0.377595
369 4 0.143255 0.127898 0.358458
276 4 0.180018 0.119357 0.400858
606 4 0.269233 0.0991975 0.38477
604 2 0.279567 0.104392 0.406938
726 4 0.369728 0.120951 0.358258
724 2 0.352753 0.126636 0.340802
425 4 0.370281 0.108741 0.374651
424 2 0.38659 0.0974054 0.38984
426 4 0.402899 0.0860699 0.405028
530 4 0.0149872 0.170732 0.372862
2655 4 0.0132905 0.186704 0.38309
2654 4 0.018234 0.236406 0.385535
2653 2 0.0157623 0.211555 0.384312
2846 4 0.00511038 0.245129 0.398471
404 4 0.23572 0.218172 0.341337
613 2 0.315442 0.213153 0.342588
615 4 0.33369 0.216803 0.359287
716 4 0.355224 0.222788 0.359125
715 2 0.371176 0.238826 0.369779
717 4 0.387127 0.254864 0.380433
584 4 0.403311 0.242997 0.384608
1034 4 0.080679 0.314653 0.38614
443 4 0.0720616 0.315476 0.366367
1033 2 0.08661 0.29129 0.392788
2845 2 0.00746926 0.259941 0.418477
249 4 0.0867219 0.252681 0.411478
1035 4 0.0925411 0.267927 0.399435
709 2 0.191171 0.3068 0.414682
710 4 0.211256 0.312912 0.401102
407 4 0.207401 0.331858 0.394581
729 4 0.323191 0.291265 0.352726
559 2 0.385738 0.317112 0.347774
334 2 0.373392 0.323219 0.401642
561 4 0.390412 0.308027 0.370595
336 4 0.386678 0.324701 0.380512
583 2 0.414827 0.25666 0.402097
585 4 0.426342 0.270324 0.419586
238 2 0.426179 0.311837 0.415299
442 2 0.0673917 0.337333 0.355158
444 4 0.0627218 0.35919 0.343949
681 4 0.0715414 0.389511 0.352788
539 4 0.0626108 0.396433 0.368376
538 2 0.0395548 0.401686 0.3765
540 4 0.0164987 0.406939 0.384624
2813 4 0.00914747 0.407699 0.403582
679 2 0.0935729 0.388758 0.364587
570 4 0.130788 0.381694 0.387226
680 4 0.115604 0.388005 0.376386
568 2 0.150208 0.39578 0.39427
569 4 0.169628 0.409867 0.401314
503 4 0.219025 0.388043 0.39647
406 2 0.213338 0.354867 0.386801
408 4 0.219275 0.377875 0.379021
502 2 0.231146 0.399318 0.415208
414 4 0.176059 0.427088 0.407412
925 2 0.416581 0.371473 0.409725
239 4 0.434572 0.335183 0.412184
926 4 0.433219 0.354021 0.40311
549 4 0.0365903 0.484991 0.38689
547 2 0.0358244 0.479548 0.411282
501 4 0.0515495 0.49763 0.38443
775 2 0.137606 0.447687 0.342488
777 4 0.152705 0.459385 0.358624
413 4 0.168772 0.46094 0.371334
412 2 0.172415 0.444014 0.389373
437 4 0.217893 0.512787 0.373773
436 2 0.211071 0.498199 0.354647
1803 4 0.292496 0.47793 0.338318
594 4 0.325533 0.477393 0.387374
592 2 0.312088 0.46987 0.367681
593 4 0.298643 0.462348 0.347988
5 3 0.283166 0.489782 0.407529
3 3 0.320525 0.49255 0.411318
668 4 0.330865 0.475233 0.405966
751 2 0.390444 0.418531 0.41039
753 4 0.383547 0.433803 0.391833
669 4 0.370186 0.44439 0.407796
667 2 0.350526 0.459812 0.406881
120 3 0.396064 0.433208 0.347209
119 3 0.402116 0.434889 0.384333
116 1 0.410825 0.439571 0.363342
117 3 0.414535 0.462214 0.361711
3988 2 0.430264 0.491269 0.357092
3989 4 0.433679 0.4665 0.357037
118 3 0.430981 0.428441 0.360465
1473 4 0.502273 0.490054 0.373849
2741 4 0.438844 0.446903 0.353993
2742 4 0.488521 0.444847 0.34864
2740 2 0.463682 0.445875 0.351316
2238 4 0.014961 0.0131667 0.495205
2236 2 0.00308524 0.00331643 0.47553
342 4 0.125947 0.0474578 0.455288
720 4 0.129321 0.0515157 0.436247
340 2 0.109259 0.0405186 0.472566
341 4 0.0925703 0.0335793 0.489844
699 4 0.349699 0.0300684 0.432581
697 2 0.345884 0.00548672 0.435104
258 4 0.421845 0.0835921 0.4128
3487 2 0.482494 0.0407865 0.502486
3489 4 0.487893 0.0323802 0.479565
641 4 0.482498 0.0627625 0.432637
257 4 0.468865 0.0675319 0.418445
256 2 0.445355 0.075562 0.415623
857 4 0.166963 0.138662 0.461892
856 2 0.187064 0.149619 0.471945
274 2 0.17498 0.12139 0.425264
275 4 0.169941 0.123423 0.44967
858 4 0.207166 0.160575 0.481998
605 4 0.2899 0.109586 0.429106
320 4 0.297354 0.125473 0.420804
319 2 0.31206 0.142121 0.432282
468 4 0.268041 0.0820838 0.497184
321 4 0.326766 0.158769 0.443759
261 4 0.0307894 0.192367 0.469003
471 4 0.0177479 0.179951 0.460009
259 2 0.0406468 0.21438 0.475591
260 4 0.0505043 0.236394 0.482178
348 4 0.0674204 0.237042 0.492087
546 4 0.0733119 0.170117 0.465407
247 2 0.0916766 0.234701 0.428133
248 4 0.0966313 0.216722 0.444787
545 4 0.108087 0.203711 0.452645
544 2 0.0906993 0.186914 0.459026
1220 4 0.21059 0.1638 0.500986
489 4 0.340207 0.23036 0.43007
410 4 0.336048 0.21306 0.435207
409 2 0.338756 0.190117 0.444771
411 4 0.341463 0.167175 0.454336
878 4 0.999597 0.255666 0.497338
346 2 0.0775213 0.258568 0.499818
2847 4 0.00982814 0.274753 0.438482
9 3 0.155544 0.289775 0.423691
326 4 0.142422 0.301547 0.478418
10 3 0.121947 0.2912 0.440629
325 2 0.124999 0.289067 0.491296
7 3 0.151831 0.305988 0.457396
6 1 0.141482 0.302383 0.437171
8 3 0.137207 0.322882 0.427173
375 4 0.16135 0.308938 0.479153
711 4 0.171086 0.300688 0.428262
373 2 0.177087 0.311168 0.498454
488 4 0.330315 0.279346 0.428244
651 4 0.329697 0.298436 0.437783
649 2 0.329413 0.299557 0.46276
335 4 0.360106 0.321736 0.422772
587 4 0.343303 0.331223 0.427705
487 2 0.335261 0.254853 0.429157
650 4 0.32913 0.300678 0.487737
812 4 0.339362 0.303238 0.505357
240 4 0.417787 0.288491 0.418415
504 4 0.243268 0.410593 0.433946
772 2 0.338411 0.409828 0.459625
773 4 0.328701 0.386817 0.458437
927 4 0.399943 0.388926 0.416339
752 4 0.39734 0.403259 0.428948
588 4 0.338726 0.369631 0.459401
586 2 0.341014 0.350427 0.443553
663 4 0.438307 0.40847 0.475451
548 4 0.0350585 0.474105 0.435674
383 4 0.0211025 0.481773 0.445746
1435 2 0.171637 0.47626 0.469432
1436 4 0.159218 0.456067 0.461483
1437 4 0.184056 0.496452 0.477382
635 4 0.255746 0.424779 0.435257
1557 4 0.177608 0.494549 0.496683
634 2 0.269155 0.44564 0.43207
636 4 0.282564 0.466502 0.428883
4 3 0.300239 0.47181 0.43587
1 1 0.300281 0.490789 0.42252
882 4 0.404323 0.450343 0.455159
880 2 0.398484 0.457291 0.478457
774 4 0.348122 0.432838 0.460813
661 2 0.451059 0.427427 0.485611
1075 2 0.0431853 0.00914509 0.514413
1076 4 0.0325216 0.0241739 0.497513
2428 2 0.098025 0.0153726 0.528164
2430 4 0.0936293 0.0314481 0.509524
1150 2 0.235587 0.0596692 0.520227
1152 4 0.248586 0.0418713 0.50842
1151 4 0.222587 0.0774671 0.532035
1646 4 0.243915 0.0220284 0.511213
1032 4 0.333417 0.0758296 0.570025
1030 2 0.330483 0.0856225 0.547207
1182 4 0.32673 0.0579071 0.563781
466 2 0.290628 0.0823923 0.507904
467 4 0.313214 0.0827008 0.518624
575 4 0.422405 0.0299515 0.516633
4466 4 0.426749 0.0100931 0.516941
3007 2 0.47903 0.0118126 0.548746
574 2 0.430772 0.0518834 0.525245
3008 4 0.476146 0.0302188 0.53207
576 4 0.439138 0.0738152 0.533858
810 4 0.450137 0.0196704 0.576446
3488 4 0.477096 0.0491927 0.525407
306 4 0.485641 0.063743 0.533926
808 2 0.437142 0.0404297 0.581481
909 4 0.228614 0.118417 0.581181
1031 4 0.327549 0.0954153 0.524389
304 2 0.485867 0.0880724 0.528163
305 4 0.486093 0.112402 0.522401
514 2 0.493514 0.153281 0.538355
515 4 0.483819 0.130943 0.53268
1270 2 0.0438292 0.241624 0.577156
1221 4 0.256472 0.176734 0.516093
1219 2 0.233531 0.170267 0.50854
1226 4 0.230366 0.187825 0.583466
1212 4 0.272837 0.188299 0.514613
1210 2 0.283842 0.181936 0.536144
1211 4 0.294847 0.175574 0.557675
265 2 0.378709 0.231061 0.552432
266 4 0.381003 0.206688 0.557522
888 4 0.386656 0.201897 0.574583
516 4 0.503208 0.175619 0.54403
905 4 0.478907 0.242546 0.568683
879 4 0.0197152 0.258813 0.543012
877 2 0.00965597 0.25724 0.520175
1272 4 0.0281153 0.2467 0.558381
347 4 0.0876223 0.280094 0.50755
327 4 0.107576 0.276586 0.504175
792 4 0.211468 0.314988 0.513106
1165 2 0.248639 0.313593 0.589743
374 4 0.192824 0.313397 0.517756
267 4 0.376416 0.255433 0.547342
811 2 0.362848 0.30998 0.510662
872 4 0.390484 0.261571 0.559023
813 4 0.386335 0.316721 0.515967
871 2 0.410264 0.272785 0.569425
873 4 0.430043 0.284 0.579826
904 2 0.464375 0.262703 0.571456
929 4 0.468015 0.319839 0.517065
906 4 0.449843 0.282861 0.574228
790 2 0.221217 0.335252 0.524038
791 4 0.230966 0.355516 0.53497
1191 4 0.216356 0.361655 0.546645
1166 4 0.249497 0.338557 0.588632
1189 2 0.21771 0.369492 0.570351
1237 2 0.40184 0.355016 0.542503
1239 4 0.398786 0.361304 0.566509
1238 4 0.404894 0.348729 0.518496
1173 4 0.321959 0.424093 0.56901
1029 4 0.399076 0.368426 0.586343
930 4 0.424125 0.34355 0.513574
928 2 0.44607 0.331694 0.51532
895 2 0.130958 0.446439 0.593694
896 4 0.126855 0.429086 0.576166
890 4 0.330644 0.476204 0.567109
891 4 0.373552 0.48866 0.544647
1911 4 0.390348 0.499414 0.544873
1909 2 0.391579 0.491885 0.521061
889 2 0.352098 0.482432 0.555878
1910 4 0.39281 0.484357 0.49725
881 4 0.392644 0.464239 0.501755
1741 2 0.489792 0.4569 0.527588
3439 2 0.496852 0.460379 0.583957
3441 4 0.501391 0.457635 0.559523
1743 4 0.476605 0.443313 0.511258
662 4 0.463811 0.446383 0.495771
851 4 0.0163052 0.0612292 0.661137
2319 4 0.0350776 0.0703493 0.606791
2317 2 0.0555601 0.0800195 0.61738
3476 4 0.0155742 0.0654012 0.601697
2318 4 0.0760426 0.0896897 0.627969
937 2 0.105503 0.0639123 0.651255
1891 2 0.127355 0.0135933 0.654199
939 4 0.122281 0.0486744 0.661813
1180 2 0.322907 0.0361739 0.575538
1181 4 0.319084 0.0144408 0.587296
809 4 0.424147 0.061189 0.586516
4225 2 0.411071 0.0642893 0.623544
4227 4 0.411478 0.0597968 0.648138
4226 4 0.410663 0.0687819 0.598951
90 3 0.447426 0.000766335 0.580892
44 3 0.424199 0.026219 0.649961
2283 4 0.441954 0.0155223 0.65366
938 4 0.0887248 0.0791501 0.640696
1227 4 0.225577 0.138055 0.584348
907 2 0.238569 0.111774 0.603135
908 4 0.248524 0.105132 0.625088
1284 4 0.254606 0.111311 0.644809
1282 2 0.276259 0.123788 0.645607
1283 4 0.297912 0.136266 0.646404
1004 4 0.287916 0.153892 0.647114
898 2 0.408663 0.154828 0.638491
899 4 0.418521 0.143744 0.65862
1271 4 0.0595431 0.236547 0.59593
1155 4 0.0380941 0.240005 0.658714
1154 4 0.0443465 0.238556 0.60912
1153 2 0.0412203 0.239281 0.633917
1225 2 0.227971 0.16294 0.583907
1276 2 0.212749 0.214106 0.616247
1278 4 0.225822 0.21955 0.595641
1277 4 0.199676 0.208662 0.636854
917 4 0.244298 0.227112 0.596315
796 2 0.176416 0.244964 0.645868
798 4 0.191928 0.225374 0.644976
1242 4 0.25503 0.210757 0.592896
1003 2 0.300744 0.170328 0.660916
1240 2 0.275792 0.202893 0.604398
1241 4 0.296553 0.19503 0.615901
887 4 0.410301 0.168685 0.603541
886 2 0.398479 0.185291 0.589062
900 4 0.398804 0.165912 0.618363
797 4 0.160904 0.264554 0.646759
694 2 0.121462 0.280625 0.645622
695 4 0.142215 0.268597 0.638562
696 4 0.10071 0.292654 0.652683
916 2 0.248396 0.251418 0.600513
1167 4 0.247781 0.288629 0.590854
918 4 0.252494 0.275723 0.604712
807 4 0.359124 0.334154 0.628042
805 2 0.361236 0.32895 0.652406
954 4 0.494671 0.303306 0.666972
1190 4 0.219064 0.377328 0.594056
804 4 0.205521 0.387484 0.604605
803 4 0.215562 0.392693 0.653316
802 2 0.210541 0.390088 0.628961
1136 4 0.216994 0.37881 0.669084
1172 4 0.298611 0.402117 0.607386
1161 4 0.292002 0.405712 0.626571
1171 2 0.310285 0.413105 0.588198
1028 4 0.363347 0.345375 0.612664
1027 2 0.381211 0.3569 0.599503
1269 4 0.416139 0.418848 0.655249
1267 2 0.43858 0.408769 0.650781
1268 4 0.461022 0.398689 0.646313
3022 2 0.498995 0.396072 0.656083
3023 4 0.477854 0.409015 0.652814
1243 2 0.996869 0.428766 0.637295
1245 4 0.0114829 0.448249 0.631638
2171 4 0.0190557 0.464357 0.633931
2170 2 0.00631695 0.485799 0.632154
1279 2 0.0751291 0.496523 0.611969
1280 4 0.0545027 0.491405 0.598796
897 4 0.135061 0.463791 0.611221
2015 4 0.120186 0.47674 0.610228
1281 4 0.0957555 0.501642 0.625142
2014 2 0.134706 0.495031 0.619161
2153 4 0.222472 0.497517 0.628556
2152 2 0.234915 0.47623 0.632708
2154 4 0.247357 0.454943 0.636859
1160 4 0.265391 0.446616 0.637499
1159 2 0.278697 0.426164 0.632035
1000 2 0.313015 0.486913 0.630234
1002 4 0.294883 0.481467 0.613902
1001 4 0.331148 0.492359 0.646566
1230 4 0.34643 0.480263 0.64907
3440 4 0.492313 0.463122 0.608392
2307 4 0.502211 0.477271 0.618044
943 2 0.0440383 0.00509405 0.701272
945 4 0.0535978 0.0255429 0.712026
863 4 0.053059 0.0419923 0.724044
862 2 0.0583811 0.0663521 0.722185
1892 4 0.130364 0.0318525 0.671014
1147 2 0.222809 0.0266542 0.730908
1148 4 0.200495 0.0188691 0.722743
1149 4 0.245122 0.0344394 0.739073
1092 4 0.268341 0.0116478 0.654991
2400 4 0.264448 0.0354013 0.729056
1090 2 0.267976 0.0308198 0.671037
1091 4 0.267612 0.0499917 0.687084
2398 2 0.276365 0.042644 0.74981
45 3 0.403927 0.0234112 0.681566
2321 4 0.40568 0.021007 0.70073
980 4 0.397388 0.0472667 0.724165
979 2 0.38709 0.0581994 0.744156
43 3 0.41332 0.0574945 0.668613
1163 4 0.449002 0.0214206 0.671206
41 1 0.420059 0.0354055 0.670863
42 3 0.43944 0.0347671 0.683238
1162 2 0.468446 0.0160967 0.685996
1164 4 0.48789 0.0107728 0.700787
864 4 0.0637031 0.0907119 0.720327
2286 4 0.0818467 0.0971151 0.728747
2284 2 0.0950343 0.117874 0.724239
2285 4 0.108222 0.138633 0.71973
34 3 0.110458 0.15833 0.722792
1050 4 0.265795 0.0689321 0.688924
1022 4 0.285812 0.0911123 0.746686
1048 2 0.273798 0.0821721 0.708567
1049 4 0.281801 0.0954121 0.728209
978 4 0.361939 0.166353 0.729803
1194 4 0.428497 0.131014 0.669576
1192 2 0.446344 0.11859 0.681917
1193 4 0.464191 0.106166 0.694259
3387 4 0.0276258 0.23603 0.675428
32 3 0.0788939 0.177128 0.714853
3385 2 0.00264754 0.235437 0.676383
33 3 0.111133 0.196091 0.718548
31 1 0.101575 0.176301 0.711107
35 3 0.105405 0.173726 0.688806
1005 4 0.313571 0.186764 0.674718
831 4 0.331804 0.179461 0.675406
829 2 0.338869 0.177825 0.699335
830 4 0.345933 0.176188 0.723264
976 2 0.374133 0.180556 0.746379
1259 4 0.0921861 0.308421 0.663621
1258 2 0.0984038 0.328315 0.677431
1214 4 0.160835 0.250064 0.742366
1215 4 0.20165 0.276692 0.73115
1213 2 0.181243 0.263378 0.736758
806 4 0.363348 0.323745 0.676771
1008 4 0.367461 0.322389 0.696048
953 4 0.477688 0.272958 0.702907
1297 2 0.48415 0.248658 0.723105
1298 4 0.476194 0.252752 0.699757
952 2 0.48618 0.288132 0.68494
820 2 0.0522218 0.400497 0.746289
1208 4 0.12056 0.35766 0.698293
1260 4 0.104621 0.34821 0.691242
1207 2 0.117187 0.382428 0.697735
1209 4 0.113815 0.407197 0.697176
1135 2 0.236111 0.372326 0.683837
1137 4 0.255229 0.365841 0.698591
948 4 0.213979 0.358239 0.732588
1067 4 0.266414 0.380322 0.707459
1066 2 0.277927 0.396117 0.723052
1068 4 0.28944 0.411913 0.738644
1176 4 0.307505 0.414356 0.747919
1007 4 0.371876 0.350656 0.737062
1006 2 0.369669 0.336522 0.716555
998 4 0.486204 0.340376 0.753243
821 4 0.0542422 0.417072 0.727678
992 4 0.0545038 0.425253 0.709764
993 4 0.102668 0.425042 0.696316
991 2 0.0785861 0.425148 0.70304
1122 4 0.240732 0.49289 0.734283
1174 2 0.307339 0.439292 0.749754
1235 4 0.30261 0.470638 0.733671
1234 2 0.281365 0.483654 0.73157
1236 4 0.26012 0.49667 0.729469
1175 4 0.307173 0.464227 0.751589
1100 4 0.392562 0.450285 0.750688
1228 2 0.344389 0.470924 0.672174
1139 4 0.341012 0.469588 0.71383
1138 2 0.350592 0.479199 0.734831
1229 4 0.342347 0.461585 0.695278
1099 2 0.414602 0.446274 0.739583
1101 4 0.436642 0.442263 0.728477
3183 4 0.449826 0.43825 0.714011
3181 2 0.470456 0.44749 0.724696
3182 4 0.491087 0.45673 0.735382
911 4 0.00512472 0.00789368 0.778791
1201 2 0.0202142 0.0221883 0.816956
1203 4 0.0431228 0.0313097 0.8211
1287 4 0.0604272 0.0380955 0.825352
2049 4 0.227304 0.0887728 0.813349
2047 2 0.223552 0.0665497 0.824176
2399 4 0.288282 0.0498866 0.770563
1112 4 0.362638 0.0807118 0.771265
1111 2 0.355002 0.0669551 0.790697