ITEM: TIMESTEP
5230000
ITEM: NUMBER OF ATOMS
4590
ITEM: BOX BOUNDS pp pp pp
-9.9985700000000008e+00 9.9985700000000008e+00
-9.9985700000000008e+00 9.9985700000000008e+00
-9.9985700000000008e+00 9.9985700000000008e+00
ITEM: ATOMS id type xs ys zs
700 2 0.0118311 0.0803946 0.00304562
701 4 0.99549 0.0758639 0.0214196
1633 2 0.139877 0.0074568 0.00965558
1635 4 0.150529 0.997646 0.0300386
1605 4 0.156631 0.00474574 0.0486483
1603 2 0.164289 0.992863 0.0692717
1634 4 0.129226 0.0172678 0.989273
566 4 0.254927 0.0557005 0.0653436
567 4 0.288291 0.0565108 0.0281032
565 2 0.271609 0.0561056 0.0467234
2263 2 0.291675 0.0230516 0.0055732
2265 4 0.298375 0.0455394 0.0142098
653 4 0.297437 0.0742929 0.0264088
987 4 0.367567 0.0149615 0.0709964
985 2 0.388924 0.0278678 0.0725608
986 4 0.410282 0.0407741 0.0741253
295 2 0.479747 0.00203865 0.0246803
296 4 0.486968 0.0259761 0.0245068
2745 4 0.49872 0.036472 0.035868
555 4 0.059179 0.156371 0.0160216
553 2 0.0751254 0.137641 0.0205003
554 4 0.0910719 0.11891 0.024979
836 4 0.110766 0.121238 0.022976
835 2 0.131651 0.107615 0.0248254
837 4 0.152536 0.0939921 0.0266748
1134 4 0.170036 0.0928055 0.035487
1132 2 0.194031 0.0969561 0.0298114
933 4 0.216662 0.112815 0.00902959
1133 4 0.218026 0.101107 0.0241358
652 2 0.308094 0.0969076 0.0259749
654 4 0.318751 0.119522 0.025541
491 4 0.317016 0.12944 0.043822
490 2 0.318823 0.154376 0.0441201
52 3 0.299891 0.155133 0.00184648
460 2 0.361434 0.109499 0.027278
462 4 0.36143 0.115743 0.0514894
2469 4 0.354272 0.128751 0.0664743
461 4 0.361439 0.103255 0.00306667
2625 4 0.0178296 0.241631 0.0275307
2623 2 0.0268667 0.237707 0.0505114
2624 4 0.0359037 0.233784 0.0734922
2523 4 0.00823052 0.226589 0.0177608
476 4 0.106068 0.226621 0.0176209
492 4 0.32063 0.179313 0.0444182
360 4 0.261273 0.212303 0.0335859
358 2 0.281939 0.199014 0.038222
359 4 0.302605 0.185725 0.0428581
354 4 0.267748 0.214536 0.0131798
322 2 0.381923 0.230244 0.0337931
324 4 0.405249 0.233106 0.0252566
254 4 0.352255 0.222228 0.0611974
323 4 0.358597 0.227382 0.0423296
253 2 0.354365 0.200817 0.0739379
519 4 0.423469 0.235215 0.0334808
518 4 0.453129 0.195364 0.027752
517 2 0.438299 0.215289 0.0306164
769 2 0.490137 0.187032 0.03311
770 4 0.46861 0.198696 0.0381801
292 2 0.0481232 0.31809 0.0183227
294 4 0.0288503 0.30318 0.0239284
620 4 0.014451 0.293785 0.0353016
1169 4 0.0806274 0.326017 4.44394e-05
293 4 0.067396 0.333 0.012717
482 4 0.172938 0.321686 0.0504491
481 2 0.166222 0.312431 0.0282136
483 4 0.159507 0.303175 0.00597803
456 4 0.162325 0.311922 0.0645545
672 4 0.335023 0.283493 0.0643603
573 4 0.322389 0.275318 0.0773852
607 2 0.392146 0.341262 0.0725791
495 4 0.489384 0.331249 0.0430188
655 2 0.997005 0.38765 0.0611021
2872 2 0.0424389 0.382142 0.0213541
2874 4 0.032109 0.370918 0.0411657
657 4 0.0149443 0.372862 0.0518991
1288 2 0.194454 0.369592 0.0140779
252 4 0.211576 0.384399 0.0470325
250 2 0.211527 0.406787 0.0581657
1289 4 0.194588 0.380044 0.0367917
355 2 0.344274 0.360922 0.00530766
357 4 0.333661 0.383486 0.00715234
608 4 0.406132 0.353177 0.0556207
356 4 0.354887 0.338358 0.00346298
525 4 0.406873 0.365286 0.00262175
524 4 0.420409 0.365635 0.0507608
523 2 0.413641 0.36546 0.0266913
552 4 0.0269953 0.448967 0.0367801
550 2 0.00553764 0.457852 0.0275179
1223 4 0.134912 0.491528 0.9829
2358 4 0.136056 0.500723 0.000858658
2356 2 0.160288 0.503917 0.00613181
251 4 0.211478 0.429175 0.0692988
243 4 0.234372 0.490558 0.0605417
793 2 0.236711 0.456886 0.0619453
795 4 0.229535 0.436493 0.0745083
794 4 0.243886 0.477279 0.0493824
955 2 0.328975 0.429031 0.0156419
956 4 0.329925 0.424176 0.991133
957 4 0.328025 0.433886 0.0401512
1421 4 0.00579546 0.0341305 0.0770293
17 3 0.0321172 0.0756729 0.148358
381 4 0.0339678 0.0616321 0.134341
379 2 0.0245993 0.0506497 0.113926
380 4 0.0152309 0.0396673 0.0935102
464 4 0.0647891 0.0863824 0.144518
1604 4 0.171947 0.98098 0.089895
463 2 0.0830322 0.0702589 0.138826
450 4 0.107029 0.037217 0.125928
448 2 0.103804 0.0131928 0.132061
465 4 0.101275 0.0541354 0.133134
1475 4 0.25839 0.0663729 0.0828648
1769 4 0.269237 0.0327835 0.136047
1474 2 0.267338 0.0584196 0.104816
1476 4 0.276286 0.0504662 0.126767
1768 2 0.268031 0.0184139 0.156473
2975 4 0.415566 0.0400621 0.0941118
2974 2 0.434473 0.0271319 0.104139
2976 4 0.453379 0.0142018 0.114165
16 1 0.0342389 0.0970582 0.156563
18 3 0.0567818 0.101872 0.159218
19 3 0.024702 0.111868 0.141459
2481 4 0.0105638 0.113456 0.125857
578 4 0.075627 0.105706 0.148933
577 2 0.0917936 0.121966 0.158905
579 4 0.10796 0.138226 0.168876
237 4 0.127965 0.133036 0.166106
2467 2 0.355312 0.146728 0.0838207
311 4 0.383655 0.120551 0.105701
310 2 0.375846 0.115834 0.128981
312 4 0.368038 0.111117 0.152261
2468 4 0.356352 0.164706 0.101167
362 4 0.0503026 0.252954 0.140525
277 2 0.131584 0.245032 0.148612
279 4 0.151187 0.230066 0.152724
754 2 0.301843 0.220356 0.137891
756 4 0.301384 0.245316 0.136493
572 4 0.306516 0.253388 0.119431
755 4 0.302301 0.195396 0.139289
23 3 0.367139 0.173342 0.155183
255 4 0.356475 0.179407 0.0866785
21 1 0.367994 0.187273 0.136647
24 3 0.359214 0.176377 0.118138
22 3 0.355412 0.20606 0.140878
25 3 0.389531 0.193436 0.132545
759 4 0.385756 0.212229 0.141618
309 4 0.367674 0.219028 0.14832
757 2 0.406738 0.225628 0.143947
527 4 0.49469 0.226562 0.140937
758 4 0.427719 0.239027 0.146276
528 4 0.444902 0.230442 0.143555
526 2 0.469796 0.228502 0.142246
2651 4 0.508502 0.239054 0.1338
647 4 0.0330371 0.26318 0.142991
361 2 0.0738618 0.260631 0.137178
646 2 0.0108816 0.25594 0.133942
363 4 0.097421 0.268308 0.133831
278 4 0.111981 0.259999 0.1445
535 2 0.113635 0.30858 0.139909
454 2 0.149386 0.304586 0.0846529
455 4 0.136448 0.297249 0.104751
536 4 0.1214 0.300602 0.117521
571 2 0.314452 0.264353 0.0984079
609 4 0.378159 0.329347 0.0895376
671 4 0.370068 0.31095 0.0871351
670 2 0.352545 0.297221 0.0757477
1095 4 0.482621 0.277046 0.0763273
622 2 0.488265 0.312159 0.161279
749 4 0.0409743 0.410744 0.169219
345 4 0.258488 0.350194 0.119202
343 2 0.26973 0.367214 0.104741
344 4 0.280973 0.384233 0.0902797
498 4 0.284934 0.398434 0.102584
496 2 0.301962 0.410864 0.116028
497 4 0.31899 0.423293 0.129472
1674 4 0.409855 0.392866 0.0920978
1672 2 0.410112 0.416963 0.0987653
541 2 0.490843 0.398368 0.122029
543 4 0.477188 0.419267 0.123426
750 4 0.0573821 0.439111 0.131446
603 4 0.077228 0.446924 0.132529
601 2 0.0822935 0.467355 0.119035
748 2 0.0491782 0.424927 0.150333
602 4 0.087359 0.487786 0.105541
263 4 0.0719083 0.500773 0.100761
1584 4 0.385253 0.477919 0.139043
1575 4 0.394348 0.462988 0.146994
1673 4 0.41037 0.441059 0.105433
13 3 0.461281 0.441757 0.157944
2757 4 0.00587884 0.000312169 0.218258
689 4 0.0591349 0.0327651 0.202035
688 2 0.0594617 0.00890979 0.194552
1464 4 0.0712384 0.0426592 0.214735
1462 2 0.0916213 0.0483649 0.228045
1463 4 0.112004 0.0540705 0.241355
732 4 0.115682 0.0728829 0.236065
1622 4 0.233605 0.0244821 0.233933
1504 2 0.216247 0.0630234 0.224242
1505 4 0.197226 0.068868 0.209102
1621 2 0.247602 0.0186283 0.214059
1623 4 0.261599 0.0127745 0.194184
1770 4 0.266825 0.00404426 0.176899
20 3 0.0235724 0.0984847 0.176634
234 4 0.00351132 0.0971846 0.175157
235 2 0.151924 0.137286 0.171858
236 4 0.175883 0.141537 0.177611
721 2 0.212916 0.150396 0.201492
723 4 0.234778 0.153668 0.213177
722 4 0.191054 0.147125 0.189807
693 4 0.244706 0.143854 0.227812
691 2 0.253139 0.124645 0.241416
764 4 0.375862 0.106702 0.170002
763 2 0.386505 0.125926 0.181933
765 4 0.397147 0.14515 0.193864
744 4 0.406571 0.135883 0.209257
742 2 0.430477 0.142747 0.211817
743 4 0.454383 0.149611 0.214378
333 4 0.466357 0.150213 0.23005
331 2 0.472293 0.135762 0.249571
512 4 0.114569 0.22628 0.234105
737 4 0.129467 0.217757 0.244326
511 2 0.107943 0.25019 0.231009
736 2 0.150775 0.218465 0.25739
307 2 0.354556 0.235745 0.161497
308 4 0.341438 0.252462 0.174674
760 2 0.495382 0.235112 0.199637
522 4 0.456251 0.250642 0.212058
520 2 0.449746 0.24923 0.236159
762 4 0.471785 0.243016 0.202064
300 4 0.0954518 0.290816 0.220362
513 4 0.101317 0.2741 0.227913
298 2 0.101086 0.294969 0.196358
299 4 0.10672 0.299122 0.172354
537 4 0.105871 0.316559 0.162297
612 4 0.333922 0.250994 0.192586
610 2 0.323145 0.269808 0.205037
611 4 0.312367 0.288623 0.217489
708 4 0.399899 0.257146 0.224386
707 4 0.350838 0.260089 0.23361
706 2 0.375369 0.258618 0.228998
741 4 0.415823 0.326174 0.189857
623 4 0.4752 0.305623 0.18157
740 4 0.457116 0.297971 0.189397
739 2 0.436469 0.312073 0.189627
365 4 0.0154158 0.361313 0.209945
364 2 0.0237016 0.378612 0.193906
366 4 0.0319874 0.395912 0.177867
2538 4 0.349561 0.410679 0.241342
387 4 0.410223 0.341833 0.200753
386 4 0.364956 0.358243 0.214257
385 2 0.38759 0.350038 0.207505
2537 4 0.368965 0.377272 0.20959
2536 2 0.359263 0.393975 0.225466
289 2 0.244846 0.453174 0.238259
290 4 0.265429 0.447842 0.225103
660 4 0.340822 0.495615 0.231274
1573 2 0.400766 0.463271 0.171158
639 4 0.353237 0.480788 0.226711
638 4 0.400244 0.470442 0.213144
637 2 0.37674 0.475615 0.219928
1574 4 0.407184 0.463553 0.195322
14 3 0.441788 0.464209 0.181615
12 3 0.458003 0.43276 0.194289
15 3 0.479264 0.461759 0.184291
11 1 0.460203 0.45025 0.17951
645 4 0.499101 0.465599 0.174899
3800 4 0.497784 0.445111 0.172845
316 2 0.0682828 0.0494027 0.315683
318 4 0.0758662 0.0256693 0.313587
317 4 0.0606994 0.0731362 0.31778
1469 4 0.0800171 0.024949 0.333499
399 4 0.0446335 0.0860441 0.316595
1407 4 0.173435 0.996736 0.325761
1405 2 0.174035 0.00999418 0.30457
1406 4 0.174634 0.0232526 0.28338
1700 4 0.234886 0.0175216 0.252273
1701 4 0.189733 0.0263365 0.271874
1699 2 0.21231 0.0219291 0.262073
1830 4 0.299121 0.0534131 0.264935
474 4 0.295487 0.06349 0.247876
1828 2 0.317777 0.037465 0.26971
472 2 0.284182 0.0824724 0.259583
376 2 0.294752 0.0857228 0.323743
378 4 0.274504 0.0799939 0.337249
1829 4 0.336433 0.0215169 0.274484
1496 4 0.356896 0.0230474 0.271539
397 2 0.0569798 0.107758 0.315475
398 4 0.069326 0.129472 0.314356
531 4 0.0638984 0.148926 0.315167
529 2 0.0613665 0.173749 0.313567
730 2 0.134423 0.0761886 0.252283
731 4 0.153164 0.0794944 0.2685
1506 4 0.235269 0.0571788 0.239382
580 2 0.255092 0.180216 0.304576
692 4 0.261571 0.105436 0.255021
473 4 0.272878 0.101455 0.27129
29 3 0.274961 0.116109 0.286559
28 3 0.309952 0.124061 0.299081
26 1 0.292395 0.131403 0.285806
683 4 0.322908 0.110457 0.307014
377 4 0.314999 0.0914516 0.310237
30 3 0.299478 0.13406 0.264325
27 3 0.284916 0.151606 0.293872
582 4 0.271269 0.161153 0.304885
682 2 0.34292 0.121935 0.316657
684 4 0.362932 0.133412 0.3263
350 4 0.522828 0.106373 0.302626
349 2 0.499881 0.113401 0.295607
351 4 0.476935 0.120428 0.288588
332 4 0.478229 0.121311 0.269093
530 4 0.0588346 0.198573 0.311968
738 4 0.172082 0.219172 0.270454
284 4 0.175949 0.199674 0.278805
283 2 0.197362 0.200779 0.291668
285 4 0.218774 0.201884 0.304532
581 4 0.238916 0.199279 0.304267
521 4 0.443241 0.247818 0.26026
388 2 0.0835202 0.298058 0.305416
390 4 0.0889846 0.31007 0.284179
372 4 0.108152 0.306877 0.286633
389 4 0.0780558 0.286046 0.326654
370 2 0.124792 0.323982 0.27917
768 4 0.337368 0.271818 0.241858
766 2 0.340369 0.293057 0.254707
767 4 0.34337 0.314296 0.267556
632 4 0.439729 0.264866 0.271457
631 2 0.442345 0.28542 0.285452
633 4 0.44496 0.305975 0.299447
419 4 0.456515 0.316163 0.311576
418 2 0.467857 0.31989 0.333545
678 4 0.0831893 0.379829 0.318664
676 2 0.094424 0.388176 0.297945
371 4 0.141433 0.341087 0.271707
677 4 0.105659 0.396524 0.277226
402 4 0.157064 0.350896 0.278995
735 4 0.120397 0.409592 0.28193
400 2 0.173793 0.361314 0.294382
401 4 0.190523 0.371732 0.309769
510 4 0.198029 0.387077 0.320762
301 2 0.324167 0.347605 0.272498
728 4 0.320389 0.375169 0.30171
727 2 0.30243 0.374726 0.319102
303 4 0.336004 0.330383 0.258769
729 4 0.284472 0.374283 0.336494
302 4 0.31233 0.364827 0.286226
447 4 0.352767 0.420605 0.259212
445 2 0.364531 0.416996 0.280978
446 4 0.376295 0.413387 0.302744
1758 4 0.0266331 0.446812 0.322669
1790 4 0.0126898 0.449181 0.308302
733 2 0.136018 0.427419 0.273971
734 4 0.151639 0.445247 0.266012
417 4 0.161048 0.458204 0.278
291 4 0.224263 0.458506 0.251415
416 4 0.206502 0.453217 0.257757
415 2 0.183775 0.45571 0.267878
230 4 0.314141 0.500296 0.295178
1801 2 0.297079 0.478742 0.310724
1803 4 0.293091 0.469748 0.333711
1802 4 0.301066 0.487735 0.287737
712 2 0.423844 0.490853 0.262806
120 3 0.377362 0.409937 0.323492
3990 4 0.414055 0.463945 0.290838
713 4 0.4277 0.47112 0.277669
3988 2 0.422687 0.442392 0.300117
3989 4 0.431319 0.420838 0.309397
2741 4 0.445265 0.422121 0.32386
2740 2 0.469908 0.426293 0.323141
1683 4 0.127229 0.9976 0.365179
1468 2 0.0992685 0.010593 0.340461
274 2 0.146219 0.0713623 0.330522
276 4 0.134448 0.0498937 0.335593
441 4 0.28717 0.00151392 0.339602
1818 4 0.271714 0.0497968 0.385786
440 4 0.279235 0.0358075 0.375122
439 2 0.283203 0.0186607 0.357362
1816 2 0.269399 0.0599298 0.408527
641 4 0.500586 0.0195857 0.382785
257 4 0.484365 0.0248843 0.373464
256 2 0.467934 0.0411791 0.382935
258 4 0.451504 0.057474 0.392406
426 4 0.436955 0.0715556 0.387495
368 4 0.157816 0.104115 0.341715
275 4 0.15799 0.0928309 0.325451
367 2 0.166335 0.120606 0.358468
369 4 0.174854 0.137098 0.37522
600 4 0.178042 0.158547 0.376356
725 4 0.361094 0.119959 0.340741
724 2 0.375151 0.116786 0.361174
726 4 0.389207 0.113613 0.381608
425 4 0.396672 0.0974022 0.373007
424 2 0.416813 0.0844789 0.380251
2655 4 0.0571531 0.205331 0.330845
2653 2 0.044576 0.226936 0.331308
2654 4 0.0319989 0.248541 0.331772
598 2 0.176624 0.183184 0.380381
599 4 0.175207 0.207821 0.384407
686 4 0.185261 0.225101 0.382307
685 2 0.19019 0.23379 0.405228
411 4 0.308894 0.179194 0.435154
583 2 0.41734 0.247054 0.391956
585 4 0.434971 0.239285 0.37602
2846 4 0.0199014 0.257523 0.343479
2845 2 0.00545652 0.257073 0.363883
1034 4 0.066249 0.315411 0.396029
2850 4 0.0569394 0.327984 0.406843
1033 2 0.0841731 0.297979 0.395847
249 4 0.116064 0.268016 0.391082
1035 4 0.102097 0.280547 0.395664
247 2 0.10845 0.251113 0.40786
406 2 0.246704 0.315423 0.40587
615 4 0.2771 0.29337 0.341037
614 4 0.290931 0.290268 0.388993
405 4 0.291976 0.292544 0.409045
613 2 0.284015 0.291819 0.365015
717 4 0.394801 0.271837 0.397656
584 4 0.399708 0.254823 0.407892
715 2 0.380287 0.287142 0.411084
420 4 0.4792 0.323616 0.355514
617 4 0.0712504 0.381739 0.336276
2692 2 0.992213 0.346447 0.372597
616 2 0.0490439 0.374862 0.345482
618 4 0.0268373 0.367984 0.354688
2693 4 0.0104041 0.358874 0.360772
539 4 0.0523418 0.381174 0.425796
538 2 0.0375718 0.400763 0.420966
443 4 0.102887 0.351621 0.410369
680 4 0.119058 0.348871 0.422031
508 2 0.210164 0.394907 0.341173
408 4 0.244302 0.337279 0.393963
503 4 0.238917 0.342628 0.375502
509 4 0.222299 0.402736 0.361584
635 4 0.2336 0.408859 0.376732
502 2 0.254205 0.358052 0.363111
504 4 0.269494 0.373476 0.35072
774 4 0.307247 0.403495 0.41658
119 3 0.398004 0.380494 0.334658
118 3 0.406672 0.41557 0.346446
751 2 0.39181 0.377401 0.39222
116 1 0.389399 0.401172 0.340724
753 4 0.378612 0.398577 0.390619
752 4 0.405007 0.356224 0.393822
117 3 0.375643 0.398443 0.358958
269 4 0.48085 0.343161 0.359069
268 2 0.50055 0.352011 0.371669
540 4 0.0228018 0.420351 0.416137
776 4 0.06378 0.486573 0.346599
1757 4 0.0469944 0.478957 0.355116
1756 2 0.0368137 0.462884 0.338892
775 2 0.087864 0.491155 0.351513
2813 4 0.0153732 0.435847 0.426333
414 4 0.172294 0.460382 0.412317
569 4 0.156322 0.455808 0.42344
413 4 0.193124 0.505382 0.405854
412 2 0.182709 0.482882 0.409085
634 2 0.251752 0.425282 0.381828
593 4 0.309985 0.459874 0.33889
636 4 0.269904 0.441705 0.386923
592 2 0.297816 0.44751 0.356897
2 3 0.323523 0.428824 0.402815
5 3 0.290526 0.444649 0.395487
1 1 0.303226 0.434969 0.411726
594 4 0.285648 0.435145 0.374903
668 4 0.325987 0.409218 0.408592
669 4 0.363946 0.401044 0.37708
667 2 0.344966 0.405131 0.392836
2742 4 0.49455 0.430466 0.322421
427 2 0.0616771 0.0755604 0.433254
429 4 0.039531 0.0656396 0.43928
719 4 0.0434234 0.049561 0.449586
718 2 0.0527694 0.0429094 0.471803
606 4 0.268425 0.0780568 0.449993
1817 4 0.267085 0.0700627 0.431268
3489 4 0.398238 0.0141421 0.46018
576 4 0.436937 0.0663663 0.481193
428 4 0.0838233 0.0854812 0.427229
468 4 0.234475 0.114309 0.48202
466 2 0.230093 0.13781 0.489348
604 2 0.251855 0.0958533 0.455815
605 4 0.235285 0.11365 0.461637
467 4 0.22571 0.16131 0.496676
319 2 0.288982 0.141395 0.423272
320 4 0.277179 0.121764 0.413246
469 2 0.0133476 0.210054 0.449217
471 4 0.0147015 0.219123 0.472478
261 4 0.0322791 0.220835 0.483963
259 2 0.0490153 0.232101 0.498733
546 4 0.0955738 0.218216 0.479702
544 2 0.10629 0.22372 0.457792
545 4 0.117005 0.229225 0.435881
248 4 0.100836 0.234211 0.424638
687 4 0.195119 0.242478 0.42815
10 3 0.18132 0.256321 0.433984
488 4 0.208169 0.240349 0.444783
487 2 0.229971 0.22814 0.443919
7 3 0.161817 0.235475 0.458025
6 1 0.179602 0.249887 0.455763
321 4 0.300784 0.161026 0.433297
489 4 0.251774 0.21593 0.443054
410 4 0.269848 0.210437 0.435163
409 2 0.289371 0.194815 0.435159
1009 2 0.43911 0.243683 0.481991
2848 2 0.0437267 0.319542 0.426319
4434 4 0.0179708 0.32751 0.449086
2849 4 0.030514 0.311099 0.445796
325 2 0.132708 0.265218 0.483979
326 4 0.156145 0.263865 0.475372
327 4 0.109272 0.266571 0.492586
9 3 0.198989 0.238969 0.462346
8 3 0.175991 0.268431 0.469235
375 4 0.166079 0.283158 0.48246
373 2 0.18728 0.295318 0.487734
407 4 0.249105 0.293568 0.417777
374 4 0.208481 0.307479 0.493009
403 2 0.311678 0.291241 0.424386
710 4 0.247407 0.293812 0.439395
709 2 0.262759 0.274429 0.44311
711 4 0.278111 0.255046 0.446824
404 4 0.331379 0.289937 0.439726
650 4 0.351623 0.324111 0.486471
649 2 0.356059 0.311717 0.465214
651 4 0.360494 0.299323 0.443956
716 4 0.365774 0.302447 0.424511
238 2 0.448881 0.295817 0.459793
240 4 0.455938 0.271842 0.45904
1011 4 0.45769 0.257306 0.472277
239 4 0.441824 0.319792 0.460546
926 4 0.428826 0.326667 0.446691
444 4 0.0551701 0.366557 0.411205
442 2 0.0790287 0.359089 0.410787
4432 2 0.00680908 0.342759 0.465459
679 2 0.136097 0.367015 0.42441
681 4 0.153136 0.385159 0.426789
570 4 0.156628 0.406104 0.428933
560 4 0.193399 0.339788 0.459037
559 2 0.217267 0.336563 0.465752
561 4 0.241135 0.333338 0.472467
335 4 0.297338 0.346624 0.449028
334 2 0.275041 0.347253 0.460325
336 4 0.252744 0.347881 0.471622
773 4 0.309433 0.362698 0.445417
772 2 0.30834 0.383097 0.430998
927 4 0.41812 0.356869 0.4083
812 4 0.360422 0.341462 0.486718
925 2 0.423473 0.341768 0.427496
587 4 0.442123 0.369249 0.433362
586 2 0.449597 0.390185 0.421916
568 2 0.156475 0.430956 0.426187
1401 4 0.326511 0.488764 0.483255
1400 4 0.308283 0.463399 0.444203
4 3 0.306865 0.450056 0.428976
434 4 0.290048 0.474889 0.447136
433 2 0.273549 0.486372 0.432268
3 3 0.292571 0.416036 0.419876
1399 2 0.317397 0.476082 0.463729
588 4 0.457071 0.411121 0.41047
880 2 0.46648 0.468942 0.498785
881 4 0.480252 0.473791 0.478487
663 4 0.488562 0.463361 0.464078
2430 4 0.0758856 0.0210278 0.573598
340 2 0.0679264 0.0384524 0.532519
341 4 0.0723954 0.0293041 0.555356
342 4 0.0634575 0.0476008 0.509683
2428 2 0.0551645 0.00758252 0.577475
720 4 0.0621153 0.0362577 0.49402
857 4 0.131103 0.0575047 0.525742
1151 4 0.139558 0.0480006 0.508568
1645 2 0.205784 0.0302509 0.543845
1646 4 0.197098 0.0261826 0.520754
1152 4 0.187582 0.0344071 0.50547
1647 4 0.214471 0.0343192 0.566936
1150 2 0.16357 0.0412039 0.507019
1182 4 0.292036 0.0468906 0.567017
1032 4 0.280306 0.061828 0.560347
1180 2 0.290799 0.0242241 0.577499
1181 4 0.289562 0.00155754 0.587981
575 4 0.420246 0.046885 0.524119
4466 4 0.407847 0.0380558 0.535851
4465 2 0.414933 0.0206828 0.552378
574 2 0.428591 0.0566256 0.502656
1062 4 0.479773 0.0105082 0.558631
856 2 0.1364 0.0802715 0.534618
1219 2 0.159369 0.132272 0.550184
1220 4 0.15856 0.107687 0.554666
858 4 0.141697 0.103038 0.543494
1221 4 0.160177 0.156857 0.545703
1212 4 0.173363 0.172471 0.545819
1227 4 0.258104 0.172413 0.564628
1030 2 0.275639 0.0847924 0.551627
1031 4 0.270972 0.107757 0.542908
1225 2 0.266071 0.149826 0.557451
1226 4 0.274037 0.127238 0.550274
514 2 0.489177 0.156388 0.525724
305 4 0.477317 0.123864 0.538108
304 2 0.477545 0.117546 0.562299
515 4 0.492758 0.136147 0.539961
879 4 0.0240703 0.2539 0.534867
348 4 0.0653438 0.256601 0.528056
260 4 0.0657514 0.243368 0.513503
1211 4 0.159255 0.187004 0.500097
1210 2 0.166309 0.179738 0.522958
1242 4 0.179865 0.250174 0.552252
1240 2 0.179738 0.242052 0.575899
909 4 0.23898 0.17573 0.563528
266 4 0.411474 0.246004 0.585827
516 4 0.485596 0.176629 0.511488
265 2 0.431253 0.243474 0.570742
1024 2 0.487756 0.212687 0.507189
1026 4 0.473489 0.19217 0.507997
267 4 0.451033 0.240944 0.555657
1025 4 0.502023 0.233205 0.506381
872 4 0.458749 0.247819 0.538911
1010 4 0.420529 0.230061 0.491705
1272 4 0.0152589 0.262777 0.550419
877 2 0.00240661 0.257128 0.522807
1270 2 0.0264008 0.258075 0.572303
346 2 0.088796 0.261289 0.520763
347 4 0.112248 0.265976 0.513469
792 4 0.218452 0.319477 0.507451
790 2 0.2353 0.327647 0.524021
791 4 0.252148 0.335817 0.540591
871 2 0.482434 0.255829 0.538686
873 4 0.506119 0.263838 0.538462
1179 4 0.00217499 0.379507 0.543966
3263 4 0.0107594 0.363024 0.552051
1177 2 0.00693284 0.403691 0.548174
896 4 0.115815 0.37761 0.560352
1191 4 0.258475 0.32883 0.557639
1189 2 0.27593 0.342472 0.569232
1190 4 0.293385 0.356114 0.580825
811 2 0.361677 0.35353 0.50858
813 4 0.362933 0.365598 0.530443
1238 4 0.379579 0.36412 0.542169
1237 2 0.383885 0.359766 0.566412
1178 4 0.0116907 0.427874 0.552382
1436 4 0.114582 0.487487 0.562436
1435 2 0.107728 0.501117 0.542627
1437 4 0.100875 0.514747 0.522817
1171 2 0.289523 0.418762 0.571041
1172 4 0.269594 0.404107 0.57468
890 4 0.329441 0.438106 0.562286
1173 4 0.309452 0.433416 0.567402
889 2 0.339586 0.455362 0.57727
1909 2 0.449905 0.470726 0.556083
1911 4 0.453685 0.463272 0.579648
1910 4 0.446124 0.47818 0.532517
882 4 0.452709 0.464093 0.519083
1268 4 0.450721 0.453918 0.596281
939 4 0.141658 0.00690026 0.623248
1892 4 0.151198 0.00606274 0.640425
937 2 0.160428 0.99984 0.608314
950 4 0.1977 0.0339691 0.578205
949 2 0.206619 0.0359079 0.601483
1092 4 0.220253 0.0549802 0.633072
951 4 0.215539 0.0378467 0.624761
1090 2 0.236029 0.0645145 0.649965
938 4 0.179199 0.99278 0.59338
1091 4 0.251806 0.0740488 0.666858
809 4 0.443371 0.0740434 0.639787
808 2 0.443965 0.0545078 0.624193
810 4 0.444559 0.0349723 0.608598
90 3 0.460819 0.022972 0.606587
4226 4 0.441101 0.089041 0.655018
33 3 0.0323377 0.0926219 0.634463
34 3 0.0606991 0.0922423 0.659759
32 3 0.0560655 0.121673 0.636846
31 1 0.0450354 0.105533 0.64897
35 3 0.03151 0.115591 0.664286
4225 2 0.416933 0.0947188 0.652045
1193 4 0.374448 0.0947867 0.641793
4227 4 0.392764 0.100397 0.649073
899 4 0.347892 0.139446 0.596272
1194 4 0.359085 0.126806 0.606588
1192 2 0.366766 0.110796 0.62419
306 4 0.477773 0.111229 0.586491
1155 4 0.0130822 0.242002 0.651016
1153 2 0.0188088 0.241227 0.626689
907 2 0.239824 0.188921 0.584753
1241 4 0.179611 0.23393 0.599546
1278 4 0.19025 0.222205 0.612337
1277 4 0.167291 0.204792 0.653208
1276 2 0.17877 0.213498 0.632772
798 4 0.159377 0.189665 0.662261
908 4 0.240668 0.202111 0.605977
1283 4 0.293878 0.198668 0.636255
1282 2 0.272295 0.207122 0.626879
1284 4 0.250712 0.215575 0.617503
1004 4 0.293638 0.193872 0.655296
888 4 0.4034 0.241493 0.604005
886 2 0.393637 0.218698 0.60721
898 2 0.357953 0.161002 0.603972
900 4 0.368015 0.182558 0.611672
887 4 0.383874 0.195904 0.610415
1154 4 0.0245354 0.240453 0.602363
1271 4 0.0375428 0.253373 0.594188
1165 2 0.152132 0.324933 0.607287
1167 4 0.1698 0.316698 0.622947
918 4 0.185834 0.304937 0.616045
916 2 0.203833 0.311758 0.632004
917 4 0.221832 0.318578 0.647963
1136 4 0.232987 0.329486 0.659294
803 4 0.239722 0.28363 0.658302
802 2 0.263777 0.28873 0.653771
806 4 0.303313 0.282926 0.656494
804 4 0.287832 0.293829 0.64924
805 2 0.325284 0.29044 0.647221
807 4 0.347255 0.297954 0.637947
1028 4 0.357452 0.312237 0.628735
1027 2 0.373505 0.326839 0.616315
2015 4 0.0726212 0.412245 0.662526
1166 4 0.134465 0.333168 0.591628
993 4 0.0666993 0.39469 0.668849
897 4 0.133747 0.352196 0.599509
895 2 0.124781 0.364903 0.57993
991 2 0.0889801 0.383464 0.667198
1160 4 0.24131 0.414772 0.635749
1159 2 0.254032 0.410298 0.614694
1161 4 0.266754 0.405823 0.593639
1239 4 0.388191 0.355412 0.590654
1029 4 0.389558 0.341441 0.603895
3023 4 0.489003 0.334756 0.655532
1139 4 0.467544 0.335761 0.65499
1138 2 0.45828 0.351779 0.671806
1280 4 0.0306407 0.482258 0.601844
2172 4 0.0105629 0.486974 0.603208
1279 2 0.0528562 0.493097 0.598078
2014 2 0.0652262 0.436125 0.662999
1041 4 0.0885862 0.517691 0.59721
2154 4 0.237645 0.431921 0.646148
2152 2 0.224006 0.452863 0.646929
2153 4 0.210368 0.473805 0.64771
2352 4 0.215656 0.490868 0.638819
1001 4 0.363156 0.479287 0.604117
891 4 0.34973 0.472618 0.592253
1269 4 0.413372 0.421475 0.603577
1267 2 0.432047 0.437696 0.599929
1331 4 0.487848 0.435879 0.608383
862 2 0.0680369 0.0371903 0.712915
863 4 0.0628262 0.0293722 0.736086
864 4 0.0732475 0.0450085 0.689744
2284 2 0.0868167 0.0698148 0.672758
2286 4 0.0925751 0.0469256 0.681011
1891 2 0.137538 0.0191405 0.656783
1893 4 0.123879 0.0322182 0.67314
2399 4 0.135721 0.038924 0.68975
2398 2 0.15507 0.0430453 0.705041
2400 4 0.174419 0.0471667 0.720332
1149 4 0.184569 0.0498091 0.736972
1147 2 0.206377 0.0512854 0.749114
43 3 0.317571 0.0303498 0.666693
45 3 0.297472 0.043984 0.695465
2321 4 0.325375 0.0181679 0.725825
41 1 0.318075 0.0435476 0.685771
1050 4 0.25054 0.0694322 0.686794
1048 2 0.267852 0.0816421 0.700075
44 3 0.333702 0.0352094 0.70076
2320 2 0.3033 0.0130839 0.736409
42 3 0.324121 0.0649398 0.679857
980 4 0.341436 0.0243675 0.715255
979 2 0.365904 0.0213865 0.719449
981 4 0.390373 0.0184055 0.723644
1112 4 0.40256 0.0288711 0.734672
1111 2 0.420396 0.0418514 0.746443
1113 4 0.438232 0.0548318 0.758214
2285 4 0.0810582 0.092704 0.664506
852 4 0.014682 0.125299 0.677415
945 4 0.0682484 0.13287 0.719808
943 2 0.0517549 0.131503 0.701065
944 4 0.0352615 0.130137 0.682323
1023 4 0.262739 0.150888 0.73561
1256 4 0.246181 0.157977 0.745209
1022 4 0.28304 0.112899 0.710204
1049 4 0.285164 0.0938521 0.713356
1021 2 0.27289 0.131893 0.722907
3387 4 0.995751 0.249656 0.657782
833 4 0.0417158 0.187468 0.724435
3245 4 0.0289583 0.190618 0.739602
832 2 0.0530553 0.209275 0.729019
834 4 0.0643948 0.231083 0.733604
796 2 0.150861 0.204912 0.680155
797 4 0.142345 0.220158 0.698049
695 4 0.128899 0.21483 0.709965
694 2 0.114791 0.235469 0.709532
1003 2 0.304816 0.191727 0.677559
1005 4 0.315993 0.189582 0.699822
831 4 0.317438 0.176871 0.715543
829 2 0.330694 0.191056 0.731298
978 4 0.343042 0.224044 0.751524
830 4 0.343951 0.205241 0.747053
1298 4 0.476219 0.237248 0.737384
1258 2 0.111916 0.296884 0.724898
1259 4 0.106 0.27351 0.718277
696 4 0.100684 0.256109 0.7091
1260 4 0.117833 0.320258 0.731519
953 4 0.461776 0.243848 0.724357
954 4 0.4639 0.267975 0.680606
952 2 0.462838 0.255911 0.702482
1208 4 0.119498 0.32321 0.711446
992 4 0.111261 0.372238 0.665547
1209 4 0.120946 0.361624 0.679462
1207 2 0.120222 0.342417 0.695454
947 4 0.177168 0.36781 0.726838
1135 2 0.233415 0.347546 0.676582
1137 4 0.233843 0.365605 0.693869
948 4 0.221666 0.355996 0.707316
946 2 0.199417 0.361903 0.717077
1068 4 0.255026 0.387877 0.740344
1230 4 0.278881 0.408657 0.665345
1006 2 0.312775 0.35864 0.694697
1007 4 0.289774 0.349719 0.698764
1067 4 0.274163 0.351758 0.711535
1066 2 0.264594 0.369817 0.72594
1176 4 0.263568 0.405506 0.744095
1008 4 0.335776 0.367562 0.69063
1018 2 0.406074 0.368709 0.719758
1019 4 0.388584 0.374822 0.736548
1101 4 0.380338 0.39102 0.742173
1020 4 0.423564 0.362597 0.702968
1140 4 0.449015 0.367797 0.688622
1206 4 0.449714 0.383521 0.675059
1204 2 0.442583 0.404757 0.686167
3182 4 0.485607 0.421882 0.748975
3432 4 0.0574742 0.479044 0.672547
2016 4 0.0578312 0.460005 0.663472
3430 2 0.0608182 0.501017 0.684
1228 2 0.299445 0.422742 0.663365
1229 4 0.320009 0.436827 0.661385
1174 2 0.256162 0.429028 0.739965
1099 2 0.386983 0.414719 0.746577
1251 4 0.505145 0.417359 0.754644
1205 4 0.435452 0.425992 0.697275
911 4 0.0550463 0.000633963 0.795245
912 4 0.0609407 0.0138957 0.74739
910 2 0.0579935 0.00726484 0.771318
1196 4 0.138994 0.0308844 0.801644
1195 2 0.124583 0.0169734 0.816611
1895 4 0.158487 0.0277779 0.804745
1197 4 0.110173 0.00306241 0.831577
1148 4 0.228184 0.0527618 0.761257
1894 2 0.180203 0.0396684 0.808241
2048 4 0.221234 0.0532875 0.812698
1896 4 0.201919 0.0515588 0.811737
2047 2 0.23956 0.0656032 0.824432
3038 4 0.00791851 0.15242 0.780277
3246 4 0.00416366 0.172836 0.779222
1255 2 0.244997 0.168599 0.767813
3269 4 0.362136 0.0862329 0.854788
3244 2 0.016561 0.181727 0.759412
920 4 0.0685507 0.230245 0.752603
919 2 0.0893297 0.242494 0.759189
1129 2 0.255809 0.219342 0.797858
1131 4 0.25269 0.196736 0.787641
1130 4 0.258928 0.241949 0.808075
1257 4 0.243814 0.179221 0.790418
976 2 0.359797 0.240409 0.760278
1146 4 0.390989 0.247676 0.780904
1144 2 0.39741 0.23637 0.80226
977 4 0.376552 0.256774 0.769033
1145 4 0.403832 0.225063 0.823617
3226 2 0.00244899 0.332851 0.833677
1105 2 0.0431838 0.294347 0.804534
1107 4 0.0440265 0.318735 0.799085
1106 4 0.0423411 0.269959 0.809983
1214 4 0.0403682 0.327108 0.782101
921 4 0.110109 0.254743 0.765776
1074 4 0.106545 0.263868 0.783443
815 4 0.111462 0.325508 0.81184
1073 4 0.117088 0.306223 0.807849
1072 2 0.111816 0.285045 0.795646
1266 4 0.176517 0.286497 0.819049
1264 2 0.188398 0.264942 0.823456
800 4 0.252369 0.301477 0.812733
941 4 0.237918 0.316061 0.812102
801 4 0.257363 0.255807 0.792984
799 2 0.254866 0.278642 0.802858
1297 2 0.488355 0.247496 0.756694
1215 4 0.0641863 0.362992 0.756689
1213 2 0.0522772 0.34505 0.769395
821 4 0.0802315 0.374966 0.758358
820 2 0.0876713 0.390296 0.776656
822 4 0.095111 0.405626 0.794954
1065 4 0.112396 0.394337 0.795319
1063 2 0.127852 0.400387 0.814019
1064 4 0.143309 0.406437 0.832719
940 2 0.232613 0.33904 0.803795
868 2 0.216839 0.390075 0.816596
942 4 0.227309 0.362019 0.795487