ITEM: TIMESTEP
5840000
ITEM: NUMBER OF ATOMS
4590
ITEM: BOX BOUNDS pp pp pp
-9.9985700000000008e+00 9.9985700000000008e+00
-9.9985700000000008e+00 9.9985700000000008e+00
-9.9985700000000008e+00 9.9985700000000008e+00
ITEM: ATOMS id type xs ys zs
3751 2 0.0614803 0.0751165 0.00395285
701 4 0.0213734 0.0757498 0.0713689
3753 4 0.0498792 0.0832075 0.0245715
1633 2 0.120998 0.0197335 0.0704571
421 2 0.122744 0.00932072 0.00236978
1634 4 0.126932 0.0168118 0.0463443
422 4 0.126721 0.00985864 0.0270492
1133 4 0.220454 0.0665281 0.00682849
1132 2 0.198861 0.0757343 0.0154417
1134 4 0.177269 0.0849406 0.024055
567 4 0.315535 0.0624 0.0382282
565 2 0.309995 0.0578263 0.0621777
2263 2 0.261863 0.0148257 0.0113611
2265 4 0.257838 0.0394632 0.00995914
653 4 0.309681 0.0806374 0.0336979
985 2 0.370985 0.00549947 0.0190455
986 4 0.393835 0.0147669 0.0149067
2975 4 0.400632 0.0302908 0.0255409
2974 2 0.417003 0.04031 0.041565
2976 4 0.433375 0.0503291 0.0575891
700 2 0.0341485 0.0875908 0.0534311
702 4 0.0469236 0.0994318 0.0354933
2798 4 0.00866241 0.15488 0.0744875
835 2 0.151336 0.111557 0.010067
837 4 0.164789 0.090562 0.00822507
553 2 0.102337 0.145345 0.00485784
554 4 0.122372 0.142933 0.0196216
836 4 0.137882 0.132552 0.0119088
652 2 0.304202 0.101832 0.021617
491 4 0.28502 0.139418 0.00143568
490 2 0.279044 0.157162 0.0180075
654 4 0.298722 0.123026 0.00953598
462 4 0.364246 0.0842777 0.0687302
460 2 0.36357 0.104262 0.053719
1086 4 0.373134 0.117033 0.0231289
461 4 0.362894 0.124247 0.0387078
2522 4 0.0081805 0.241494 0.0277415
339 4 0.0268989 0.23521 0.0244025
337 2 0.0423489 0.229771 0.005511
492 4 0.273069 0.174906 0.0345793
360 4 0.262163 0.24193 0.0445315
358 2 0.26539 0.218082 0.0377453
359 4 0.268617 0.194234 0.0309592
323 4 0.333054 0.20409 0.0722765
322 2 0.355544 0.203929 0.0613525
324 4 0.378035 0.203768 0.0504284
519 4 0.397828 0.201714 0.049421
517 2 0.415425 0.209343 0.0333795
769 2 0.458331 0.169207 0.0085292
518 4 0.433022 0.216972 0.017338
770 4 0.449783 0.180418 0.0291788
2623 2 0.0445793 0.28119 0.0794923
294 4 0.0497995 0.282285 0.0218465
292 2 0.0718387 0.292999 0.0168813
2624 4 0.0214038 0.290229 0.0769698
620 4 0.0321931 0.286991 0.0299569
619 2 0.00858094 0.281602 0.0237438
293 4 0.093878 0.303714 0.0119161
1169 4 0.103848 0.312667 0.0272709
456 4 0.16327 0.301897 0.0778123
482 4 0.172648 0.309806 0.0611509
353 4 0.245154 0.290279 0.0686904
483 4 0.186906 0.294949 0.0155804
481 2 0.179777 0.302377 0.0383656
287 4 0.200983 0.287558 0.00344787
354 4 0.249699 0.254358 0.034198
352 2 0.247427 0.272318 0.0514442
1303 2 0.404521 0.320931 0.00586283
625 2 0.135384 0.381441 0.0069857
626 4 0.11075 0.377784 0.00921748
1168 2 0.102617 0.336554 0.0199878
1170 4 0.101385 0.360442 0.0127046
627 4 0.160018 0.385098 0.00475393
345 4 0.221232 0.377309 0.0630734
343 2 0.24472 0.379385 0.0547537
1288 2 0.195955 0.385852 0.0304368
1289 4 0.216465 0.386765 0.044709
1290 4 0.175445 0.38494 0.0161645
252 4 0.224282 0.406017 0.0501638
498 4 0.286521 0.386814 0.0564714
344 4 0.268207 0.381461 0.0464339
496 2 0.301292 0.406985 0.0567655
355 2 0.37422 0.34839 0.0464998
356 4 0.373829 0.336304 0.024615
357 4 0.374611 0.360477 0.0683846
1304 4 0.393427 0.330776 0.0259921
1674 4 0.401781 0.384032 0.0765744
1672 2 0.407058 0.403073 0.0612521
608 4 0.388527 0.368915 0.0817886
543 4 0.486865 0.381882 0.0538653
541 2 0.495425 0.390522 0.0757114
552 4 0.0144916 0.499645 0.0242444
1955 4 0.0298935 0.490444 0.0159241
2795 4 0.0191304 0.496686 0.0694365
250 2 0.222919 0.43095 0.0514596
251 4 0.221557 0.455882 0.0527553
793 2 0.238625 0.48745 0.0584533
795 4 0.229986 0.469596 0.0432286
497 4 0.316064 0.427156 0.0570596
957 4 0.314465 0.437185 0.0396871
955 2 0.303727 0.444182 0.0182183
1673 4 0.412335 0.422114 0.0459297
380 4 0.0176328 0.0120229 0.116902
17 3 0.0374543 0.0678864 0.119644
381 4 0.0408373 0.0546037 0.10469
379 2 0.0292351 0.0333133 0.110796
20 3 0.0318947 0.0818904 0.153789
449 4 0.0634033 0.0108396 0.144015
1403 4 0.0537961 0.00780119 0.161303
18 3 0.0669812 0.0763198 0.141316
464 4 0.0887937 0.0773737 0.120492
1635 4 0.115063 0.0226552 0.09457
463 2 0.0937207 0.0550698 0.110321
465 4 0.0986477 0.0327659 0.10015
448 2 0.0856462 0.00512282 0.134128
450 4 0.107889 0.999406 0.124241
566 4 0.304456 0.0532526 0.0861271
1475 4 0.287593 0.0581975 0.0937366
1474 2 0.281241 0.036093 0.103546
1476 4 0.27489 0.0139885 0.113356
311 4 0.371758 0.0758356 0.0850327
310 2 0.383938 0.0544107 0.0892524
312 4 0.396118 0.0329858 0.093472
630 4 0.47116 0.0285832 0.154383
2723 4 0.482786 0.0184748 0.140844
2722 2 0.490972 0.038427 0.128192
2724 4 0.499158 0.0583792 0.11554
628 2 0.458456 0.00839925 0.161891
578 4 0.0825941 0.0873944 0.137831
16 1 0.0454105 0.0825607 0.135471
19 3 0.0455135 0.103954 0.126487
2481 4 0.0438159 0.124392 0.12685
2479 2 0.0305082 0.134056 0.108017
2480 4 0.0172006 0.14372 0.0891836
577 2 0.0967555 0.102732 0.151593
579 4 0.110917 0.11807 0.165355
2469 4 0.336837 0.127409 0.164398
2467 2 0.341069 0.151898 0.161648
646 2 0.00666748 0.237122 0.165131
362 4 0.0453369 0.228061 0.164972
361 2 0.0672765 0.239153 0.160411
647 4 0.0309883 0.24207 0.1621
363 4 0.0892161 0.250245 0.15585
278 4 0.103565 0.23664 0.157523
756 4 0.322346 0.235254 0.163156
572 4 0.324552 0.236367 0.142529
254 4 0.337543 0.198533 0.0906952
255 4 0.348333 0.186102 0.137915
2468 4 0.3453 0.176387 0.158897
253 2 0.342938 0.192317 0.114305
24 3 0.344851 0.198198 0.157513
25 3 0.379796 0.203026 0.144354
759 4 0.386964 0.223648 0.149946
21 1 0.366681 0.203879 0.162952
309 4 0.379599 0.239366 0.160649
757 2 0.409319 0.234198 0.146189
2651 4 0.497486 0.240947 0.12401
527 4 0.488625 0.228565 0.137709
526 2 0.466896 0.235972 0.147616
758 4 0.431674 0.244749 0.142432
528 4 0.445167 0.243379 0.157523
2625 4 0.0677548 0.27215 0.0820148
454 2 0.148615 0.302658 0.0980562
535 2 0.104196 0.297829 0.140432
455 4 0.133959 0.303419 0.1183
536 4 0.117226 0.29523 0.119251
537 4 0.091165 0.300427 0.161612
671 4 0.387363 0.326253 0.120702
571 2 0.338318 0.254351 0.131934
573 4 0.352083 0.272336 0.12134
672 4 0.350799 0.292224 0.123108
670 2 0.369081 0.309238 0.121905
609 4 0.40496 0.331449 0.110545
597 4 0.488242 0.303886 0.106506
595 2 0.49425 0.324933 0.118593
749 4 0.0242567 0.412481 0.144285
366 4 0.0130201 0.396936 0.1352
364 2 0.0027559 0.38972 0.156828
607 2 0.396744 0.350182 0.0961668
622 2 0.462233 0.364971 0.142916
624 4 0.484789 0.360591 0.133055
109 3 0.491334 0.380211 0.134706
623 4 0.439678 0.369351 0.152777
748 2 0.0473341 0.421586 0.147401
750 4 0.0704116 0.430691 0.150516
603 4 0.08554 0.434112 0.138159
2794 2 0.0240623 0.491531 0.0934009
3599 4 0.0232226 0.487539 0.137747
2796 4 0.0289941 0.486377 0.117365
3598 2 0.0395899 0.499303 0.152542
601 2 0.0993407 0.454407 0.133381
602 4 0.113141 0.474702 0.128604
263 4 0.113331 0.49144 0.139027
1584 4 0.399333 0.466326 0.135252
1575 4 0.399654 0.464469 0.155527
1582 2 0.398068 0.480686 0.114823
1583 4 0.396803 0.495047 0.0943934
234 4 0.0210979 0.0771407 0.170986
232 2 0.00180395 0.0662754 0.182599
689 4 0.0618452 0.0497968 0.198451
688 2 0.0537232 0.0340663 0.216108
690 4 0.0456013 0.0183357 0.233765
1464 4 0.0806843 0.0497786 0.205094
1462 2 0.0987294 0.0665345 0.209429
732 4 0.133898 0.0756883 0.221175
730 2 0.158692 0.0788149 0.221984
692 4 0.249497 0.0652405 0.19503
731 4 0.183486 0.0819415 0.222793
1506 4 0.274743 0.00536756 0.20747
472 2 0.261107 0.0660777 0.235329
473 4 0.253388 0.0732429 0.212653
1622 4 0.293432 0.00248278 0.199267
1607 4 0.359192 0.00793505 0.238265
237 4 0.130229 0.116096 0.166839
1463 4 0.116774 0.0832904 0.213764
235 2 0.149521 0.119693 0.182331
236 4 0.168814 0.123291 0.197824
722 4 0.184529 0.137109 0.201238
721 2 0.205638 0.129082 0.190508
723 4 0.226748 0.121055 0.179778
693 4 0.228148 0.103091 0.170286
691 2 0.238823 0.0841655 0.182658
764 4 0.329796 0.110501 0.172256
763 2 0.348974 0.102365 0.186083
765 4 0.368152 0.0942294 0.199909
744 4 0.377511 0.102281 0.216308
742 2 0.395813 0.114711 0.227958
743 4 0.414115 0.127141 0.239607
333 4 0.433826 0.126106 0.24133
279 4 0.137967 0.208305 0.180201
511 2 0.117276 0.236136 0.24568
277 2 0.120766 0.222472 0.168862
737 4 0.150752 0.213766 0.247346
754 2 0.321331 0.229505 0.187469
755 4 0.320315 0.223757 0.211782
23 3 0.374863 0.189346 0.179084
22 3 0.36691 0.22527 0.17141
761 4 0.497172 0.222369 0.180119
760 2 0.484817 0.216177 0.200957
762 4 0.472463 0.209985 0.221794
522 4 0.465782 0.225785 0.230682
520 2 0.454792 0.247709 0.235554
299 4 0.0894457 0.29424 0.180595
300 4 0.0974178 0.264259 0.219816
513 4 0.101183 0.253426 0.23748
298 2 0.0934317 0.27925 0.200205
611 4 0.304463 0.276433 0.220801
610 2 0.328922 0.277866 0.215814
307 2 0.371107 0.255284 0.17796
612 4 0.353382 0.279299 0.210828
308 4 0.362615 0.271203 0.19527
706 2 0.390428 0.329127 0.21965
707 4 0.370992 0.332112 0.235093
708 4 0.409864 0.326141 0.204206
521 4 0.443803 0.269633 0.240426
741 4 0.430141 0.3304 0.205706
677 4 0.0994846 0.415019 0.242612
2537 4 0.377033 0.348152 0.246153
15 3 0.448014 0.415903 0.166531
739 2 0.43515 0.348803 0.189538
385 2 0.435003 0.393226 0.233231
740 4 0.440159 0.367207 0.173369
387 4 0.443255 0.394825 0.209683
14 3 0.451949 0.412209 0.203794
417 4 0.158986 0.465372 0.246207
1431 4 0.274969 0.486037 0.21027
659 4 0.265644 0.47827 0.226241
658 2 0.288497 0.470545 0.232817
660 4 0.31135 0.462819 0.239392
639 4 0.326118 0.450638 0.233563
1573 2 0.386104 0.460316 0.176126
638 4 0.372003 0.446081 0.214212
637 2 0.349061 0.44836 0.223887
1574 4 0.372553 0.456164 0.196725
3800 4 0.494037 0.424931 0.180323
12 3 0.439267 0.444364 0.189033
645 4 0.492549 0.447097 0.185991
644 4 0.479862 0.494457 0.195831
643 2 0.486205 0.470777 0.190911
11 1 0.453654 0.426715 0.185764
13 3 0.475315 0.434887 0.184193
1578 4 0.478265 0.496942 0.176741
316 2 0.0649256 0.0530114 0.297912
317 4 0.0482661 0.0710719 0.29328
1772 4 0.0545316 0.0127657 0.250637
1469 4 0.093687 0.0200456 0.299335
318 4 0.0815852 0.0349509 0.302544
1468 2 0.0970192 0.00595965 0.319723
1701 4 0.187158 0.999714 0.269444
1828 2 0.30316 0.045533 0.281035
1829 4 0.323356 0.0327149 0.288315
1830 4 0.282964 0.058351 0.273755
474 4 0.268827 0.0589126 0.258006
1496 4 0.343006 0.0293917 0.285786
1495 2 0.344478 0.0129731 0.266986
399 4 0.0386784 0.0855216 0.301666
397 2 0.0406301 0.109411 0.294549
398 4 0.0425817 0.133301 0.287433
531 4 0.0232082 0.135948 0.283499
529 2 0.0221972 0.156135 0.268779
580 2 0.255053 0.148567 0.323228
331 2 0.436365 0.119988 0.26544
351 4 0.447244 0.108966 0.307391
332 4 0.438905 0.11387 0.28955
349 2 0.463917 0.107567 0.325972
530 4 0.0211862 0.176321 0.25406
512 4 0.133369 0.218846 0.25388
736 2 0.167075 0.210967 0.266079
285 4 0.237702 0.172805 0.313614
738 4 0.183398 0.208168 0.284812
284 4 0.199766 0.199956 0.295603
283 2 0.218734 0.18638 0.304608
581 4 0.255748 0.167216 0.306587
389 4 0.0253127 0.285591 0.322673
388 2 0.0491566 0.286554 0.315209
390 4 0.0730006 0.287517 0.307744
372 4 0.0879784 0.299409 0.313977
370 2 0.104354 0.314371 0.302439
371 4 0.12073 0.329334 0.290901
402 4 0.125287 0.332067 0.271731
302 4 0.299997 0.322192 0.310532
301 2 0.32265 0.319208 0.300378
728 4 0.29681 0.331542 0.3272
768 4 0.378559 0.279401 0.260738
303 4 0.345304 0.316224 0.290225
767 4 0.351673 0.320094 0.271784
766 2 0.365116 0.299747 0.266261
632 4 0.430002 0.277824 0.252264
631 2 0.42866 0.297237 0.267965
633 4 0.427318 0.316651 0.283665
419 4 0.44082 0.313707 0.299996
418 2 0.461833 0.326297 0.305007
616 2 0.0756165 0.365631 0.314007
617 4 0.0843372 0.369574 0.290908
400 2 0.141231 0.348627 0.281567
401 4 0.157175 0.365187 0.291402
678 4 0.0894137 0.375959 0.272169
676 2 0.0944491 0.395489 0.25739
510 4 0.176457 0.365224 0.287097
508 2 0.194554 0.3813 0.293362
509 4 0.212651 0.397375 0.299627
635 4 0.216419 0.396215 0.320581
2536 2 0.375855 0.371033 0.256166
446 4 0.362753 0.404028 0.322819
2538 4 0.374677 0.393914 0.266179
447 4 0.364293 0.409534 0.27314
445 2 0.363523 0.406781 0.29798
420 4 0.482846 0.338887 0.310018
386 4 0.426751 0.391628 0.256779
269 4 0.489197 0.339444 0.329448
1790 4 0.00205754 0.421182 0.31215
1791 4 0.0107309 0.418506 0.262974
1758 4 0.0115905 0.422507 0.330742
1789 2 0.00639422 0.419844 0.287562
734 4 0.141556 0.461721 0.253824
733 2 0.128771 0.440272 0.252531
735 4 0.115986 0.418823 0.251238
415 2 0.178393 0.472553 0.260241
416 4 0.1978 0.479735 0.274276
291 4 0.213804 0.475284 0.286169
289 2 0.236959 0.484522 0.284251
634 2 0.225452 0.419446 0.322555
636 4 0.234485 0.442677 0.324529
594 4 0.250859 0.455024 0.323943
1803 4 0.319984 0.452968 0.313713
593 4 0.300715 0.452136 0.321338
1801 2 0.329801 0.47593 0.314951
290 4 0.260115 0.49376 0.282333
592 2 0.275787 0.45358 0.32264
1802 4 0.339619 0.498893 0.316188
712 2 0.407347 0.482554 0.278578
713 4 0.416946 0.460113 0.284005
3990 4 0.411704 0.440247 0.290228
3989 4 0.458928 0.424664 0.284959
3988 2 0.435316 0.432456 0.287593
2741 4 0.470015 0.420561 0.301491
2740 2 0.491255 0.433458 0.304271
276 4 0.126038 0.0709578 0.354512
1818 4 0.246641 0.0422485 0.37267
440 4 0.255461 0.030188 0.360724
378 4 0.310804 0.0506664 0.342089
1816 2 0.25388 0.0598028 0.388937
439 2 0.268272 0.0124281 0.348655
376 2 0.29846 0.0710765 0.349588
1817 4 0.261119 0.077357 0.405204
425 4 0.39958 0.0786069 0.399436
424 2 0.41826 0.0679479 0.386683
426 4 0.436939 0.057289 0.37393
257 4 0.480894 0.0287298 0.391499
641 4 0.484724 0.0102672 0.383071
256 2 0.464825 0.0393853 0.375581
258 4 0.448755 0.0500408 0.359662
428 4 0.0782737 0.145544 0.398524
427 2 0.0731579 0.124149 0.41041
274 2 0.136282 0.0930173 0.348714
275 4 0.146526 0.115077 0.342916
368 4 0.142641 0.134282 0.340197
367 2 0.137911 0.148715 0.360059
30 3 0.231798 0.10289 0.348019
29 3 0.244399 0.103055 0.3835
26 1 0.249722 0.107379 0.361333
582 4 0.254358 0.129917 0.339868
606 4 0.255563 0.0963722 0.399129
27 3 0.255348 0.129585 0.359232
377 4 0.286116 0.0914866 0.357088
683 4 0.297824 0.106719 0.359314
28 3 0.267838 0.0944061 0.354861
682 2 0.306569 0.115715 0.380942
684 4 0.315314 0.124711 0.40257
726 4 0.406447 0.0960966 0.40988
350 4 0.48059 0.106168 0.344552
453 4 0.487631 0.110262 0.362306
2493 4 0.00206527 0.1638 0.40233
2655 4 0.0130227 0.223724 0.354118
2653 2 0.0323434 0.238405 0.348088
546 4 0.0697117 0.20579 0.414421
369 4 0.13318 0.163148 0.379921
600 4 0.128343 0.179085 0.409534
545 4 0.109504 0.177521 0.403551
544 2 0.0896077 0.191656 0.408986
2616 4 0.0082494 0.331152 0.342393
2654 4 0.0516642 0.253086 0.342059
248 4 0.0510258 0.269801 0.352219
2846 4 0.0290008 0.260125 0.393193
2845 2 0.0114364 0.268029 0.409137
1035 4 0.0715186 0.284824 0.409857
247 2 0.0653725 0.27477 0.372085
249 4 0.0797192 0.279739 0.391951
406 2 0.193168 0.332381 0.408779
405 4 0.267743 0.268042 0.408114
615 4 0.289765 0.29817 0.36164
614 4 0.257608 0.276226 0.393027
613 2 0.273686 0.287198 0.377334
717 4 0.386962 0.328249 0.386419
715 2 0.371046 0.33023 0.405601
585 4 0.432184 0.312568 0.347261
583 2 0.416859 0.325439 0.36225
618 4 0.0668958 0.361687 0.337106
2694 4 0.0104912 0.347685 0.353826
2693 4 0.0536829 0.371988 0.347151
2692 2 0.032087 0.359836 0.350488
2813 4 0.014366 0.412199 0.395035
540 4 0.0157859 0.392483 0.397435
538 2 0.0295664 0.380086 0.414215
408 4 0.193577 0.354719 0.397554
503 4 0.210052 0.364246 0.399377
502 2 0.22702 0.379533 0.389201
504 4 0.243989 0.394821 0.379026
727 2 0.291603 0.354397 0.335903
729 4 0.286397 0.377252 0.344605
668 4 0.328 0.405405 0.409272
774 4 0.309232 0.396428 0.419636
5 3 0.28139 0.419049 0.411032
584 4 0.401534 0.33831 0.377238
120 3 0.371352 0.390853 0.336056
667 2 0.349426 0.405871 0.396393
119 3 0.397244 0.38986 0.363375
751 2 0.398556 0.38329 0.399104
753 4 0.388912 0.396348 0.380086
669 4 0.370852 0.406337 0.383513
116 1 0.382873 0.403393 0.351178
117 3 0.368018 0.413385 0.365621
268 2 0.500265 0.334669 0.351355
3715 2 0.0164881 0.496477 0.348382
1756 2 0.0204383 0.440208 0.346024
1757 4 0.0292861 0.457909 0.361307
3717 4 0.0296148 0.47699 0.356934
2812 2 0.00217631 0.427696 0.410412
776 4 0.0854214 0.453159 0.367834
775 2 0.0960253 0.474493 0.360246
777 4 0.106629 0.495827 0.352657
414 4 0.17525 0.485089 0.404404
569 4 0.175418 0.470397 0.418214
412 2 0.196816 0.491503 0.415309
1 1 0.30009 0.431153 0.41577
4 3 0.308001 0.441371 0.396498
435 4 0.296891 0.496681 0.369757
433 2 0.299013 0.478135 0.386392
434 4 0.301134 0.45959 0.403028
118 3 0.394938 0.419906 0.340216
718 2 0.0666309 0.0675935 0.446911
720 4 0.0694433 0.0490802 0.46348
342 4 0.0603153 0.0562242 0.479261
340 2 0.0592947 0.0365599 0.49467
576 4 0.35823 0.0623853 0.481351
3487 2 0.470747 0.038546 0.476565
3488 4 0.480518 0.0285589 0.4973
3489 4 0.460976 0.0485331 0.455829
429 4 0.0680421 0.102754 0.422295
470 4 0.00550821 0.160614 0.42274
719 4 0.0638186 0.0861068 0.430343
1220 4 0.137559 0.0965411 0.497921
468 4 0.256915 0.0992515 0.480852
604 2 0.25496 0.108735 0.420854
605 4 0.254358 0.121097 0.442579
319 2 0.26506 0.158984 0.446548
320 4 0.249662 0.139384 0.44853
724 2 0.409203 0.117804 0.42198
725 4 0.411959 0.139511 0.434079
471 4 0.0187377 0.200387 0.450013
469 2 0.012123 0.1805 0.436376
261 4 0.0790362 0.211686 0.430851
259 2 0.0762424 0.228979 0.448692
260 4 0.0734486 0.246273 0.466533
598 2 0.149392 0.183381 0.422326
599 4 0.170442 0.187678 0.435119
686 4 0.176108 0.179493 0.45336
685 2 0.180738 0.198798 0.468561
687 4 0.185368 0.218102 0.483763
488 4 0.200456 0.227955 0.491645
487 2 0.224611 0.232546 0.487105
10 3 0.169496 0.220072 0.495535
489 4 0.248767 0.237136 0.482565
321 4 0.280458 0.178584 0.444566
411 4 0.288998 0.197947 0.4497
410 4 0.264997 0.225863 0.483544
409 2 0.276998 0.211905 0.466622
1009 2 0.436177 0.242788 0.498117
1033 2 0.0727554 0.305904 0.423246
2850 4 0.0278034 0.301926 0.440404
348 4 0.0660031 0.290923 0.448713
1034 4 0.0739921 0.326984 0.436636
2848 2 0.0190142 0.31436 0.460236
346 2 0.073522 0.285998 0.472045
2849 4 0.0102249 0.326795 0.480068
347 4 0.0810409 0.281073 0.495378
403 2 0.245709 0.260259 0.417009
404 4 0.223675 0.252476 0.425904
407 4 0.192759 0.310043 0.420005
710 4 0.177224 0.29827 0.427588
711 4 0.205677 0.257281 0.430909
709 2 0.19145 0.277776 0.429249
559 2 0.220032 0.335579 0.478461
812 4 0.31757 0.305655 0.486752
650 4 0.320417 0.318593 0.472409
649 2 0.330014 0.318777 0.449321
651 4 0.33961 0.31896 0.426233
1011 4 0.419731 0.254774 0.483589
239 4 0.435145 0.294326 0.428879
238 2 0.427694 0.282014 0.449326
240 4 0.420242 0.269701 0.469772
926 4 0.438398 0.316005 0.427018
444 4 0.0585539 0.355035 0.42693
539 4 0.0433469 0.367689 0.430996
442 2 0.0817086 0.359481 0.435253
443 4 0.104863 0.363927 0.443576
680 4 0.110177 0.383799 0.441761
679 2 0.116495 0.407209 0.43566
561 4 0.224372 0.336023 0.453841
336 4 0.243789 0.341294 0.461404
773 4 0.292288 0.349446 0.417118
772 2 0.30076 0.372937 0.418377
334 2 0.265247 0.344182 0.448899
335 4 0.286705 0.347069 0.436394
716 4 0.355131 0.332211 0.424784
752 4 0.4082 0.370232 0.418121
927 4 0.421576 0.362861 0.431733
925 2 0.429987 0.339433 0.429376
568 2 0.158072 0.454234 0.426156
570 4 0.140725 0.438072 0.434098
681 4 0.122813 0.43062 0.429559
413 4 0.218383 0.497916 0.426215
436 2 0.244294 0.480176 0.453401
438 4 0.236098 0.493543 0.433924
1400 4 0.298768 0.464532 0.422307
3 3 0.295281 0.447189 0.431836
2 3 0.316353 0.417085 0.423941
1399 2 0.300138 0.481779 0.440359
437 4 0.252491 0.466809 0.472877
1910 4 0.440837 0.470342 0.493908
663 4 0.482668 0.452689 0.44085
880 2 0.458564 0.466099 0.463387
882 4 0.453808 0.481419 0.482566
881 4 0.46332 0.450778 0.444208
341 4 0.0582741 0.0168955 0.510079
2428 2 0.0519253 0.00237534 0.543732
2430 4 0.0674977 0.0115171 0.526437
3476 4 0.0284044 0.0634789 0.551682
2319 4 0.0144395 0.0591429 0.539533
857 4 0.130695 0.0531741 0.54478
1151 4 0.133061 0.0347549 0.536931
856 2 0.127289 0.0719143 0.528582
1150 2 0.14221 0.0114924 0.536358
1182 4 0.261786 0.0480326 0.540668
1032 4 0.261034 0.0677826 0.545575
1180 2 0.270087 0.0257652 0.548442
1181 4 0.278388 0.00349784 0.556216
4465 2 0.393712 0.00761127 0.526083
4466 4 0.373087 0.0188427 0.517502
575 4 0.369312 0.0382808 0.52374
574 2 0.363771 0.0503331 0.502545
3009 4 0.473268 0.0181574 0.553278
88 3 0.477104 0.00973913 0.570682
3007 2 0.475692 0.0311246 0.532038
3008 4 0.478116 0.0440919 0.510798
86 1 0.455239 0.00652143 0.577754
3475 2 0.0345298 0.0856139 0.541798
3477 4 0.0406552 0.107749 0.531913
851 4 0.0195146 0.136954 0.574489
2586 4 0.0128062 0.133414 0.556173
858 4 0.123882 0.0906544 0.512383
1219 2 0.135811 0.121272 0.501166
1221 4 0.134063 0.146002 0.504411
1212 4 0.130042 0.150672 0.523535
1210 2 0.117984 0.164485 0.540535
467 4 0.242097 0.114994 0.525944
1226 4 0.252465 0.132828 0.530115
1225 2 0.258487 0.156404 0.535865
1031 4 0.272684 0.111873 0.566094
1030 2 0.266859 0.0898279 0.555835
466 2 0.249506 0.107123 0.503398
514 2 0.471752 0.142 0.546584
305 4 0.447367 0.106629 0.543289
515 4 0.457936 0.121693 0.551266
304 2 0.441902 0.103648 0.567505
516 4 0.485567 0.162307 0.541902
1211 4 0.105925 0.178298 0.557534
7 3 0.17432 0.230123 0.531152
6 1 0.176372 0.236891 0.509263
9 3 0.198616 0.241967 0.505035
1242 4 0.194469 0.246023 0.569772
1227 4 0.264509 0.179981 0.541615
909 4 0.256765 0.194562 0.553061
907 2 0.269825 0.211665 0.565794
908 4 0.282884 0.228767 0.578528
266 4 0.387564 0.246627 0.565528
888 4 0.373919 0.235555 0.576441
1024 2 0.478707 0.196125 0.523803
1025 4 0.464585 0.215828 0.517672
1026 4 0.492828 0.176423 0.529934
1010 4 0.452622 0.230802 0.512644
1270 2 0.00545638 0.29073 0.554268
1271 4 0.0124632 0.281937 0.576601
8 3 0.163189 0.255698 0.505959
325 2 0.123698 0.274535 0.50587
327 4 0.0987472 0.276131 0.50558
326 4 0.148649 0.272939 0.50616
1190 4 0.210582 0.254174 0.576175
1189 2 0.214919 0.272663 0.559911
1191 4 0.219256 0.291153 0.543648
790 2 0.22897 0.328282 0.534747
791 4 0.222185 0.308233 0.521436
373 2 0.184282 0.295633 0.506992
374 4 0.198099 0.315634 0.501142
375 4 0.170464 0.275632 0.512843
560 4 0.215693 0.335136 0.503081
811 2 0.321276 0.323768 0.503586
265 2 0.406382 0.262783 0.562361
267 4 0.425201 0.278939 0.559194
906 4 0.50191 0.272568 0.574742
872 4 0.440059 0.289358 0.566125
871 2 0.464125 0.283086 0.563543
873 4 0.488191 0.276813 0.560961
1166 4 0.145518 0.369606 0.569752
897 4 0.138182 0.388885 0.57373
895 2 0.127861 0.408175 0.585836
1165 2 0.168508 0.360368 0.573111
1167 4 0.191499 0.351131 0.576469
792 4 0.235756 0.348331 0.548057
1238 4 0.321723 0.360863 0.516618
813 4 0.324982 0.34188 0.52042
1237 2 0.328664 0.372643 0.537552
1239 4 0.335604 0.384423 0.558486
1029 4 0.340335 0.38345 0.578398
890 4 0.291382 0.435362 0.578718
889 2 0.305424 0.455794 0.581959
1173 4 0.282843 0.416661 0.575037
1911 4 0.422112 0.486797 0.537259
1909 2 0.431474 0.478569 0.515583
1268 4 0.428494 0.500272 0.549922
2284 2 0.0842073 0.0774448 0.666646
45 3 0.298452 0.0279056 0.651354
4225 2 0.371408 0.0690924 0.641652
4226 4 0.383665 0.0549529 0.625068
809 4 0.402426 0.0467515 0.628955
808 2 0.416122 0.0405795 0.608968
4227 4 0.359152 0.0832319 0.658237
90 3 0.44744 0.0254417 0.587746
810 4 0.429818 0.0344074 0.58898
31 1 0.0751845 0.115358 0.624852
35 3 0.0582744 0.119958 0.610307
852 4 0.0468267 0.136201 0.616372
850 2 0.0331707 0.136578 0.59543
944 4 0.0349626 0.148949 0.62646
943 2 0.03242 0.15496 0.650596
34 3 0.0668541 0.104172 0.643396
2285 4 0.0794693 0.0882531 0.644603
33 3 0.0913316 0.102399 0.614376
32 3 0.0848072 0.135076 0.631763
1193 4 0.352252 0.102746 0.659339
1192 2 0.359102 0.126643 0.662028
1194 4 0.365952 0.150539 0.664717
306 4 0.436437 0.100666 0.591721
3114 4 0.500149 0.146173 0.636776
3385 2 0.013977 0.24525 0.662288
1155 4 0.0128135 0.243901 0.62017
798 4 0.143107 0.190041 0.656071
1277 4 0.163089 0.187509 0.652356
1241 4 0.163535 0.242369 0.608893
1278 4 0.167367 0.224754 0.619262
1276 2 0.165228 0.206132 0.635809
1240 2 0.179002 0.244196 0.589333
1284 4 0.287454 0.247625 0.585782
1283 4 0.303377 0.239994 0.632569
1282 2 0.295415 0.24381 0.609176
1004 4 0.31488 0.233884 0.647044
1003 2 0.300775 0.222419 0.664213
899 4 0.375666 0.165284 0.653267
898 2 0.369915 0.185887 0.640322
886 2 0.376903 0.219397 0.595288
900 4 0.364163 0.206491 0.627376
887 4 0.379886 0.20324 0.614136
3387 4 0.0134246 0.254259 0.63897
1153 2 0.0208201 0.261494 0.60431
1154 4 0.0288267 0.279088 0.58845
804 4 0.291417 0.301193 0.640312
806 4 0.297079 0.307443 0.620966
805 2 0.312611 0.326049 0.627111
802 2 0.27276 0.292155 0.65429
3023 4 0.469502 0.311827 0.648002
1139 4 0.45695 0.325989 0.652404
3022 2 0.489309 0.313142 0.632799
992 4 0.143911 0.384947 0.658961
991 2 0.123374 0.399191 0.658259
993 4 0.102837 0.413436 0.657557
918 4 0.19972 0.340193 0.591962
1136 4 0.20931 0.357096 0.656514
916 2 0.203028 0.344341 0.616397
917 4 0.206337 0.348488 0.640831
1135 2 0.20092 0.380388 0.660014
1161 4 0.246798 0.405165 0.630042
1137 4 0.192529 0.40368 0.663514
807 4 0.328143 0.344655 0.633256
1172 4 0.248492 0.41328 0.611221
1171 2 0.265668 0.41497 0.593129
1028 4 0.337823 0.359551 0.622252
1027 2 0.339079 0.3715 0.600325
1281 4 0.0792714 0.493498 0.637051
1279 2 0.0568852 0.497615 0.647399
896 4 0.117539 0.427465 0.597941
1041 4 0.0968274 0.498253 0.646681
2352 4 0.223234 0.494058 0.665223
891 4 0.319467 0.476227 0.5852
1159 2 0.249999 0.41631 0.652194
1001 4 0.337783 0.47209 0.593499
1000 2 0.350866 0.489642 0.605579
1455 4 0.464038 0.482568 0.616386
2168 4 0.446599 0.482679 0.625758
2167 2 0.435974 0.481422 0.648357
862 2 0.0641938 0.0568243 0.716128
863 4 0.0463449 0.0419609 0.725384
912 4 0.0547692 0.0246132 0.729082
864 4 0.0820427 0.0716877 0.706872
910 2 0.0569336 0.00513781 0.744612
2286 4 0.0889453 0.0666366 0.68869
2398 2 0.161879 0.0318398 0.711279
2399 4 0.142113 0.0198393 0.701767
1893 4 0.146023 0.00504329 0.688345
2400 4 0.181645 0.0438404 0.720791
1149 4 0.17718 0.0619277 0.728167
1147 2 0.184745 0.0786853 0.745112
1090 2 0.223686 0.0133323 0.677782
1091 4 0.237014 0.0329067 0.685806
42 3 0.286956 0.010797 0.682467
1050 4 0.252854 0.0461281 0.675258
1048 2 0.252326 0.0649014 0.691764
43 3 0.274185 0.0452049 0.674365
41 1 0.292537 0.0310606 0.673119
44 3 0.310338 0.0401213 0.684927
980 4 0.301504 0.0492195 0.698728
979 2 0.321555 0.0604688 0.708556
1049 4 0.251798 0.0836748 0.708271
981 4 0.341607 0.071718 0.718383
1111 2 0.379315 0.0695731 0.7194
1112 4 0.357232 0.0588096 0.714744
1113 4 0.401397 0.0803366 0.724057
3400 2 0.469186 0.00416904 0.742662
3130 2 0.00935467 0.135951 0.717726
3131 4 0.0201449 0.130473 0.739606
3392 4 0.0108432 0.115069 0.747756
945 4 0.0298774 0.160972 0.674733
1023 4 0.258333 0.132438 0.743367
1022 4 0.269148 0.0921401 0.715802
1021 2 0.26374 0.112289 0.729584
1256 4 0.266137 0.151414 0.743507
3386 4 0.0145294 0.236241 0.685606
2991 4 0.022221 0.169909 0.690319
2990 4 0.0236916 0.219894 0.690435
2989 2 0.0229563 0.194902 0.690377
833 4 0.0303653 0.24846 0.717273
796 2 0.133377 0.195905 0.678345
797 4 0.123646 0.201769 0.700618
695 4 0.131158 0.220403 0.706477
694 2 0.135203 0.24329 0.715696
1005 4 0.28667 0.210953 0.681382
1131 4 0.282763 0.228557 0.689682
1129 2 0.26938 0.233224 0.710281
1130 4 0.255998 0.237892 0.730879
953 4 0.48806 0.23459 0.704108
1298 4 0.474723 0.245294 0.715122
832 2 0.051478 0.25544 0.728706
1107 4 0.0765911 0.313584 0.73379
1214 4 0.0844902 0.308294 0.715835
3245 4 0.0157125 0.254516 0.729487
834 4 0.0725908 0.262421 0.740138
1213 2 0.0909516 0.331514 0.709182
696 4 0.139247 0.266178 0.724915
1259 4 0.13578 0.283812 0.73463
1258 2 0.146094 0.302273 0.72129
1260 4 0.156408 0.320735 0.707949
803 4 0.254103 0.283116 0.668269
801 4 0.258874 0.256455 0.737737
1297 2 0.479087 0.255599 0.737481
2015 4 0.0877547 0.410951 0.669879
1208 4 0.154215 0.340892 0.711121
821 4 0.0939495 0.359789 0.721172
822 4 0.100743 0.409331 0.72156
820 2 0.0973461 0.38456 0.721366
1215 4 0.0974131 0.354734 0.702528
1207 2 0.153891 0.358237 0.693115
1209 4 0.153567 0.375582 0.675109
948 4 0.198621 0.408547 0.681939
1006 2 0.304233 0.36039 0.742984
1067 4 0.269199 0.385584 0.748204
1007 4 0.284911 0.374546 0.750157
1008 4 0.323554 0.346234 0.735811
1101 4 0.380096 0.39196 0.715693
1099 2 0.366375 0.408726 0.728176
1019 4 0.395801 0.388493 0.728104
1138 2 0.457797 0.344933 0.6687
1204 2 0.47503 0.393202 0.699031
1206 4 0.472319 0.368352 0.698466
1140 4 0.458644 0.363877 0.684997
788 4 0.45968 0.36613 0.733134
1018 2 0.419957 0.38384 0.732574
1020 4 0.444114 0.379188 0.737043
787 2 0.48229 0.358739 0.74084
2174 4 0.0362113 0.495968 0.73795
3430 2 0.0441793 0.471033 0.711632
2016 4 0.0596622 0.433363 0.704653
3432 4 0.0467349 0.44621 0.710051
3431 4 0.0416236 0.495855 0.713214
2014 2 0.0737084 0.422157 0.687266
946 2 0.188411 0.429148 0.691764
947 4 0.1782 0.449749 0.701588
2153 4 0.235004 0.486884 0.679515
1160 4 0.253199 0.427454 0.674346
2152 2 0.255271 0.482072 0.693346
1229 4 0.291078 0.480738 0.717895
2154 4 0.275538 0.47726 0.707176
1228 2 0.288519 0.466633 0.738381
1100 4 0.352654 0.425491 0.740659
1205 4 0.477742 0.418052 0.699596
1953 4 0.435421 0.488113 0.686151
2169 4 0.42535 0.480165 0.670956
1951 2 0.457148 0.491367 0.69809
1952 4 0.478875 0.494622 0.710028
1895 4 0.195432 0.00723696 0.800301
1196 4 0.176543 0.00365296 0.801257
1894 2 0.203528 0.0295274 0.808224
1896 4 0.211624 0.0518179 0.816147
2048 4 0.228386 0.0540816 0.805357
2047 2 0.243943 0.0734113 0.808442
2321 4 0.291466 0.00204408 0.752306
3255 4 0.49129 0.0461932 0.813811
3253 2 0.484527 0.0395545 0.790673
3254 4 0.477764 0.0329159 0.767535
3401 4 0.467159 0.0277983 0.750582
3393 4 0.0123953 0.0845973 0.787376
3391 2 0.0116193 0.0998334 0.767566
1148 4 0.19231 0.0954429 0.762057
840 4 0.247941 0.107024 0.801656
838 2 0.242899 0.128292 0.813797
839 4 0.237858 0.14956 0.825939
2049 4 0.2595 0.0927409 0.811527
1255 2 0.281878 0.164743 0.75764
1293 4 0.239449 0.224247 0.796001
1291 2 0.220664 0.239414 0.7895
831 4 0.309956 0.187445 0.759679
1257 4 0.297619 0.178073 0.771772
829 2 0.334718 0.187195 0.763135
978 4 0.369866 0.18007 0.782191
830 4 0.359481 0.186944 0.76659
976 2 0.378422 0.189248 0.803819
977 4 0.386978 0.198426 0.825446