ITEM: TIMESTEP
2990000
ITEM: NUMBER OF ATOMS
4590
ITEM: BOX BOUNDS pp pp pp
-9.9985700000000008e+00 9.9985700000000008e+00
-9.9985700000000008e+00 9.9985700000000008e+00
-9.9985700000000008e+00 9.9985700000000008e+00
ITEM: ATOMS id type xs ys zs
379 2 0.0182606 0.0396536 0.069762
381 4 0.0360079 0.0479471 0.0853001
465 4 0.0757978 0.0102959 0.0713789
380 4 0.000513314 0.0313602 0.054224
1634 4 0.205585 0.0462621 0.00987004
1633 2 0.215384 0.0322502 0.0281136
1635 4 0.225182 0.0182382 0.0463571
1605 4 0.223852 0.997467 0.04966
652 2 0.286964 0.0611689 0.0642378
653 4 0.295443 0.042249 0.0782136
654 4 0.278485 0.0800888 0.0502621
1608 4 0.374101 0.00512688 0.082436
747 4 0.411414 0.0312778 0.0184855
985 2 0.410178 0.0781175 0.01433
986 4 0.424069 0.0589295 0.0223327
745 2 0.435279 0.0261013 0.0238585
746 4 0.459143 0.0209248 0.0292316
297 4 0.461734 0.0326359 0.0468263
295 2 0.464035 0.0226258 0.0696229
2976 4 0.466406 0.0710709 0.0535116
630 4 0.448976 0.0770812 0.0590803
554 4 0.0765355 0.152719 0.0141558
836 4 0.0803793 0.137479 0.00231656
553 2 0.053944 0.162782 0.0178364
1132 2 0.163671 0.118137 0.0197064
837 4 0.124869 0.125494 0.0217507
1134 4 0.143051 0.130089 0.0272638
835 2 0.102624 0.131486 0.0120336
1133 4 0.184292 0.106184 0.012149
360 4 0.243401 0.161184 0.0245324
354 4 0.235506 0.158974 0.00715186
492 4 0.240801 0.110226 0.00228232
491 4 0.274234 0.086528 0.0309409
490 2 0.257517 0.0983771 0.0166116
358 2 0.267881 0.162317 0.0294986
359 4 0.29236 0.163449 0.0344647
2469 4 0.415946 0.132752 0.0668172
987 4 0.396287 0.0973054 0.0063274
2467 2 0.401805 0.147586 0.0811401
770 4 0.434828 0.139229 0.0630879
2974 2 0.468552 0.0887697 0.0359809
769 2 0.440212 0.138558 0.0386799
771 4 0.445595 0.137887 0.014272
2975 4 0.470698 0.106469 0.0184503
2792 4 0.48979 0.103317 0.0135559
555 4 0.0313524 0.172844 0.0215171
2808 4 0.0140398 0.17049 0.0127775
462 4 0.295977 0.170294 0.0534124
460 2 0.318908 0.180244 0.0539948
573 4 0.278226 0.243377 0.0701298
461 4 0.34184 0.190193 0.0545773
558 4 0.350251 0.195321 0.0713924
556 2 0.368248 0.212286 0.0677217
557 4 0.386245 0.229251 0.0640511
518 4 0.406435 0.228459 0.0656089
517 2 0.427746 0.226935 0.0526199
1095 4 0.45579 0.245098 0.0437754
519 4 0.449056 0.225411 0.0396308
3348 4 0.488485 0.194114 0.0174108
2895 4 0.49893 0.210135 0.0173689
475 2 0.105088 0.278464 0.068956
476 4 0.0955699 0.272605 0.0465894
1169 4 0.116372 0.331878 0.0218902
456 4 0.164159 0.319736 0.0645989
454 2 0.142083 0.327268 0.0736036
482 4 0.175867 0.306989 0.0757131
483 4 0.195651 0.280025 0.0385343
481 2 0.185759 0.293507 0.0571237
287 4 0.18228 0.273456 0.0237794
286 2 0.176781 0.263639 0.00145044
357 4 0.29639 0.251633 0.0653375
355 2 0.295956 0.276075 0.0600856
356 4 0.295522 0.300517 0.0548337
1304 4 0.299868 0.303934 0.0351924
1303 2 0.316183 0.309691 0.0171406
1305 4 0.332497 0.315449 0.999089
1093 2 0.463967 0.262878 0.0282134
1094 4 0.472145 0.280658 0.0126514
292 2 0.0765916 0.347622 0.0256987
620 4 0.0340726 0.356656 0.0367504
619 2 0.0208864 0.369091 0.0539748
294 4 0.0540419 0.355256 0.0333421
621 4 0.00770019 0.381526 0.0711992
1168 2 0.133498 0.342281 0.00693524
293 4 0.0991413 0.339989 0.0180554
455 4 0.120006 0.3348 0.0826082
536 4 0.118329 0.355416 0.0842782
955 2 0.328566 0.384934 0.0245763
956 4 0.319355 0.380622 0.00173457
607 2 0.353124 0.361686 0.0698897
957 4 0.337776 0.389247 0.047418
608 4 0.34815 0.385544 0.0643003
609 4 0.358097 0.337828 0.0754791
282 4 0.461793 0.352982 0.0104919
251 4 0.138688 0.463801 0.0176183
795 4 0.128325 0.475787 0.0287234
250 2 0.16236 0.456456 0.0143211
793 2 0.124381 0.500387 0.0266095
252 4 0.186032 0.449111 0.011024
63 3 0.326403 0.502425 0.0313881
1583 4 0.404703 0.4969 0.0648097
17 3 0.0434984 0.0512802 0.104187
20 3 0.0462755 0.0662126 0.138279
16 1 0.0519091 0.0688836 0.116375
463 2 0.0800385 0.0321114 0.0828365
464 4 0.0842792 0.053927 0.0942941
18 3 0.0750007 0.0692122 0.114122
578 4 0.0974868 0.0613113 0.111076
577 2 0.114465 0.0765123 0.121363
237 4 0.151656 0.0955457 0.134816
567 4 0.300953 0.0320265 0.0947797
565 2 0.293498 0.00816296 0.0943947
486 4 0.332973 0.0352917 0.0986479
484 2 0.355801 0.0250954 0.0983695
485 4 0.37863 0.0148991 0.0980911
312 4 0.396476 0.0839099 0.144329
310 2 0.417609 0.0742007 0.135147
311 4 0.438742 0.0644914 0.125965
628 2 0.445191 0.0748114 0.0836912
629 4 0.441406 0.0725415 0.108302
2745 4 0.465418 0.018638 0.11215
2743 2 0.487952 0.0171836 0.122885
296 4 0.466336 0.0126157 0.0924194
19 3 0.0428737 0.0886424 0.108229
2481 4 0.0298095 0.102946 0.10413
2479 2 0.0101197 0.110264 0.117692
2624 4 0.00369755 0.161028 0.0831778
579 4 0.131444 0.0917134 0.131651
235 2 0.173258 0.0897466 0.145993
236 4 0.19486 0.0839475 0.15717
2468 4 0.387663 0.16242 0.095463
764 4 0.401174 0.0980234 0.157578
363 4 0.0961582 0.248087 0.160627
279 4 0.163308 0.199385 0.152161
277 2 0.178137 0.206928 0.133497
278 4 0.192966 0.214472 0.114832
572 4 0.260266 0.235844 0.116189
571 2 0.269246 0.23961 0.0931592
756 4 0.272239 0.246463 0.127724
255 4 0.382163 0.178824 0.107882
253 2 0.382548 0.196567 0.125495
254 4 0.382932 0.214311 0.143107
324 4 0.376205 0.230885 0.134312
2651 4 0.474692 0.207067 0.0970663
527 4 0.473073 0.205591 0.117024
526 2 0.459815 0.191527 0.132885
758 4 0.433563 0.185301 0.161152
528 4 0.446557 0.177462 0.148747
2650 2 0.496414 0.21945 0.0970692
339 4 0.097798 0.266917 0.155651
337 2 0.107528 0.274 0.133735
338 4 0.117259 0.281083 0.111818
477 4 0.114606 0.284322 0.0913226
345 4 0.226216 0.321028 0.16531
754 2 0.262934 0.254989 0.149308
671 4 0.365704 0.326856 0.0900568
322 2 0.380074 0.255266 0.130339
323 4 0.383943 0.279646 0.126365
672 4 0.38656 0.299368 0.126253
670 2 0.376132 0.313112 0.108155
741 4 0.362352 0.324227 0.159615
623 4 0.411629 0.301829 0.157761
624 4 0.459021 0.309287 0.143653
622 2 0.435325 0.305558 0.150707
107 3 0.473299 0.316637 0.159455
596 4 0.457123 0.329893 0.152878
537 4 0.073797 0.352209 0.106802
298 2 0.0648869 0.362746 0.1468
655 2 0.0143464 0.378885 0.113448
299 4 0.0712525 0.365449 0.122771
705 4 0.00852545 0.366025 0.150447
656 4 0.0210464 0.373942 0.137025
657 4 0.00764644 0.383827 0.0898715
535 2 0.0960631 0.353813 0.0955402
343 2 0.237024 0.342047 0.157152
344 4 0.247832 0.363067 0.148995
496 2 0.281867 0.351487 0.1277
498 4 0.259677 0.361634 0.13316
497 4 0.304057 0.34134 0.12224
386 4 0.321155 0.339507 0.132938
385 2 0.340002 0.341587 0.149236
495 4 0.473914 0.380781 0.128164
595 2 0.458037 0.354367 0.147839
597 4 0.458951 0.37884 0.1428
493 2 0.47375 0.400193 0.112405
1439 4 0.2081 0.496438 0.106623
1582 2 0.40179 0.488209 0.0880724
1573 2 0.399131 0.44683 0.13881
1584 4 0.398877 0.479518 0.111335
1574 4 0.404028 0.429829 0.156478
1575 4 0.394235 0.463832 0.121143
562 2 0.494809 0.502773 0.08649
494 4 0.473586 0.419604 0.0966463
227 4 0.485604 0.43175 0.0859437
1538 4 0.0404557 0.0282307 0.182141
1537 2 0.0579662 0.0108812 0.177951
232 2 0.0151804 0.0526504 0.176865
234 4 0.0223243 0.0288773 0.173868
233 4 0.00803657 0.0764235 0.179862
1462 2 0.157661 0.00206429 0.239479
1475 4 0.242789 0.00868338 0.183594
1504 2 0.236124 0.0533416 0.188247
1506 4 0.236048 0.0314739 0.20037
689 4 0.232594 0.027039 0.219722
1505 4 0.236199 0.0752092 0.176123
688 2 0.214222 0.0102876 0.222374
1463 4 0.171176 0.0185092 0.252597
472 2 0.253054 0.0730241 0.248663
474 4 0.247587 0.04888 0.252176
722 4 0.193256 0.095218 0.173181
721 2 0.190848 0.104492 0.196276
723 4 0.188441 0.113765 0.219371
693 4 0.205674 0.124646 0.225359
691 2 0.228421 0.120267 0.234769
692 4 0.251169 0.115888 0.24418
582 4 0.299348 0.159055 0.227214
27 3 0.28934 0.148694 0.241428
742 2 0.385305 0.148458 0.243901
743 4 0.396495 0.126511 0.239627
763 2 0.410289 0.109824 0.177649
333 4 0.413397 0.120159 0.248315
765 4 0.419404 0.121624 0.19772
521 4 0.436162 0.12793 0.205703
520 2 0.456265 0.142795 0.2054
522 4 0.476368 0.157659 0.205097
361 2 0.105031 0.241691 0.183112
362 4 0.113903 0.235296 0.205596
389 4 0.112812 0.251131 0.235875
737 4 0.165739 0.209477 0.168635
736 2 0.175388 0.204539 0.191168
738 4 0.185036 0.199602 0.2137
284 4 0.204671 0.202272 0.215071
283 2 0.223984 0.18683 0.211367
285 4 0.243297 0.171388 0.207663
581 4 0.260162 0.181807 0.20606
580 2 0.279755 0.170431 0.216637
25 3 0.397583 0.211701 0.213201
24 3 0.371858 0.186665 0.201842
21 1 0.379543 0.199392 0.219657
22 3 0.362748 0.21356 0.226467
744 4 0.374114 0.170405 0.248174
23 3 0.385325 0.185556 0.237364
761 4 0.502539 0.213272 0.223478
759 4 0.410779 0.209775 0.198336
757 2 0.422171 0.197538 0.179744
762 4 0.483272 0.167158 0.221741
760 2 0.492906 0.190215 0.22261
393 4 0.0780124 0.255662 0.226266
2716 2 0.00119206 0.310055 0.234263
392 4 0.0566838 0.298451 0.211607
391 2 0.0673481 0.277057 0.218937
646 2 0.0574504 0.333702 0.20548
647 4 0.0586931 0.315608 0.222691
2718 4 0.0037722 0.285288 0.236526
388 2 0.124385 0.27325 0.237274
390 4 0.135958 0.29537 0.238673
755 4 0.253629 0.263516 0.170893
307 2 0.312733 0.268175 0.210662
309 4 0.317434 0.275753 0.187303
308 4 0.308033 0.260597 0.234021
739 2 0.384868 0.3168 0.167554
740 4 0.407384 0.309372 0.175493
543 4 0.483383 0.329927 0.203088
108 3 0.496264 0.323345 0.188443
106 1 0.492855 0.310134 0.169674
109 3 0.491019 0.287856 0.175896
648 4 0.0562076 0.351797 0.188269
300 4 0.0585213 0.360043 0.170828
749 4 0.00064527 0.402578 0.213711
364 2 0.999747 0.367435 0.235569
365 4 0.00730812 0.345725 0.245401
735 4 0.13294 0.406903 0.249161
416 4 0.23343 0.411396 0.22374
291 4 0.245405 0.396646 0.226899
415 2 0.216512 0.410952 0.242145
289 2 0.269517 0.39565 0.220359
768 4 0.304911 0.38358 0.226608
290 4 0.29363 0.394654 0.213818
766 2 0.315782 0.373201 0.24659
387 4 0.358849 0.343667 0.165535
643 2 0.397921 0.396205 0.184769
645 4 0.399294 0.377577 0.20139
13 3 0.416163 0.380045 0.211412
541 2 0.475562 0.350423 0.215085
12 3 0.428471 0.362659 0.242378
11 1 0.430832 0.381459 0.229335
15 3 0.452271 0.382685 0.221752
542 4 0.467741 0.370919 0.227083
14 3 0.425889 0.400154 0.24216
3599 4 0.0337593 0.498207 0.221072
602 4 0.0678312 0.4776 0.17408
748 2 0.016319 0.421403 0.208699
750 4 0.0319928 0.440229 0.203687
603 4 0.0278665 0.450785 0.187663
601 2 0.0478489 0.464193 0.180871
2796 4 0.0199398 0.490294 0.208398
3598 2 0.0541694 0.489072 0.232259
264 4 0.0807775 0.488639 0.185794
3600 4 0.0745795 0.479937 0.243446
658 2 0.305323 0.493155 0.200799
660 4 0.292499 0.496846 0.221944
1863 4 0.262572 0.496736 0.192887
659 4 0.318147 0.489463 0.179654
231 4 0.291321 0.493097 0.241961
644 4 0.396547 0.414833 0.168147
732 4 0.159187 0.0349367 0.254705
730 2 0.141705 0.0499476 0.264412
731 4 0.124223 0.0649586 0.274119
368 4 0.156553 0.0704246 0.32167
318 4 0.110979 0.0777977 0.280217
1406 4 0.202812 0.0132219 0.308545
1701 4 0.206714 0.0237077 0.324049
1699 2 0.231258 0.0277186 0.321464
1700 4 0.255802 0.0317294 0.318879
1496 4 0.306324 0.0632678 0.33294
1830 4 0.257383 0.0507244 0.315411
1828 2 0.274422 0.0613867 0.330283
317 4 0.0852147 0.119495 0.290131
399 4 0.0741213 0.13627 0.294222
397 2 0.0799091 0.145151 0.316867
316 2 0.0980969 0.0986461 0.285174
367 2 0.166835 0.0914603 0.330442
473 4 0.258522 0.0971683 0.24515
29 3 0.274008 0.116825 0.254154
28 3 0.265336 0.150112 0.270314
30 3 0.299648 0.135237 0.274678
26 1 0.282159 0.137664 0.260294
377 4 0.278372 0.149826 0.287809
683 4 0.296219 0.140993 0.292325
682 2 0.318548 0.133087 0.300332
684 4 0.340876 0.125181 0.308339
725 4 0.35421 0.12313 0.322951
331 2 0.434129 0.127593 0.260152
351 4 0.473647 0.136817 0.279418
332 4 0.454861 0.135027 0.271989
350 4 0.487281 0.105232 0.315713
349 2 0.480464 0.121024 0.297566
453 4 0.502363 0.0919915 0.319083
513 4 0.0923821 0.247705 0.237563
511 2 0.0984074 0.225354 0.247013
512 4 0.104433 0.203003 0.256463
376 2 0.273763 0.164887 0.307227
706 2 0.26616 0.244713 0.32016
378 4 0.269155 0.179948 0.326646
632 4 0.393291 0.179288 0.256911
631 2 0.401056 0.187131 0.279347
633 4 0.408821 0.194974 0.301783
419 4 0.427488 0.201902 0.298274
418 2 0.433942 0.210252 0.320941
372 4 0.148333 0.293578 0.254658
370 2 0.154081 0.311993 0.270565
371 4 0.159828 0.330408 0.286472
402 4 0.180108 0.331917 0.283113
612 4 0.308538 0.257772 0.255306
707 4 0.276448 0.259763 0.303048
509 4 0.272513 0.314115 0.313872
611 4 0.286891 0.275724 0.296656
610 2 0.297714 0.266748 0.275981
302 4 0.329807 0.336122 0.317764
508 2 0.252075 0.328088 0.310372
728 4 0.334543 0.316711 0.318606
727 2 0.351253 0.299263 0.312163
729 4 0.367964 0.281815 0.305721
616 2 0.0751614 0.372604 0.301689
617 4 0.0786729 0.39618 0.294136
618 4 0.0716499 0.349029 0.309242
444 4 0.0811174 0.337266 0.32304
677 4 0.116026 0.420163 0.25439
678 4 0.0925651 0.386102 0.2825
676 2 0.104295 0.403132 0.268445
733 2 0.156452 0.409784 0.257167
400 2 0.1984 0.343058 0.296015
401 4 0.216693 0.354199 0.308916
510 4 0.231638 0.342061 0.306872
417 4 0.199593 0.410508 0.26055
301 2 0.321622 0.351404 0.299746
303 4 0.313437 0.366686 0.281728
767 4 0.326652 0.362822 0.266572
560 4 0.404165 0.349297 0.325919
2536 2 0.405597 0.384207 0.305256
2538 4 0.397357 0.403165 0.291189
2537 4 0.413837 0.365249 0.319323
559 2 0.383136 0.338182 0.333628
2617 2 0.00127437 0.475694 0.285415
2619 4 0.0223884 0.4724 0.298397
1789 2 0.0470036 0.446007 0.301373
1790 4 0.0707787 0.438922 0.298255
1791 4 0.0232285 0.453092 0.304492
1665 4 0.0813892 0.486546 0.261232
1758 4 0.0910089 0.438684 0.298173
1756 2 0.0969754 0.430078 0.320878
734 4 0.179963 0.412664 0.265173
229 2 0.307649 0.49744 0.260392
1802 4 0.317875 0.486993 0.293232
1801 2 0.315489 0.482275 0.31767
447 4 0.399472 0.418738 0.303132
445 2 0.394308 0.432561 0.323317
3077 4 0.0113101 0.0250297 0.384065
3076 2 0.010647 0.0391303 0.404703
1782 4 0.227791 0.00127948 0.407654
441 4 0.293148 0.00940765 0.352547
1829 4 0.291461 0.0720491 0.345154
1495 2 0.328974 0.0595383 0.342854
439 2 0.283754 0.00901909 0.375716
440 4 0.274361 0.00863054 0.398884
1818 4 0.281025 0.0195443 0.414469
1497 4 0.351623 0.0558089 0.352767
1516 2 0.360497 0.0459683 0.393992
1518 4 0.363453 0.0351271 0.416328
1517 4 0.35754 0.0568095 0.371656
398 4 0.085697 0.154031 0.339513
529 2 0.0615808 0.150834 0.371436
530 4 0.0444738 0.158342 0.388054
531 4 0.0786877 0.143325 0.354818
600 4 0.187694 0.117502 0.356276
369 4 0.177117 0.112496 0.339215
598 2 0.185497 0.138528 0.369626
599 4 0.1833 0.159554 0.382977
605 4 0.275007 0.128685 0.394422
320 4 0.286548 0.13838 0.407543
604 2 0.277707 0.108 0.408206
726 4 0.378841 0.102821 0.361442
724 2 0.366526 0.112975 0.342197
425 4 0.387327 0.0911443 0.375584
424 2 0.40934 0.0964691 0.386179
426 4 0.431353 0.101794 0.396774
258 4 0.432554 0.106273 0.415901
2655 4 0.0343813 0.173567 0.386773
2846 4 0.0347466 0.236563 0.411517
2654 4 0.0412467 0.219938 0.404188
2653 2 0.037814 0.196752 0.395481
545 4 0.0688064 0.19679 0.41952
247 2 0.0892859 0.235238 0.412019
405 4 0.2385 0.237924 0.344935
686 4 0.172952 0.175974 0.386112
687 4 0.191243 0.216449 0.363136
685 2 0.182097 0.196212 0.374624
404 4 0.192542 0.237245 0.364637
403 2 0.215521 0.237585 0.354786
708 4 0.255871 0.229663 0.337272
614 4 0.277166 0.197729 0.332509
613 2 0.297165 0.202141 0.346852
615 4 0.317165 0.206552 0.361196
716 4 0.326429 0.215515 0.376004
715 2 0.347866 0.227888 0.372464
717 4 0.369303 0.240262 0.368925
420 4 0.440397 0.218601 0.343608
269 4 0.447173 0.235293 0.349315
442 2 0.0685073 0.321091 0.337341
443 4 0.0558972 0.304915 0.351642
1034 4 0.0651451 0.287493 0.354751
1033 2 0.0824035 0.278472 0.370434
1035 4 0.099662 0.269452 0.386117
249 4 0.099002 0.255085 0.400319
711 4 0.164871 0.307887 0.410355
709 2 0.175287 0.316043 0.389138
710 4 0.185703 0.3242 0.367921
407 4 0.194215 0.334772 0.353047
584 4 0.386062 0.251993 0.366266
335 4 0.332893 0.324411 0.402092
583 2 0.408553 0.260044 0.373652
334 2 0.346274 0.328374 0.381345
561 4 0.362108 0.327066 0.341336
268 2 0.465743 0.251465 0.34498
270 4 0.484313 0.267637 0.340644
238 2 0.446207 0.308215 0.396745
585 4 0.431043 0.268095 0.381037
240 4 0.438892 0.285257 0.390068
239 4 0.453522 0.331173 0.403422
2813 4 0.00485351 0.413296 0.404728
540 4 0.0218514 0.40421 0.404339
538 2 0.0432074 0.394625 0.413128
776 4 0.112035 0.403889 0.343619
775 2 0.135134 0.407044 0.352657
777 4 0.158232 0.4102 0.361695
503 4 0.241134 0.363507 0.389356
406 2 0.212072 0.349218 0.362927
408 4 0.229929 0.363664 0.372808
413 4 0.171634 0.400954 0.375299
412 2 0.175596 0.414231 0.396113
502 2 0.257966 0.371134 0.406199
336 4 0.359654 0.332337 0.360598
751 2 0.394409 0.402827 0.409285
752 4 0.389769 0.378309 0.410868
926 4 0.442387 0.345572 0.412896
925 2 0.418624 0.352835 0.41568
547 2 0.0290847 0.490808 0.406892
499 2 0.0795839 0.49711 0.385106
1757 4 0.102942 0.421472 0.343583
500 4 0.102972 0.491226 0.378505
1395 4 0.123081 0.485332 0.37765
1393 2 0.138752 0.495855 0.394047
435 4 0.239368 0.496858 0.389773
414 4 0.179558 0.427508 0.416926
1803 4 0.313104 0.477558 0.342108
594 4 0.315951 0.465508 0.404492
592 2 0.311413 0.46543 0.379904
593 4 0.306875 0.465351 0.355315
433 2 0.259109 0.49257 0.404506
446 4 0.389144 0.446385 0.343501
753 4 0.399048 0.427346 0.407701
120 3 0.382088 0.44418 0.360268
119 3 0.390153 0.441529 0.39695
116 1 0.397418 0.449276 0.37632
117 3 0.399933 0.472115 0.377418
118 3 0.417891 0.439721 0.371033
668 4 0.33692 0.466015 0.408163
2506 2 0.500596 0.448622 0.34289
2507 4 0.478168 0.442721 0.352237
1473 4 0.462734 0.455434 0.402313
1471 2 0.463621 0.479389 0.409423
3988 2 0.426389 0.495597 0.369464
2742 4 0.471974 0.428908 0.366535
2740 2 0.450492 0.4417 0.366677
3989 4 0.420076 0.471533 0.371965
2741 4 0.429009 0.454493 0.366819
3078 4 0.00998394 0.0532309 0.42534
2238 4 0.0389816 0.0260497 0.46388
2236 2 0.016366 0.0154112 0.464611
1076 4 0.0524897 0.0268508 0.480271
340 2 0.134221 0.00651936 0.479235
341 4 0.134564 0.0248802 0.496204
1152 4 0.217477 0.0352965 0.48535
1150 2 0.233916 0.0518382 0.494368
1646 4 0.220108 0.0152378 0.482438
1816 2 0.277651 0.043892 0.41905
1817 4 0.274276 0.0682397 0.423631
699 4 0.352866 0.0244226 0.428513
697 2 0.346476 0.000867999 0.433948
3489 4 0.477998 0.0689596 0.446678
3487 2 0.483027 0.0647565 0.470807
3488 4 0.488056 0.0605535 0.494937
575 4 0.421383 0.0505905 0.493809
261 4 0.0256934 0.161585 0.492432
471 4 0.0184103 0.160047 0.473289
274 2 0.169132 0.110553 0.445795
275 4 0.153011 0.127064 0.455421
857 4 0.164266 0.14153 0.465769
276 4 0.185253 0.0940406 0.43617
856 2 0.175057 0.158578 0.480537
606 4 0.280407 0.0873148 0.421991
319 2 0.28877 0.160918 0.418139
256 2 0.451068 0.0961395 0.429307
257 4 0.469582 0.0860065 0.442713
878 4 0.00684864 0.235601 0.493484
248 4 0.0795698 0.215391 0.423718
2845 2 0.0368567 0.24708 0.434103
544 2 0.0779804 0.182628 0.437972
346 2 0.0841151 0.21623 0.492248
546 4 0.0871544 0.168466 0.456423
347 4 0.102859 0.227028 0.479708
327 4 0.109275 0.245441 0.482117
1220 4 0.205823 0.177877 0.490246
858 4 0.185848 0.175627 0.495305
411 4 0.305312 0.196761 0.435824
321 4 0.290992 0.183457 0.428735
409 2 0.30958 0.22136 0.437184
410 4 0.313848 0.245959 0.438544
2847 4 0.0389667 0.257596 0.456689
9 3 0.145622 0.310586 0.418608
326 4 0.139021 0.279733 0.461143
10 3 0.1318 0.28401 0.441419
325 2 0.124148 0.262587 0.47163
375 4 0.156509 0.290466 0.462002
7 3 0.156356 0.308839 0.454586
6 1 0.138684 0.305684 0.440201
8 3 0.121371 0.319848 0.446367
373 2 0.176998 0.293464 0.476015
374 4 0.197488 0.296462 0.490029
792 4 0.216432 0.297249 0.485353
587 4 0.324684 0.325524 0.420304
489 4 0.304407 0.252072 0.455824
487 2 0.307741 0.27685 0.456132
488 4 0.311074 0.301629 0.45644
651 4 0.305851 0.315558 0.471796
649 2 0.31452 0.323976 0.493686
539 4 0.0645635 0.385041 0.421916
681 4 0.0759158 0.387304 0.438056
679 2 0.0997459 0.394477 0.440475
570 4 0.131374 0.40905 0.460681
680 4 0.123576 0.40165 0.442895
568 2 0.149288 0.419353 0.446606
586 2 0.31996 0.347034 0.432143
504 4 0.274798 0.378761 0.423042
635 4 0.270649 0.393021 0.435238
588 4 0.315237 0.368545 0.443982
927 4 0.394861 0.360098 0.418464
773 4 0.333258 0.373441 0.453457
772 2 0.341939 0.372655 0.476891
929 4 0.398131 0.364613 0.479295
662 4 0.49019 0.40927 0.465245
382 2 0.00319587 0.472437 0.459942
548 4 0.0211782 0.470633 0.419367
383 4 0.0136174 0.473944 0.437264
1436 4 0.150907 0.46874 0.420911
1435 2 0.162153 0.477083 0.441626
569 4 0.167202 0.429656 0.432531
1557 4 0.193553 0.484381 0.462613
1437 4 0.173398 0.485426 0.462341
3 3 0.320014 0.467119 0.427966
5 3 0.283877 0.468655 0.417506
2 3 0.295263 0.487348 0.447735
634 2 0.272827 0.417422 0.440242
4 3 0.293285 0.449828 0.448726
1400 4 0.290149 0.499288 0.432976
1 1 0.298037 0.468172 0.435336
434 4 0.27885 0.488281 0.41924
636 4 0.275004 0.441823 0.445246
667 2 0.35665 0.465555 0.423514
880 2 0.390864 0.463688 0.473002
882 4 0.39103 0.45582 0.449269
669 4 0.376381 0.465096 0.438866
881 4 0.390697 0.471555 0.496735
1741 2 0.474037 0.443364 0.485798
1743 4 0.484167 0.428952 0.468054
1077 4 0.051542 0.0259094 0.53026
1075 2 0.0520158 0.0263801 0.505265
4508 4 0.0486219 0.00750132 0.539426
2428 2 0.157296 0.0312557 0.532465
2430 4 0.148729 0.0291937 0.509066
2429 4 0.165864 0.0333177 0.555865
1151 4 0.250354 0.0683799 0.503386
1181 4 0.318012 0.00886403 0.55985
1180 2 0.334873 0.0251134 0.551084
1182 4 0.351735 0.0413628 0.542319
1032 4 0.369655 0.0510874 0.54215
1030 2 0.366057 0.0704529 0.526748
4466 4 0.422582 0.0343356 0.505815
4465 2 0.424025 0.0192523 0.525704
4467 4 0.425468 0.0041691 0.545594
90 3 0.456601 0.0189196 0.553172
3007 2 0.489056 0.0327623 0.520675
810 4 0.463134 0.0340461 0.567463
3008 4 0.493988 0.0566344 0.51511
574 2 0.427096 0.070792 0.50739
808 2 0.452661 0.0559078 0.573591
3009 4 0.484123 0.00889024 0.52624
907 2 0.244994 0.152059 0.564727
908 4 0.264219 0.136513 0.568451
466 2 0.320631 0.101838 0.520409
468 4 0.2975 0.110904 0.523233
1284 4 0.278122 0.149273 0.57596
1031 4 0.36246 0.0898184 0.511347
467 4 0.343761 0.0927726 0.517584
576 4 0.432808 0.0909936 0.520971
306 4 0.432928 0.109544 0.529321
304 2 0.447855 0.125014 0.542089
305 4 0.462783 0.140484 0.554857
515 4 0.478055 0.1528 0.556571
1270 2 0.0402749 0.247598 0.56418
1272 4 0.0403268 0.237439 0.541333
260 4 0.0546936 0.194239 0.516792
879 4 0.0338074 0.220726 0.532888
877 2 0.020328 0.228163 0.513186
259 2 0.0401935 0.177912 0.504612
348 4 0.0653717 0.205431 0.504788
909 4 0.225769 0.167606 0.561003
1219 2 0.218961 0.18891 0.508436
1221 4 0.232098 0.199943 0.526625
1227 4 0.22037 0.172316 0.580621
1212 4 0.249874 0.200016 0.518495
1210 2 0.274843 0.200496 0.519721
1211 4 0.299812 0.200976 0.520947
265 2 0.394342 0.223252 0.543491
888 4 0.403416 0.209465 0.581209
266 4 0.390863 0.215669 0.567061
267 4 0.397821 0.230835 0.51992
514 2 0.494656 0.166715 0.569062
790 2 0.22128 0.315225 0.502043
791 4 0.226127 0.3332 0.518733
812 4 0.338268 0.324585 0.527211
811 2 0.355717 0.307731 0.533267
872 4 0.39011 0.301305 0.541861
813 4 0.373165 0.290877 0.539324
871 2 0.412751 0.292219 0.536382
906 4 0.437449 0.277993 0.55027
904 2 0.451392 0.264102 0.565692
873 4 0.435392 0.283133 0.530903
1191 4 0.211279 0.337248 0.532751
1189 2 0.214583 0.347756 0.555197
1190 4 0.217887 0.358265 0.577643
650 4 0.323189 0.332393 0.515576
928 2 0.406157 0.366652 0.502887
774 4 0.350621 0.371869 0.500326
930 4 0.414183 0.368691 0.52648
1238 4 0.419392 0.357011 0.542827
1237 2 0.418075 0.359964 0.56762
896 4 0.125087 0.443274 0.554913
895 2 0.140359 0.462781 0.551532
897 4 0.155631 0.482288 0.54815
1173 4 0.306097 0.432855 0.53074
1171 2 0.29229 0.435998 0.551347
1172 4 0.278483 0.439142 0.571955
891 4 0.345258 0.459952 0.562312
1911 4 0.357051 0.471915 0.550286
1909 2 0.372485 0.465845 0.531574
1910 4 0.387918 0.459774 0.512862
889 2 0.352255 0.442296 0.578575
1742 4 0.463907 0.457775 0.503543
1892 4 0.109739 0.0328426 0.650451
939 4 0.106401 0.0509141 0.641013
937 2 0.100391 0.072905 0.651283
1090 2 0.302499 0.0393817 0.6462
1092 4 0.291129 0.034728 0.624422
1091 4 0.313868 0.0440355 0.667977
4227 4 0.406687 0.0799252 0.63542
43 3 0.409185 0.0603917 0.642414
41 1 0.412887 0.0389077 0.65036
45 3 0.395242 0.0321839 0.663092
44 3 0.41585 0.0242892 0.632586
809 4 0.442188 0.0777696 0.579719
2283 4 0.435774 0.021469 0.639282
1163 4 0.444875 0.0237728 0.659164
2281 2 0.446518 0.00770247 0.621387
42 3 0.43195 0.0389227 0.663235
4225 2 0.422376 0.0836735 0.616315
2319 4 0.0260935 0.102838 0.657557
851 4 0.0182978 0.0866603 0.66822
938 4 0.0943814 0.0948959 0.661552
1282 2 0.290569 0.143679 0.596911
1283 4 0.303017 0.138084 0.617862
1003 2 0.316783 0.149327 0.655588
1004 4 0.303613 0.148668 0.634345
898 2 0.40232 0.150546 0.643477
899 4 0.412778 0.139875 0.663525
887 4 0.402473 0.167005 0.607608
4226 4 0.438064 0.0874219 0.59721
3084 4 0.0135113 0.198519 0.659844
1276 2 0.199859 0.235571 0.617491
1278 4 0.200732 0.211496 0.624186
1226 4 0.194811 0.192461 0.618589
1225 2 0.207591 0.182388 0.599605
886 2 0.402944 0.188235 0.594408
900 4 0.391861 0.161217 0.623429
1010 4 0.467947 0.231704 0.588113
1009 2 0.492905 0.230589 0.589128
1271 4 0.040223 0.257756 0.587027
1154 4 0.0398837 0.25553 0.6073
1153 2 0.0216659 0.257095 0.624354
1155 4 0.00344816 0.258661 0.641408
1259 4 0.101517 0.31486 0.64788
694 2 0.12294 0.296324 0.623471
695 4 0.137914 0.295949 0.603451
797 4 0.15442 0.29441 0.591094
696 4 0.107966 0.296698 0.643491
1258 2 0.10558 0.334887 0.662288
796 2 0.177319 0.28537 0.595466
798 4 0.200218 0.276331 0.599838
1277 4 0.198986 0.259645 0.610796
916 2 0.232543 0.285547 0.646372
918 4 0.235647 0.284457 0.621585
1167 4 0.246702 0.302317 0.618522
1165 2 0.267139 0.308383 0.605455
1166 4 0.287575 0.314448 0.592388
806 4 0.343105 0.308757 0.659355
805 2 0.35621 0.322781 0.643332
905 4 0.465334 0.250211 0.581113
1178 4 0.994068 0.396881 0.648298
1244 4 0.00872315 0.399697 0.635053
804 4 0.209671 0.371182 0.590909
803 4 0.216154 0.351778 0.63654
1136 4 0.225224 0.363712 0.650333
802 2 0.212913 0.36148 0.613725
1028 4 0.376481 0.354716 0.635979
1027 2 0.387038 0.360854 0.61416
807 4 0.369315 0.336806 0.627308
1029 4 0.397595 0.366992 0.592342
1239 4 0.416757 0.362918 0.592414
1267 2 0.487038 0.38689 0.626113
1269 4 0.467273 0.398825 0.635707
1243 2 0.0110124 0.421196 0.622493
1245 4 0.0133016 0.442694 0.609932
2171 4 0.00616975 0.461243 0.610429
2152 2 0.235462 0.451224 0.653763
2350 2 0.196953 0.481043 0.62128
2352 4 0.212916 0.474241 0.639283
2153 4 0.211545 0.458124 0.651405
2351 4 0.18099 0.487844 0.603278
1160 4 0.2701 0.447597 0.638479
2154 4 0.259378 0.444324 0.656122
1161 4 0.278945 0.433705 0.591261
1159 2 0.274523 0.440651 0.61487
1002 4 0.351803 0.42646 0.613343
1001 4 0.368768 0.432348 0.660014
890 4 0.359252 0.42464 0.594838
1000 2 0.360285 0.429404 0.636678
1951 2 0.409917 0.497118 0.632878
2307 4 0.4891 0.490137 0.593681
2305 2 0.486925 0.48712 0.618406
2306 4 0.48475 0.484103 0.643132
1953 4 0.425913 0.493491 0.614006
850 2 0.00194439 0.0824254 0.686654
1082 4 0.0134692 0.0256751 0.684096
1081 2 0.0368843 0.0279531 0.692565
943 2 0.0791684 0.0548736 0.723784
944 4 0.0654528 0.0344253 0.719434
1083 4 0.0602994 0.0302311 0.701034
910 2 0.0169031 0.0279349 0.749961
1891 2 0.104318 0.0206885 0.671619
1893 4 0.0988978 0.00853425 0.692787
945 4 0.092884 0.0753218 0.728135
1050 4 0.321135 0.0537317 0.683569
1049 4 0.300367 0.0726885 0.724922
1048 2 0.310751 0.0632101 0.704245
1022 4 0.298406 0.0617707 0.742122
2320 2 0.383873 0.0373565 0.698359
2322 4 0.371966 0.027808 0.718163
2321 4 0.395781 0.0469051 0.678554
1143 4 0.369578 0.0105233 0.708502
1162 2 0.464208 0.0248982 0.67498
3402 4 0.498351 0.0348172 0.703796
1164 4 0.483542 0.0260236 0.690796
2317 2 0.0503663 0.099746 0.662701
864 4 0.0405862 0.129584 0.719658
862 2 0.0458418 0.10759 0.730326
863 4 0.0510974 0.0855952 0.740994
2286 4 0.0470963 0.149771 0.722113
2318 4 0.074639 0.0966539 0.667844
2284 2 0.067084 0.163618 0.727939
1005 4 0.329954 0.149987 0.676832
831 4 0.334636 0.147507 0.695767
829 2 0.351696 0.161523 0.7075
1193 4 0.414672 0.113078 0.708542
1194 4 0.431661 0.135203 0.667039
1192 2 0.423167 0.124141 0.687791
3386 4 0.0247354 0.211856 0.66877
3385 2 0.0223906 0.233225 0.681538
2285 4 0.0870718 0.177465 0.733765
33 3 0.114601 0.210402 0.732418
31 1 0.116477 0.193328 0.748019
32 3 0.1312 0.177554 0.740045
1215 4 0.218061 0.230274 0.71428
1213 2 0.208512 0.234558 0.736988
1241 4 0.267574 0.241987 0.697239
830 4 0.368757 0.175538 0.719234
978 4 0.381816 0.189033 0.727964
1297 2 0.465935 0.247931 0.737035
3387 4 0.0200459 0.254594 0.694307
917 4 0.22944 0.286637 0.671158
1242 4 0.229312 0.271389 0.684113
1240 2 0.248443 0.256688 0.690676
1006 2 0.333317 0.323455 0.696398
1008 4 0.330913 0.310575 0.675103
952 2 0.497091 0.283756 0.703508
1298 4 0.460176 0.262275 0.717382
953 4 0.476446 0.270152 0.707233
1260 4 0.109643 0.354914 0.676696
1207 2 0.117248 0.37015 0.711407
1209 4 0.120624 0.38978 0.726521
993 4 0.10989 0.405095 0.721826
1208 4 0.113872 0.350519 0.696293
948 4 0.187641 0.363899 0.747158
1135 2 0.241848 0.365152 0.668954
1137 4 0.258473 0.366592 0.687575
1067 4 0.253138 0.366159 0.707468
1066 2 0.260837 0.385002 0.721989
1068 4 0.268535 0.403844 0.736511
1176 4 0.287345 0.413431 0.737512
1007 4 0.335721 0.336336 0.717694
1205 4 0.372565 0.360099 0.748103
1204 2 0.388051 0.377078 0.738251
1206 4 0.403538 0.394057 0.7284
1100 4 0.421926 0.397385 0.736337
1099 2 0.435158 0.414866 0.724315
992 4 0.0794565 0.432787 0.750245
991 2 0.0946732 0.418941 0.736035
1174 2 0.293329 0.435516 0.747592
1230 4 0.378465 0.44649 0.670448
1228 2 0.381022 0.452674 0.69454
1139 4 0.39927 0.460242 0.729981
1138 2 0.397861 0.483274 0.73961
1229 4 0.383579 0.458858 0.718631
2167 2 0.489343 0.497025 0.675232
1101 4 0.448389 0.432347 0.712293
3183 4 0.459019 0.441354 0.696913
3181 2 0.478816 0.446822 0.711174
2169 4 0.484415 0.494597 0.699625
3182 4 0.498613 0.452291 0.725435
911 4 0.037456 0.0421719 0.750207
1202 4 0.0468036 0.048347 0.766622
1201 2 0.0647572 0.0505814 0.78388
1203 4 0.0827107 0.0528159 0.801139
1287 4 0.0862596 0.0402227 0.81539
1285 2 0.108179 0.0495195 0.823024
2049 4 0.217884 0.0761897 0.820196
2047 2 0.199929 0.0599939 0.826559