ITEM: TIMESTEP
3600000
ITEM: NUMBER OF ATOMS
4590
ITEM: BOX BOUNDS pp pp pp
-9.9985700000000008e+00 9.9985700000000008e+00
-9.9985700000000008e+00 9.9985700000000008e+00
-9.9985700000000008e+00 9.9985700000000008e+00
ITEM: ATOMS id type xs ys zs
702 4 0.0429467 0.0513962 0.0251024
3753 4 0.0509787 0.0366521 0.0153243
3751 2 0.0700144 0.0215646 0.0212565
700 2 0.0212736 0.0457911 0.0362397
701 4 0.999601 0.040186 0.047377
3752 4 0.08905 0.00647708 0.0271887
422 4 0.178033 0.0607082 0.0298124
1633 2 0.176616 0.0578592 0.0632751
1634 4 0.171328 0.0727652 0.0439097
421 2 0.182064 0.0450952 0.0107031
1635 4 0.181905 0.0429532 0.0826405
567 4 0.316481 0.0248596 0.0591748
653 4 0.314993 0.03957 0.0444297
652 2 0.304145 0.0601563 0.0352809
654 4 0.293297 0.0807427 0.0261322
565 2 0.301436 0.0237224 0.0791127
987 4 0.36285 0.0174687 8.55254e-05
747 4 0.419319 0.987586 0.0542565
2976 4 0.426381 0.0839476 0.0348708
837 4 0.135209 0.103738 0.0168549
1134 4 0.14888 0.116734 0.0218945
835 2 0.113821 0.112513 0.00733083
836 4 0.0924321 0.121288 0.997807
1132 2 0.173531 0.119692 0.0189352
1133 4 0.198182 0.12265 0.0159759
491 4 0.281301 0.0893121 0.0124096
628 2 0.403426 0.0981207 0.0620701
630 4 0.411272 0.0962602 0.0384025
2974 2 0.450921 0.088039 0.0323724
2975 4 0.475461 0.0921304 0.029874
2469 4 0.456711 0.155997 0.0723381
769 2 0.449836 0.145701 0.0386411
770 4 0.465159 0.14597 0.0583969
2792 4 0.491948 0.0826354 0.0316125
771 4 0.434512 0.145431 0.0188854
2834 4 0.0125762 0.21555 0.0266206
2833 2 0.022213 0.236462 0.0168736
2807 4 0.00632852 0.199344 0.0148875
2806 2 0.0178196 0.178554 0.00708159
352 2 0.229862 0.200849 0.00748808
353 4 0.204945 0.202645 0.00854763
915 4 0.192944 0.215375 0.0176176
913 2 0.186792 0.23519 0.00366501
354 4 0.254778 0.199054 0.00642853
360 4 0.270993 0.187418 0.00431712
359 4 0.305169 0.176785 0.0392405
358 2 0.288081 0.182101 0.0217788
462 4 0.325819 0.175283 0.0336898
460 2 0.350544 0.17818 0.0360236
461 4 0.37527 0.181077 0.0383575
558 4 0.373922 0.201253 0.0380287
556 2 0.396603 0.210108 0.0323401
557 4 0.419284 0.218962 0.0266515
518 4 0.437605 0.222379 0.0350888
517 2 0.457928 0.224197 0.020638
519 4 0.478252 0.226015 0.00618718
1095 4 0.482502 0.244836 0.00416011
294 4 0.0156857 0.333274 0.0425139
620 4 0.00587679 0.326443 0.0585447
2835 4 0.0318497 0.257374 0.00712656
476 4 0.10064 0.318418 0.0382566
475 2 0.0996608 0.309806 0.06171
1169 4 0.0930203 0.32994 0.0231016
1168 2 0.115049 0.332778 0.0116175
477 4 0.0986812 0.301195 0.0851635
483 4 0.193062 0.319707 0.0424634
481 2 0.182876 0.326017 0.064409
287 4 0.198808 0.303578 0.0308475
286 2 0.188791 0.288639 0.0134783
482 4 0.17269 0.332327 0.0863546
357 4 0.281833 0.300083 0.0667643
355 2 0.296868 0.310344 0.0496229
356 4 0.311903 0.320606 0.0324814
573 4 0.266217 0.291224 0.0763395
1304 4 0.31874 0.312489 0.0154226
323 4 0.369311 0.249916 0.0802775
672 4 0.369323 0.269316 0.0902051
292 2 0.0272229 0.336034 0.0205036
956 4 0.331815 0.387139 0.0112802
955 2 0.33223 0.374368 0.0327727
957 4 0.332644 0.361598 0.0542652
608 4 0.337566 0.352255 0.0716857
607 2 0.358233 0.34012 0.0788137
493 2 0.481049 0.384835 0.0712111
494 4 0.497806 0.382116 0.0528536
1289 4 0.170658 0.439573 0.0134877
251 4 0.166217 0.484295 0.0540106
250 2 0.161256 0.463624 0.0408466
252 4 0.156294 0.442954 0.0276826
1673 4 0.380625 0.483903 0.0205615
1672 2 0.388563 0.472325 0.0412524
1674 4 0.396501 0.460747 0.0619433
1583 4 0.398225 0.47686 0.0736352
524 4 0.373172 0.499817 0.0101168
17 3 0.0494345 0.0314477 0.126539
16 1 0.044544 0.0433915 0.145581
18 3 0.0636974 0.0544224 0.152643
19 3 0.0278794 0.0587845 0.140707
2481 4 0.0124434 0.0651464 0.150351
381 4 0.0535513 0.0152225 0.117383
578 4 0.0782019 0.0727159 0.150663
20 3 0.0373999 0.0290753 0.161788
1605 4 0.164127 0.0356705 0.0914902
464 4 0.0804335 0.0570159 0.136646
463 2 0.0984651 0.0442278 0.124962
465 4 0.116497 0.0314398 0.113279
1603 2 0.164356 0.0115745 0.0981617
566 4 0.286391 0.0225853 0.0990507
674 4 0.278656 0.00548071 0.0936247
1475 4 0.267666 0.0235878 0.139881
1474 2 0.270915 0.0258239 0.164571
484 2 0.379471 0.0673479 0.108076
485 4 0.375656 0.0450214 0.118666
1608 4 0.388557 0.0351822 0.107197
1606 2 0.405926 0.0184443 0.113779
577 2 0.0891583 0.095124 0.148927
579 4 0.100115 0.117532 0.147191
237 4 0.113663 0.130514 0.1552
629 4 0.39558 0.0999812 0.0857377
486 4 0.383287 0.0896744 0.0974863
310 2 0.369933 0.111027 0.142397
311 4 0.347988 0.12065 0.135255
312 4 0.391877 0.101404 0.149539
2467 2 0.442312 0.161644 0.0919839
277 2 0.13763 0.229511 0.121816
278 4 0.124953 0.213771 0.107095
737 4 0.157413 0.242305 0.155672
513 4 0.110739 0.221088 0.154888
362 4 0.0952017 0.231761 0.163932
279 4 0.150308 0.245251 0.136537
324 4 0.355002 0.202297 0.0856079
322 2 0.362156 0.226106 0.0829427
254 4 0.362306 0.18581 0.0947439
255 4 0.406217 0.171595 0.113992
253 2 0.384261 0.178702 0.104368
2468 4 0.427913 0.167291 0.11163
526 2 0.480838 0.226759 0.118885
528 4 0.457571 0.218917 0.114162
758 4 0.442157 0.227841 0.12444
757 2 0.433038 0.229506 0.147662
2682 4 0.49532 0.204871 0.168118
298 2 0.0543152 0.335197 0.163787
338 4 0.0868861 0.303615 0.100625
339 4 0.112535 0.288435 0.14078
363 4 0.0965002 0.279476 0.149022
337 2 0.0997103 0.296025 0.120702
361 2 0.0958509 0.255618 0.156477
456 4 0.179146 0.332625 0.105707
754 2 0.262034 0.264488 0.149189
756 4 0.262474 0.256745 0.125419
571 2 0.261898 0.271978 0.0917052
572 4 0.257579 0.252731 0.107071
385 2 0.325036 0.304681 0.144918
386 4 0.307382 0.301616 0.162357
670 2 0.37994 0.291874 0.0921098
671 4 0.390557 0.314431 0.0940145
387 4 0.34269 0.307747 0.127479
741 4 0.362037 0.310448 0.135229
739 2 0.382655 0.31086 0.149367
740 4 0.403274 0.311273 0.163505
609 4 0.378899 0.327984 0.0859417
299 4 0.0686747 0.352742 0.153244
537 4 0.0777699 0.347184 0.13777
704 4 0.0179311 0.37002 0.163358
703 2 0.00962854 0.381832 0.142944
454 2 0.159849 0.338881 0.120325
536 4 0.126455 0.358503 0.136243
455 4 0.140553 0.345136 0.134943
535 2 0.102113 0.352844 0.137007
498 4 0.251802 0.340698 0.166889
622 2 0.432352 0.32769 0.167139
495 4 0.464293 0.387555 0.0895685
107 3 0.467237 0.34095 0.16434
624 4 0.448073 0.343042 0.155208
596 4 0.438568 0.356687 0.142991
595 2 0.446265 0.371214 0.124153
597 4 0.453962 0.385742 0.105314
110 3 0.485755 0.369791 0.149567
2862 4 0.495243 0.379087 0.134529
264 4 0.0460613 0.488263 0.126791
602 4 0.0403626 0.46979 0.12279
601 2 0.0374831 0.454293 0.1422
603 4 0.0346037 0.438796 0.161609
1430 4 0.196876 0.465782 0.165771
64 3 0.298835 0.474929 0.106926
63 3 0.302924 0.497946 0.136891
61 1 0.297991 0.496933 0.114241
1582 2 0.40207 0.484215 0.0972211
1573 2 0.395307 0.4688 0.155669
1584 4 0.405915 0.49157 0.120807
1575 4 0.393236 0.481272 0.134097
1574 4 0.397377 0.456328 0.177241
562 2 0.489152 0.488664 0.087886
1538 4 0.0319848 0.0333765 0.182326
1537 2 0.025536 0.0416648 0.205018
1539 4 0.0190871 0.0499531 0.227709
234 4 0.0269667 0.0127237 0.172785
1404 4 0.171428 0.995652 0.190732
1504 2 0.192008 0.0707375 0.230577
1506 4 0.199628 0.0683265 0.206885
689 4 0.209077 0.0507839 0.202756
688 2 0.199134 0.0285292 0.197184
690 4 0.189192 0.00627452 0.191612
1768 2 0.286012 0.00828252 0.217396
1769 4 0.277601 0.0303158 0.209091
1476 4 0.274164 0.02806 0.189262
235 2 0.130904 0.138921 0.171239
236 4 0.148145 0.147328 0.187277
722 4 0.162097 0.138835 0.197965
721 2 0.184152 0.130287 0.206069
723 4 0.206208 0.121739 0.214172
693 4 0.223479 0.111283 0.209536
691 2 0.243386 0.108084 0.224323
692 4 0.263292 0.104885 0.239111
582 4 0.270092 0.154175 0.234596
27 3 0.279642 0.145351 0.250433
764 4 0.404622 0.0936362 0.163276
763 2 0.421923 0.0982086 0.180739
765 4 0.439223 0.102781 0.198202
521 4 0.441995 0.110181 0.215994
520 2 0.453359 0.132156 0.212371
522 4 0.464722 0.154132 0.208747
511 2 0.111713 0.206405 0.175103
512 4 0.112686 0.191721 0.195317
736 2 0.163327 0.233577 0.178344
738 4 0.169242 0.224849 0.201016
284 4 0.174614 0.208727 0.210481
283 2 0.195442 0.199027 0.220343
285 4 0.21627 0.189327 0.230205
581 4 0.231931 0.18544 0.24278
580 2 0.251012 0.169807 0.238688
25 3 0.408342 0.220974 0.179934
24 3 0.38386 0.192368 0.179837
21 1 0.390455 0.211813 0.190646
22 3 0.37298 0.22677 0.190365
23 3 0.395973 0.207138 0.212694
309 4 0.36805 0.222812 0.20838
307 2 0.353817 0.238059 0.222167
308 4 0.339583 0.253306 0.235955
759 4 0.42392 0.23117 0.170884
761 4 0.481731 0.209122 0.181915
762 4 0.461119 0.173501 0.210323
760 2 0.471425 0.191312 0.196119
300 4 0.0399556 0.317653 0.174331
647 4 0.00311179 0.30568 0.230352
648 4 0.0292822 0.310087 0.187968
646 2 0.016197 0.307883 0.20916
392 4 0.016841 0.301076 0.244724
755 4 0.261594 0.272231 0.172959
497 4 0.2946 0.314853 0.167908
496 2 0.273201 0.327776 0.167398
623 4 0.416631 0.312339 0.179071
749 4 0.00931215 0.415331 0.204135
366 4 0.0058809 0.396877 0.211698
677 4 0.11803 0.415312 0.251952
344 4 0.257775 0.359138 0.173198
345 4 0.267688 0.404828 0.190943
343 2 0.262732 0.381983 0.18207
766 2 0.302411 0.399944 0.225956
767 4 0.312829 0.386755 0.244468
768 4 0.291992 0.413133 0.207444
290 4 0.262139 0.415585 0.206558
303 4 0.320202 0.36731 0.244354
2537 4 0.392352 0.390154 0.235901
106 1 0.480496 0.359159 0.169009
541 2 0.485644 0.408299 0.193753
108 3 0.468835 0.373541 0.182993
12 3 0.45476 0.409366 0.24898
750 4 0.0177742 0.448905 0.168053
748 2 0.0135432 0.432118 0.186094
733 2 0.1439 0.43981 0.242717
735 4 0.125777 0.423642 0.236773
734 4 0.162023 0.455977 0.248662
291 4 0.229097 0.438702 0.236131
1429 2 0.213717 0.48103 0.176215
289 2 0.245618 0.427143 0.221345
1431 4 0.230558 0.496277 0.186659
659 4 0.296427 0.423709 0.191614
658 2 0.29208 0.4483 0.190369
660 4 0.287732 0.472891 0.189124
639 4 0.303847 0.485492 0.19084
645 4 0.415197 0.436383 0.222044
644 4 0.390414 0.4366 0.17861
643 2 0.402805 0.436492 0.200327
15 3 0.458541 0.416579 0.212557
542 4 0.465039 0.422454 0.194254
13 3 0.424807 0.420008 0.228924
11 1 0.447695 0.422706 0.231622
14 3 0.452519 0.444824 0.236715
2755 2 0.0604877 0.0398547 0.28503
2756 4 0.0681358 0.0303399 0.306851
1772 4 0.0545512 0.0181273 0.317557
2757 4 0.0528396 0.0493695 0.263209
1462 2 0.111182 0.00153894 0.252257
1463 4 0.106622 0.0260518 0.25413
732 4 0.115497 0.0423864 0.253941
730 2 0.111412 0.0608153 0.270338
731 4 0.107327 0.0792441 0.286735
1700 4 0.190252 0.0451751 0.282909
1699 2 0.186965 0.0359612 0.305919
1505 4 0.184389 0.0731485 0.254269
1701 4 0.183679 0.0267473 0.32893
474 4 0.252182 0.0536546 0.284932
1830 4 0.269225 0.0443988 0.282263
1828 2 0.284978 0.0255536 0.28694
1829 4 0.300731 0.00670831 0.291616
1496 4 0.317837 0.0119107 0.30092
472 2 0.260469 0.0708853 0.268819
1495 2 0.33479 0.0118691 0.319299
399 4 0.0663184 0.126218 0.322549
318 4 0.0912591 0.0904645 0.287757
317 4 0.113758 0.12979 0.308924
316 2 0.102509 0.110127 0.29834
473 4 0.268756 0.088116 0.252707
29 3 0.280798 0.107968 0.254154
28 3 0.273848 0.130072 0.28428
30 3 0.308093 0.12948 0.268641
26 1 0.285747 0.128165 0.264451
683 4 0.30477 0.129013 0.289059
682 2 0.324538 0.121957 0.302646
377 4 0.288952 0.136915 0.297192
376 2 0.2839 0.156296 0.312159
684 4 0.344306 0.114901 0.316233
351 4 0.47538 0.158071 0.317246
349 2 0.489198 0.140305 0.306356
332 4 0.461568 0.165884 0.306587
686 4 0.189533 0.200209 0.317489
378 4 0.278849 0.175677 0.327127
743 4 0.402156 0.191289 0.293258
744 4 0.392789 0.239205 0.282442
742 2 0.397472 0.215247 0.28785
419 4 0.406547 0.241346 0.312598
333 4 0.416662 0.187887 0.306492
331 2 0.439115 0.176886 0.306539
391 2 0.0236068 0.279589 0.255575
393 4 0.0303726 0.258103 0.266426
389 4 0.0794952 0.278417 0.268724
388 2 0.0987508 0.292278 0.276615
390 4 0.118006 0.306139 0.284505
372 4 0.136145 0.298664 0.290543
370 2 0.158983 0.307909 0.2948
371 4 0.181821 0.317155 0.299056
708 4 0.251713 0.275004 0.317799
612 4 0.328063 0.259742 0.250103
610 2 0.308681 0.271283 0.260888
611 4 0.289298 0.282823 0.271673
706 2 0.272675 0.276664 0.304272
707 4 0.293638 0.278324 0.290745
632 4 0.344632 0.281686 0.313524
633 4 0.388122 0.26356 0.296766
631 2 0.366377 0.272623 0.305145
727 2 0.346041 0.321614 0.316891
418 2 0.419543 0.252667 0.330712
617 4 0.119866 0.372079 0.292193
616 2 0.116255 0.371557 0.316929
678 4 0.111302 0.370427 0.272947
676 2 0.114666 0.392869 0.26245
402 4 0.17132 0.335401 0.302804
510 4 0.223555 0.374559 0.321781
400 2 0.188393 0.350095 0.313657
401 4 0.205466 0.364788 0.32451
508 2 0.248182 0.378775 0.322752
728 4 0.336667 0.335971 0.298693
302 4 0.322061 0.33837 0.285094
301 2 0.321131 0.35284 0.264724
2536 2 0.395944 0.386783 0.260415
2538 4 0.399536 0.383412 0.284928
447 4 0.392076 0.391697 0.301015
445 2 0.390621 0.410155 0.317818
3715 2 0.99971 0.494367 0.324482
3717 4 0.00339598 0.469712 0.326408
2619 4 0.00400712 0.462389 0.289416
1789 2 0.0386399 0.463358 0.27048
1790 4 0.0602704 0.453857 0.262293
1791 4 0.0170093 0.472858 0.278668
1758 4 0.0784463 0.451135 0.267681
1756 2 0.0964852 0.449725 0.284937
1757 4 0.114524 0.448315 0.302194
776 4 0.121658 0.453613 0.319855
416 4 0.222883 0.450406 0.251001
417 4 0.176144 0.465123 0.26098
415 2 0.199514 0.457764 0.25599
1802 4 0.286991 0.487077 0.279184
1801 2 0.286164 0.471753 0.298924
1803 4 0.285337 0.456429 0.318664
593 4 0.297102 0.457046 0.334534
713 4 0.45607 0.481488 0.326505
712 2 0.442829 0.488861 0.306618
714 4 0.429588 0.496233 0.286731
3078 4 0.00632046 0.0671643 0.406347
427 2 0.12061 0.0179493 0.391614
429 4 0.112967 0.0416716 0.389611
719 4 0.120015 0.0573636 0.396514
718 2 0.109342 0.0667653 0.417078
1406 4 0.180121 0.0166472 0.346237
1818 4 0.238206 0.0321684 0.360875
440 4 0.246137 0.0195546 0.346058
1816 2 0.248954 0.0546851 0.359244
1817 4 0.259702 0.0772018 0.357613
1517 4 0.36732 0.0145092 0.349432
1497 4 0.351742 0.0118276 0.337678
1516 2 0.355156 0.0115573 0.371078
1518 4 0.342993 0.00860547 0.392723
699 4 0.34632 0.012704 0.412361
256 2 0.461128 0.0627398 0.401056
257 4 0.477324 0.0456718 0.409515
258 4 0.444932 0.0798077 0.392597
397 2 0.0489642 0.136358 0.337421
398 4 0.0316101 0.146498 0.352294
531 4 0.0413533 0.150925 0.369159
600 4 0.152065 0.162701 0.354391
367 2 0.134917 0.146241 0.388962
369 4 0.137286 0.158908 0.367535
368 4 0.132547 0.133575 0.410389
276 4 0.231341 0.130595 0.400149
274 2 0.212787 0.140746 0.413486
606 4 0.266334 0.092304 0.369208
604 2 0.283373 0.107265 0.379745
605 4 0.300412 0.122225 0.390281
320 4 0.313475 0.126264 0.406115
319 2 0.324725 0.147613 0.41266
725 4 0.338886 0.11112 0.335516
726 4 0.377242 0.124303 0.364768
724 2 0.358064 0.117711 0.350142
425 4 0.393187 0.112036 0.365793
424 2 0.415309 0.103283 0.373486
426 4 0.437431 0.0945295 0.381179
529 2 0.0407403 0.1749 0.376228
2653 2 0.0143814 0.222085 0.395564
530 4 0.0401273 0.198876 0.383297
2655 4 0.0346236 0.208272 0.400525
598 2 0.170884 0.174725 0.343146
599 4 0.189702 0.18675 0.331901
685 2 0.203429 0.217011 0.329727
687 4 0.217325 0.233813 0.341965
404 4 0.223662 0.237065 0.35984
403 2 0.247291 0.245231 0.359432
614 4 0.289665 0.24525 0.355121
613 2 0.305296 0.229563 0.36673
615 4 0.320928 0.213877 0.378339
716 4 0.332531 0.230184 0.385119
715 2 0.357127 0.227688 0.381377
717 4 0.381723 0.225192 0.377635
584 4 0.395357 0.222022 0.393316
583 2 0.408135 0.24082 0.403735
321 4 0.335976 0.168962 0.419204
2850 4 0.0310478 0.307461 0.394547
443 4 0.0588334 0.304998 0.360346
1034 4 0.0675857 0.288626 0.353942
1033 2 0.0699565 0.274236 0.374252
1035 4 0.0723273 0.259847 0.394562
442 2 0.0562614 0.32926 0.354878
249 4 0.0687297 0.269551 0.41192
2848 2 0.0192705 0.326657 0.40541
711 4 0.15873 0.303352 0.412195
709 2 0.169101 0.314244 0.39222
710 4 0.179471 0.325136 0.372245
405 4 0.27092 0.253396 0.359025
729 4 0.355416 0.307258 0.33509
559 2 0.348828 0.283109 0.376724
561 4 0.366403 0.290186 0.393041
336 4 0.352363 0.299228 0.405194
560 4 0.331253 0.276031 0.360408
240 4 0.420712 0.275207 0.402677
420 4 0.43254 0.263988 0.348826
270 4 0.495633 0.281658 0.326322
269 4 0.453144 0.264049 0.345951
268 2 0.474389 0.272853 0.336136
585 4 0.420912 0.259617 0.414155
238 2 0.420014 0.300188 0.401874
444 4 0.0536893 0.353523 0.34941
540 4 0.0271099 0.405469 0.377113
539 4 0.0518794 0.363469 0.366018
538 2 0.0394947 0.384469 0.371565
2849 4 0.00749333 0.345852 0.416274
618 4 0.112645 0.371035 0.341665
681 4 0.10398 0.368752 0.359642
679 2 0.118877 0.376432 0.378196
680 4 0.133774 0.384113 0.396751
407 4 0.194325 0.333645 0.380694
503 4 0.236521 0.37453 0.399293
406 2 0.206566 0.355053 0.384821
408 4 0.218807 0.376461 0.388948
502 2 0.238774 0.397595 0.40868
509 4 0.272808 0.382992 0.323723
751 2 0.375624 0.415755 0.413999
2742 4 0.457159 0.387869 0.364135
2740 2 0.443177 0.408417 0.366868
1309 2 0.0814674 0.496878 0.339373
1310 4 0.0723305 0.488188 0.360964
547 2 0.0420088 0.500547 0.403175
548 4 0.0412214 0.476501 0.409982
501 4 0.0864865 0.492432 0.399445
775 2 0.131768 0.461666 0.341258
777 4 0.141878 0.46972 0.362662
413 4 0.141924 0.481416 0.379212
412 2 0.141489 0.465535 0.398519
414 4 0.141053 0.449655 0.417827
594 4 0.312525 0.491314 0.367527
592 2 0.304813 0.47418 0.35103
5 3 0.285614 0.50928 0.396536
3 3 0.32005 0.497243 0.387212
1 1 0.302963 0.495949 0.402856
668 4 0.329736 0.479875 0.378727
4 3 0.295739 0.473993 0.4049
446 4 0.389166 0.428614 0.334621
753 4 0.368693 0.436164 0.401325
669 4 0.370753 0.458779 0.398047
667 2 0.350244 0.469327 0.388387
120 3 0.385481 0.441275 0.350535
119 3 0.383406 0.444607 0.387982
116 1 0.39757 0.441717 0.369831
117 3 0.412388 0.459296 0.369088
118 3 0.409494 0.421948 0.372157
3990 4 0.463323 0.478771 0.344081
3988 2 0.446994 0.46394 0.355853
3989 4 0.430665 0.449109 0.367625
2741 4 0.429196 0.428965 0.3696
342 4 0.102891 0.0604865 0.449921
720 4 0.0986692 0.076167 0.437642
340 2 0.0987716 0.059931 0.474576
341 4 0.0946518 0.0593755 0.499232
641 4 0.492846 0.0484028 0.420933
470 4 0.00294206 0.151988 0.426466
275 4 0.194232 0.150897 0.426822
857 4 0.185765 0.155604 0.444616
856 2 0.199152 0.150732 0.465164
858 4 0.212539 0.145861 0.485713
1151 4 0.198343 0.0700716 0.481354
1220 4 0.208024 0.163208 0.493906
466 2 0.302942 0.127827 0.496428
468 4 0.302845 0.150262 0.485389
984 4 0.00483962 0.222881 0.491323
469 2 0.0197504 0.168802 0.434208
471 4 0.0365587 0.185617 0.441951
261 4 0.0430466 0.203976 0.43438
259 2 0.0579258 0.219136 0.44757
260 4 0.072805 0.234296 0.46076
348 4 0.0700538 0.235415 0.480617
545 4 0.103781 0.247583 0.446684
544 2 0.11553 0.22743 0.455685
546 4 0.127279 0.207278 0.464686
489 4 0.299292 0.229489 0.457663
410 4 0.317784 0.227243 0.450113
409 2 0.327051 0.206935 0.438849
411 4 0.336319 0.186627 0.427585
346 2 0.0780149 0.254376 0.49484
247 2 0.0876115 0.26872 0.42829
248 4 0.106493 0.267888 0.444659
9 3 0.155598 0.29207 0.427963
326 4 0.146275 0.286387 0.480763
10 3 0.125445 0.274628 0.442254
6 1 0.148197 0.2756 0.442536
8 3 0.155663 0.28011 0.464038
375 4 0.158347 0.297993 0.491311
325 2 0.125072 0.285001 0.493943
7 3 0.156731 0.255328 0.4358
487 2 0.305401 0.253333 0.462055
651 4 0.330382 0.277689 0.457344
488 4 0.311511 0.277178 0.466447
334 2 0.35058 0.318615 0.420883
649 2 0.352992 0.284101 0.465878
650 4 0.375603 0.290514 0.474411
812 4 0.377421 0.305828 0.487793
335 4 0.348797 0.338001 0.436572
928 2 0.436619 0.28115 0.480198
929 4 0.439232 0.304062 0.489863
930 4 0.434006 0.258238 0.470534
239 4 0.419316 0.325169 0.401071
4434 4 0.00856521 0.345111 0.435985
570 4 0.136501 0.384875 0.417602
568 2 0.141965 0.408811 0.422334
772 2 0.318616 0.416698 0.432757
752 4 0.382555 0.395346 0.426672
773 4 0.338981 0.404655 0.42467
880 2 0.416945 0.407039 0.480687
882 4 0.411181 0.382713 0.48025
927 4 0.392154 0.378762 0.423756
587 4 0.354718 0.350651 0.451523
588 4 0.392765 0.373693 0.474375
586 2 0.373742 0.362172 0.462949
925 2 0.407379 0.359661 0.418414
926 4 0.422604 0.340561 0.413073
1937 4 0.00691717 0.465278 0.484208
384 4 0.0198258 0.458241 0.470001
383 4 0.026472 0.477224 0.424216
382 2 0.0231489 0.467733 0.447109
569 4 0.147428 0.432748 0.427065
1435 2 0.165604 0.472395 0.467182
1437 4 0.151249 0.488367 0.479988
504 4 0.241026 0.42066 0.418067
1436 4 0.179959 0.456423 0.454376
774 4 0.29825 0.42874 0.440844
634 2 0.268818 0.449773 0.423475
636 4 0.281395 0.470964 0.419243
635 4 0.25624 0.428581 0.427706
1910 4 0.409433 0.446235 0.477331
661 2 0.480025 0.434086 0.471358
662 4 0.4735 0.444847 0.492963
663 4 0.48655 0.423324 0.449753
881 4 0.422709 0.431365 0.481123
1743 4 0.481617 0.462999 0.495234
1075 2 0.0538424 0.0120097 0.548831
1076 4 0.0499154 0.00905326 0.524316
1077 4 0.0577694 0.0149662 0.573347
2238 4 0.0323467 0.00166271 0.521618
4508 4 0.096636 0.0179323 0.579828
2428 2 0.10472 0.0205382 0.511661
2430 4 0.0934835 0.0410928 0.502919
1152 4 0.226149 0.0777913 0.522194
1646 4 0.234298 0.0625288 0.533587
1645 2 0.246394 0.0408303 0.53642
1150 2 0.212246 0.0739314 0.501774
1647 4 0.258491 0.0191318 0.539253
1180 2 0.315396 0.0478497 0.577437
1032 4 0.310147 0.0797822 0.561867
1181 4 0.324375 0.0247859 0.573887
1182 4 0.306416 0.0709136 0.580987
4466 4 0.412943 0.0330447 0.536196
575 4 0.404175 0.0489687 0.544827
574 2 0.408748 0.0682962 0.529638
962 4 0.335735 0.008923 0.581407
4465 2 0.416916 0.0102295 0.545623
3487 2 0.462427 0.0190725 0.509136
3488 4 0.479718 0.00133397 0.505737
3489 4 0.445136 0.036811 0.512534
90 3 0.468993 0.0147177 0.573897
909 4 0.215776 0.140339 0.571633
1227 4 0.232799 0.150316 0.57496
1030 2 0.314706 0.0866793 0.53827
1031 4 0.319264 0.0935763 0.514673
467 4 0.303039 0.105392 0.507466
576 4 0.413321 0.0876238 0.514449
515 4 0.471515 0.146198 0.552114
305 4 0.470853 0.130337 0.53954
304 2 0.468414 0.109342 0.552898
306 4 0.465975 0.0883472 0.566257
514 2 0.485429 0.160907 0.537443
1272 4 0.995139 0.239737 0.574683
1219 2 0.214735 0.172025 0.516321
1242 4 0.215926 0.198764 0.545958
1240 2 0.210202 0.211345 0.566793
1225 2 0.244067 0.169518 0.563579
1221 4 0.221445 0.180841 0.538736
1241 4 0.204478 0.223926 0.587629
1212 4 0.248674 0.206846 0.548372
1210 2 0.258262 0.222064 0.531004
1211 4 0.26785 0.237282 0.513636
1226 4 0.255334 0.188719 0.552198
265 2 0.357996 0.220529 0.572675
267 4 0.36429 0.235984 0.554055
872 4 0.372745 0.238067 0.536326
516 4 0.499342 0.175616 0.522773
904 2 0.434717 0.247949 0.57718
906 4 0.418002 0.247206 0.558599
327 4 0.103869 0.283616 0.507122
347 4 0.0859759 0.273337 0.509063
790 2 0.208019 0.328519 0.553221
1166 4 0.22788 0.306402 0.570792
1165 2 0.243093 0.287002 0.574962
791 4 0.214479 0.321098 0.576207
373 2 0.175304 0.310464 0.504804
374 4 0.192262 0.322936 0.518298
1167 4 0.258306 0.267602 0.579133
813 4 0.404091 0.320256 0.527558
871 2 0.3926 0.251234 0.543917
873 4 0.412454 0.264401 0.551507
811 2 0.390756 0.313042 0.507675
1238 4 0.408441 0.332632 0.541784
792 4 0.201558 0.33594 0.530235
1191 4 0.259159 0.395275 0.581892
1173 4 0.309858 0.413502 0.58179
1237 2 0.395079 0.348284 0.555984
1239 4 0.381717 0.363937 0.570184
1029 4 0.375816 0.373262 0.586143
1557 4 0.151988 0.500307 0.49748
1171 2 0.300857 0.43494 0.590987
1911 4 0.39515 0.474356 0.516138
891 4 0.405526 0.476146 0.533448
889 2 0.392981 0.480233 0.554687
1909 2 0.402292 0.460295 0.496734
890 4 0.380436 0.48432 0.575926
1741 2 0.479203 0.46708 0.519783
3441 4 0.478179 0.473008 0.564014
1742 4 0.476789 0.471161 0.544333
2319 4 0.00553023 0.0401065 0.600651
2317 2 0.0249936 0.0254773 0.594964
2318 4 0.0444569 0.010848 0.589277
938 4 0.0605565 0.0273461 0.622749
851 4 0.00670828 0.0778973 0.659352
937 2 0.0804856 0.0194894 0.635644
3476 4 0.000424442 0.0508199 0.584759
1892 4 0.119363 0.0196589 0.654197
939 4 0.100415 0.0116328 0.648539
1891 2 0.131242 0.0336535 0.671174
951 4 0.216086 0.00226472 0.62546
1092 4 0.262345 0.0366 0.640561
1090 2 0.263585 0.0461679 0.663628
810 4 0.462317 0.0250312 0.588982
4225 2 0.422463 0.071692 0.644181
4226 4 0.428346 0.0735909 0.619954
4227 4 0.416579 0.0697932 0.668408
809 4 0.433144 0.0532932 0.618152
808 2 0.447731 0.0391622 0.603567
2281 2 0.437194 0.000873652 0.648259
32 3 0.103624 0.166845 0.657089
907 2 0.22024 0.132513 0.594957
908 4 0.224703 0.124686 0.618281
1284 4 0.243466 0.123321 0.622617
1282 2 0.261647 0.137053 0.632915
1283 4 0.279828 0.150785 0.643213
1004 4 0.272577 0.157754 0.659987
900 4 0.401425 0.155443 0.627029
898 2 0.414682 0.147088 0.646513
1270 2 0.0144808 0.246453 0.589034
1155 4 0.0496235 0.21436 0.653519
1154 4 0.0459601 0.237212 0.60919
1153 2 0.0477918 0.225786 0.631354
1271 4 0.0338231 0.253169 0.603385
3387 4 0.0305095 0.207228 0.65188
798 4 0.156964 0.222002 0.643862
796 2 0.140119 0.234332 0.657624
35 3 0.137156 0.176698 0.670181
1277 4 0.174563 0.214728 0.650577
1278 4 0.194423 0.220704 0.605073
1276 2 0.184493 0.217716 0.627825
266 4 0.351702 0.205075 0.591296
887 4 0.394953 0.174283 0.630521
888 4 0.359292 0.18827 0.598374
886 2 0.377123 0.181277 0.614447
905 4 0.451431 0.248691 0.595761
918 4 0.258856 0.269131 0.599485
917 4 0.291951 0.247352 0.63
916 2 0.275404 0.258242 0.614743
805 2 0.352137 0.32191 0.64607
807 4 0.347864 0.325795 0.621743
3122 4 0.49877 0.331932 0.661574
1244 4 0.0145617 0.414932 0.619218
1178 4 0.0204042 0.399495 0.609251
1177 2 0.00911888 0.377393 0.6062
1189 2 0.246469 0.373963 0.585044
1190 4 0.233779 0.352651 0.588197
804 4 0.219921 0.345228 0.598556
803 4 0.210225 0.347511 0.647561
802 2 0.215073 0.346369 0.623058
1027 2 0.366533 0.358654 0.604187
1028 4 0.35725 0.344045 0.622231
3023 4 0.454797 0.405595 0.604254
3022 2 0.473159 0.388626 0.604535
1268 4 0.440239 0.416334 0.612082
3024 4 0.491521 0.371657 0.604816
3123 4 0.498711 0.362132 0.621715
3121 2 0.49874 0.347032 0.641645
1280 4 0.0428431 0.477128 0.587704
896 4 0.0643645 0.429553 0.615368
1243 2 0.0202079 0.439183 0.621498
1245 4 0.0258541 0.463434 0.623778
2171 4 0.0134541 0.471666 0.636166
1279 2 0.0582859 0.493109 0.599163
2170 2 0.00877833 0.495226 0.629222
895 2 0.0819299 0.442857 0.627185
897 4 0.0994953 0.456161 0.639002
2015 4 0.101828 0.450549 0.657602
2014 2 0.11852 0.468495 0.662554
2016 4 0.135211 0.48644 0.667506
2152 2 0.209545 0.492905 0.621413
2154 4 0.22398 0.473207 0.616045
1160 4 0.228954 0.452643 0.618261
1172 4 0.291856 0.456377 0.600183
1161 4 0.27476 0.447965 0.598753
1159 2 0.251857 0.450304 0.608507
1001 4 0.310351 0.483341 0.653757
1230 4 0.32552 0.496023 0.653307
1002 4 0.26531 0.503872 0.646645
1000 2 0.28783 0.493606 0.650201
3439 2 0.478327 0.461961 0.586444
1267 2 0.44773 0.433585 0.628559
1269 4 0.45522 0.450835 0.645036
2307 4 0.484494 0.464952 0.623394
2305 2 0.476679 0.483043 0.638783
3440 4 0.478474 0.450914 0.608875
2306 4 0.468865 0.501134 0.654173
944 4 0.0309589 0.00920349 0.677174
943 2 0.0450675 0.0284341 0.684678
945 4 0.0591762 0.0476648 0.692182
863 4 0.0586966 0.0468939 0.71239
862 2 0.0650464 0.0690474 0.72209
1893 4 0.14312 0.0476481 0.688151
2400 4 0.237576 0.0396231 0.741405
1091 4 0.264825 0.0557358 0.686695
1050 4 0.275888 0.0725141 0.690323
2399 4 0.286787 0.0469179 0.73633
2398 2 0.262181 0.0432705 0.738867
44 3 0.410518 0.0157397 0.675
45 3 0.40437 0.0307545 0.708977
2321 4 0.401721 0.0114648 0.719331
43 3 0.415416 0.0529982 0.680677
980 4 0.417626 0.024385 0.727261
2283 4 0.429364 0.00949913 0.670383
41 1 0.417226 0.0319233 0.690215
1163 4 0.443306 0.0109047 0.685409
42 3 0.439211 0.0281747 0.69585
1193 4 0.421269 0.0836107 0.682645
1162 2 0.460114 0.997176 0.697827
864 4 0.0713961 0.0912008 0.731789
2286 4 0.0759445 0.101984 0.715696
2284 2 0.0893169 0.12152 0.707652
2285 4 0.102689 0.141056 0.699608
34 3 0.117446 0.149738 0.687568
31 1 0.116248 0.169862 0.67608
1048 2 0.281813 0.0873163 0.709583
1022 4 0.280252 0.097262 0.747856
1049 4 0.287738 0.102119 0.728844
1003 2 0.291994 0.159158 0.675677
1005 4 0.311412 0.160562 0.691367
899 4 0.427939 0.138734 0.665997
1192 2 0.423093 0.108519 0.683834
1194 4 0.424917 0.133428 0.685022
3385 2 0.0139573 0.20293 0.670121
797 4 0.123273 0.246661 0.671387
33 3 0.106103 0.185967 0.689351
831 4 0.309874 0.179936 0.693624
978 4 0.36821 0.202567 0.720314
829 2 0.331573 0.185965 0.704487
830 4 0.353271 0.191994 0.71535
976 2 0.385192 0.198927 0.738301
1297 2 0.491371 0.244285 0.718481
1299 4 0.489036 0.233518 0.740927
695 4 0.114192 0.264914 0.67007
694 2 0.125136 0.27931 0.687338
696 4 0.136079 0.293706 0.704605
1259 4 0.157859 0.30725 0.70259
1213 2 0.118819 0.297772 0.738499
1215 4 0.115928 0.290511 0.714748
948 4 0.224509 0.332637 0.729185
1007 4 0.32167 0.296677 0.718154
806 4 0.35641 0.318025 0.670398
1006 2 0.339672 0.30051 0.701231
1008 4 0.357675 0.304343 0.684308
953 4 0.489617 0.273519 0.697611
1298 4 0.493706 0.255053 0.696036
954 4 0.491285 0.312988 0.66695
952 2 0.490451 0.293254 0.68228
4425 4 0.0107865 0.361547 0.73458
4350 4 0.0232612 0.366155 0.748893
1258 2 0.15585 0.331753 0.707143
1208 4 0.153296 0.374666 0.703869
1260 4 0.153842 0.356257 0.711696
1207 2 0.135747 0.391991 0.699741
1209 4 0.118197 0.409316 0.695614
1136 4 0.226447 0.341991 0.656876
946 2 0.205687 0.344983 0.740071
1135 2 0.234445 0.354921 0.676727
1137 4 0.242444 0.36785 0.696577
947 4 0.186866 0.357329 0.750957
1067 4 0.256307 0.367603 0.709821
1066 2 0.273792 0.380509 0.722187
1068 4 0.291276 0.393415 0.734553
1176 4 0.295523 0.411639 0.74085
1206 4 0.33401 0.407734 0.731893
1204 2 0.348762 0.395101 0.74764
992 4 0.0789166 0.432313 0.73536
991 2 0.0927244 0.428867 0.714802
993 4 0.106532 0.425421 0.694244
1121 4 0.189898 0.468795 0.735613
1120 2 0.211135 0.468258 0.722426
1122 4 0.232372 0.467721 0.70924
1236 4 0.238076 0.478842 0.692874
1174 2 0.293803 0.432398 0.727019
1235 4 0.286495 0.467681 0.698509
1175 4 0.292083 0.453156 0.713187
1234 2 0.262286 0.473262 0.695691
1140 4 0.338627 0.425749 0.725881
1228 2 0.340854 0.483686 0.668729
1229 4 0.356187 0.471348 0.684151
1139 4 0.356599 0.451492 0.686958
1138 2 0.347613 0.438621 0.706419
1100 4 0.403676 0.49254 0.746997
1099 2 0.416345 0.47132 0.743201
1101 4 0.429014 0.450101 0.739406
3183 4 0.441252 0.438583 0.729614
3181 2 0.459147 0.426206 0.741931
2276 4 0.99924 0.0437363 0.834668
1149 4 0.225656 0.0479356 0.75516
1147 2 0.207058 0.0487828 0.77185
1148 4 0.18846 0.0496301 0.78854
2047 2 0.200263 0.0735213 0.836275