ITEM: TIMESTEP
5580000
ITEM: NUMBER OF ATOMS
4590
ITEM: BOX BOUNDS pp pp pp
-9.9985700000000008e+00 9.9985700000000008e+00
-9.9985700000000008e+00 9.9985700000000008e+00
-9.9985700000000008e+00 9.9985700000000008e+00
ITEM: ATOMS id type xs ys zs
3753 4 0.0507202 0.0698781 0.0349523
1634 4 0.118943 0.00226585 0.011242
1633 2 0.125849 0.996437 0.0345554
1635 4 0.132755 0.990609 0.0578688
1475 4 0.249212 0.0310006 0.0766826
566 4 0.251765 0.027279 0.0567343
567 4 0.282273 0.0526139 0.0262693
565 2 0.267019 0.0399465 0.0415018
653 4 0.2859 0.0588706 0.00711978
652 2 0.292663 0.0829401 0.00742634
2263 2 0.308167 0.0076921 0.999599
985 2 0.389748 0.0243688 0.0347645
986 4 0.41086 0.0377139 0.0359316
987 4 0.368635 0.0110238 0.0335975
2975 4 0.424154 0.0459853 0.0490636
296 4 0.459631 0.0463638 0.989062
2974 2 0.438217 0.0322215 0.06449
2976 4 0.45228 0.0184577 0.0799164
700 2 0.01726 0.0916145 0.0432337
702 4 0.0335851 0.0727491 0.0448958
701 4 0.000934774 0.11048 0.0415715
2480 4 0.0173519 0.125333 0.0764463
837 4 0.150843 0.0997517 0.0349599
1134 4 0.15777 0.087258 0.0198252
835 2 0.128056 0.109911 0.0333091
554 4 0.107415 0.133545 0.0175208
553 2 0.0915129 0.146729 0.00343249
836 4 0.105269 0.12007 0.0316582
1132 2 0.178916 0.0938125 0.00820301
1133 4 0.200062 0.100367 0.996581
491 4 0.298503 0.115527 0.0280223
490 2 0.286423 0.133882 0.0399524
654 4 0.299427 0.10701 0.0077329
492 4 0.274342 0.152237 0.0518825
1086 4 0.35483 0.0901262 0.0154087
460 2 0.371465 0.0965598 0.0484723
462 4 0.370099 0.0990766 0.0733113
461 4 0.37283 0.094043 0.0236332
2640 4 0.495284 0.157999 0.0220399
771 4 0.488506 0.16674 0.0386151
360 4 0.275552 0.21848 0.0404692
358 2 0.271625 0.194275 0.0453535
359 4 0.267698 0.170069 0.0502377
354 4 0.270575 0.235778 0.0489703
322 2 0.365353 0.221998 0.0399363
254 4 0.348027 0.235327 0.0739929
323 4 0.351149 0.221199 0.0604979
324 4 0.379558 0.222798 0.0193746
519 4 0.396374 0.212617 0.018826
517 2 0.421055 0.209714 0.0160747
518 4 0.445737 0.206811 0.0133235
769 2 0.467635 0.177744 0.0303397
770 4 0.446764 0.188748 0.0220643
2624 4 0.0127758 0.262507 0.0773944
620 4 0.0128028 0.30735 0.00297665
2625 4 0.000993573 0.264892 0.0288537
2523 4 0.00939602 0.27286 0.0130955
2623 2 0.00688467 0.263699 0.053124
456 4 0.153112 0.319625 0.0444583
454 2 0.149285 0.322405 0.0690103
353 4 0.23615 0.259221 0.0212934
483 4 0.199676 0.281143 0.0100651
482 4 0.164603 0.308812 0.0325383
481 2 0.182139 0.294977 0.0213017
352 2 0.253362 0.247499 0.0351318
671 4 0.368114 0.323209 0.0832348
1304 4 0.357953 0.324795 0.0038944
1095 4 0.498528 0.305352 0.0827989
495 4 0.486908 0.307005 0.0165837
597 4 0.48316 0.318576 0.0785503
493 2 0.505263 0.321442 0.0255199
2872 2 0.0118947 0.375181 0.998342
655 2 0.0243399 0.358012 0.0602224
2874 4 0.0214603 0.364312 0.0187269
657 4 0.0281712 0.356225 0.0355788
1169 4 0.0902216 0.336154 0.00322695
496 2 0.299048 0.406704 0.0665503
497 4 0.315084 0.416295 0.0499355
345 4 0.254065 0.341354 0.0638898
343 2 0.259974 0.364437 0.0714696
357 4 0.333653 0.381387 0.0348931
355 2 0.339875 0.36096 0.0218859
1672 2 0.353856 0.398856 0.0618104
356 4 0.346098 0.340533 0.00887864
608 4 0.392228 0.377894 0.0681985
1674 4 0.372422 0.383037 0.0673092
524 4 0.454303 0.373113 0.0278189
523 2 0.439613 0.383262 0.0103151
525 4 0.424923 0.393411 0.992811
552 4 0.0332442 0.433889 0.0464294
550 2 0.0115958 0.444678 0.0400942
1288 2 0.192447 0.419271 0.0148693
252 4 0.230812 0.430612 0.0294726
1289 4 0.214679 0.417396 0.0261553
250 2 0.239613 0.444173 0.0485467
251 4 0.248413 0.457734 0.0676208
1223 4 0.147576 0.49278 0.00662371
793 2 0.255829 0.48842 0.0773502
795 4 0.249978 0.465711 0.0860267
955 2 0.300671 0.44299 0.00166513
957 4 0.319505 0.44268 0.0181076
956 4 0.281836 0.4433 0.985223
1673 4 0.335289 0.414674 0.0563117
17 3 0.0300033 0.0536182 0.124382
381 4 0.0325591 0.0343076 0.117591
379 2 0.0150505 0.0234654 0.103411
16 1 0.0403454 0.0738491 0.127974
18 3 0.0628197 0.0701088 0.13237
464 4 0.082869 0.0748366 0.131432
578 4 0.0894982 0.0897759 0.141948
463 2 0.0998206 0.0566687 0.128648
450 4 0.110176 0.0220856 0.114953
465 4 0.116772 0.0385007 0.125864
1474 2 0.257858 0.0240031 0.0990761
1476 4 0.266503 0.0170055 0.12147
1769 4 0.283438 0.0235087 0.128375
1768 2 0.288264 0.0103422 0.149076
312 4 0.391432 0.0800012 0.134485
630 4 0.459795 0.0229104 0.1366
628 2 0.44579 0.00865668 0.151629
2723 4 0.46737 0.0366359 0.149389
2722 2 0.479919 0.0509832 0.133207
2724 4 0.492467 0.0653305 0.117024
3587 4 0.496653 0.067165 0.0969037
234 4 0.0155924 0.0978817 0.144096
20 3 0.0305741 0.0842188 0.145741
19 3 0.0380652 0.0869232 0.108941
2481 4 0.041409 0.105071 0.115324
2479 2 0.0293804 0.115202 0.095885
577 2 0.0968886 0.101467 0.162778
579 4 0.104279 0.113157 0.183608
722 4 0.17614 0.131936 0.171748
721 2 0.1997 0.124772 0.167416
723 4 0.223261 0.117607 0.163084
2469 4 0.325776 0.143365 0.141689
311 4 0.38381 0.0926988 0.086721
310 2 0.387621 0.08635 0.110603
764 4 0.340723 0.131092 0.147314
763 2 0.358795 0.132532 0.164533
361 2 0.0678952 0.247446 0.137799
362 4 0.0434785 0.245811 0.132668
646 2 0.0129655 0.249536 0.139951
277 2 0.124106 0.255366 0.169926
756 4 0.315161 0.235164 0.160295
572 4 0.322069 0.246118 0.143372
2467 2 0.330038 0.165075 0.130041
253 2 0.34097 0.222299 0.094134
2468 4 0.3343 0.186785 0.118393
23 3 0.359436 0.190888 0.165623
255 4 0.333914 0.209271 0.114275
21 1 0.360728 0.206984 0.14896
24 3 0.347949 0.200525 0.130701
25 3 0.38241 0.209893 0.14263
759 4 0.381932 0.229953 0.146215
309 4 0.368917 0.239572 0.159178
757 2 0.399776 0.242909 0.134427
2651 4 0.497695 0.249299 0.134714
527 4 0.476672 0.245 0.13121
647 4 0.0339156 0.262302 0.135124
363 4 0.0923119 0.24908 0.14293
278 4 0.100768 0.251525 0.161816
535 2 0.122772 0.322615 0.130154
455 4 0.145457 0.325185 0.0935623
536 4 0.133445 0.329314 0.108558
537 4 0.1121 0.315916 0.151751
571 2 0.324382 0.26401 0.126061
573 4 0.326695 0.281902 0.108749
672 4 0.337427 0.284448 0.0907553
670 2 0.352771 0.303828 0.0869951
758 4 0.417619 0.255865 0.12264
526 2 0.454691 0.250596 0.120688
528 4 0.43271 0.256192 0.110166
622 2 0.464455 0.333367 0.151841
623 4 0.448789 0.317211 0.162738
595 2 0.48484 0.330209 0.100619
748 2 0.0560938 0.413762 0.15636
705 4 0.0252433 0.375874 0.093498
703 2 0.0104825 0.39489 0.100258
656 4 0.0205086 0.359799 0.084866
498 4 0.283012 0.397114 0.0831651
344 4 0.265883 0.387519 0.0790495
609 4 0.380117 0.336593 0.0936593
607 2 0.386173 0.357243 0.0809289
624 4 0.48012 0.349523 0.140943
109 3 0.484516 0.368157 0.146954
15 3 0.456731 0.397994 0.150215
596 4 0.48652 0.341842 0.122688
750 4 0.0568624 0.431907 0.139174
704 4 0.995722 0.413906 0.107018
603 4 0.0765603 0.432214 0.138612
601 2 0.0891603 0.450691 0.12743
263 4 0.121721 0.473091 0.115025
602 4 0.10176 0.469168 0.116248
262 2 0.125085 0.49102 0.132127
1430 4 0.271157 0.498799 0.152905
1584 4 0.39902 0.477603 0.149355
1575 4 0.390334 0.458605 0.152114
1582 2 0.39474 0.492279 0.12957
1464 4 0.0546919 0.0465102 0.230415
1462 2 0.0766725 0.0580102 0.227287
689 4 0.0446805 0.0308886 0.222863
688 2 0.0382587 0.0146893 0.240794
1463 4 0.0986531 0.0695103 0.22416
732 4 0.105002 0.0522053 0.216249
730 2 0.121178 0.0377096 0.203865
731 4 0.137355 0.0232139 0.19148
1506 4 0.287731 0.0124456 0.239004
486 4 0.416915 0.983536 0.163872
629 4 0.431784 0.994403 0.166657
235 2 0.142234 0.11962 0.192126
237 4 0.119695 0.10952 0.196018
236 4 0.164773 0.12972 0.188234
693 4 0.229295 0.113723 0.181829
691 2 0.244144 0.115435 0.201872
473 4 0.243686 0.111338 0.234146
692 4 0.258994 0.117147 0.221916
765 4 0.376867 0.133972 0.181752
744 4 0.388513 0.122459 0.193981
742 2 0.397251 0.109763 0.213669
743 4 0.405988 0.0970671 0.233358
333 4 0.422101 0.0999002 0.244705
331 2 0.443255 0.110976 0.252121
279 4 0.147444 0.259206 0.178036
512 4 0.128936 0.244652 0.2424
737 4 0.134418 0.226815 0.232752
754 2 0.303376 0.221597 0.177679
755 4 0.291592 0.208029 0.195064
611 4 0.339409 0.243258 0.243613
22 3 0.352496 0.226841 0.157148
760 2 0.493183 0.219277 0.192766
762 4 0.484832 0.239274 0.205238
522 4 0.478011 0.227466 0.220863
2717 4 0.00215727 0.297438 0.245225
299 4 0.105665 0.318625 0.171408
511 2 0.112894 0.259493 0.230251
300 4 0.0886524 0.291272 0.209659
513 4 0.0968525 0.274334 0.218102
298 2 0.0971584 0.304949 0.190534
307 2 0.362588 0.257986 0.174864
610 2 0.34893 0.259088 0.226762
612 4 0.35845 0.274918 0.209912
308 4 0.356259 0.2764 0.190551
708 4 0.407923 0.305918 0.217312
706 2 0.388607 0.313921 0.231024
707 4 0.369291 0.321924 0.244736
768 4 0.354058 0.312734 0.251226
520 2 0.461547 0.231685 0.239201
741 4 0.426605 0.301344 0.212178
740 4 0.43112 0.325223 0.168473
739 2 0.428863 0.313283 0.190325
521 4 0.445082 0.235905 0.25754
749 4 0.0553252 0.395617 0.173546
364 2 0.0198575 0.404059 0.195907
366 4 0.043271 0.400356 0.187952
365 4 0.996444 0.407762 0.203861
2537 4 0.395538 0.368805 0.22886
2536 2 0.379863 0.380997 0.244052
14 3 0.457782 0.38541 0.185686
386 4 0.411038 0.36362 0.241018
11 1 0.459438 0.404071 0.171996
385 2 0.431564 0.351651 0.233234
387 4 0.45209 0.339681 0.22545
12 3 0.442954 0.419033 0.177792
13 3 0.480114 0.414201 0.174878
417 4 0.155384 0.476503 0.241758
1429 2 0.292921 0.493634 0.164078
1431 4 0.314685 0.488469 0.175251
659 4 0.310097 0.493407 0.193811
658 2 0.322421 0.4801 0.211022
660 4 0.334745 0.466793 0.228233
1573 2 0.388257 0.449672 0.175375
639 4 0.347863 0.461047 0.241991
638 4 0.382166 0.433967 0.217688
637 2 0.365015 0.447507 0.229839
1574 4 0.386181 0.440739 0.198636
1578 4 0.487639 0.49296 0.188628
645 4 0.493882 0.428583 0.175203
644 4 0.481164 0.476815 0.178764
643 2 0.487523 0.452699 0.176983
316 2 0.0490119 0.0361791 0.317781
317 4 0.0358032 0.0572448 0.315146
318 4 0.0622207 0.0151134 0.320417
399 4 0.0413116 0.0756803 0.30836
1406 4 0.164048 0.018557 0.282882
1505 4 0.249681 0.0272216 0.267893
1700 4 0.230049 0.0318932 0.271965
1701 4 0.183555 0.0172518 0.283131
1699 2 0.206802 0.0245725 0.277548
1504 2 0.268706 0.0198336 0.253448
1495 2 0.323497 0.0163608 0.265187
1496 4 0.301914 0.0257769 0.273594
1828 2 0.295347 0.0659151 0.274473
1829 4 0.303582 0.0440807 0.283451
1497 4 0.34508 0.00694471 0.25678
397 2 0.0430387 0.100551 0.306444
398 4 0.0447659 0.125421 0.304529
529 2 0.0337281 0.166969 0.309765
531 4 0.0393848 0.142646 0.311026
1830 4 0.287111 0.0877494 0.265494
472 2 0.256881 0.103278 0.253796
474 4 0.270075 0.0952184 0.273446
27 3 0.276645 0.141124 0.335323
582 4 0.278874 0.156555 0.322944
351 4 0.473266 0.105979 0.266724
332 4 0.46441 0.122052 0.259537
349 2 0.485677 0.0989864 0.287273
392 4 0.00670834 0.23593 0.312434
530 4 0.0280715 0.191291 0.308503
2655 4 0.0416889 0.205043 0.31342
389 4 0.0699912 0.240276 0.282738
2653 2 0.0433885 0.220878 0.332695
736 2 0.153165 0.218741 0.247192
738 4 0.171912 0.210668 0.261633
284 4 0.187369 0.21219 0.271839
283 2 0.207802 0.202124 0.282151
285 4 0.228235 0.192058 0.292464
581 4 0.239063 0.181391 0.305655
580 2 0.258968 0.168973 0.314299
388 2 0.0769438 0.264052 0.286133
390 4 0.0838964 0.287829 0.289527
372 4 0.0924675 0.299623 0.3043
370 2 0.0984963 0.323887 0.303979
767 4 0.309435 0.31209 0.27379
303 4 0.311209 0.325183 0.289026
766 2 0.331747 0.312412 0.262508
632 4 0.446947 0.254152 0.266675
631 2 0.447793 0.278647 0.271623
633 4 0.44864 0.303141 0.276571
419 4 0.463126 0.308665 0.289006
418 2 0.468913 0.314073 0.312722
371 4 0.104525 0.34815 0.303657
402 4 0.103321 0.367041 0.315245
400 2 0.12778 0.371958 0.313589
401 4 0.15224 0.376875 0.311933
678 4 0.0934881 0.417442 0.318496
510 4 0.168282 0.387806 0.306532
508 2 0.182811 0.396308 0.32502
301 2 0.311272 0.339129 0.309779
302 4 0.311335 0.353075 0.330532
2538 4 0.364187 0.393189 0.259245
120 3 0.370111 0.397627 0.321827
447 4 0.343941 0.389835 0.265513
445 2 0.352121 0.39896 0.287307
446 4 0.360302 0.408085 0.309101
2742 4 0.457197 0.377043 0.320789
2740 2 0.44154 0.396423 0.318678
2741 4 0.425884 0.415804 0.316566
776 4 0.0715769 0.482823 0.334521
734 4 0.145248 0.459987 0.250744
676 2 0.0949917 0.429415 0.296597
735 4 0.0968613 0.459361 0.263355
677 4 0.0964953 0.441387 0.274697
733 2 0.121055 0.459674 0.257049
415 2 0.176615 0.480875 0.25422
416 4 0.197846 0.485247 0.266682
291 4 0.214449 0.47563 0.272842
289 2 0.230465 0.456516 0.271019
1801 2 0.31613 0.471929 0.293055
290 4 0.246481 0.437402 0.269196
593 4 0.29462 0.455036 0.30932
592 2 0.279486 0.448175 0.328003
1803 4 0.30579 0.44918 0.293943
1802 4 0.326469 0.494677 0.292168
712 2 0.398328 0.49638 0.274968
713 4 0.41211 0.476957 0.282582
3990 4 0.419157 0.477287 0.301692
3988 2 0.428073 0.455149 0.309147
3989 4 0.436989 0.433011 0.316602
1470 4 0.112582 0.00949864 0.342149
1683 4 0.121585 0.0170185 0.356528
276 4 0.119989 0.08473 0.34853
1443 4 0.10763 0.0457407 0.417939
1682 4 0.116864 0.0337305 0.403423
1681 2 0.119224 0.0253745 0.379976
1817 4 0.229573 0.0504223 0.405821
378 4 0.292865 0.0419659 0.344367
376 2 0.294738 0.0666006 0.348214
1816 2 0.250178 0.0410443 0.395207
1818 4 0.270783 0.0316663 0.384592
440 4 0.273318 0.0117671 0.385996
439 2 0.277821 0.0017124 0.363551
640 2 0.482262 0.0279437 0.394707
257 4 0.447564 0.0472796 0.395165
641 4 0.462041 0.0371924 0.383272
256 2 0.437167 0.0624572 0.378232
258 4 0.42677 0.0776349 0.3613
428 4 0.0760726 0.124902 0.418151
274 2 0.107453 0.10175 0.361885
275 4 0.0949162 0.11877 0.375239
368 4 0.103478 0.136444 0.384789
367 2 0.120443 0.154364 0.380758
26 1 0.274402 0.122308 0.348365
30 3 0.262983 0.10642 0.33671
28 3 0.295524 0.114436 0.353871
377 4 0.296612 0.0912354 0.352061
29 3 0.262754 0.127888 0.367642
683 4 0.30756 0.0994039 0.367962
682 2 0.323745 0.114171 0.380011
320 4 0.316591 0.124902 0.418534
684 4 0.339929 0.128937 0.39206
725 4 0.350798 0.142733 0.40295
724 2 0.374849 0.143518 0.396157
726 4 0.398899 0.144304 0.389364
425 4 0.414305 0.135566 0.39822
426 4 0.428529 0.0944434 0.373577
424 2 0.421417 0.115005 0.385898
2654 4 0.0450881 0.236713 0.351971
2846 4 0.0308887 0.240724 0.366766
2845 2 0.0138493 0.249349 0.382904
369 4 0.137408 0.172283 0.376726
600 4 0.147163 0.176603 0.3591
545 4 0.0969016 0.220362 0.393528
248 4 0.089825 0.23334 0.377827
598 2 0.16548 0.189098 0.370655
599 4 0.183797 0.201594 0.382211
686 4 0.200724 0.201911 0.394286
685 2 0.199202 0.211768 0.417214
403 2 0.251157 0.243391 0.409603
405 4 0.263302 0.238871 0.38822
2694 4 0.00162883 0.336098 0.341077
1035 4 0.057999 0.290784 0.37438
1033 2 0.052371 0.296041 0.398168
247 2 0.078194 0.254392 0.370992
249 4 0.066563 0.275443 0.364156
615 4 0.232248 0.284496 0.343294
613 2 0.242334 0.268273 0.359427
406 2 0.188471 0.331947 0.41756
614 4 0.252421 0.252051 0.37556
717 4 0.400387 0.267558 0.401864
584 4 0.419994 0.264774 0.40098
715 2 0.37747 0.274647 0.408914
420 4 0.474701 0.319482 0.336438
585 4 0.450288 0.280148 0.364283
583 2 0.435141 0.272461 0.382631
2692 2 0.0221611 0.349016 0.335017
616 2 0.065102 0.398217 0.334754
618 4 0.0482703 0.379736 0.335347
2693 4 0.0426933 0.361935 0.328957
617 4 0.0819338 0.416697 0.33416
408 4 0.188954 0.351806 0.402376
503 4 0.209855 0.3521 0.401002
502 2 0.229708 0.365002 0.392968
509 4 0.19734 0.40481 0.343508
728 4 0.299429 0.359646 0.345472
727 2 0.282693 0.370878 0.360268
729 4 0.265956 0.38211 0.375064
504 4 0.249562 0.377905 0.384933
774 4 0.303515 0.401957 0.414277
667 2 0.342102 0.407571 0.387784
119 3 0.3902 0.397257 0.35367
751 2 0.387209 0.373572 0.381747
753 4 0.376939 0.392005 0.368332
752 4 0.397478 0.35514 0.395161
669 4 0.362125 0.405738 0.372922
927 4 0.415133 0.358658 0.401192
116 1 0.372951 0.407604 0.342102
117 3 0.353559 0.405605 0.354312
269 4 0.476844 0.339593 0.33606
268 2 0.479617 0.343972 0.36052
270 4 0.482391 0.34835 0.38498
3717 4 0.00913084 0.479791 0.356105
775 2 0.0941255 0.485096 0.345084
777 4 0.116674 0.487369 0.355647
1320 4 0.134378 0.478449 0.355836
681 4 0.139509 0.420905 0.424181
635 4 0.20331 0.417999 0.357107
634 2 0.22626 0.42352 0.348862
438 4 0.23833 0.509526 0.4122
436 2 0.253531 0.490416 0.417582
435 4 0.314012 0.493178 0.382048
668 4 0.322078 0.409404 0.402645
594 4 0.264352 0.441313 0.346686
636 4 0.24921 0.429042 0.340618
2 3 0.303944 0.423151 0.408869
5 3 0.268924 0.433109 0.400666
433 2 0.310232 0.48218 0.404183
1 1 0.283332 0.428362 0.417652
437 4 0.268731 0.471307 0.422963
118 3 0.377726 0.43013 0.339242
2238 4 0.0554147 0.0124471 0.429854
1442 4 0.0605091 0.0299282 0.42344
719 4 0.0624424 0.0693069 0.444699
718 2 0.0595969 0.0640956 0.468987
1441 2 0.0840697 0.0378345 0.42069
429 4 0.0588374 0.0790395 0.428166
720 4 0.0567514 0.0588842 0.493276
606 4 0.223642 0.0675027 0.415757
604 2 0.227398 0.0775976 0.438321
576 4 0.401888 0.0537976 0.458843
574 2 0.406983 0.0389981 0.478341
575 4 0.412078 0.0241986 0.49784
3489 4 0.422323 0.00389037 0.458642
3487 2 0.443706 0.996149 0.469036
427 2 0.067455 0.101971 0.423159
471 4 0.0287209 0.180037 0.456506
468 4 0.22996 0.107278 0.463011
605 4 0.231155 0.0876925 0.460886
466 2 0.235783 0.128822 0.474286
467 4 0.241605 0.150366 0.485562
319 2 0.316389 0.148085 0.427898
321 4 0.316187 0.171268 0.437262
469 2 0.021324 0.194647 0.43761
261 4 0.0624896 0.204532 0.4463
259 2 0.0615043 0.214009 0.469417
546 4 0.0723012 0.219049 0.437046
260 4 0.060519 0.223486 0.492533
348 4 0.0673802 0.241969 0.488101
544 2 0.0846014 0.219706 0.415287
7 3 0.166855 0.225578 0.478261
687 4 0.197679 0.221625 0.440142
488 4 0.206157 0.226407 0.456754
487 2 0.227877 0.2177 0.465563
9 3 0.199671 0.240574 0.467731
6 1 0.177672 0.236839 0.461369
10 3 0.177099 0.224253 0.442397
489 4 0.249597 0.208992 0.474371
411 4 0.297536 0.17698 0.443156
410 4 0.262661 0.209474 0.458276
409 2 0.280098 0.193227 0.450716
1010 4 0.467544 0.255107 0.49168
1024 2 0.492369 0.181527 0.500956
2850 4 0.0496962 0.30974 0.440543
2848 2 0.0321196 0.322943 0.452456
1034 4 0.0467429 0.301298 0.421956
2849 4 0.0145429 0.336146 0.464369
326 4 0.152786 0.266753 0.482307
375 4 0.169033 0.271336 0.471432
404 4 0.239011 0.247912 0.430986
711 4 0.221985 0.252291 0.423561
407 4 0.187988 0.312088 0.432745
710 4 0.199719 0.296608 0.42996
8 3 0.166922 0.257083 0.457766
373 2 0.185883 0.287253 0.480807
709 2 0.210852 0.274449 0.426761
559 2 0.240149 0.305342 0.479132
560 4 0.223379 0.305784 0.497672
374 4 0.202733 0.303171 0.490182
561 4 0.25692 0.3049 0.460593
336 4 0.273146 0.30766 0.44853
650 4 0.308235 0.297394 0.458471
812 4 0.312196 0.306381 0.475432
649 2 0.3241 0.295988 0.439196
811 2 0.308801 0.325801 0.490811
716 4 0.354552 0.281737 0.415965
651 4 0.339964 0.294582 0.419921
239 4 0.401056 0.319564 0.457555
1009 2 0.450633 0.261876 0.474552
1011 4 0.433721 0.268645 0.457424
238 2 0.409712 0.296709 0.452274
240 4 0.418367 0.273854 0.446992
4434 4 0.00123501 0.350056 0.468671
444 4 0.0600823 0.368251 0.453863
538 2 0.0424094 0.407486 0.443133
539 4 0.054897 0.387399 0.451242
442 2 0.0840813 0.366759 0.447007
443 4 0.10808 0.365267 0.440151
680 4 0.107981 0.382464 0.429561
679 2 0.123745 0.401684 0.426871
334 2 0.279686 0.327958 0.435475
773 4 0.305768 0.354139 0.428738
772 2 0.304641 0.378048 0.421507
335 4 0.286226 0.348255 0.42242
1238 4 0.316697 0.361952 0.503103
925 2 0.412119 0.345619 0.422314
926 4 0.409105 0.332581 0.443435
540 4 0.0299218 0.427573 0.435024
2813 4 0.0117961 0.429139 0.425167
2812 2 0.989273 0.439452 0.428565
568 2 0.161232 0.446441 0.425775
570 4 0.154744 0.426177 0.412643
569 4 0.167721 0.466705 0.438906
412 2 0.19956 0.494261 0.424669
414 4 0.17818 0.481578 0.42735
1401 4 0.327063 0.478063 0.480855
3 3 0.275542 0.410191 0.429797
434 4 0.306452 0.471182 0.426317
4 3 0.285546 0.446814 0.431545
1399 2 0.319641 0.467399 0.459493
1400 4 0.312218 0.456735 0.43813
1587 4 0.315298 0.494739 0.483001
1910 4 0.412809 0.465616 0.473132
882 4 0.423103 0.479103 0.461202
880 2 0.445699 0.471982 0.453207
881 4 0.468295 0.464862 0.445212
663 4 0.475545 0.446058 0.443021
340 2 0.0567289 0.0344939 0.526012
342 4 0.0541537 0.0414311 0.502129
341 4 0.0593041 0.0275567 0.549896
2430 4 0.049056 0.0187844 0.56366
857 4 0.14446 0.0450867 0.507513
1151 4 0.146479 0.0255868 0.515932
856 2 0.12708 0.0609897 0.515893
1150 2 0.157875 0.0109645 0.53271
1645 2 0.196071 0.0154883 0.573385
1646 4 0.18451 0.00823758 0.552433
1647 4 0.207632 0.022739 0.594336
1152 4 0.169271 0.996342 0.549488
1182 4 0.258978 0.0601863 0.538841
1032 4 0.273022 0.074474 0.536832
1180 2 0.269171 0.0395323 0.548572
1181 4 0.279364 0.0188783 0.558303
962 4 0.286899 0.0102797 0.575444
4466 4 0.423697 0.0359575 0.50886
4465 2 0.421052 0.0172779 0.525269
4467 4 0.418407 0.998598 0.541678
86 1 0.455193 0.998356 0.571047
90 3 0.455609 0.0203348 0.576997
89 3 0.433967 0.992544 0.563695
858 4 0.1097 0.0768927 0.524272
1219 2 0.119131 0.119419 0.527822
1220 4 0.108387 0.0968605 0.5269
1221 4 0.129876 0.141977 0.528744
1212 4 0.143086 0.157234 0.532591
1225 2 0.243585 0.150058 0.559236
1226 4 0.251139 0.126649 0.563725
1031 4 0.26822 0.116959 0.562768
1030 2 0.270621 0.0957164 0.5498
514 2 0.455052 0.147159 0.546063
305 4 0.438723 0.116454 0.573492
515 4 0.440503 0.133348 0.560987
516 4 0.469601 0.160971 0.531138
1210 2 0.148685 0.179333 0.54286
1211 4 0.154284 0.201432 0.553129
1227 4 0.236032 0.173466 0.554747
909 4 0.248295 0.188584 0.555351
907 2 0.262701 0.204392 0.568303
908 4 0.277108 0.220199 0.581255
888 4 0.402305 0.234874 0.577624
266 4 0.408784 0.235909 0.557814
1026 4 0.484391 0.168068 0.52046
1272 4 0.000170282 0.261439 0.530855
346 2 0.0821746 0.258459 0.499693
1270 2 0.998514 0.259592 0.555735
1271 4 0.996858 0.257745 0.580615
327 4 0.116401 0.273617 0.515919
347 4 0.096969 0.274949 0.511286
325 2 0.134593 0.270185 0.499113
1242 4 0.141571 0.263925 0.581053
791 4 0.267812 0.336862 0.578788
1191 4 0.27 0.317254 0.579208
1189 2 0.259014 0.296353 0.587433
265 2 0.417272 0.2592 0.561087
872 4 0.438163 0.276528 0.580565
267 4 0.425759 0.28249 0.56436
871 2 0.462307 0.278135 0.586865
1178 4 0.0302388 0.386308 0.544318
1177 2 0.00779033 0.385221 0.533361
897 4 0.124423 0.368228 0.568035
1166 4 0.142144 0.362363 0.574617
1165 2 0.165543 0.356434 0.568097
1167 4 0.188942 0.350504 0.561577
792 4 0.302666 0.359658 0.551107
790 2 0.285239 0.34826 0.564948
813 4 0.305406 0.345222 0.506189
1237 2 0.322106 0.369182 0.526419
1027 2 0.338671 0.36039 0.577418
1239 4 0.327515 0.376412 0.549735
1029 4 0.345741 0.372948 0.556985
1436 4 0.131216 0.487629 0.520058
1911 4 0.416082 0.452348 0.521235
1909 2 0.414446 0.458982 0.497184
1268 4 0.426527 0.452131 0.538018
1267 2 0.425734 0.459228 0.561981
34 3 0.08699 0.0756294 0.634089
2284 2 0.0824715 0.051189 0.667172
1082 4 0.0102101 0.995761 0.62065
2285 4 0.0813499 0.0594811 0.64361
1891 2 0.131481 0.0107797 0.651403
1892 4 0.122523 0.0128927 0.628156
950 4 0.206968 0.00338034 0.600824
949 2 0.221395 0.00296178 0.621241
951 4 0.235822 0.00254323 0.641658
1092 4 0.2312 0.0206444 0.646918
1090 2 0.248935 0.030043 0.661829
4225 2 0.384085 0.0778331 0.636047
4227 4 0.364982 0.0937556 0.638639
4226 4 0.403188 0.0619106 0.633454
809 4 0.418786 0.0576345 0.620472
810 4 0.450835 0.0359422 0.588802
808 2 0.43481 0.0467884 0.604637
2283 4 0.453423 0.015509 0.640372
2281 2 0.459338 0.994439 0.628278
33 3 0.0682331 0.0879155 0.603403
35 3 0.0603056 0.101983 0.637416
852 4 0.0435861 0.11284 0.636372
850 2 0.0246728 0.115992 0.620324
31 1 0.0769128 0.093964 0.624054
944 4 0.0436898 0.11853 0.65509
851 4 0.00575949 0.119143 0.604276
32 3 0.0927326 0.110374 0.620955
1193 4 0.354595 0.098535 0.653873
899 4 0.358416 0.147971 0.626201
1194 4 0.345995 0.146532 0.642781
1192 2 0.350295 0.122534 0.648327
898 2 0.377054 0.163998 0.621624
304 2 0.423589 0.108676 0.591813
306 4 0.408455 0.100898 0.610133
2990 4 0.994912 0.206891 0.66406
3385 2 0.0171642 0.23738 0.664956
798 4 0.172453 0.17623 0.646385
1241 4 0.182915 0.244114 0.601027
1278 4 0.189322 0.228224 0.61133
1276 2 0.187991 0.208455 0.626582
1277 4 0.186661 0.188687 0.641834
1284 4 0.290814 0.219032 0.595627
1283 4 0.303422 0.197074 0.63875
1282 2 0.297118 0.208053 0.617188
1004 4 0.305406 0.210956 0.652895
886 2 0.399509 0.217315 0.595204
900 4 0.395692 0.180024 0.617046
887 4 0.396714 0.199757 0.612784
3387 4 0.0243615 0.259702 0.65629
1155 4 0.0220469 0.253214 0.637227
1154 4 0.0126446 0.265334 0.58963
1153 2 0.0173458 0.259274 0.613428
1240 2 0.162243 0.25402 0.59104
1190 4 0.248029 0.275452 0.595658
804 4 0.262922 0.322822 0.641563
802 2 0.255823 0.314312 0.663977
806 4 0.280832 0.331517 0.639264
873 4 0.48645 0.279741 0.593165
1139 4 0.490648 0.305218 0.661316
993 4 0.0731238 0.399493 0.674072
2015 4 0.0687553 0.417892 0.665047
895 2 0.117606 0.384469 0.585781
896 4 0.110788 0.400711 0.603527
918 4 0.205104 0.347917 0.575725
916 2 0.217477 0.346833 0.597426
1136 4 0.23075 0.352088 0.638577
917 4 0.229849 0.345749 0.619127
1135 2 0.226361 0.368021 0.657341
805 2 0.30042 0.334105 0.62394
807 4 0.320007 0.336693 0.608616
1172 4 0.284675 0.406782 0.630076
1171 2 0.306738 0.414962 0.621621
1161 4 0.272687 0.414135 0.64495
1028 4 0.331601 0.347832 0.597851
1173 4 0.328801 0.423142 0.613166
2016 4 0.0607075 0.467195 0.662781
2014 2 0.0647314 0.442543 0.663914
1279 2 0.0492207 0.488038 0.622189
1280 4 0.0262314 0.489239 0.61243
1281 4 0.0722101 0.486838 0.631947
3432 4 0.0741209 0.47673 0.67223
1160 4 0.233518 0.443034 0.656413
2152 2 0.223617 0.473229 0.66096
2154 4 0.229515 0.457287 0.642623
1159 2 0.253103 0.428585 0.650681
890 4 0.341112 0.421779 0.597912
889 2 0.350368 0.44499 0.598778
1001 4 0.357227 0.470104 0.618022
891 4 0.359624 0.468201 0.599643
1000 2 0.37 0.486193 0.632276
1269 4 0.424941 0.466324 0.585943
2286 4 0.0835931 0.042897 0.690734
862 2 0.0707114 0.0494276 0.728034
864 4 0.0809072 0.0552414 0.705956
1893 4 0.140439 0.00866675 0.674651
2399 4 0.126774 0.0109817 0.689006
2398 2 0.141015 0.0143533 0.70928
2400 4 0.155256 0.0177248 0.729553
1149 4 0.168015 0.00880434 0.743419
1147 2 0.185594 0.0257701 0.748741
1091 4 0.26667 0.0394415 0.676739
1050 4 0.264434 0.0381568 0.699517
1048 2 0.257064 0.0600613 0.70906
42 3 0.311262 0.025131 0.665851
43 3 0.282698 0.0323177 0.689198
45 3 0.312186 0.0556524 0.68731
41 1 0.30568 0.0338469 0.686395
44 3 0.316503 0.0216558 0.702907
2321 4 0.325754 0.0209808 0.723257
979 2 0.355571 0.0377063 0.742885
980 4 0.345091 0.0166405 0.734424
1111 2 0.397822 0.0705489 0.737176
3402 4 0.488886 0.0381233 0.740987
1164 4 0.485279 0.031279 0.722698
1162 2 0.501399 0.014292 0.713936
943 2 0.0349048 0.135051 0.671676
945 4 0.0261198 0.151572 0.688261
1023 4 0.263215 0.145851 0.70395
1022 4 0.255636 0.0996864 0.721616
1021 2 0.259426 0.122769 0.712783
1049 4 0.249695 0.0819658 0.718602
1256 4 0.26633 0.158636 0.718244
1113 4 0.413355 0.0897165 0.733112
3386 4 0.00996682 0.215058 0.673622
833 4 0.0467836 0.226478 0.749761
3245 4 0.0280939 0.220575 0.748492
832 2 0.061217 0.246138 0.755269
796 2 0.158544 0.175699 0.667156
797 4 0.144634 0.175168 0.687927
695 4 0.137099 0.192848 0.682227
694 2 0.129987 0.213588 0.694246
696 4 0.122875 0.234328 0.706265
1003 2 0.308992 0.203306 0.676428
1255 2 0.271074 0.17988 0.730546
1005 4 0.312577 0.195655 0.699961
1257 4 0.275818 0.201124 0.742848
831 4 0.318497 0.200948 0.717026
829 2 0.327553 0.203146 0.740228
1131 4 0.290802 0.206099 0.755437
953 4 0.46314 0.233912 0.727925
952 2 0.45717 0.219955 0.708057
954 4 0.451199 0.205998 0.68819
1106 4 0.03603 0.283866 0.722339
1105 2 0.0445223 0.307183 0.7254
1107 4 0.0530147 0.330501 0.72846
1214 4 0.0699703 0.327963 0.739447
834 4 0.0756503 0.265798 0.760776
1258 2 0.133354 0.276245 0.716141
1259 4 0.133107 0.252852 0.707316
1260 4 0.133601 0.299638 0.724967
1208 4 0.124087 0.315666 0.718078
803 4 0.248724 0.305801 0.68639
1008 4 0.276671 0.30085 0.72955
1006 2 0.287918 0.322604 0.724506
1298 4 0.456928 0.25405 0.727622
1138 2 0.477671 0.325487 0.668094
1213 2 0.0744939 0.35247 0.741483
991 2 0.0860254 0.380254 0.683485
992 4 0.0989269 0.361015 0.692897
1209 4 0.119143 0.359365 0.694272
1207 2 0.121615 0.337515 0.706175
821 4 0.086831 0.39489 0.746371
1137 4 0.221972 0.383954 0.676104
948 4 0.206347 0.392794 0.685609
946 2 0.2056 0.408838 0.704772
947 4 0.204852 0.424882 0.723934
1007 4 0.299165 0.344358 0.719463
1067 4 0.298376 0.357022 0.735037
1066 2 0.282553 0.373569 0.745088
1068 4 0.26673 0.390115 0.755139
1019 4 0.411436 0.395668 0.731508
1101 4 0.392025 0.397217 0.725881
1099 2 0.385602 0.408979 0.74699
1140 4 0.464694 0.345756 0.674873
1018 2 0.430033 0.378959 0.731135
1020 4 0.44863 0.36225 0.730762
788 4 0.468871 0.364456 0.732451
1206 4 0.475486 0.362645 0.670331
3430 2 0.0679279 0.490599 0.692091
2174 4 0.0758658 0.472712 0.762791
990 4 0.034879 0.51248 0.76389
3431 4 0.061735 0.504468 0.711953
2153 4 0.217719 0.48917 0.679297
1176 4 0.278013 0.405126 0.759109
1230 4 0.257852 0.440569 0.723977
1229 4 0.301612 0.443271 0.699926
1228 2 0.279732 0.44192 0.711952
2987 4 0.388749 0.491254 0.744135
2986 2 0.411891 0.499169 0.749327
1251 4 0.4779 0.443231 0.730031
3182 4 0.474231 0.433496 0.747511
912 4 0.0593047 0.0229468 0.753262
863 4 0.0605156 0.0436139 0.750111
1203 4 0.0756133 0.0151341 0.836264
1196 4 0.199219 0.0052075 0.796023
1148 4 0.203172 0.0427358 0.754063
1895 4 0.196192 0.0237665 0.805348
2047 2 0.245342 0.0708493 0.833035
1894 2 0.205049 0.0340724 0.826337
981 4 0.36605 0.0587722 0.751346
1112 4 0.382289 0.0513813 0.741239
3253 2 0.507349 0.0319278 0.817415
3254 4 0.511517 0.0324646 0.792767
3400 2 0.490263 0.0359551 0.765858
3401 4 0.491639 0.0337868 0.790729
3391 2 0.992883 0.137181 0.773189
3393 4 0.000476526 0.123101 0.792405
3392 4 0.98529 0.151261 0.753972
1185 4 0.989517 0.117413 0.808488
2049 4 0.257473 0.0908578 0.824221
840 4 0.259004 0.100871 0.80658
838 2 0.264903 0.122148 0.818314
839 4 0.270801 0.143424 0.830048
959 4 0.280352 0.15738 0.841759
3244 2 0.00771482 0.206989 0.75352
1291 2 0.223691 0.202206 0.822858
1292 4 0.213442 0.211077 0.801847
1265 4 0.213115 0.231215 0.800472
1129 2 0.274763 0.221279 0.767162
1130 4 0.258723 0.236459 0.778886
830 4 0.336609 0.205344 0.76343
978 4 0.335347 0.218784 0.778876
976 2 0.349637 0.210594 0.797689
1146 4 0.378551 0.208255 0.828048