ITEM: TIMESTEP
2870000
ITEM: NUMBER OF ATOMS
4590
ITEM: BOX BOUNDS pp pp pp
-9.9985700000000008e+00 9.9985700000000008e+00
-9.9985700000000008e+00 9.9985700000000008e+00
-9.9985700000000008e+00 9.9985700000000008e+00
ITEM: ATOMS id type xs ys zs
3752 4 0.0651135 0.0072143 0.0786923
3751 2 0.0474476 0.994446 0.0664424
465 4 0.0762165 0.0237482 0.0807882
379 2 0.00799193 0.0602582 0.0652539
422 4 0.202811 0.0248575 0.0131574
421 2 0.181305 0.0338514 0.00411439
1634 4 0.220274 0.033122 0.019281
1633 2 0.22694 0.0121751 0.031196
565 2 0.26116 0.0146865 0.0879745
654 4 0.285557 0.0683575 0.0536635
491 4 0.27819 0.0731445 0.0353919
652 2 0.307752 0.0577841 0.0582177
567 4 0.273649 0.0201741 0.0670202
653 4 0.329948 0.0472107 0.0627719
486 4 0.341299 0.0511748 0.0785939
484 2 0.365407 0.0447364 0.0801854
1608 4 0.389795 0.0206535 0.0713437
485 4 0.389515 0.038298 0.0817769
987 4 0.383351 0.0692567 0.0037304
985 2 0.394528 0.0650327 0.0256942
986 4 0.405705 0.0608088 0.0476579
745 2 0.450275 0.0211475 0.0444589
746 4 0.472261 0.0215734 0.0563596
297 4 0.468318 0.0175499 0.0744489
747 4 0.428289 0.0207216 0.0325582
2976 4 0.457466 0.0638996 0.0680115
2974 2 0.471478 0.0805185 0.055656
630 4 0.460027 0.0748646 0.08468
837 4 0.124527 0.134185 0.998859
358 2 0.246459 0.156227 0.0399834
360 4 0.228084 0.152924 0.0233519
354 4 0.210273 0.161029 0.0164175
492 4 0.244777 0.109993 0.030252
490 2 0.261484 0.0915689 0.0328219
359 4 0.264835 0.159529 0.0566149
770 4 0.417572 0.146704 0.051209
769 2 0.425885 0.141511 0.0282068
771 4 0.434198 0.136317 0.00520463
1013 4 0.453435 0.129704 0.00894749
2469 4 0.420124 0.13464 0.0659826
2975 4 0.485489 0.0971374 0.0433005
2624 4 0.993982 0.162673 0.0610907
460 2 0.299432 0.180328 0.0511962
461 4 0.321949 0.184551 0.0411799
462 4 0.276915 0.176105 0.0612125
558 4 0.332579 0.200012 0.0483292
556 2 0.354304 0.190766 0.0565584
557 4 0.376029 0.181519 0.0647876
518 4 0.391827 0.188238 0.0540742
517 2 0.409714 0.205243 0.0500693
519 4 0.427601 0.222249 0.0460645
1095 4 0.428109 0.238573 0.0579573
475 2 0.103306 0.283124 0.071946
476 4 0.114211 0.284455 0.0494853
482 4 0.154656 0.28667 0.0724226
1169 4 0.128704 0.328265 0.0158095
293 4 0.10763 0.328341 0.0117124
1168 2 0.14695 0.33946 0.00288989
483 4 0.190334 0.289238 0.0374766
481 2 0.172495 0.287954 0.0549496
287 4 0.191465 0.285873 0.0176939
573 4 0.278796 0.255269 0.0856731
357 4 0.293122 0.255004 0.0712484
355 2 0.3011 0.270542 0.0533574
356 4 0.309079 0.28608 0.0354664
1304 4 0.296942 0.292021 0.0203695
1303 2 0.309207 0.303018 0.00155944
607 2 0.357068 0.331605 0.0576427
609 4 0.370593 0.314498 0.0698729
671 4 0.372265 0.293901 0.066264
38 3 0.369072 0.323545 0.00112489
1093 2 0.430844 0.258649 0.0433072
1094 4 0.433579 0.278726 0.0286571
620 4 0.046432 0.342948 0.0289767
619 2 0.0301038 0.346591 0.0475589
294 4 0.0652411 0.345159 0.0322309
621 4 0.0137756 0.350234 0.0661412
552 4 0.0225976 0.380843 0.025855
657 4 0.0247941 0.351476 0.0827965
292 2 0.0864356 0.33675 0.0219717
536 4 0.1107 0.350707 0.0900071
1289 4 0.181731 0.41687 0.000524185
608 4 0.343543 0.348713 0.0454126
957 4 0.324859 0.355037 0.0449807
956 4 0.32085 0.388072 0.00765262
955 2 0.322854 0.371554 0.0263166
282 4 0.482092 0.353532 0.0146457
280 2 0.477018 0.337232 0.996377
854 4 0.477229 0.373277 0.00836225
251 4 0.155298 0.460292 0.0371073
795 4 0.138311 0.467958 0.0308588
793 2 0.121901 0.47973 0.0161175
252 4 0.187559 0.429184 0.0149226
250 2 0.171429 0.444738 0.026015
63 3 0.303719 0.48107 0.0456952
61 1 0.307752 0.495759 0.0281912
64 3 0.308543 0.484139 0.00812228
463 2 0.0818325 0.046778 0.0887423
464 4 0.0874485 0.0698078 0.0966964
578 4 0.0916165 0.0881821 0.110703
566 4 0.24867 0.00919885 0.108929
674 4 0.248587 0.0192339 0.126194
311 4 0.421725 0.0656272 0.124662
310 2 0.409901 0.0734855 0.145244
295 2 0.48416 0.0139126 0.0934482
629 4 0.42356 0.0840819 0.117633
296 4 0.500002 0.0102752 0.112447
628 2 0.441793 0.0794733 0.101157
17 3 0.0367914 0.0885019 0.0860776
381 4 0.027032 0.0748054 0.0723977
20 3 0.043636 0.083799 0.122463
16 1 0.0511176 0.0936269 0.10333
19 3 0.0517261 0.11667 0.105981
18 3 0.0722879 0.0856921 0.0981091
2481 4 0.0391633 0.128623 0.116575
2479 2 0.0165077 0.130045 0.127057
577 2 0.107084 0.0979966 0.12772
579 4 0.122552 0.107811 0.144738
237 4 0.132968 0.114208 0.160714
235 2 0.156026 0.105265 0.164397
255 4 0.399461 0.163124 0.119354
2468 4 0.412114 0.166319 0.103838
2467 2 0.416119 0.15048 0.0849102
363 4 0.108961 0.219862 0.152535
339 4 0.102482 0.226476 0.134894
279 4 0.16842 0.225428 0.1425
737 4 0.170722 0.214434 0.158797
754 2 0.264788 0.242295 0.171948
277 2 0.17441 0.235434 0.120382
278 4 0.180401 0.24544 0.0982649
756 4 0.265866 0.242655 0.14697
571 2 0.26759 0.248814 0.107072
572 4 0.256383 0.242358 0.128471
253 2 0.38406 0.182806 0.11858
254 4 0.36866 0.202489 0.117806
322 2 0.376409 0.243579 0.119377
324 4 0.379126 0.219035 0.115452
2650 2 0.487856 0.233733 0.108761
2651 4 0.470649 0.222544 0.123041
527 4 0.471131 0.202667 0.122807
526 2 0.462409 0.199994 0.146087
528 4 0.453687 0.197321 0.169367
338 4 0.0941424 0.26323 0.102026
300 4 0.0480798 0.331758 0.171312
454 2 0.139248 0.321487 0.0887063
477 4 0.0924007 0.281794 0.0944067
337 2 0.0983122 0.244853 0.11846
456 4 0.154419 0.304034 0.0791976
323 4 0.373692 0.268123 0.123302
672 4 0.379661 0.285554 0.115012
670 2 0.375963 0.289728 0.0906379
739 2 0.402157 0.318854 0.147764
740 4 0.418607 0.30119 0.141237
624 4 0.477875 0.314616 0.145839
622 2 0.45587 0.306444 0.137227
623 4 0.433864 0.298272 0.128615
596 4 0.469634 0.333914 0.155052
298 2 0.0547307 0.339356 0.148438
705 4 0.00359887 0.330226 0.142705
656 4 0.00695198 0.328349 0.123386
655 2 0.015873 0.339912 0.103091
537 4 0.0665388 0.337039 0.109078
299 4 0.0613815 0.346954 0.125565
455 4 0.124078 0.33894 0.0982151
535 2 0.0886194 0.343873 0.0995425
344 4 0.267373 0.371376 0.157496
496 2 0.294129 0.358387 0.139708
498 4 0.27527 0.374804 0.139694
497 4 0.312988 0.34197 0.139723
741 4 0.385708 0.336517 0.15429
387 4 0.369419 0.333037 0.143357
385 2 0.347139 0.344298 0.144758
386 4 0.324859 0.355559 0.146159
495 4 0.465239 0.384964 0.132334
595 2 0.467687 0.358809 0.153777
597 4 0.46574 0.383704 0.152502
493 2 0.476726 0.400123 0.116103
494 4 0.488214 0.415281 0.0998724
602 4 0.0896187 0.489641 0.18055
1439 4 0.255175 0.51732 0.126938
1438 2 0.240702 0.515991 0.106592
1582 2 0.397377 0.496346 0.0865637
1573 2 0.401387 0.462463 0.135545
1584 4 0.398603 0.478124 0.10364
1575 4 0.413025 0.473746 0.116508
1568 4 0.494798 0.48652 0.11984
232 2 0.994105 0.0437415 0.180998
234 4 0.0142531 0.0318338 0.172197
1538 4 0.0332436 0.0389831 0.173664
1537 2 0.045043 0.0169391 0.173787
1462 2 0.125599 0.00468841 0.225302
1463 4 0.126238 0.0226906 0.242642
1505 4 0.244654 0.0553668 0.194633
1504 2 0.226301 0.038696 0.197862
1506 4 0.207948 0.0220253 0.201091
689 4 0.197957 0.0111599 0.187218
312 4 0.398077 0.0813437 0.165826
764 4 0.410905 0.0913287 0.179179
236 4 0.179083 0.0963219 0.168079
722 4 0.185413 0.11258 0.177268
721 2 0.206536 0.110994 0.190552
723 4 0.22766 0.109409 0.203835
693 4 0.241478 0.11975 0.213292
691 2 0.261059 0.109882 0.225308
692 4 0.28064 0.100014 0.237325
582 4 0.289063 0.169752 0.24384
742 2 0.408805 0.150527 0.236937
743 4 0.420942 0.129339 0.231558
763 2 0.428106 0.107376 0.187653
765 4 0.445306 0.123423 0.196128
521 4 0.452164 0.135881 0.210799
520 2 0.464494 0.156886 0.205146
361 2 0.119098 0.230676 0.172672
393 4 0.0840737 0.238633 0.230751
362 4 0.129234 0.24149 0.192809
389 4 0.126215 0.241016 0.212045
755 4 0.263709 0.241936 0.196925
736 2 0.179763 0.204485 0.179879
738 4 0.188804 0.194535 0.200961
284 4 0.200421 0.203247 0.216752
283 2 0.224604 0.209218 0.218921
285 4 0.248787 0.215189 0.221089
581 4 0.256652 0.197264 0.217509
580 2 0.272858 0.183508 0.230674
759 4 0.397946 0.194488 0.186907
25 3 0.386856 0.204203 0.200255
24 3 0.374176 0.222978 0.230329
757 2 0.420151 0.187333 0.177911
21 1 0.391034 0.209356 0.222042
22 3 0.411053 0.220599 0.223463
744 4 0.396668 0.171715 0.242316
23 3 0.392432 0.189925 0.234646
758 4 0.442356 0.180178 0.168915
522 4 0.476825 0.17789 0.199492
762 4 0.487901 0.194042 0.20474
760 2 0.495465 0.217873 0.204533
392 4 0.0453642 0.27024 0.228948
391 2 0.0647189 0.254437 0.22985
648 4 0.0470257 0.312216 0.173437
646 2 0.0457468 0.295553 0.192035
647 4 0.0444679 0.278889 0.210632
388 2 0.124373 0.258743 0.229582
390 4 0.122531 0.27647 0.247118
372 4 0.131107 0.294312 0.250597
370 2 0.142437 0.314387 0.260283
307 2 0.315003 0.292471 0.219548
309 4 0.308545 0.301919 0.197318
109 3 0.501305 0.291584 0.179852
106 1 0.504468 0.314318 0.176454
107 3 0.48626 0.322762 0.165215
108 3 0.506386 0.325187 0.196865
749 4 0.0311194 0.393811 0.200883
366 4 0.0388161 0.388294 0.218816
364 2 0.0320491 0.364261 0.220156
365 4 0.0252821 0.340228 0.221495
2717 4 0.0114025 0.32907 0.22982
734 4 0.160523 0.411015 0.234421
343 2 0.251231 0.389921 0.162049
417 4 0.170602 0.397484 0.247768
415 2 0.194473 0.396862 0.240354
416 4 0.218344 0.39624 0.23294
291 4 0.237122 0.404549 0.234911
289 2 0.261003 0.401102 0.228352
768 4 0.29835 0.391126 0.235191
290 4 0.284883 0.397656 0.221793
543 4 0.499946 0.342672 0.203395
12 3 0.419346 0.38621 0.240762
541 2 0.479757 0.356956 0.207073
11 1 0.437813 0.388292 0.227205
15 3 0.441924 0.368346 0.217014
542 4 0.459567 0.37124 0.210751
13 3 0.433608 0.404613 0.211257
14 3 0.456016 0.394436 0.240217
748 2 0.0377883 0.417535 0.196658
750 4 0.0444572 0.44126 0.192433
603 4 0.0504157 0.458828 0.184342
601 2 0.0700172 0.474234 0.182446
2794 2 0.999599 0.499101 0.19564
733 2 0.138291 0.42093 0.24013
735 4 0.116058 0.430844 0.24584
345 4 0.23509 0.408466 0.166601
1861 2 0.241114 0.499244 0.216676
658 2 0.316191 0.4949 0.191962
659 4 0.320622 0.482072 0.170962
1863 4 0.258615 0.489093 0.231367
1574 4 0.389749 0.45118 0.154582
644 4 0.388957 0.440398 0.172894
643 2 0.406527 0.429332 0.186822
645 4 0.424097 0.418266 0.200751
318 4 0.0766004 0.0731277 0.260128
732 4 0.117637 0.0237369 0.26053
731 4 0.0955399 0.068382 0.264917
730 2 0.106589 0.0460594 0.262724
1701 4 0.201038 0.0145781 0.341542
1699 2 0.214972 0.035067 0.338194
1700 4 0.228907 0.0555559 0.334846
1830 4 0.242743 0.0707525 0.34025
474 4 0.277566 0.0568877 0.286288
1828 2 0.264639 0.0679465 0.328509
472 2 0.278835 0.0773458 0.271968
1829 4 0.286536 0.0651405 0.316768
316 2 0.0798417 0.0972926 0.265671
317 4 0.0830831 0.121457 0.271215
399 4 0.0941176 0.131144 0.284568
397 2 0.0944914 0.133224 0.309482
398 4 0.0948652 0.135303 0.334396
473 4 0.280103 0.0978039 0.257649
29 3 0.285264 0.117217 0.257956
28 3 0.276974 0.144371 0.283221
30 3 0.312554 0.132966 0.278568
26 1 0.292741 0.136753 0.267997
377 4 0.289256 0.149004 0.298652
683 4 0.308422 0.145053 0.295085
682 2 0.324183 0.135898 0.312201
27 3 0.295754 0.152774 0.251767
684 4 0.339943 0.126743 0.329318
333 4 0.423387 0.112235 0.245817
331 2 0.444211 0.113639 0.259586
351 4 0.474037 0.131022 0.279651
332 4 0.465034 0.115043 0.273355
350 4 0.487741 0.109077 0.322445
349 2 0.480889 0.120049 0.301048
513 4 0.0953867 0.234278 0.246658
512 4 0.0908437 0.222545 0.295057
511 2 0.0931152 0.228412 0.270857
405 4 0.224868 0.243782 0.330815
376 2 0.282718 0.170758 0.309102
378 4 0.27618 0.192512 0.319551
614 4 0.294169 0.193906 0.328062
632 4 0.392064 0.1788 0.26098
631 2 0.407632 0.189497 0.277362
633 4 0.423201 0.200193 0.293744
419 4 0.428038 0.187567 0.308967
418 2 0.449542 0.199272 0.31404
269 4 0.473674 0.228909 0.327521
420 4 0.471046 0.210978 0.319114
268 2 0.483856 0.251326 0.331882
371 4 0.153766 0.334461 0.269969
509 4 0.254122 0.321101 0.301162
708 4 0.243036 0.253262 0.32988
308 4 0.321462 0.283023 0.241779
706 2 0.264952 0.250903 0.318079
707 4 0.286869 0.248543 0.306277
612 4 0.309618 0.277204 0.257789
611 4 0.281672 0.266075 0.297737
610 2 0.295645 0.271639 0.277763
728 4 0.308451 0.294232 0.319788
302 4 0.307894 0.305238 0.302036
727 2 0.330205 0.282476 0.3235
559 2 0.375688 0.332382 0.321532
729 4 0.351958 0.27072 0.327213
270 4 0.494037 0.273742 0.336244
444 4 0.0621649 0.348782 0.328465
616 2 0.0696912 0.369489 0.291134
618 4 0.0606432 0.361586 0.313062
617 4 0.0787392 0.377393 0.269206
678 4 0.0808311 0.398019 0.274977
402 4 0.156435 0.34282 0.289442
676 2 0.0888597 0.417596 0.261656
400 2 0.179592 0.351362 0.293437
401 4 0.202749 0.359904 0.297432
510 4 0.209529 0.343089 0.306525
508 2 0.231826 0.332095 0.303843
301 2 0.30749 0.32995 0.298251
766 2 0.302979 0.378733 0.256408
303 4 0.307085 0.354662 0.294466
767 4 0.307609 0.366339 0.277624
560 4 0.384079 0.347936 0.303845
2537 4 0.382699 0.362558 0.288267
2536 2 0.391982 0.384893 0.2946
2538 4 0.401266 0.407229 0.300932
2619 4 0.00556075 0.454285 0.278678
1789 2 0.0386099 0.445716 0.302904
1790 4 0.0513007 0.436615 0.322431
1791 4 0.0259191 0.454816 0.283377
677 4 0.0968883 0.437173 0.248335
229 2 0.288289 0.490232 0.262367
230 4 0.308865 0.487369 0.276281
1802 4 0.311018 0.491543 0.29631
1801 2 0.308817 0.474852 0.314797
231 4 0.267713 0.493094 0.248452
1803 4 0.306615 0.458162 0.333283
447 4 0.397192 0.425744 0.301938
445 2 0.396871 0.437659 0.323917
2756 4 0.0221172 0.0300454 0.34342
1772 4 0.0224386 0.0197692 0.361497
3077 4 0.041602 0.0319183 0.398293
428 4 0.093881 0.00823324 0.359042
3076 2 0.0212345 0.040019 0.410323
427 2 0.103565 0.00576781 0.381961
429 4 0.113249 0.00330237 0.404881
719 4 0.125176 0.013694 0.415699
368 4 0.161688 0.0820913 0.362375
1782 4 0.196955 0.0105202 0.420303
1496 4 0.296507 0.0623719 0.333139
1495 2 0.320663 0.0606098 0.339351
439 2 0.300459 0.0164301 0.3649
440 4 0.297509 0.0384839 0.376307
1816 2 0.290502 0.0509644 0.41086
1818 4 0.293849 0.0316792 0.395303
1497 4 0.344818 0.0588477 0.345563
1516 2 0.358749 0.0396728 0.379182
1518 4 0.371167 0.0230186 0.393096
1517 4 0.346332 0.0563271 0.365268
699 4 0.375515 0.017724 0.412472
531 4 0.0985492 0.146755 0.349514
529 2 0.0831425 0.160911 0.363204
600 4 0.187579 0.141833 0.340763
598 2 0.18356 0.157546 0.359792
369 4 0.185791 0.122992 0.346663
367 2 0.17374 0.102542 0.354519
725 4 0.348302 0.111757 0.33844
726 4 0.395355 0.100134 0.350754
724 2 0.371828 0.105946 0.344597
425 4 0.403814 0.112954 0.363605
424 2 0.425938 0.102991 0.369645
453 4 0.507487 0.106871 0.321202
256 2 0.476969 0.0994671 0.404315
426 4 0.448061 0.093028 0.375685
258 4 0.454931 0.100328 0.392536
2846 4 0.0218297 0.237578 0.394702
2654 4 0.023319 0.224314 0.377359
2653 2 0.0379076 0.204448 0.381563
2655 4 0.0524962 0.184581 0.385767
530 4 0.0677358 0.175066 0.376895
247 2 0.088486 0.232329 0.409633
599 4 0.179541 0.173258 0.378822
686 4 0.180462 0.185998 0.395244
687 4 0.207577 0.228012 0.394683
685 2 0.194019 0.207005 0.394963
404 4 0.216267 0.225906 0.376719
403 2 0.220567 0.234844 0.353767
613 2 0.304799 0.209878 0.344095
615 4 0.315429 0.225851 0.360129
716 4 0.332252 0.236601 0.358822
715 2 0.349975 0.240887 0.375931
443 4 0.0696607 0.299554 0.32387
1034 4 0.068706 0.28936 0.341357
1033 2 0.078799 0.273405 0.357751
2849 4 0.000823012 0.306774 0.378818
1035 4 0.0888919 0.25745 0.374145
442 2 0.0659128 0.324168 0.326168
249 4 0.0852662 0.250632 0.392905
711 4 0.136844 0.33191 0.414666
561 4 0.367297 0.316828 0.339219
717 4 0.367697 0.245172 0.39304
584 4 0.385844 0.248228 0.386452
583 2 0.408421 0.258807 0.384575
336 4 0.355121 0.322001 0.35387
334 2 0.338065 0.332182 0.369055
585 4 0.430999 0.269386 0.382698
240 4 0.442451 0.275759 0.398439
238 2 0.446616 0.29986 0.403632
540 4 0.021927 0.39598 0.400404
2813 4 0.00694774 0.409247 0.405219
538 2 0.0430318 0.400325 0.413088
776 4 0.113021 0.412531 0.337332
775 2 0.137995 0.413139 0.336281
709 2 0.153713 0.332595 0.396223
777 4 0.162969 0.413747 0.33523
413 4 0.17769 0.415903 0.348457
710 4 0.170583 0.333281 0.37778
407 4 0.176785 0.351296 0.381806
503 4 0.236925 0.367394 0.389444
406 2 0.199315 0.361889 0.379497
408 4 0.221845 0.372483 0.377189
502 2 0.247525 0.375207 0.410699
335 4 0.321008 0.342363 0.38424
587 4 0.334463 0.353644 0.396195
239 4 0.450781 0.323961 0.408826
926 4 0.443688 0.341865 0.413847
501 4 0.0653596 0.484444 0.385872
1758 4 0.0497954 0.441704 0.342053
1756 2 0.0718305 0.429969 0.343436
549 4 0.0486032 0.483824 0.375906
1757 4 0.0938656 0.418233 0.344818
499 2 0.0893881 0.481495 0.379618
500 4 0.113417 0.478546 0.373364
1395 4 0.121304 0.483031 0.39139
1393 2 0.138177 0.499309 0.400081
569 4 0.166677 0.431373 0.404079
412 2 0.181366 0.422796 0.372209
414 4 0.185041 0.429689 0.395961
5 3 0.281029 0.483866 0.407956
1 1 0.294951 0.468211 0.416887
3 3 0.305315 0.456236 0.399928
594 4 0.31578 0.44047 0.394048
592 2 0.318823 0.445511 0.369748
593 4 0.321865 0.450552 0.345448
434 4 0.281826 0.502302 0.414201
2 3 0.31107 0.478716 0.429495
668 4 0.332016 0.442617 0.405082
446 4 0.39655 0.449575 0.345897
120 3 0.392186 0.448176 0.366045
119 3 0.398044 0.45883 0.40168
116 1 0.407295 0.457268 0.380458
667 2 0.349822 0.456692 0.415571
1471 2 0.49413 0.482769 0.399672
117 3 0.412918 0.478368 0.373225
3988 2 0.441457 0.487348 0.348463
2742 4 0.482185 0.429145 0.369885
2740 2 0.461491 0.443062 0.371684
118 3 0.426462 0.444207 0.381114
3989 4 0.430058 0.47182 0.364405
2741 4 0.440797 0.45698 0.373483
2238 4 0.022437 0.0305481 0.451551
1127 4 0.00806444 0.0436561 0.44232
3078 4 0.000867084 0.0481196 0.422353
2236 2 0.0178368 0.0083367 0.462071
720 4 0.127649 0.0118389 0.465611
718 2 0.126412 0.0127665 0.440655
342 4 0.112371 0.00405663 0.475052
276 4 0.160308 0.074541 0.441197
340 2 0.124468 0.0109248 0.495829
1646 4 0.220313 0.0196488 0.496596
1152 4 0.218702 0.0372164 0.485433
1150 2 0.232308 0.0381596 0.464477
1151 4 0.245913 0.0391029 0.443521
1817 4 0.287154 0.0702497 0.426418
697 2 0.368107 0.00108485 0.429602
3487 2 0.495385 0.0577199 0.477163
3488 4 0.47948 0.0411124 0.486981
3008 4 0.475822 0.0428272 0.507251
546 4 0.0747167 0.15566 0.425303
274 2 0.163266 0.090469 0.460243
275 4 0.166223 0.106397 0.479288
857 4 0.183433 0.114614 0.473264
856 2 0.190768 0.138167 0.477342
858 4 0.198104 0.16172 0.481419
1220 4 0.207028 0.179902 0.481075
320 4 0.270183 0.150369 0.425767
606 4 0.277016 0.0846062 0.419965
604 2 0.26973 0.107897 0.425409
605 4 0.262444 0.131188 0.430853
319 2 0.289908 0.165735 0.425569
467 4 0.337225 0.108139 0.505655
257 4 0.499008 0.0986067 0.416094
2845 2 0.0226167 0.245469 0.418415
469 2 0.0024428 0.178901 0.454169
471 4 0.00999321 0.169751 0.476179
261 4 0.0196154 0.186321 0.482098
259 2 0.0376656 0.188791 0.499223
983 4 0.0133071 0.243751 0.455768
2847 4 0.0234038 0.25336 0.442128
248 4 0.0917059 0.214026 0.42636
544 2 0.0879168 0.176539 0.429177
545 4 0.101117 0.197418 0.433051
347 4 0.105495 0.231192 0.487604
411 4 0.319889 0.196041 0.41818
321 4 0.309632 0.1811 0.42537
409 2 0.310999 0.217749 0.426835
410 4 0.302108 0.239457 0.435489
327 4 0.101149 0.25186 0.484602
326 4 0.120938 0.29439 0.467272
10 3 0.11066 0.304759 0.453963
325 2 0.111044 0.273125 0.475937
375 4 0.141648 0.297693 0.46944
7 3 0.144002 0.317085 0.465332
6 1 0.127029 0.320115 0.450104
374 4 0.185654 0.289603 0.491773
373 2 0.163651 0.293648 0.480606
792 4 0.204743 0.290042 0.487527
790 2 0.216963 0.30736 0.500792
489 4 0.298969 0.253736 0.449896
487 2 0.307947 0.260484 0.472235
488 4 0.316926 0.267231 0.494574
539 4 0.0641367 0.404671 0.425772
681 4 0.0805045 0.401813 0.43569
4434 4 0.00201677 0.345671 0.457323
679 2 0.0960061 0.42143 0.43544
9 3 0.135572 0.317372 0.428705
8 3 0.118504 0.341557 0.452541
504 4 0.258125 0.38302 0.431954
635 4 0.270156 0.394569 0.443675
773 4 0.351888 0.372732 0.457725
586 2 0.337026 0.362056 0.419601
588 4 0.339589 0.370467 0.443008
772 2 0.344289 0.353954 0.472382
774 4 0.336691 0.335176 0.487039
663 4 0.499613 0.391807 0.424066
661 2 0.492202 0.409011 0.440627
752 4 0.417201 0.39995 0.434833
927 4 0.433762 0.387923 0.430607
925 2 0.438725 0.364894 0.422227
382 2 0.0252115 0.483259 0.468285
383 4 0.0399426 0.495828 0.452468
384 4 0.0104805 0.470689 0.484102
1394 4 0.15505 0.515586 0.408772
568 2 0.148875 0.434797 0.4213
570 4 0.131073 0.438221 0.43852
680 4 0.111508 0.441047 0.43519
4 3 0.282941 0.453811 0.430554
634 2 0.277206 0.418512 0.44516
636 4 0.284257 0.442454 0.446646
881 4 0.386983 0.458297 0.492018
882 4 0.373956 0.466905 0.444511
880 2 0.38047 0.462601 0.468264
669 4 0.367627 0.470768 0.42606
753 4 0.40276 0.442651 0.41318
662 4 0.484791 0.426215 0.457188
1743 4 0.478714 0.444609 0.457776
1742 4 0.454791 0.485236 0.474444
1741 2 0.466753 0.464923 0.46611
751 2 0.409981 0.421301 0.424006
1077 4 0.0445978 0.017999 0.538595
1075 2 0.0574043 0.0393874 0.536669
1076 4 0.0702108 0.0607758 0.534743
4508 4 0.0530946 2.5371e-05 0.542911
2428 2 0.121572 0.0419244 0.549427
2430 4 0.13484 0.0289091 0.532701
341 4 0.136564 0.0177931 0.516606
2429 4 0.108304 0.0549396 0.566152
1645 2 0.220252 0.998028 0.509155
1181 4 0.328658 0.00318519 0.562431
1180 2 0.338344 0.0247851 0.554382
1182 4 0.348031 0.046385 0.546332
1032 4 0.354501 0.065839 0.546241
575 4 0.410689 0.0612155 0.520769
1030 2 0.350142 0.0783139 0.525015
4466 4 0.428854 0.054387 0.519289
4465 2 0.432765 0.0322252 0.530186
4467 4 0.436676 0.0100634 0.541083
90 3 0.455238 0.00736412 0.547845
3007 2 0.483883 0.0209896 0.516379
810 4 0.440675 0.0673433 0.572396
1218 4 0.420364 0.998889 0.545388
1227 4 0.19958 0.16334 0.582482
909 4 0.204451 0.152397 0.565546
908 4 0.238879 0.118735 0.579046
907 2 0.221665 0.135566 0.572296
466 2 0.320372 0.126529 0.503941
468 4 0.303518 0.144919 0.502226
1284 4 0.246975 0.131699 0.592062
1031 4 0.345783 0.0907888 0.503789
574 2 0.404405 0.0853663 0.522327
576 4 0.398121 0.109517 0.523885
306 4 0.41358 0.12105 0.52112
304 2 0.430379 0.131479 0.536423
305 4 0.447179 0.141908 0.551726
515 4 0.465176 0.134455 0.544689
514 2 0.482878 0.15131 0.549954
1270 2 0.0204281 0.224169 0.572844
1272 4 0.0048157 0.206879 0.563761
348 4 0.0722357 0.203495 0.512653
260 4 0.0557158 0.19126 0.516348
346 2 0.0888652 0.217344 0.500129
1219 2 0.221014 0.188955 0.49972
1221 4 0.235001 0.198007 0.518364
1212 4 0.254092 0.200157 0.511287
1210 2 0.267991 0.195951 0.531641
1211 4 0.281889 0.191745 0.551996
265 2 0.370592 0.233281 0.552312
888 4 0.389099 0.199572 0.563596
266 4 0.373594 0.210532 0.562243
886 2 0.410423 0.194417 0.575591
905 4 0.462247 0.245426 0.563434
1010 4 0.476882 0.23978 0.57328
516 4 0.50058 0.168165 0.555219
791 4 0.229183 0.324677 0.514058
1191 4 0.221885 0.331368 0.530676
651 4 0.304669 0.263593 0.509139
649 2 0.309774 0.284789 0.521379
650 4 0.31488 0.305985 0.53362
812 4 0.3323 0.314729 0.533443
267 4 0.367591 0.256031 0.54238
811 2 0.356819 0.316132 0.528751
871 2 0.403493 0.294924 0.546022
872 4 0.3812 0.30192 0.537121
813 4 0.381338 0.317536 0.524059
906 4 0.444952 0.289958 0.548653
904 2 0.453599 0.267692 0.556044
873 4 0.425787 0.287928 0.554924
1189 2 0.219268 0.347156 0.549887
1190 4 0.21665 0.362944 0.569099
804 4 0.208189 0.361601 0.587399
1173 4 0.303021 0.432897 0.533303
1171 2 0.298554 0.430521 0.557789
930 4 0.427011 0.361629 0.523636
928 2 0.403798 0.355368 0.516771
929 4 0.380585 0.349107 0.509907
1238 4 0.429269 0.359088 0.54391
1237 2 0.424012 0.362235 0.568151
1937 4 0.0113034 0.472475 0.504273
896 4 0.148355 0.467438 0.540356
895 2 0.140086 0.476968 0.561943
897 4 0.131817 0.486497 0.58353
891 4 0.356247 0.457798 0.561864
1911 4 0.349736 0.468243 0.547129
1909 2 0.362611 0.460568 0.527116
1910 4 0.375486 0.452894 0.507103
2307 4 0.469765 0.474675 0.583791
1082 4 0.00145338 0.0367314 0.667614
3476 4 0.0106578 0.047753 0.585061
1892 4 0.0859938 0.000306218 0.636668
1893 4 0.122215 0.0236813 0.662013
1891 2 0.104104 0.0119937 0.64934
1091 4 0.318041 0.0346982 0.659065
1090 2 0.307306 0.0247114 0.638812
1050 4 0.324655 0.0478034 0.672199
1092 4 0.29657 0.0147247 0.618559
43 3 0.415621 0.046092 0.657848
4227 4 0.396339 0.0514336 0.657518
4225 2 0.401244 0.0704086 0.641991
44 3 0.430449 0.0154876 0.640879
2283 4 0.450751 0.0174245 0.640907
1163 4 0.4605 0.0230099 0.658543
41 1 0.426369 0.0258119 0.661255
808 2 0.425877 0.0721074 0.591978
42 3 0.446454 0.0297141 0.671767
2281 2 0.454479 0.00534909 0.619333
937 2 0.110263 0.0930493 0.657048
939 4 0.124605 0.0859281 0.637844
1282 2 0.265675 0.137415 0.607645
1283 4 0.284374 0.143132 0.623228
1004 4 0.296324 0.158785 0.626839
1003 2 0.308925 0.164813 0.647577
4226 4 0.406149 0.0893835 0.626465
809 4 0.411078 0.0768715 0.611561
899 4 0.418139 0.165363 0.649963
898 2 0.426687 0.174883 0.628481
1271 4 0.0360404 0.241459 0.581926
1153 2 0.045864 0.254971 0.62203
1154 4 0.0437407 0.248998 0.597843
1226 4 0.204953 0.210807 0.597273
1225 2 0.202266 0.187074 0.589877
1276 2 0.198808 0.240659 0.583675
1278 4 0.194552 0.216073 0.582061
900 4 0.435235 0.184403 0.606999
887 4 0.431747 0.189262 0.587587
1009 2 0.484395 0.23813 0.597071
1155 4 0.0479872 0.260943 0.646217
1259 4 0.094862 0.318711 0.648968
694 2 0.124211 0.313387 0.621083
695 4 0.14618 0.307213 0.610863
797 4 0.150628 0.303367 0.590984
696 4 0.102243 0.31956 0.631303
1277 4 0.203064 0.265245 0.585288
798 4 0.195996 0.282381 0.589549
796 2 0.173312 0.292874 0.590266
918 4 0.257005 0.29184 0.633325
1165 2 0.297924 0.286203 0.624057
1166 4 0.319344 0.276197 0.615919
1167 4 0.276503 0.296208 0.632194
1258 2 0.0909698 0.335731 0.666866
803 4 0.229866 0.381261 0.627948
1136 4 0.218708 0.382411 0.64489
802 2 0.219028 0.371431 0.607674
1135 2 0.235276 0.382988 0.663607
1028 4 0.364002 0.342729 0.627255
1027 2 0.385815 0.349496 0.617077
807 4 0.353309 0.356841 0.635481
805 2 0.336429 0.349578 0.652437
1029 4 0.407628 0.356263 0.6069
1001 4 0.37614 0.423739 0.659033
1239 4 0.418755 0.365381 0.592392
1268 4 0.497667 0.409577 0.648578
1243 2 0.00115744 0.421003 0.640725
1245 4 0.00566148 0.440773 0.626095
2172 4 0.00307571 0.494083 0.61819
2170 2 0.0138761 0.471915 0.62233
2171 4 0.0246765 0.449748 0.62647
2153 4 0.225273 0.491853 0.650674
2152 2 0.247289 0.486608 0.640046
1172 4 0.294086 0.428145 0.582275
2154 4 0.269305 0.481363 0.629418
1161 4 0.300933 0.434571 0.599301
1159 2 0.285982 0.447701 0.614441
1160 4 0.271032 0.460832 0.629582
889 2 0.361786 0.45135 0.585378
1002 4 0.37225 0.424333 0.609181
890 4 0.367325 0.444902 0.608893
1000 2 0.374195 0.424036 0.634107
2168 4 0.47477 0.508449 0.636802
2305 2 0.46536 0.489868 0.603154
1267 2 0.475828 0.419467 0.65568
2167 2 0.470288 0.497111 0.658632
1269 4 0.453989 0.429356 0.662782
2306 4 0.460954 0.50506 0.622518
1081 2 0.0229285 0.0368163 0.68042
1295 4 0.0219415 0.00868754 0.753928
943 2 0.0670065 0.0523782 0.71387
944 4 0.0595525 0.0308162 0.703638
945 4 0.0744606 0.0739401 0.724102
1083 4 0.0444036 0.0369012 0.693226
2400 4 0.252058 0.999414 0.723877
2399 4 0.292541 0.0284813 0.727995
1049 4 0.306197 0.0410371 0.71818
1048 2 0.315426 0.0444202 0.69519
2398 2 0.272299 0.0139477 0.725936
2320 2 0.400827 0.0330279 0.711334
2322 4 0.398095 0.0406435 0.734992
45 3 0.413535 0.0123229 0.674369
2321 4 0.403559 0.0254123 0.687675
1162 2 0.482516 0.0206538 0.670157
3400 2 0.503441 0.0269261 0.720935
1164 4 0.504533 0.0182977 0.681771
3402 4 0.509485 0.0150393 0.699784
851 4 0.0152736 0.0792083 0.684927
863 4 0.0627886 0.0768786 0.755421
2318 4 0.0788075 0.110323 0.68057
2319 4 0.0336712 0.0889727 0.683323
2317 2 0.0562394 0.099648 0.681946
862 2 0.0590681 0.10133 0.751749
2286 4 0.0659271 0.139249 0.738692
864 4 0.0553476 0.125781 0.748078
938 4 0.0959215 0.10017 0.676252
1005 4 0.321526 0.170841 0.668315
831 4 0.328642 0.159378 0.68263
829 2 0.340994 0.166109 0.703301
830 4 0.353346 0.172841 0.723972
1194 4 0.409251 0.154955 0.665148
1193 4 0.439107 0.126798 0.693722
1192 2 0.424179 0.140877 0.679435
3387 4 3.31811e-05 0.250632 0.685193
2284 2 0.0820198 0.157508 0.74442
33 3 0.131312 0.210592 0.727054
31 1 0.135279 0.192575 0.741127
34 3 0.116056 0.179741 0.743176
2285 4 0.0981124 0.175767 0.750149
32 3 0.151959 0.179587 0.73206
1241 4 0.258047 0.206877 0.69431
1240 2 0.247939 0.229415 0.690428
978 4 0.372582 0.171604 0.725593
1215 4 0.219734 0.286734 0.751702
917 4 0.246518 0.264124 0.673606
1213 2 0.212147 0.262923 0.750887
916 2 0.251761 0.277982 0.653466
1242 4 0.237832 0.251953 0.686547
1007 4 0.327656 0.305525 0.722553
1006 2 0.325835 0.323778 0.705562
1298 4 0.488937 0.25383 0.732286
953 4 0.482034 0.272792 0.731222
1260 4 0.0870776 0.352751 0.684765
1207 2 0.0921797 0.376362 0.707207
1209 4 0.0832618 0.384856 0.728968
993 4 0.0988007 0.392484 0.73895
1208 4 0.101098 0.367869 0.685447
948 4 0.141458 0.348511 0.717268
946 2 0.140625 0.351511 0.742077
1137 4 0.251843 0.383566 0.682325
1067 4 0.260957 0.375867 0.700723
806 4 0.319548 0.342315 0.669392
1008 4 0.324013 0.342031 0.688571
1066 2 0.271999 0.397676 0.705978
1068 4 0.283041 0.419485 0.711233
1205 4 0.393699 0.348295 0.733409
1204 2 0.400315 0.360928 0.712871
1206 4 0.40693 0.373561 0.692333
1100 4 0.41337 0.392531 0.691299
1019 4 0.386278 0.330601 0.740368
1230 4 0.391161 0.421179 0.671772
1101 4 0.458259 0.41442 0.688744
1099 2 0.435815 0.403476 0.690022
998 4 0.50047 0.369274 0.729062
991 2 0.0892172 0.413166 0.749226
992 4 0.0796338 0.433847 0.759503
1175 4 0.271361 0.458324 0.756952
1174 2 0.274275 0.448768 0.734031
1176 4 0.277188 0.439212 0.71111
1228 2 0.384631 0.429536 0.694415
1139 4 0.389181 0.443417 0.733201
1138 2 0.404208 0.461591 0.741513
1229 4 0.378101 0.437893 0.717058
1140 4 0.419235 0.479764 0.749825
3182 4 0.491013 0.448032 0.72106
3181 2 0.478703 0.427686 0.713332
3183 4 0.466394 0.407341 0.705605
2169 4 0.465805 0.485773 0.680462
1251 4 0.5007 0.465544 0.7241
912 4 0.0167436 0.0281415 0.758276
910 2 0.0384183 0.0397515 0.762814
911 4 0.060093 0.0513615 0.767352
1202 4 0.0662053 0.0688443 0.774656
1201 2 0.0864827 0.0640848 0.788489
1203 4 0.10676 0.0593253 0.802322
1287 4 0.123186 0.067474 0.79803
1285 2 0.138918 0.0582476 0.815134
2049 4 0.213867 0.0704889 0.816286
2047 2 0.200131 0.049958 0.820158
2048 4 0.186396 0.029427 0.824029
840 4 0.230011 0.0814827 0.813139
1896 4 0.174653 0.0128578 0.82364
1021 2 0.3142 0.0699476 0.778746
1022 4 0.323863 0.0477536 0.785011
980 4 0.415192 0.0359414 0.744637
1143 4 0.388451 0.0210352 0.760034