ITEM: TIMESTEP
2610000
ITEM: NUMBER OF ATOMS
4590
ITEM: BOX BOUNDS pp pp pp
-9.9985700000000008e+00 9.9985700000000008e+00
-9.9985700000000008e+00 9.9985700000000008e+00
-9.9985700000000008e+00 9.9985700000000008e+00
ITEM: ATOMS id type xs ys zs
3752 4 0.0521787 0.0180438 0.0273264
3751 2 0.0401997 0.0340165 0.0122747
465 4 0.0697646 0.0242409 0.0207855
380 4 0.0129893 0.0710412 0.0626813
463 2 0.0933349 0.0158972 0.0207108
464 4 0.116905 0.0075534 0.0206361
422 4 0.216721 0.0314662 0.03938
567 4 0.217839 0.0454524 0.0546216
421 2 0.201815 0.0416563 0.0220842
423 4 0.186909 0.0518465 0.00478845
1633 2 0.24107 0.999104 0.0291728
492 4 0.253068 0.0681894 0.0648034
1634 4 0.234394 0.0213953 0.0383224
490 2 0.269896 0.0549432 0.0518984
654 4 0.304405 0.0476319 0.0446493
491 4 0.286724 0.041697 0.0389933
652 2 0.328246 0.0453397 0.0518267
653 4 0.352087 0.0430475 0.0590042
486 4 0.371306 0.0471306 0.0625646
745 2 0.447225 0.0348384 0.0304871
295 2 0.48014 0.0327646 0.0835708
746 4 0.461699 0.0384574 0.0505522
297 4 0.476389 0.0462678 0.062864
379 2 0.0298128 0.0824364 0.0772518
358 2 0.267608 0.176775 0.0133754
359 4 0.28028 0.185272 0.0331843
460 2 0.31301 0.18503 0.0607371
461 4 0.33076 0.177323 0.0765712
630 4 0.468195 0.0949513 0.0803647
769 2 0.453985 0.152709 0.0332257
2469 4 0.458607 0.154962 0.0669059
2976 4 0.466026 0.102868 0.0634269
2974 2 0.487401 0.0930901 0.0549022
771 4 0.456596 0.138646 0.0127172
2624 4 9.72057e-06 0.203177 0.0545958
462 4 0.29526 0.192737 0.044903
558 4 0.343758 0.166396 0.0861039
556 2 0.365523 0.167063 0.0738141
557 4 0.387287 0.167731 0.0615244
517 2 0.409251 0.205091 0.0519216
518 4 0.394775 0.185989 0.0590433
770 4 0.451374 0.166772 0.0537342
519 4 0.423727 0.224193 0.0447998
1095 4 0.429206 0.239486 0.0334416
1093 2 0.448434 0.236944 0.0176617
1094 4 0.467662 0.234403 0.0018817
292 2 0.0725687 0.333035 0.00502708
620 4 0.0483399 0.340674 0.0322152
475 2 0.1054 0.274176 0.0518217
476 4 0.102949 0.280078 0.0276487
338 4 0.106078 0.277116 0.0944874
477 4 0.107851 0.268274 0.0759948
483 4 0.185421 0.288311 0.041554
481 2 0.176305 0.291379 0.0646335
287 4 0.187368 0.274939 0.0270208
286 2 0.176466 0.263355 0.0077299
573 4 0.278927 0.260036 0.0585941
357 4 0.290893 0.246542 0.0501252
355 2 0.310855 0.256138 0.0385237
356 4 0.330818 0.265735 0.0269221
571 2 0.270165 0.262472 0.0818853
1304 4 0.323362 0.281805 0.0369086
1303 2 0.334657 0.303118 0.0303234
1305 4 0.345951 0.324431 0.0237383
608 4 0.332574 0.328819 0.073348
619 2 0.0336912 0.353667 0.0477638
294 4 0.0554604 0.348092 0.0153119
621 4 0.0190426 0.366661 0.0633123
956 4 0.307405 0.366595 0.0400436
955 2 0.310537 0.350169 0.0586325
903 4 0.310061 0.376036 0.0224948
37 3 0.345177 0.343914 0.0177985
957 4 0.31367 0.333743 0.0772214
38 3 0.354659 0.380144 0.0209917
36 1 0.357504 0.360889 0.00836042
39 3 0.379876 0.354735 0.00822997
315 4 0.00388779 0.427818 0.0414598
251 4 0.144078 0.442425 0.0322379
795 4 0.123184 0.440609 0.0354492
250 2 0.159645 0.432513 0.0153678
793 2 0.112816 0.459075 0.0221572
252 4 0.175211 0.422601 0.998498
1440 4 0.250352 0.488776 0.0645703
63 3 0.316249 0.483021 0.0136727
1583 4 0.374924 0.50485 0.0818417
565 2 0.221371 0.0281035 0.0722773
566 4 0.224902 0.0107547 0.089933
674 4 0.238448 0.00947083 0.103278
722 4 0.18738 0.0854319 0.151874
1475 4 0.242104 0.0110936 0.178398
484 2 0.388775 0.0314531 0.0711811
485 4 0.406244 0.0157756 0.0797976
1608 4 0.416959 0.00693242 0.0960379
311 4 0.431927 0.0650245 0.126627
310 2 0.432344 0.0616839 0.151403
629 4 0.432911 0.0729042 0.108107
2745 4 0.477389 0.0265809 0.121188
296 4 0.48389 0.0192614 0.104278
381 4 0.0466363 0.0938315 0.0918223
20 3 0.0479415 0.0906809 0.134009
17 3 0.0377207 0.108035 0.102588
16 1 0.0491358 0.110258 0.122436
19 3 0.039458 0.127356 0.134781
18 3 0.0712891 0.115384 0.117814
578 4 0.0836686 0.129631 0.123767
2481 4 0.0242137 0.115331 0.141248
577 2 0.107102 0.123691 0.130152
579 4 0.130535 0.11775 0.136536
237 4 0.142661 0.108304 0.121546
235 2 0.160016 0.0918737 0.128896
236 4 0.17737 0.075443 0.136247
254 4 0.405898 0.163247 0.142226
628 2 0.450553 0.0839278 0.0942361
253 2 0.427415 0.152032 0.136192
255 4 0.448933 0.140818 0.130159
2467 2 0.455798 0.14412 0.0892606
2468 4 0.452988 0.133278 0.111615
737 4 0.178006 0.241619 0.152269
279 4 0.178212 0.256233 0.137813
755 4 0.245773 0.254425 0.168516
322 2 0.381082 0.199752 0.139826
323 4 0.362779 0.216771 0.13906
324 4 0.399384 0.182734 0.140592
624 4 0.422378 0.24441 0.0897341
672 4 0.368111 0.236367 0.134438
2650 2 0.49428 0.223897 0.127454
2651 4 0.470584 0.229355 0.133277
2652 4 0.517975 0.218439 0.12163
527 4 0.452027 0.22635 0.140836
526 2 0.436875 0.227536 0.160691
648 4 0.054179 0.317199 0.166367
300 4 0.0484818 0.332434 0.156071
298 2 0.056308 0.336235 0.13263
339 4 0.104658 0.300655 0.138585
363 4 0.113598 0.288359 0.152127
337 2 0.105368 0.288885 0.116536
278 4 0.166847 0.293475 0.106434
456 4 0.157976 0.312488 0.108814
482 4 0.167188 0.294446 0.0877131
277 2 0.17253 0.274854 0.122124
572 4 0.261403 0.264908 0.105176
754 2 0.256813 0.256458 0.146174
756 4 0.267854 0.25849 0.123833
607 2 0.337766 0.30876 0.0873424
671 4 0.357099 0.27304 0.102274
609 4 0.342957 0.2887 0.101337
670 2 0.362605 0.254703 0.118356
739 2 0.411585 0.317256 0.122937
387 4 0.38683 0.339949 0.136318
622 2 0.426859 0.267083 0.099274
623 4 0.431339 0.289757 0.108814
740 4 0.428765 0.299548 0.126991
299 4 0.0641343 0.340036 0.10919
537 4 0.0690647 0.359618 0.104388
455 4 0.124362 0.34949 0.107512
536 4 0.116745 0.355964 0.0897611
535 2 0.0929049 0.357791 0.0970744
454 2 0.141169 0.330989 0.108163
345 4 0.245981 0.39947 0.162222
343 2 0.260663 0.379369 0.159861
386 4 0.346822 0.354581 0.162509
344 4 0.275345 0.359269 0.1575
385 2 0.366826 0.347265 0.149414
741 4 0.394405 0.334965 0.118884
495 4 0.480125 0.390713 0.127362
595 2 0.465662 0.379615 0.159304
597 4 0.474675 0.397845 0.144756
493 2 0.497006 0.38662 0.109377
264 4 0.109731 0.487517 0.167212
1438 2 0.254431 0.4781 0.0868093
1439 4 0.25851 0.467425 0.109048
1582 2 0.382077 0.502487 0.105683
1575 4 0.388863 0.4801 0.132879
1573 2 0.396325 0.474389 0.15605
1569 4 0.493219 0.483085 0.123457
232 2 0.00539406 0.0199029 0.176417
234 4 0.0283949 0.0129456 0.183326
1538 4 0.0408182 0.0117948 0.199249
1537 2 0.0628408 0.00441854 0.189988
689 4 0.169745 0.00390151 0.19675
1505 4 0.229228 0.00186318 0.235086
1504 2 0.208437 0.00205931 0.221198
721 2 0.204488 0.0904901 0.169392
1506 4 0.187647 0.00225543 0.20731
1474 2 0.260376 0.994612 0.173959
312 4 0.43276 0.0583433 0.176179
764 4 0.430974 0.0756077 0.187912
512 4 0.142219 0.180268 0.2455
723 4 0.221597 0.0955483 0.18691
693 4 0.213461 0.110183 0.197932
691 2 0.226205 0.118171 0.217906
692 4 0.238949 0.12616 0.23788
23 3 0.327221 0.177656 0.216953
742 2 0.393837 0.144875 0.246894
744 4 0.376963 0.157831 0.260031
22 3 0.347728 0.170425 0.247609
25 3 0.363484 0.187669 0.2185
765 4 0.438381 0.125019 0.189995
332 4 0.446327 0.0770889 0.250711
743 4 0.410712 0.131918 0.233757
763 2 0.434677 0.100314 0.188954
521 4 0.437242 0.135282 0.207479
520 2 0.456242 0.149702 0.199979
333 4 0.42614 0.121775 0.240893
331 2 0.436234 0.099432 0.245802
392 4 0.0614166 0.224386 0.208715
391 2 0.0707757 0.210824 0.22752
511 2 0.117223 0.180805 0.245255
736 2 0.189064 0.235902 0.173953
738 4 0.200122 0.230186 0.195638
284 4 0.201083 0.210662 0.194125
285 4 0.237342 0.201541 0.227334
283 2 0.219213 0.206102 0.21073
24 3 0.338348 0.205961 0.239743
759 4 0.379076 0.180966 0.208512
758 4 0.411546 0.215161 0.191865
757 2 0.395311 0.198064 0.200189
21 1 0.344295 0.185494 0.230571
522 4 0.475241 0.164122 0.192478
528 4 0.421723 0.228722 0.180545
762 4 0.484906 0.173987 0.205544
760 2 0.502935 0.191164 0.207793
646 2 0.0464967 0.294203 0.172476
647 4 0.0388143 0.271206 0.178586
361 2 0.124344 0.27474 0.170134
362 4 0.135091 0.261121 0.18814
389 4 0.131209 0.252535 0.205915
388 2 0.12701 0.266863 0.225971
390 4 0.122811 0.28119 0.246028
612 4 0.328689 0.247039 0.251131
308 4 0.333497 0.250489 0.231655
307 2 0.326665 0.262538 0.210838
309 4 0.319833 0.274586 0.190021
109 3 0.469837 0.314975 0.197603
106 1 0.482051 0.332538 0.188617
749 4 0.0316954 0.402187 0.213555
366 4 0.0273775 0.384727 0.219897
748 2 0.0453588 0.42177 0.206139
364 2 0.0169766 0.367206 0.23439
365 4 0.00657569 0.349685 0.248882
733 2 0.145487 0.382399 0.241673
734 4 0.155912 0.37051 0.222305
417 4 0.173268 0.375093 0.212358
415 2 0.192221 0.391192 0.209755
416 4 0.211175 0.407291 0.207152
497 4 0.331577 0.340816 0.164057
496 2 0.308091 0.343233 0.155825
498 4 0.284606 0.34565 0.147594
766 2 0.294255 0.387215 0.226113
768 4 0.287995 0.406491 0.211471
108 3 0.489712 0.346366 0.205602
107 3 0.468396 0.344732 0.174689
12 3 0.432624 0.389191 0.220762
596 4 0.456649 0.361386 0.173852
542 4 0.47533 0.391729 0.245459
541 2 0.48411 0.378932 0.225854
543 4 0.492889 0.366136 0.20625
11 1 0.438175 0.406429 0.234946
15 3 0.456301 0.400398 0.247345
750 4 0.0590222 0.441353 0.198724
2794 2 0.0184021 0.477243 0.182541
2796 4 0.0241776 0.500272 0.190385
2795 4 0.0126265 0.454215 0.174697
3599 4 0.0370789 0.495737 0.203748
603 4 0.0705462 0.436608 0.183199
602 4 0.0916733 0.478618 0.166184
601 2 0.0811097 0.457613 0.174691
262 2 0.132805 0.497147 0.167418
291 4 0.22585 0.400479 0.19632
289 2 0.247916 0.406947 0.20614
1431 4 0.235586 0.505573 0.241064
290 4 0.269982 0.413415 0.215961
658 2 0.304707 0.481424 0.198238
659 4 0.302143 0.456886 0.194174
660 4 0.307271 0.505961 0.202303
1574 4 0.403787 0.468679 0.179221
644 4 0.395 0.464316 0.1969
643 2 0.41522 0.450566 0.202121
645 4 0.435439 0.436815 0.207342
13 3 0.443135 0.425243 0.222304
1463 4 0.1018 0.00683076 0.246433
732 4 0.108299 0.025107 0.248603
730 2 0.0939512 0.042029 0.260134
731 4 0.0796038 0.058951 0.271666
1406 4 0.178797 0.0178082 0.281617
1701 4 0.1849 0.0352859 0.291317
1699 2 0.205272 0.0438676 0.303001
1700 4 0.225645 0.0524493 0.314684
474 4 0.266352 0.0688568 0.271166
1828 2 0.254644 0.0592066 0.32766
1829 4 0.279123 0.0584205 0.322627
351 4 0.464168 0.0795035 0.258482
349 2 0.479359 0.0840033 0.277824
453 4 0.483598 0.0918463 0.313108
318 4 0.0752139 0.0789602 0.269944
316 2 0.0891153 0.0992772 0.27432
399 4 0.12276 0.125762 0.279321
317 4 0.103017 0.119594 0.278696
397 2 0.112934 0.144523 0.292613
398 4 0.103108 0.163283 0.305905
472 2 0.258384 0.0901329 0.260725
473 4 0.250417 0.111409 0.250284
28 3 0.252974 0.149882 0.291437
29 3 0.246178 0.13255 0.258304
27 3 0.269236 0.162191 0.259867
30 3 0.279956 0.129658 0.274685
26 1 0.262165 0.143423 0.271134
377 4 0.268776 0.146492 0.303035
683 4 0.278779 0.131084 0.295091
682 2 0.301823 0.122212 0.299018
684 4 0.324868 0.11334 0.302945
376 2 0.26782 0.155658 0.326279
726 4 0.387527 0.106985 0.313521
725 4 0.338809 0.0995388 0.305048
724 2 0.363168 0.103262 0.309284
425 4 0.40293 0.117466 0.319493
632 4 0.362995 0.173198 0.260235
451 2 0.497111 0.0986114 0.333028
424 2 0.421461 0.111023 0.334994
393 4 0.0801347 0.197261 0.246326
513 4 0.092226 0.181342 0.24501
531 4 0.101121 0.173131 0.323386
581 4 0.23727 0.20865 0.246198
580 2 0.257182 0.194322 0.251039
582 4 0.277093 0.179994 0.255881
631 2 0.376865 0.186696 0.276065
633 4 0.390736 0.200194 0.291895
419 4 0.407145 0.192624 0.284059
418 2 0.42083 0.205993 0.300158
269 4 0.451013 0.219032 0.306823
420 4 0.434514 0.219362 0.316257
268 2 0.470354 0.230011 0.318251
270 4 0.489694 0.24099 0.329678
372 4 0.133382 0.296921 0.251244
370 2 0.152154 0.308164 0.263343
371 4 0.170926 0.319408 0.275441
402 4 0.157238 0.32876 0.287717
706 2 0.257667 0.256552 0.294715
610 2 0.307853 0.248901 0.264828
707 4 0.267952 0.25155 0.27248
611 4 0.287018 0.250762 0.278524
729 4 0.311488 0.271427 0.293579
727 2 0.306424 0.295804 0.29588
728 4 0.301359 0.320181 0.298182
708 4 0.247382 0.261553 0.31695
561 4 0.378123 0.313988 0.336343
2517 4 0.50282 0.254905 0.321915
618 4 0.0793031 0.348644 0.334023
678 4 0.0737177 0.391942 0.280351
616 2 0.0796446 0.364017 0.314307
617 4 0.0799861 0.37939 0.294591
1757 4 0.0884217 0.414861 0.343039
676 2 0.0953018 0.396287 0.268501
735 4 0.135061 0.394288 0.261042
677 4 0.116886 0.400632 0.256651
400 2 0.173481 0.339892 0.303126
401 4 0.189724 0.351024 0.318534
510 4 0.19476 0.34241 0.335559
303 4 0.303856 0.376363 0.257691
301 2 0.3058 0.356113 0.272229
302 4 0.307744 0.335863 0.286767
767 4 0.300515 0.367938 0.240756
559 2 0.375784 0.329344 0.316749
560 4 0.373446 0.3447 0.297156
2537 4 0.363932 0.359269 0.288667
2536 2 0.373523 0.382156 0.291733
14 3 0.420141 0.410778 0.248883
1789 2 0.0403916 0.474121 0.300694
1790 4 0.0507669 0.451584 0.30379
1758 4 0.058 0.43276 0.307615
1756 2 0.0732109 0.423811 0.325327
1791 4 0.0300162 0.496659 0.297598
231 4 0.285791 0.493808 0.274388
229 2 0.303037 0.478997 0.2848
230 4 0.320283 0.464186 0.295211
2538 4 0.383115 0.405042 0.294799
1802 4 0.329104 0.446655 0.301317
1801 2 0.343659 0.437685 0.319562
445 2 0.403459 0.428447 0.317434
447 4 0.40131 0.411376 0.299292
446 4 0.405608 0.445517 0.335577
2757 4 0.99568 0.064492 0.349613
1772 4 0.0190848 0.000812867 0.356533
2755 2 0.00729049 0.0423821 0.350849
2756 4 0.0189009 0.0202721 0.352085
429 4 0.112197 0.00950978 0.389418
719 4 0.120211 0.0183284 0.405437
1830 4 0.230165 0.0599928 0.332692
441 4 0.295293 0.992788 0.342093
1496 4 0.29838 0.0552585 0.323045
439 2 0.279548 0.00963661 0.351759
440 4 0.263804 0.0264851 0.361425
1495 2 0.31593 0.0614105 0.339758
1818 4 0.277594 0.0397142 0.371008
1816 2 0.278016 0.0495078 0.39401
1817 4 0.278439 0.0593014 0.417011
1516 2 0.351945 0.0620091 0.393442
1518 4 0.363236 0.0513777 0.413055
1517 4 0.340654 0.0726404 0.373829
699 4 0.36344 0.0344027 0.403313
697 2 0.368341 0.0121315 0.413568
368 4 0.153785 0.0833264 0.384396
369 4 0.170202 0.12403 0.360429
367 2 0.161994 0.103678 0.372413
600 4 0.16644 0.142522 0.368355
598 2 0.178722 0.164284 0.367505
599 4 0.191004 0.186047 0.366656
378 4 0.266865 0.164824 0.349522
1497 4 0.33348 0.0675625 0.356471
452 4 0.510624 0.105376 0.352948
257 4 0.486814 0.12919 0.395429
256 2 0.469005 0.120839 0.379992
426 4 0.439992 0.104581 0.350495
258 4 0.451197 0.112488 0.364555
641 4 0.485001 0.115674 0.409961
529 2 0.0827269 0.186664 0.333569
2655 4 0.0502544 0.189844 0.354116
2846 4 0.0287589 0.217536 0.401213
2654 4 0.0301267 0.225558 0.382754
530 4 0.0643327 0.200197 0.343753
2653 2 0.0401905 0.207701 0.368435
2845 2 0.014226 0.231842 0.41568
249 4 0.0689284 0.237272 0.405709
247 2 0.0786967 0.214526 0.409232
1035 4 0.0809693 0.251739 0.400055
687 4 0.221077 0.236771 0.369973
685 2 0.20881 0.216178 0.377088
686 4 0.196542 0.195585 0.384203
404 4 0.209447 0.245939 0.357904
614 4 0.278379 0.180125 0.348613
613 2 0.28428 0.201329 0.360476
615 4 0.290181 0.222533 0.372339
716 4 0.298935 0.230571 0.388947
715 2 0.321735 0.240493 0.386323
444 4 0.0842089 0.330373 0.341334
442 2 0.0941627 0.308667 0.348747
443 4 0.104116 0.286961 0.35616
1034 4 0.0905698 0.271798 0.355265
1033 2 0.0857695 0.261768 0.37766
403 2 0.229839 0.255732 0.347252
405 4 0.25023 0.265525 0.3366
717 4 0.344535 0.250415 0.383698
587 4 0.333385 0.334752 0.406193
584 4 0.345269 0.267157 0.39555
583 2 0.368756 0.274853 0.399335
336 4 0.366691 0.326726 0.34689
334 2 0.356999 0.330465 0.369633
335 4 0.347308 0.334203 0.392377
585 4 0.392242 0.28255 0.40312
240 4 0.406248 0.280765 0.416502
413 4 0.166735 0.406567 0.352243
775 2 0.123881 0.398316 0.349394
777 4 0.148879 0.398805 0.349592
776 4 0.098883 0.397828 0.349196
412 2 0.173122 0.406803 0.376416
508 2 0.200075 0.364798 0.34534
503 4 0.247569 0.345286 0.392621
509 4 0.205391 0.387187 0.355121
406 2 0.205085 0.35508 0.405058
408 4 0.228989 0.352861 0.39807
414 4 0.179508 0.407038 0.40059
407 4 0.18118 0.357299 0.412046
502 2 0.260759 0.366156 0.388668
504 4 0.27395 0.387027 0.384714
635 4 0.274778 0.40718 0.38728
586 2 0.344014 0.355002 0.416299
751 2 0.411661 0.406751 0.409136
499 2 0.0704637 0.472781 0.393614
501 4 0.0473867 0.463169 0.394094
549 4 0.0303697 0.470182 0.403971
547 2 0.0212894 0.487268 0.419808
500 4 0.0935407 0.482394 0.393133
1395 4 0.101353 0.494331 0.380192
1320 4 0.180072 0.487702 0.35721
1436 4 0.195084 0.485084 0.413068
438 4 0.198347 0.496156 0.395484
634 2 0.279974 0.424597 0.404451
5 3 0.300142 0.484105 0.396474
1 1 0.310423 0.474608 0.414439
3 3 0.330893 0.465731 0.408067
636 4 0.285169 0.442014 0.421621
1803 4 0.358213 0.428714 0.337807
594 4 0.343431 0.453702 0.398746
592 2 0.344328 0.444628 0.375464
668 4 0.362141 0.451556 0.403801
593 4 0.345225 0.435553 0.352183
120 3 0.410089 0.438627 0.353846
753 4 0.415202 0.426969 0.394858
119 3 0.413011 0.446976 0.390444
2740 2 0.478215 0.445853 0.364903
117 3 0.426628 0.470383 0.364379
116 1 0.423316 0.448248 0.369693
3988 2 0.451942 0.489583 0.343253
118 3 0.443891 0.437544 0.370397
3989 4 0.44688 0.471339 0.359585
2741 4 0.454363 0.45332 0.364199
3078 4 0.0221116 0.0694522 0.427196
2238 4 0.990798 0.017344 0.487182
1126 2 0.0131572 0.0917425 0.464964
720 4 0.111794 0.0138888 0.454531
718 2 0.116003 0.0161086 0.429984
342 4 0.115615 0.0256122 0.470458
340 2 0.12846 0.0252561 0.491907
1645 2 0.231882 0.0139016 0.488025
1646 4 0.23431 0.0387805 0.487454
1152 4 0.22725 0.0412116 0.468244
1150 2 0.217219 0.0621708 0.459009
606 4 0.287082 0.0757792 0.423954
3487 2 0.4651 0.0638359 0.471082
3488 4 0.462613 0.0515127 0.492695
3489 4 0.467588 0.0761591 0.449469
1128 4 0.0135742 0.101514 0.487976
470 4 0.0140911 0.153274 0.483317
459 4 0.993395 0.103701 0.489379
545 4 0.0967803 0.176793 0.423871
546 4 0.116357 0.131477 0.415877
544 2 0.106569 0.154135 0.419874
274 2 0.167735 0.129635 0.448956
276 4 0.159369 0.106227 0.446266
275 4 0.176101 0.153043 0.451647
1151 4 0.207188 0.0831301 0.449775
605 4 0.271663 0.121027 0.438637
320 4 0.28151 0.134607 0.429019
319 2 0.288074 0.157268 0.4373
604 2 0.279372 0.0984033 0.431296
642 4 0.484698 0.0859116 0.450146
640 2 0.484849 0.100793 0.430053
576 4 0.423115 0.093344 0.500781
469 2 0.0285344 0.169739 0.471256
471 4 0.0429777 0.186204 0.459195
261 4 0.0572082 0.194906 0.470882
259 2 0.0679479 0.214014 0.482912
984 4 0.0234939 0.2636 0.488949
248 4 0.088465 0.191781 0.412754
346 2 0.11206 0.243561 0.499513
857 4 0.182662 0.159363 0.470859
856 2 0.190373 0.180608 0.481551
1220 4 0.213077 0.193756 0.503659
411 4 0.281765 0.196707 0.448519
321 4 0.294638 0.17993 0.44558
409 2 0.285391 0.221437 0.447866
410 4 0.289018 0.246168 0.447212
983 4 0.996864 0.25762 0.447047
982 2 0.010179 0.26061 0.467998
327 4 0.135696 0.257508 0.479182
347 4 0.135568 0.240972 0.491398
326 4 0.15013 0.304673 0.470949
10 3 0.137335 0.315 0.48313
325 2 0.142913 0.281091 0.475066
6 1 0.143406 0.335996 0.476732
375 4 0.167389 0.315807 0.463102
7 3 0.165053 0.335587 0.46896
374 4 0.216401 0.308115 0.469378
373 2 0.191895 0.311961 0.46624
792 4 0.235025 0.305385 0.473739
489 4 0.279619 0.257459 0.461864
487 2 0.290047 0.271129 0.480018
238 2 0.418047 0.301297 0.424527
239 4 0.429847 0.321829 0.432551
4434 4 0.0229728 0.362407 0.467251
539 4 0.0781112 0.416966 0.422131
4432 2 0.0280985 0.378614 0.485587
538 2 0.0532564 0.418141 0.424589
4433 4 0.0332242 0.394821 0.503924
8 3 0.142212 0.350448 0.494846
711 4 0.127997 0.355751 0.442981
709 2 0.145108 0.357576 0.42484
9 3 0.129472 0.343433 0.459734
681 4 0.0861147 0.415606 0.439741
679 2 0.107166 0.419925 0.452523
710 4 0.162218 0.3594 0.406699
588 4 0.354644 0.375252 0.426406
773 4 0.350776 0.382929 0.4439
772 2 0.35731 0.372622 0.465723
774 4 0.363843 0.362315 0.487547
929 4 0.37453 0.378616 0.49296
752 4 0.40812 0.386532 0.423413
926 4 0.422013 0.334033 0.446137
925 2 0.42457 0.356638 0.43576
927 4 0.427127 0.379242 0.425383
540 4 0.0284017 0.419315 0.427047
382 2 0.0140014 0.46717 0.473345
384 4 0.00643218 0.478463 0.49433
383 4 0.0215707 0.455877 0.452361
570 4 0.141499 0.427012 0.450431
680 4 0.128217 0.424243 0.465305
568 2 0.158124 0.424221 0.431965
1557 4 0.235398 0.487439 0.470794
569 4 0.17475 0.421429 0.4135
1437 4 0.223717 0.481482 0.453908
1435 2 0.2094 0.483283 0.433488
4 3 0.296982 0.457923 0.423348
2 3 0.313966 0.490678 0.430512
669 4 0.388765 0.457005 0.445779
667 2 0.375453 0.454281 0.42479
880 2 0.36498 0.47059 0.477851
882 4 0.373594 0.459524 0.457151
1743 4 0.465534 0.464446 0.490332
1741 2 0.471613 0.472488 0.46745
1742 4 0.477692 0.48053 0.444569
662 4 0.468664 0.444958 0.492894
4508 4 0.0687046 0.0472385 0.555701
1077 4 0.0666769 0.0521919 0.535976
1075 2 0.0427338 0.0593598 0.535249
1076 4 0.0187907 0.0665278 0.534522
4507 2 0.0876766 0.0329496 0.563515
2428 2 0.148959 0.0496376 0.546867
2430 4 0.136258 0.0355531 0.530573
341 4 0.141304 0.0249001 0.513356
4509 4 0.106649 0.0186607 0.57133
2429 4 0.161661 0.0637222 0.56316
1180 2 0.299566 0.0387078 0.559886
1182 4 0.322847 0.0446555 0.552972
1181 4 0.276286 0.03276 0.566801
962 4 0.266807 0.016029 0.573068
961 2 0.252671 0.002698 0.557331
1032 4 0.337378 0.0589695 0.554168
4466 4 0.394531 0.0452465 0.524041
4465 2 0.40912 0.0302041 0.537682
575 4 0.387258 0.0616958 0.515388
574 2 0.405187 0.0775199 0.508084
4467 4 0.423708 0.0151616 0.551324
90 3 0.440359 0.026406 0.559241
3007 2 0.470363 0.0422914 0.526816
3009 4 0.476424 0.0237405 0.542447
1062 4 0.486795 0.00292329 0.539313
88 3 0.473078 0.00790742 0.557022
86 1 0.452179 0.00858775 0.56708
3008 4 0.464301 0.0608423 0.511186
466 2 0.316828 0.135061 0.5201
468 4 0.300658 0.151443 0.510334
467 4 0.332998 0.11868 0.529865
1030 2 0.341542 0.0810205 0.543141
1031 4 0.345707 0.103071 0.532114
306 4 0.426602 0.107709 0.514361
304 2 0.446754 0.110356 0.528923
305 4 0.466907 0.113003 0.543485
515 4 0.459809 0.130544 0.54905
514 2 0.463615 0.153487 0.558232
1272 4 0.0362727 0.250172 0.550338
879 4 0.0269982 0.23284 0.544829
877 2 0.0202049 0.241459 0.522362
260 4 0.0786877 0.233122 0.494942
878 4 0.0134116 0.250078 0.499896
348 4 0.0885518 0.24615 0.507627
1219 2 0.219958 0.205144 0.524829
858 4 0.198084 0.201854 0.492244
1221 4 0.226839 0.216531 0.545998
1212 4 0.243088 0.205079 0.549789
1210 2 0.266796 0.209706 0.556246
1211 4 0.290504 0.214333 0.562704
267 4 0.350117 0.237392 0.572118
265 2 0.358488 0.213854 0.571075
516 4 0.467422 0.17643 0.567414
1026 4 0.482189 0.190395 0.57167
905 4 0.471786 0.235772 0.555305
1010 4 0.4886 0.23739 0.565733
1270 2 0.0400331 0.249722 0.575053
790 2 0.238926 0.308255 0.498269
1189 2 0.220565 0.32239 0.551724
791 4 0.242826 0.311124 0.5228
1191 4 0.232982 0.304314 0.539714
1190 4 0.208148 0.340467 0.563734
804 4 0.193527 0.33017 0.573486
651 4 0.312211 0.281832 0.51406
488 4 0.300476 0.284799 0.498171
649 2 0.33503 0.277443 0.523289
650 4 0.35785 0.273053 0.532518
811 2 0.374556 0.31899 0.532534
812 4 0.393019 0.304391 0.540968
871 2 0.40021 0.262921 0.538903
872 4 0.375883 0.260678 0.533577
813 4 0.356092 0.33359 0.5241
873 4 0.424537 0.265163 0.544229
904 2 0.457136 0.255121 0.549293
906 4 0.442486 0.274471 0.54328
936 4 0.0506201 0.399401 0.514477
930 4 0.398394 0.362393 0.533801
928 2 0.386462 0.370505 0.51338
1238 4 0.416715 0.369721 0.539655
1237 2 0.422147 0.357386 0.560715
663 4 0.489837 0.402302 0.508153
934 2 0.0389674 0.414705 0.530452
935 4 0.0273147 0.430008 0.546427
1938 4 0.00996933 0.438282 0.542304
896 4 0.136154 0.468448 0.547637
895 2 0.127836 0.490305 0.556485
1159 2 0.258049 0.484478 0.594238
1172 4 0.286995 0.46952 0.566037
1161 4 0.276812 0.48006 0.578313
1910 4 0.350572 0.495838 0.509943
1911 4 0.355055 0.509319 0.557889
1909 2 0.352813 0.502578 0.533916
891 4 0.367185 0.503311 0.57291
881 4 0.356365 0.481657 0.498552
661 2 0.47925 0.42363 0.500524
2319 4 0.0338398 0.0847806 0.653013
2317 2 0.0565975 0.0926642 0.65973
1893 4 0.130433 0.0279305 0.622467
1891 2 0.120308 0.00506973 0.622244
1090 2 0.302933 0.00405616 0.655108
1091 4 0.317136 0.0178916 0.670341
44 3 0.434172 0.0270982 0.656181
2283 4 0.453818 0.0292415 0.650217
2281 2 0.454754 0.0154673 0.62937
87 3 0.454935 0.0107348 0.589816
43 3 0.429296 0.0641331 0.663185
1163 4 0.468872 0.0330252 0.663355
41 1 0.43681 0.0439768 0.671883
1284 4 0.23125 0.0854137 0.629251
908 4 0.221329 0.088718 0.611601
907 2 0.212708 0.1064 0.596167
909 4 0.204087 0.124082 0.580733
1227 4 0.205783 0.140582 0.591891
1225 2 0.195752 0.162869 0.597168
1283 4 0.27193 0.108977 0.646296
1282 2 0.25159 0.0971952 0.637773
1004 4 0.283127 0.124189 0.652949
1003 2 0.304308 0.13064 0.664565
4227 4 0.434686 0.0822766 0.658971
4225 2 0.453733 0.0909843 0.645313
4226 4 0.472781 0.099692 0.631655
809 4 0.481822 0.0894747 0.61708
1153 2 0.0713488 0.237275 0.630344
1155 4 0.0907743 0.227714 0.642852
1226 4 0.185721 0.185156 0.602445
1277 4 0.192891 0.235616 0.643907
1276 2 0.19177 0.219632 0.624712
1278 4 0.190649 0.203648 0.605518
1241 4 0.219514 0.175641 0.651023
1240 2 0.22864 0.193637 0.665789
917 4 0.243107 0.226482 0.668595
266 4 0.366859 0.190316 0.570033
886 2 0.397472 0.182782 0.597104
888 4 0.376023 0.180115 0.584534
887 4 0.418921 0.185448 0.609674
900 4 0.436002 0.19503 0.614326
898 2 0.43707 0.192464 0.639175
899 4 0.438139 0.189898 0.664023
1194 4 0.454704 0.187474 0.673886
1154 4 0.0519234 0.246835 0.617837
1271 4 0.0437936 0.249273 0.599768
1258 2 0.0895599 0.322338 0.644734
1259 4 0.102333 0.311251 0.62632
694 2 0.136691 0.300991 0.632277
695 4 0.158146 0.305471 0.644309
696 4 0.115235 0.296511 0.620245
797 4 0.176193 0.29734 0.649802
798 4 0.194469 0.253245 0.634889
796 2 0.185331 0.275293 0.642346
1165 2 0.286176 0.293168 0.654798
1166 4 0.306333 0.301937 0.642883
1009 2 0.495664 0.247965 0.587261
3371 4 0.495216 0.261776 0.62719
3370 2 0.502128 0.265377 0.650948
1011 4 0.502728 0.258541 0.608788
803 4 0.181424 0.342624 0.620381
1136 4 0.200146 0.346003 0.626661
802 2 0.187475 0.336397 0.596933
1135 2 0.215087 0.347201 0.646674
1137 4 0.230027 0.348398 0.666687
1028 4 0.389797 0.337878 0.635881
1027 2 0.401806 0.336008 0.614029
807 4 0.381715 0.348936 0.650388
805 2 0.367225 0.359805 0.667624
1029 4 0.413814 0.334138 0.592178
1239 4 0.42758 0.345051 0.581775
3239 4 0.0627653 0.495514 0.64085
2172 4 0.0525807 0.477183 0.644442
2170 2 0.0395225 0.456099 0.647626
2171 4 0.0264643 0.435016 0.65081
1160 4 0.239286 0.488897 0.610163
1171 2 0.300796 0.45276 0.57844
1173 4 0.314597 0.436001 0.590843
889 2 0.371547 0.480533 0.582253
1001 4 0.384626 0.412418 0.636316
1002 4 0.389745 0.4456 0.599256
890 4 0.375909 0.457755 0.591597
1000 2 0.387185 0.429009 0.617786
1951 2 0.40127 0.49883 0.654185
1230 4 0.383764 0.419737 0.65476
1953 4 0.422553 0.501984 0.641447
1269 4 0.502283 0.449684 0.670467
943 2 0.0602735 0.0286258 0.706623
944 4 0.0465889 0.0173949 0.688965
863 4 0.0596419 0.0542637 0.727702
945 4 0.0739582 0.0398567 0.72428
2318 4 0.0793552 0.100548 0.666447
862 2 0.0626723 0.0784537 0.733256
2399 4 0.31389 0.0201043 0.74023
2398 2 0.290513 0.0121408 0.744134
1049 4 0.325579 0.0245046 0.724869
1048 2 0.330933 0.0226621 0.700515
1050 4 0.336287 0.0208196 0.676161
2321 4 0.430967 0.0541536 0.701756
2320 2 0.43445 0.0640136 0.724468
45 3 0.425208 0.0388713 0.690803
2322 4 0.437933 0.0738737 0.747179
1162 2 0.490696 0.0323178 0.675536
42 3 0.459151 0.0459513 0.676995
2286 4 0.0530056 0.117794 0.733216
2284 2 0.0675599 0.136595 0.725478
864 4 0.0657027 0.102644 0.738809
2285 4 0.0821141 0.155396 0.71774
939 4 0.119087 0.128564 0.686429
938 4 0.0820285 0.0950046 0.685338
937 2 0.100558 0.111784 0.685883
32 3 0.128734 0.152602 0.732203
34 3 0.0923088 0.161754 0.733649
31 1 0.113865 0.17015 0.731844
1005 4 0.325489 0.13709 0.676181
831 4 0.345625 0.138585 0.676876
829 2 0.352525 0.139135 0.700903
830 4 0.359424 0.139685 0.724929
978 4 0.355242 0.155459 0.736543
1193 4 0.49324 0.1599 0.689866
1192 2 0.473972 0.173687 0.681876
33 3 0.116254 0.181598 0.711803
35 3 0.11827 0.184073 0.74932
1107 4 0.145815 0.238141 0.755717
1242 4 0.237766 0.211634 0.680554
916 2 0.245963 0.2512 0.66614
1297 2 0.466131 0.242704 0.73898
1298 4 0.465581 0.253911 0.716635
1260 4 0.0767865 0.333424 0.663149
918 4 0.248818 0.275919 0.663685
1167 4 0.266018 0.284399 0.666712
3372 4 0.50904 0.268977 0.674706
3122 4 0.505352 0.300763 0.680595
952 2 0.484112 0.286457 0.711691
954 4 0.494622 0.30346 0.69667
953 4 0.473602 0.269455 0.726712
3121 2 0.51002 0.321445 0.667342
1208 4 0.0764201 0.32991 0.682341
1207 2 0.0608699 0.345422 0.694288
991 2 0.0417846 0.390285 0.731528
1243 2 0.00831413 0.408668 0.677452
1209 4 0.0453196 0.360935 0.706235
993 4 0.0404815 0.37948 0.709017
1244 4 0.00186577 0.387767 0.689565
948 4 0.145214 0.378914 0.748953
1067 4 0.24411 0.362744 0.667177
1066 2 0.258066 0.382041 0.674794
1006 2 0.316466 0.353466 0.689831
1007 4 0.293418 0.3463 0.683301
1068 4 0.272023 0.401338 0.682411
806 4 0.352734 0.370673 0.68486
1008 4 0.339513 0.360631 0.696362
1205 4 0.402636 0.343885 0.742783
1204 2 0.417687 0.348589 0.723378
1101 4 0.438239 0.411749 0.679461
1099 2 0.430295 0.391367 0.69157
1100 4 0.42235 0.370986 0.70368
1206 4 0.432737 0.353292 0.703974
1245 4 0.0147625 0.429569 0.665338
1175 4 0.252422 0.435506 0.736015
1235 4 0.24598 0.418828 0.745255
1176 4 0.275057 0.415693 0.696067
1174 2 0.26374 0.425599 0.716041
1228 2 0.373018 0.426187 0.676396
1139 4 0.368799 0.449758 0.703461
1138 2 0.375642 0.473448 0.707597
1229 4 0.362273 0.432637 0.698032
3182 4 0.498509 0.481681 0.72515
3181 2 0.498443 0.463963 0.707508
3183 4 0.498378 0.446245 0.689865
912 4 0.0183025 0.0305887 0.780367
1295 4 0.014295 0.0230706 0.762097
910 2 0.0381621 0.0450556 0.775732
911 4 0.0580218 0.0595225 0.771097
1202 4 0.0672926 0.0443894 0.782741
1201 2 0.0862569 0.0520662 0.797115
1203 4 0.105221 0.059743 0.811488
1287 4 0.115471 0.0756855 0.815427
2047 2 0.203936 0.0562937 0.835351
2049 4 0.223526 0.0687543 0.826071
1021 2 0.300632 0.0818074 0.830534
1112 4 0.407838 0.0411945 0.811958
1111 2 0.395466 0.0458203 0.833189
981 4 0.401661 0.0398087 0.792298
979 2 0.416268 0.0550451 0.778894
980 4 0.430875 0.0702816 0.76549
845 4 0.484609 0.99073 0.836221
2442 4 0.479345 0.994112 0.816559
2991 4 0.0115799 0.129851 0.761469
2989 2 0.0246342 0.136375 0.781772
2990 4 0.0376885 0.142899 0.802074
834 4 0.0422705 0.148661 0.819952
1285 2 0.139326 0.077048 0.808062