ITEM: TIMESTEP
1180000
ITEM: NUMBER OF ATOMS
4590
ITEM: BOX BOUNDS pp pp pp
-9.9985700000000008e+00 9.9985700000000008e+00
-9.9985700000000008e+00 9.9985700000000008e+00
-9.9985700000000008e+00 9.9985700000000008e+00
ITEM: ATOMS id type xs ys zs
380 4 0.0458463 0.0887884 0.0776034
491 4 0.261664 0.059044 0.0889604
486 4 0.310098 0.0221253 0.0678796
653 4 0.303776 0.0253558 0.0864882
484 2 0.331221 0.0204764 0.0546033
1607 4 0.415059 0.00478233 0.0585572
1608 4 0.371979 0.0176199 0.0366484
1606 2 0.393519 0.0112011 0.0476028
485 4 0.352345 0.0188275 0.0413269
745 2 0.434638 0.0436893 0.0212545
297 4 0.458791 0.0407278 0.0461678
295 2 0.470026 0.0528008 0.0649613
746 4 0.439436 0.0361962 0.0446213
2976 4 0.475804 0.0746169 0.00588903
702 4 0.0596336 0.0825371 0.064685
700 2 0.0793504 0.0890549 0.0507586
3234 4 0.034662 0.099252 0.986139
3232 2 0.0167825 0.116282 0.990071
701 4 0.0990672 0.0955728 0.0368321
421 2 0.153931 0.113111 0.0244107
422 4 0.157695 0.108279 0.0486524
567 4 0.163354 0.100049 0.066363
565 2 0.185261 0.0946345 0.0771309
359 4 0.190592 0.110527 0.0374196
358 2 0.209978 0.126281 0.0363476
360 4 0.229365 0.142035 0.0352757
354 4 0.238239 0.160151 0.0420148
462 4 0.270722 0.142704 0.0428672
460 2 0.288366 0.159852 0.0473182
770 4 0.48742 0.147542 0.0599156
2469 4 0.483474 0.13944 0.0778117
769 2 0.468451 0.153242 0.044656
352 2 0.228107 0.182984 0.0409305
353 4 0.217975 0.205817 0.0398463
461 4 0.306011 0.176999 0.0517691
571 2 0.297385 0.232048 0.0553989
572 4 0.29337 0.215514 0.0737213
558 4 0.320624 0.186819 0.0594473
756 4 0.275133 0.213586 0.0813222
556 2 0.344119 0.194897 0.0566356
557 4 0.367614 0.202975 0.0538239
664 2 0.376121 0.2209 0.0194382
665 4 0.380701 0.206479 0.039344
771 4 0.449482 0.158943 0.0293964
1013 4 0.436911 0.173507 0.0286934
322 2 0.444468 0.253619 0.0896162
620 4 0.0137527 0.317281 0.038714
292 2 0.0515209 0.320813 0.0174693
294 4 0.0324626 0.314933 0.0325489
293 4 0.0705792 0.326692 0.00238974
476 4 0.10862 0.259886 0.0630473
475 2 0.112934 0.276086 0.0815977
573 4 0.3014 0.248581 0.0370765
357 4 0.312881 0.251877 0.020094
671 4 0.38985 0.304267 0.0645047
609 4 0.385629 0.323472 0.0696635
607 2 0.361764 0.328363 0.0640322
670 2 0.412727 0.294321 0.062796
672 4 0.435603 0.284375 0.0610874
323 4 0.444566 0.271559 0.0722003
1169 4 0.0872814 0.336891 0.00755011
619 2 0.00920882 0.337155 0.0531899
1168 2 0.109941 0.331635 0.0167202
1170 4 0.132601 0.326379 0.0258903
454 2 0.155743 0.360573 0.0316504
456 4 0.142405 0.3425 0.0206665
455 4 0.169081 0.378646 0.0426343
507 4 0.181459 0.394936 0.0435867
251 4 0.221695 0.420618 0.0641247
250 2 0.23385 0.420584 0.0422741
505 2 0.176551 0.413539 0.0276167
482 4 0.216932 0.364742 0.00555969
957 4 0.341683 0.344663 0.0414716
955 2 0.33286 0.343654 0.0180982
608 4 0.337899 0.333254 0.058401
626 4 0.139885 0.436457 0.0706388
625 2 0.149095 0.453952 0.055332
627 4 0.158304 0.471447 0.0400252
795 4 0.161097 0.486452 0.0261077
793 2 0.141315 0.49037 0.0113264
2358 4 0.101451 0.49649 0.999231
506 4 0.171643 0.432141 0.0116466
252 4 0.246004 0.42055 0.0204235
244 2 0.216747 0.497754 0.00652506
1558 2 0.283589 0.495018 0.0803396
494 4 0.437108 0.447615 0.072273
563 4 0.458266 0.490997 0.0793964
493 2 0.45987 0.439145 0.0782159
562 2 0.448626 0.501871 0.0590488
1568 4 0.47404 0.503644 0.0831097
1666 2 0.0651761 0.0174837 0.150941
1667 4 0.0732631 0.0405229 0.145558
20 3 0.0787947 0.0626016 0.145932
16 1 0.0773638 0.0852538 0.147797
1806 4 0.0911492 0.0447997 0.153062
449 4 0.141953 0.0244748 0.126355
1805 4 0.138874 0.0404437 0.138778
1804 2 0.115012 0.0426217 0.14592
490 2 0.243455 0.0759433 0.0861304
448 2 0.166737 0.0255563 0.129479
1475 4 0.225106 0.0533539 0.144042
1505 4 0.218877 0.060563 0.161687
450 4 0.191521 0.0266379 0.132603
675 4 0.22122 0.0807316 0.16221
1604 4 0.198951 0.00893572 0.13629
1474 2 0.248279 0.0507504 0.135019
654 4 0.289373 0.0551534 0.123977
1476 4 0.271452 0.0481469 0.125996
652 2 0.296575 0.0402546 0.105232
296 4 0.481262 0.0648739 0.0837547
629 4 0.472385 0.0703567 0.101246
628 2 0.46776 0.0866123 0.119673
381 4 0.0444944 0.101083 0.126057
379 2 0.0451703 0.0949359 0.10183
17 3 0.0607747 0.0929711 0.133854
18 3 0.097495 0.0949942 0.141611
578 4 0.110605 0.11096 0.140339
577 2 0.127889 0.117993 0.156982
492 4 0.225245 0.0928426 0.0833004
566 4 0.207168 0.0892203 0.0878989
673 2 0.214627 0.101378 0.174677
736 2 0.250388 0.139594 0.0962271
738 4 0.252484 0.117433 0.107615
737 4 0.248292 0.161754 0.0848389
581 4 0.205966 0.149107 0.167955
253 2 0.3657 0.135714 0.147407
255 4 0.350535 0.149822 0.161412
254 4 0.380865 0.121605 0.133401
312 4 0.458728 0.0862531 0.149061
630 4 0.463136 0.102868 0.1381
2467 2 0.489291 0.137479 0.10205
2468 4 0.495108 0.135518 0.126288
764 4 0.496716 0.140779 0.154634
763 2 0.476748 0.151266 0.165424
284 4 0.171526 0.202978 0.141681
279 4 0.189797 0.210166 0.136992
277 2 0.185993 0.228915 0.120892
283 2 0.182261 0.182855 0.151929
755 4 0.246896 0.208337 0.122259
754 2 0.261014 0.210962 0.101791
519 4 0.39441 0.19639 0.123156
517 2 0.410837 0.211326 0.111655
518 4 0.427264 0.226261 0.100154
324 4 0.444371 0.235679 0.107032
363 4 0.0640933 0.261227 0.155013
339 4 0.0779039 0.275491 0.14905
477 4 0.117249 0.292286 0.100148
338 4 0.102411 0.299534 0.112691
337 2 0.0901575 0.287512 0.13087
299 4 0.178089 0.314516 0.154522
278 4 0.182189 0.247663 0.104792
537 4 0.192284 0.302276 0.145512
535 2 0.18746 0.284114 0.129018
536 4 0.182636 0.265952 0.112525
623 4 0.375599 0.274487 0.142619
740 4 0.375964 0.292462 0.132566
739 2 0.395331 0.307489 0.137496
741 4 0.414697 0.322516 0.142427
387 4 0.417862 0.340503 0.134393
300 4 0.15946 0.358507 0.139742
298 2 0.168774 0.336511 0.147132
385 2 0.436716 0.355871 0.1286
386 4 0.45557 0.371238 0.122808
596 4 0.476434 0.424451 0.15281
550 2 0.0597215 0.445303 0.102373
552 4 0.0474297 0.427839 0.115377
551 4 0.0720133 0.462767 0.0893689
314 4 0.00905249 0.494569 0.0983648
1439 4 0.256256 0.465828 0.143762
1560 4 0.259188 0.494132 0.085721
1438 2 0.254294 0.48104 0.124016
1440 4 0.252332 0.496251 0.104269
65 3 0.337407 0.487585 0.0831102
595 2 0.480669 0.424616 0.128168
597 4 0.484903 0.424781 0.103526
495 4 0.482633 0.430675 0.0841588
1538 4 0.0635003 0.0202918 0.211602
232 2 0.0417435 0.0613704 0.253942
1539 4 0.111586 0.0131689 0.199867
688 2 0.152003 0.0355716 0.197372
690 4 0.129545 0.02459 0.196883
1537 2 0.0875433 0.0167304 0.205735
722 4 0.149971 0.0732057 0.24257
1504 2 0.20564 0.048199 0.178924
689 4 0.174461 0.0465532 0.197861
1506 4 0.192403 0.035835 0.19616
311 4 0.455298 0.072299 0.196959
2745 4 0.488608 0.0173975 0.181844
19 3 0.0721225 0.0910842 0.169636
2481 4 0.068123 0.11058 0.169529
2479 2 0.0532267 0.129168 0.177131
2480 4 0.0383303 0.147755 0.184732
233 4 0.0421979 0.0861642 0.250742
236 4 0.148654 0.0877307 0.229429
579 4 0.145173 0.125026 0.173625
237 4 0.146896 0.10806 0.183775
235 2 0.147775 0.0978954 0.206602
674 4 0.208034 0.122024 0.187145
582 4 0.21911 0.157646 0.215443
580 2 0.212538 0.153376 0.191699
27 3 0.236369 0.157695 0.224352
29 3 0.251627 0.137053 0.251807
26 1 0.25543 0.146694 0.231046
30 3 0.260525 0.13056 0.215802
24 3 0.32688 0.116877 0.262218
28 3 0.272811 0.161999 0.232485
758 4 0.357514 0.162858 0.173942
757 2 0.350292 0.155774 0.196808
759 4 0.34307 0.14869 0.219674
25 3 0.330998 0.135263 0.22962
23 3 0.358673 0.112824 0.241794
21 1 0.341872 0.127542 0.24808
310 2 0.457013 0.0792761 0.17301
765 4 0.456779 0.161754 0.176215
521 4 0.44823 0.172417 0.191943
393 4 0.106097 0.193826 0.231093
391 2 0.0998786 0.211525 0.214562
392 4 0.0936598 0.229224 0.198032
513 4 0.102778 0.196461 0.25005
285 4 0.192997 0.162733 0.162176
611 4 0.291267 0.236683 0.234267
707 4 0.274583 0.239818 0.243612
528 4 0.40788 0.249131 0.17461
624 4 0.389208 0.244755 0.180455
520 2 0.456167 0.183094 0.213114
526 2 0.430136 0.238543 0.178824
522 4 0.464105 0.19377 0.234284
527 4 0.452392 0.227955 0.183037
2651 4 0.465582 0.242871 0.189274
762 4 0.471915 0.210367 0.244275
361 2 0.0726696 0.2532 0.177086
389 4 0.0789168 0.290274 0.249377
362 4 0.0812459 0.245173 0.199158
390 4 0.120325 0.272713 0.227521
388 2 0.0996209 0.281494 0.238449
372 4 0.133198 0.283513 0.237137
610 2 0.298657 0.26023 0.230256
612 4 0.306047 0.283778 0.226245
308 4 0.322776 0.294362 0.23237
307 2 0.316614 0.315799 0.243669
309 4 0.310452 0.337237 0.254967
622 2 0.382404 0.259621 0.161537
2536 2 0.380737 0.314865 0.228758
2537 4 0.392142 0.335644 0.2208
2538 4 0.369332 0.294086 0.236717
2652 4 0.496798 0.28021 0.17778
2650 2 0.48119 0.261541 0.183527
748 2 0.0617726 0.350461 0.246234
366 4 0.0288619 0.345206 0.230153
603 4 0.0761444 0.397109 0.221152
364 2 0.00616593 0.352874 0.237314
750 4 0.0864095 0.353904 0.243714
601 2 0.0989354 0.407238 0.222927
497 4 0.294801 0.343326 0.243687
12 3 0.416023 0.350857 0.187169
645 4 0.380434 0.392491 0.180728
13 3 0.396253 0.382749 0.189338
11 1 0.408246 0.367062 0.201524
14 3 0.394485 0.357104 0.217331
729 4 0.375007 0.350216 0.229939
542 4 0.407232 0.33543 0.237091
643 2 0.374935 0.412311 0.194944
15 3 0.425922 0.377077 0.211814
109 3 0.491356 0.396293 0.198716
106 1 0.490351 0.418625 0.192499
541 2 0.426567 0.344291 0.250237
2794 2 0.0125479 0.466033 0.179209
2796 4 0.0302241 0.478886 0.191355
1789 2 0.054804 0.492709 0.213088
1790 4 0.0590135 0.503799 0.235099
602 4 0.121726 0.417367 0.224702
264 4 0.125373 0.431644 0.237046
416 4 0.159351 0.466363 0.202491
263 4 0.164774 0.456817 0.219309
262 2 0.145073 0.444231 0.228177
417 4 0.204902 0.477506 0.18512
415 2 0.182126 0.471934 0.193806
291 4 0.21024 0.457554 0.187467
289 2 0.233718 0.454445 0.195485
767 4 0.293104 0.430188 0.237894
290 4 0.257196 0.451335 0.203504
768 4 0.265727 0.43467 0.196287
766 2 0.279415 0.432429 0.21709
659 4 0.365139 0.450627 0.206249
644 4 0.369435 0.432131 0.209161
658 2 0.378248 0.471457 0.201844
660 4 0.391358 0.492288 0.197439
1574 4 0.406117 0.484575 0.187925
107 3 0.483264 0.419952 0.170654
108 3 0.475231 0.42993 0.205989
1404 4 0.057983 0.0253632 0.259121
1402 2 0.0551132 0.0008205 0.2553
234 4 0.0412891 0.0365765 0.257141
2757 4 0.996068 0.0563199 0.304116
2755 2 0.0176567 0.0490475 0.314423
2756 4 0.039245 0.041775 0.32473
1701 4 0.170702 0.0155053 0.314252
1830 4 0.237833 0.0198256 0.295733
1700 4 0.21806 0.014969 0.2982
1699 2 0.194381 0.0152372 0.306226
1829 4 0.286004 0.0239423 0.282951
1828 2 0.261918 0.021884 0.289342
1496 4 0.2969 0.0083281 0.275507
1495 2 0.318779 0.019086 0.281051
743 4 0.410641 0.0890506 0.246333
1497 4 0.340659 0.029844 0.286595
1517 4 0.353069 0.0271157 0.30194
1516 2 0.361687 0.0231883 0.32508
333 4 0.421855 0.0731769 0.252018
331 2 0.437955 0.0682012 0.270491
332 4 0.454055 0.0632255 0.288963
351 4 0.466519 0.0634403 0.306588
349 2 0.460003 0.0757243 0.327368
721 2 0.162133 0.0864198 0.259967
723 4 0.174295 0.0996338 0.277364
693 4 0.186349 0.114928 0.272163
691 2 0.208991 0.12468 0.267992
692 4 0.231634 0.134431 0.263822
473 4 0.24919 0.122024 0.269489
472 2 0.267132 0.109404 0.281489
474 4 0.285073 0.0967839 0.293489
683 4 0.29064 0.113051 0.304513
682 2 0.310015 0.118726 0.319264
684 4 0.32939 0.124401 0.334015
744 4 0.371486 0.118376 0.256709
742 2 0.391064 0.103713 0.251521
22 3 0.351325 0.145275 0.259275
632 4 0.364839 0.133848 0.267572
631 2 0.376458 0.149393 0.283337
633 4 0.388076 0.164938 0.299102
529 2 0.059591 0.177826 0.313194
531 4 0.0664237 0.197398 0.299214
512 4 0.064646 0.204913 0.281279
511 2 0.0837119 0.200687 0.265664
443 4 0.0387961 0.226459 0.327712
545 4 0.128929 0.182051 0.291992
544 2 0.142792 0.184247 0.312684
546 4 0.156655 0.186443 0.333376
248 4 0.233659 0.170284 0.295894
247 2 0.229708 0.194689 0.292152
403 2 0.190305 0.244673 0.284375
405 4 0.208487 0.228835 0.290989
249 4 0.225758 0.219093 0.28841
708 4 0.260371 0.229504 0.290434
706 2 0.267477 0.234661 0.267023
377 4 0.262513 0.220115 0.308018
376 2 0.266146 0.234519 0.328131
760 2 0.495844 0.21167 0.251409
617 4 0.0667443 0.302326 0.258481
2493 4 0.0011089 0.274981 0.316671
618 4 0.0562864 0.290183 0.305851
444 4 0.0510117 0.270063 0.306494
616 2 0.0615154 0.296255 0.282166
442 2 0.0449039 0.248261 0.317103
370 2 0.153382 0.287883 0.251232
404 4 0.172123 0.260511 0.277761
371 4 0.173566 0.292253 0.265327
402 4 0.168952 0.293147 0.298587
400 2 0.183941 0.309649 0.30991
401 4 0.198929 0.326151 0.321233
749 4 0.0371357 0.347019 0.248753
735 4 0.150933 0.364096 0.321029
677 4 0.131677 0.368723 0.3284
733 2 0.17413 0.366003 0.311896
345 4 0.201286 0.37012 0.282605
343 2 0.226097 0.367025 0.282687
734 4 0.197328 0.36791 0.302763
301 2 0.319878 0.405456 0.260066
344 4 0.250908 0.36393 0.28277
496 2 0.275064 0.355381 0.25319
498 4 0.255328 0.367437 0.262693
560 4 0.402609 0.346167 0.325422
727 2 0.365913 0.366402 0.246687
728 4 0.356819 0.382587 0.263435
302 4 0.338814 0.390255 0.266029
543 4 0.445902 0.353152 0.263382
447 4 0.441813 0.352944 0.282436
446 4 0.456492 0.391477 0.310728
445 2 0.449152 0.372211 0.296582
120 3 0.454648 0.410305 0.316039
1758 4 0.0685102 0.493768 0.249051
1756 2 0.0782421 0.486308 0.270841
1757 4 0.0879739 0.478848 0.292631
776 4 0.102565 0.480494 0.306431
775 2 0.116341 0.481189 0.327286
413 4 0.143461 0.469405 0.341718
303 4 0.300943 0.420656 0.254102
229 2 0.353322 0.496049 0.334069
231 4 0.356776 0.49655 0.309311
116 1 0.461908 0.429566 0.325782
117 3 0.452286 0.44754 0.315127
118 3 0.484977 0.431192 0.323885
3990 4 0.490492 0.503122 0.319459
3988 2 0.498714 0.47962 0.321746
1773 4 0.0433985 0.00585297 0.36746
1772 4 0.054911 0.0281206 0.32419
1771 2 0.0491547 0.0169868 0.345825
318 4 0.112101 0.0575391 0.358897
316 2 0.104937 0.0813897 0.356661
429 4 0.106981 0.0382687 0.356884
427 2 0.118236 0.0191522 0.368419
719 4 0.110404 0.0682448 0.416505
697 2 0.367594 0.00651206 0.380608
699 4 0.356877 0.0221664 0.364321
1518 4 0.370305 0.0192608 0.348221
426 4 0.415629 0.0619709 0.370343
424 2 0.402895 0.0790749 0.357286
258 4 0.430385 0.0467175 0.363872
256 2 0.444442 0.0397146 0.383328
257 4 0.458499 0.0327117 0.402784
350 4 0.453487 0.0880083 0.348149
641 4 0.468204 0.0261817 0.419043
398 4 0.0703083 0.147697 0.329452
530 4 0.0527583 0.158254 0.327173
397 2 0.0802379 0.125067 0.333257
399 4 0.0901675 0.102437 0.337061
317 4 0.0977725 0.10524 0.354424
368 4 0.106205 0.0880307 0.413258
320 4 0.238139 0.108958 0.419912
319 2 0.248914 0.131047 0.415314
605 4 0.239958 0.0904644 0.411885
321 4 0.259688 0.153137 0.410716
726 4 0.376156 0.101873 0.357115
724 2 0.352053 0.107234 0.353181
725 4 0.327949 0.112595 0.349248
425 4 0.390162 0.0961788 0.344229
453 4 0.469848 0.082886 0.358542
451 2 0.482772 0.0959055 0.375531
452 4 0.495696 0.108925 0.392521
2879 4 0.497677 0.116349 0.410294
2655 4 0.999619 0.209944 0.351059
2654 4 0.0414642 0.218452 0.377084
2653 2 0.0205415 0.214198 0.364071
2846 4 0.0426009 0.230648 0.392912
2845 2 0.0416677 0.227589 0.41771
600 4 0.175514 0.193389 0.333134
1035 4 0.0886012 0.184974 0.389345
1033 2 0.105235 0.199644 0.400891
598 2 0.187169 0.202045 0.353492
599 4 0.198823 0.2107 0.37385
686 4 0.216066 0.201298 0.376653
685 2 0.218555 0.216468 0.396373
378 4 0.269778 0.248923 0.348243
614 4 0.283633 0.255071 0.361267
715 2 0.353806 0.247994 0.404478
268 2 0.488223 0.186484 0.355451
269 4 0.468686 0.1832 0.370705
420 4 0.466347 0.185908 0.391375
418 2 0.44891 0.200953 0.40111
2849 4 0.0167753 0.314617 0.393106
2850 4 0.0207258 0.272026 0.367201
2848 2 0.0187506 0.293322 0.380154
510 4 0.195154 0.326537 0.341332
613 2 0.307068 0.258621 0.36923
615 4 0.330502 0.262171 0.377193
716 4 0.347453 0.249742 0.380358
2694 4 0.996203 0.399472 0.370672
2927 4 0.995044 0.379077 0.367318
676 2 0.133679 0.373721 0.352817
678 4 0.135681 0.37872 0.377234
508 2 0.19726 0.344103 0.359001
509 4 0.199366 0.361669 0.37667
502 2 0.213943 0.388763 0.402455
503 4 0.197536 0.372886 0.392261
559 2 0.383533 0.341912 0.341016
561 4 0.364457 0.337658 0.356611
336 4 0.350476 0.345987 0.367809
334 2 0.344157 0.366724 0.380267
335 4 0.337837 0.387461 0.392726
587 4 0.345301 0.392847 0.409593
752 4 0.41358 0.39665 0.3888
751 2 0.427175 0.412678 0.375257
927 4 0.408549 0.395361 0.40837
925 2 0.40777 0.371283 0.415065
3717 4 0.00994451 0.459099 0.345246
547 2 0.00471174 0.451954 0.40699
2692 2 0.00632549 0.419825 0.360257
2693 4 0.0164484 0.440177 0.349842
501 4 0.0451058 0.460809 0.391345
499 2 0.0564884 0.482277 0.385451
548 4 0.0266192 0.452375 0.394946
777 4 0.130116 0.481884 0.348141
412 2 0.157621 0.448825 0.34278
414 4 0.171781 0.428245 0.343842
569 4 0.175502 0.433533 0.362946
1436 4 0.245233 0.469772 0.386695
568 2 0.184955 0.4323 0.386061
1435 2 0.226042 0.477443 0.400766
570 4 0.194408 0.431067 0.409175
438 4 0.249249 0.46788 0.367663
435 4 0.314621 0.479859 0.371235
437 4 0.297241 0.476745 0.378567
436 2 0.273245 0.472313 0.373115
433 2 0.320479 0.489645 0.393486
434 4 0.326338 0.499431 0.415737
230 4 0.349868 0.495549 0.358828
1743 4 0.429381 0.492199 0.369838
1741 2 0.453323 0.493715 0.362792
119 3 0.455754 0.429932 0.348151
753 4 0.440771 0.428706 0.361713
1742 4 0.477265 0.49523 0.355745
2237 4 0.0248217 0.0246579 0.505629
720 4 0.136722 0.0307058 0.436478
718 2 0.123563 0.0494753 0.426492
342 4 0.134894 0.0361673 0.455816
340 2 0.155576 0.0243236 0.463376
341 4 0.176258 0.0124799 0.470937
1817 4 0.237349 0.0377163 0.408842
2430 4 0.175411 0.999508 0.486583
1150 2 0.227655 0.0567693 0.480059
1152 4 0.217448 0.0539604 0.457407
606 4 0.220577 0.0527584 0.438406
604 2 0.230268 0.0716114 0.425146
1151 4 0.237862 0.0595782 0.502711
1816 2 0.2509 0.0187391 0.417864
843 4 0.332873 0.00348211 0.486721
841 2 0.353339 0.99946 0.50051
3489 4 0.482717 0.0394712 0.476059
642 4 0.477579 0.0521862 0.460715
640 2 0.472892 0.0391839 0.439879
458 4 0.997444 0.154531 0.446671
457 2 0.0209697 0.149684 0.453616
459 4 0.0444953 0.144837 0.460561
470 4 0.0601936 0.142254 0.474256
469 2 0.0775867 0.159546 0.479119
369 4 0.126723 0.128178 0.43489
367 2 0.116464 0.108104 0.424074
276 4 0.124521 0.143482 0.447164
274 2 0.139094 0.157691 0.461687
982 2 0.0574881 0.215539 0.476241
2847 4 0.0407345 0.224531 0.442508
984 4 0.0577046 0.204597 0.498722
983 4 0.0572716 0.226481 0.453759
471 4 0.0949798 0.176838 0.483981
1034 4 0.121868 0.214313 0.412438
275 4 0.153666 0.1719 0.47621
857 4 0.147889 0.18468 0.490909
259 2 0.113125 0.210435 0.474341
348 4 0.129734 0.245328 0.488317
261 4 0.108359 0.186047 0.471561
260 4 0.117892 0.234822 0.477122
687 4 0.221045 0.231638 0.416092
411 4 0.256533 0.173987 0.413205
409 2 0.267068 0.195483 0.420426
410 4 0.277603 0.216978 0.427647
489 4 0.281959 0.232702 0.440206
717 4 0.360158 0.246247 0.428598
419 4 0.431472 0.215997 0.410846
584 4 0.439488 0.235793 0.45367
304 2 0.469067 0.223898 0.4675
305 4 0.490012 0.211132 0.462652
515 4 0.494709 0.207268 0.481713
306 4 0.448121 0.236663 0.472347
347 4 0.114109 0.290521 0.502949
346 2 0.121921 0.267925 0.495633
375 4 0.162509 0.299168 0.47757
711 4 0.159982 0.316179 0.487125
373 2 0.175591 0.285459 0.493883
487 2 0.291473 0.253924 0.449387
488 4 0.300988 0.275145 0.458569
651 4 0.29858 0.267375 0.47689
240 4 0.411229 0.281698 0.436026
585 4 0.401049 0.266113 0.443474
238 2 0.405329 0.304705 0.42821
239 4 0.399429 0.327711 0.420395
583 2 0.420269 0.250953 0.448572
936 4 0.0180794 0.421237 0.489462
4433 4 0.00979455 0.408478 0.47686
407 4 0.156047 0.380178 0.455866
406 2 0.133135 0.389382 0.451929
710 4 0.156376 0.36182 0.46701
709 2 0.158179 0.339 0.477068
504 4 0.23035 0.40464 0.412649
634 2 0.239347 0.425096 0.441346
635 4 0.246225 0.406992 0.425531
926 4 0.40699 0.347205 0.42176
588 4 0.349362 0.386337 0.459008
772 2 0.360322 0.360068 0.488797
773 4 0.359967 0.37121 0.466416
586 2 0.347332 0.389592 0.434301
538 2 0.0873027 0.486477 0.501795
681 4 0.0880509 0.455849 0.471644
934 2 0.0256272 0.438884 0.505487
680 4 0.102506 0.408845 0.462567
408 4 0.110222 0.398587 0.447992
539 4 0.0933584 0.467993 0.486083
679 2 0.0952786 0.432347 0.467106
1437 4 0.20685 0.485114 0.414838
636 4 0.23247 0.443199 0.457162
4 3 0.326155 0.483974 0.458946
593 4 0.427173 0.468227 0.457097
5 3 0.335625 0.482292 0.422543
668 4 0.372147 0.47012 0.47592
1 1 0.34228 0.489345 0.443149
667 2 0.356942 0.465043 0.495109
592 2 0.403384 0.475684 0.459018
3 3 0.362489 0.479424 0.448769
594 4 0.379596 0.48314 0.46094
1126 2 0.015958 0.0650833 0.543241
1128 4 0.0318949 0.0527979 0.558082
939 4 0.0359576 0.0345032 0.554717
937 2 0.0547958 0.0217691 0.565116
2236 2 0.0462333 0.0120239 0.508294
3110 4 0.00488903 0.0215225 0.503365
2238 4 0.0676449 0.99939 0.51096
962 4 0.234326 0.0437729 0.554571
1181 4 0.244525 0.079965 0.505759
961 2 0.254409 0.0300933 0.548678
963 4 0.274492 0.0164137 0.542785
430 2 0.308052 0.00272146 0.540268
432 4 0.293633 0.0231434 0.540732
4466 4 0.410127 0.0582754 0.529356
4465 2 0.419527 0.0412083 0.545026
4467 4 0.428927 0.0241411 0.560695
3009 4 0.483689 0.0556521 0.560673
810 4 0.47809 0.0656146 0.577533
90 3 0.43607 0.0159302 0.57487
86 1 0.442602 0.994171 0.57646
3007 2 0.490794 0.0701326 0.541568
1180 2 0.251647 0.101263 0.516751
1182 4 0.258769 0.122562 0.527744
1032 4 0.275674 0.127452 0.517385
1030 2 0.295589 0.13826 0.506812
1031 4 0.315503 0.149068 0.496239
467 4 0.326987 0.137187 0.505952
574 2 0.401529 0.0882086 0.51545
576 4 0.383392 0.105184 0.512606
466 2 0.3501 0.129257 0.511254
575 4 0.419665 0.0712334 0.518295
266 4 0.336755 0.149658 0.55947
468 4 0.373213 0.121328 0.516555
877 2 0.0524199 0.20483 0.540096
879 4 0.0490208 0.21304 0.563467
1272 4 0.0462749 0.221532 0.5816
878 4 0.0558189 0.196621 0.516724
856 2 0.155931 0.176725 0.513208
858 4 0.163973 0.168771 0.535506
1220 4 0.182427 0.176303 0.536986
1219 2 0.189095 0.188608 0.557705
1221 4 0.195763 0.200914 0.578424
1212 4 0.196971 0.218487 0.571664
1210 2 0.216657 0.231606 0.579758
267 4 0.34189 0.199366 0.5576
265 2 0.339323 0.174512 0.558535
516 4 0.520569 0.204136 0.524399
514 2 0.507639 0.205702 0.503056
695 4 0.0739245 0.30128 0.561321
694 2 0.0848797 0.318022 0.576317
325 2 0.127323 0.313797 0.533572
327 4 0.119558 0.293588 0.521062
791 4 0.204967 0.284477 0.572269
790 2 0.196334 0.275209 0.550711
792 4 0.187702 0.26594 0.529153
374 4 0.188674 0.27175 0.510195
1211 4 0.236343 0.244726 0.587853
650 4 0.327162 0.291414 0.510145
649 2 0.312871 0.279395 0.493518
813 4 0.338748 0.290218 0.526848
811 2 0.352535 0.282155 0.546085
812 4 0.366321 0.274091 0.565323
872 4 0.422583 0.275842 0.545702
871 2 0.443797 0.287162 0.538843
873 4 0.46501 0.298482 0.531985
906 4 0.480629 0.298416 0.544806
904 2 0.49378 0.287255 0.562908
326 4 0.135088 0.334005 0.546082
7 3 0.145532 0.345194 0.558258
9 3 0.157641 0.378699 0.546282
6 1 0.16413 0.357137 0.551883
8 3 0.173784 0.346747 0.533519
804 4 0.188941 0.368003 0.587027
10 3 0.178953 0.357724 0.569162
802 2 0.206814 0.383191 0.578366
803 4 0.224688 0.39838 0.569704
1160 4 0.225312 0.418741 0.56779
929 4 0.340468 0.348244 0.5159
928 2 0.339487 0.350437 0.540788
930 4 0.338507 0.35263 0.565675
774 4 0.360676 0.348925 0.511177
1938 4 0.0434066 0.467767 0.535533
1936 2 0.0512802 0.486123 0.550575
935 4 0.0331749 0.45653 0.521513
1937 4 0.0591539 0.504479 0.565616
897 4 0.167106 0.481226 0.543713
895 2 0.183965 0.483231 0.562069
1159 2 0.248738 0.425694 0.562492
1161 4 0.272163 0.432648 0.557195
882 4 0.331813 0.455482 0.531934
881 4 0.34148 0.493312 0.563178
880 2 0.336646 0.474397 0.547556
1000 2 0.392023 0.44452 0.567801
1002 4 0.370128 0.437667 0.577743
1001 4 0.413918 0.451373 0.55786
669 4 0.341737 0.459965 0.514298
938 4 0.073634 0.009035 0.575516
852 4 0.0254432 0.0770766 0.657072
945 4 0.10437 0.0333207 0.631107
2318 4 0.115838 0.0187595 0.638624
943 2 0.0951591 0.0415942 0.652829
949 2 0.291202 0.00984412 0.639075
950 4 0.31286 0.00427038 0.627893
1283 4 0.310953 0.0758853 0.644415
1004 4 0.316913 0.0676436 0.662179
951 4 0.269544 0.0154179 0.650257
2283 4 0.395609 0.0227959 0.645877
2281 2 0.409063 0.0041381 0.636076
809 4 0.486642 0.056431 0.62594
808 2 0.482366 0.0610228 0.601736
4226 4 0.493672 0.0728017 0.636211
4225 2 0.481479 0.0866839 0.653056
1153 2 0.0919205 0.15718 0.624789
1155 4 0.104246 0.144233 0.642272
907 2 0.24452 0.121692 0.618275
909 4 0.221778 0.131221 0.622417
1227 4 0.211284 0.122091 0.63787
1225 2 0.202694 0.13145 0.659406
908 4 0.267262 0.112162 0.614133
1282 2 0.292725 0.0918232 0.638178
1284 4 0.274497 0.107761 0.631942
1003 2 0.332913 0.0827972 0.673992
888 4 0.341249 0.120984 0.617586
886 2 0.351538 0.138367 0.632322
887 4 0.361826 0.15575 0.647058
1270 2 0.0597398 0.205395 0.595146
1154 4 0.079595 0.170127 0.607307
1271 4 0.0732046 0.189258 0.608691
900 4 0.367735 0.159749 0.665528
898 2 0.388818 0.172562 0.661466
899 4 0.409901 0.185375 0.657403
1194 4 0.423074 0.201023 0.659513
696 4 0.0958349 0.334763 0.591313
1191 4 0.212667 0.299065 0.58246
1189 2 0.202449 0.321861 0.583511
796 2 0.240769 0.278058 0.671344
797 4 0.246742 0.283251 0.647626
953 4 0.427185 0.283242 0.66278
952 2 0.447859 0.297227 0.661315
1243 2 0.00594769 0.402211 0.660163
1244 4 0.0068376 0.378728 0.668704
1260 4 0.0855255 0.381444 0.634487
1259 4 0.102161 0.352414 0.597322
1258 2 0.0938434 0.366929 0.615904
1208 4 0.0885792 0.394668 0.648994
1190 4 0.192231 0.344657 0.584563
1172 4 0.257733 0.389917 0.601428
1171 2 0.280179 0.39741 0.609503
1238 4 0.33675 0.35845 0.584603
1237 2 0.348748 0.370341 0.603038
1027 2 0.372222 0.358431 0.65451
1029 4 0.373005 0.374157 0.635087
1239 4 0.360745 0.382233 0.621472
1245 4 0.00505777 0.425694 0.651622
896 4 0.200824 0.485235 0.580425
1136 4 0.23809 0.437534 0.623537
1137 4 0.195427 0.45855 0.638993
1135 2 0.216758 0.448042 0.631265
1067 4 0.185993 0.454043 0.655257
1173 4 0.302625 0.404904 0.617578
891 4 0.316849 0.415387 0.609599
889 2 0.333562 0.426441 0.594644
890 4 0.350276 0.437495 0.579689
862 2 0.0865485 0.0691387 0.715518
863 4 0.0732375 0.0740719 0.694935
850 2 0.0427921 0.0836002 0.673854
851 4 0.0601409 0.0901239 0.690636
864 4 0.0998595 0.0642056 0.736101
944 4 0.0859479 0.0498677 0.674552
2286 4 0.118697 0.0552218 0.738703
825 4 0.227703 0.00976039 0.688129
823 2 0.248306 0.00459415 0.674937
2399 4 0.29923 0.0518931 0.72046
2398 2 0.277336 0.0423441 0.727854
1049 4 0.318981 0.0439764 0.71839
2400 4 0.255443 0.0327951 0.735249
1149 4 0.263688 0.0168532 0.744628
1091 4 0.356216 0.0101638 0.671788
1048 2 0.332985 0.0289381 0.704144
1050 4 0.346988 0.0138998 0.689899
1143 4 0.372388 0.0722642 0.741542
2321 4 0.439712 0.0405696 0.724894
1162 2 0.489717 0.0348705 0.697174
1163 4 0.467106 0.0440132 0.702682
42 3 0.455267 0.0590675 0.698455
41 1 0.432793 0.0634094 0.700732
45 3 0.425032 0.053128 0.719513
44 3 0.421653 0.0552733 0.682075
43 3 0.429717 0.0863464 0.702418
1226 4 0.194104 0.140808 0.680942
829 2 0.343469 0.134884 0.704401
830 4 0.336696 0.158762 0.707428
831 4 0.350243 0.111007 0.701374
1005 4 0.348913 0.0979508 0.685805
4227 4 0.469285 0.100566 0.669902
1215 4 0.0757382 0.21233 0.741039
1213 2 0.0978492 0.202298 0.747009
1240 2 0.234735 0.230012 0.713779
1241 4 0.210897 0.230554 0.721307
978 4 0.347598 0.175195 0.712151
1242 4 0.258572 0.229469 0.706251
917 4 0.273049 0.225979 0.691965
1167 4 0.327441 0.242339 0.692964
977 4 0.381906 0.208172 0.727518
976 2 0.364752 0.191683 0.719834
1193 4 0.449915 0.212704 0.700057
1192 2 0.436494 0.206864 0.679785
948 4 0.147578 0.320252 0.67367
1064 4 0.165768 0.332566 0.740157
946 2 0.153267 0.326406 0.697227
947 4 0.158956 0.33256 0.720784
1278 4 0.168457 0.251798 0.685873
798 4 0.234796 0.272865 0.695062
1277 4 0.214782 0.268617 0.694353
1276 2 0.191619 0.260208 0.690113
916 2 0.293618 0.238417 0.698852
918 4 0.314186 0.250855 0.705738
1007 4 0.319716 0.303795 0.742052
1165 2 0.346245 0.256565 0.684644
1166 4 0.365049 0.270791 0.676324
805 2 0.375886 0.30431 0.678972
806 4 0.370049 0.283278 0.691169
807 4 0.381723 0.325341 0.666775
954 4 0.468534 0.311212 0.65985
1206 4 0.443373 0.322434 0.705756
1204 2 0.423938 0.33063 0.719182
3121 2 0.476996 0.334497 0.696671
1207 2 0.0958412 0.395989 0.672883
1209 4 0.103103 0.39731 0.696773
993 4 0.0921964 0.411567 0.705985
1063 2 0.163058 0.35646 0.747003
894 4 0.150059 0.394623 0.762259
1019 4 0.391048 0.350586 0.740324
1028 4 0.371439 0.342705 0.673933
1205 4 0.404503 0.338827 0.732609
3122 4 0.453403 0.339824 0.70301
1269 4 0.47534 0.42199 0.676886
991 2 0.0738555 0.427892 0.710705
2172 4 0.0128171 0.482095 0.705163
2170 2 0.0338372 0.468848 0.702362
2171 4 0.0548572 0.455601 0.699562
992 4 0.0555145 0.444217 0.715425
1066 2 0.19305 0.464895 0.676648
1176 4 0.216968 0.467194 0.705404
1174 2 0.239323 0.457807 0.711513
1068 4 0.200108 0.475748 0.69804
1138 2 0.288761 0.488418 0.695269
1139 4 0.311797 0.479462 0.699053
1175 4 0.261678 0.448421 0.717621
1229 4 0.325393 0.467995 0.707348
1235 4 0.268303 0.430509 0.725441
1101 4 0.38495 0.454328 0.736463
1228 2 0.344862 0.462071 0.721875
1230 4 0.364331 0.456146 0.736402
1099 2 0.404825 0.456007 0.721385
1268 4 0.438554 0.444459 0.702238
1267 2 0.456947 0.433224 0.689562
1100 4 0.4247 0.457685 0.706307
2276 4 5.89041e-05 0.00993498 0.833725
1296 4 0.0142146 0.00660352 0.846157
910 2 0.0826497 0.0452025 0.822993
2284 2 0.123807 0.0500197 0.762619
2285 4 0.128916 0.0448177 0.786536
911 4 0.102344 0.0377191 0.809528
1202 4 0.116162 0.0758522 0.79225
2049 4 0.145502 0.0351409 0.79361
2047 2 0.139532 0.0155057 0.807893
874 2 0.24445 0.0646758 0.828982
876 4 0.234559 0.0530472 0.80918
1257 4 0.305804 0.0694694 0.780148
1255 2 0.296506 0.0926778 0.780471
1141 2 0.391713 0.0703122 0.757288
1142 4 0.411037 0.0683603 0.773034
1113 4 0.408649 0.0735059 0.793046
2320 2 0.445549 0.030006 0.746792
2322 4 0.451387 0.0194424 0.76869
1112 4 0.442554 0.0738464 0.829802
1111 2 0.425602 0.0736761 0.811424
2442 4 0.456495 0.00283155 0.779609
2990 4 0.99949 0.129441 0.771744
834 4 0.0142627 0.142608 0.777874
1201 2 0.124861 0.0958712 0.804446
1203 4 0.13356 0.11589 0.816642
33 3 0.159091 0.121067 0.823439
34 3 0.143342 0.155639 0.824514
31 1 0.160156 0.142701 0.815118
35 3 0.157997 0.142422 0.792448
32 3 0.180534 0.15181 0.820676
1256 4 0.287208 0.115886 0.780794
840 4 0.290948 0.125865 0.796608