ITEM: TIMESTEP
2360000
ITEM: NUMBER OF ATOMS
4590
ITEM: BOX BOUNDS pp pp pp
-9.9985700000000008e+00 9.9985700000000008e+00
-9.9985700000000008e+00 9.9985700000000008e+00
-9.9985700000000008e+00 9.9985700000000008e+00
ITEM: ATOMS id type xs ys zs
3752 4 0.0658577 0.0383924 0.0483281
3751 2 0.0436613 0.0486443 0.0535622
3753 4 0.0214649 0.0588962 0.0587962
702 4 0.0121193 0.0718673 0.0481327
465 4 0.0718806 0.0213497 0.0545849
463 2 0.0740493 0.00342096 0.0372923
422 4 0.189742 0.0564037 0.034402
567 4 0.198852 0.0616157 0.0519693
565 2 0.210173 0.042392 0.0632593
421 2 0.187513 0.0463314 0.0116257
566 4 0.221494 0.0231683 0.0745494
1633 2 0.246648 0.00749426 0.0221979
490 2 0.281585 0.0451253 0.0431689
654 4 0.319985 0.0559047 0.0536399
491 4 0.30645 0.0473608 0.041801
492 4 0.256719 0.0428898 0.0445369
1634 4 0.252237 0.0302035 0.0310427
652 2 0.336236 0.0672597 0.0688765
745 2 0.448466 0.0342879 0.013856
295 2 0.464341 0.0170171 0.0693049
746 4 0.454689 0.0249351 0.0361938
297 4 0.458611 0.00760235 0.0468615
380 4 0.03659 0.128028 0.0555298
379 2 0.029922 0.124583 0.0793803
461 4 0.305056 0.164069 0.0738422
460 2 0.285004 0.165052 0.0589377
462 4 0.264952 0.166036 0.0440332
771 4 0.462913 0.124819 0.0347165
1013 4 0.472076 0.110525 0.022695
769 2 0.455139 0.134655 0.0563498
770 4 0.447365 0.14449 0.0779832
2976 4 0.501446 0.0851765 0.0823405
1012 2 0.463211 0.114287 0.999621
555 4 0.0317205 0.18982 0.0090357
2806 2 0.00410429 0.214671 0.995508
914 4 0.166248 0.249061 0.995831
915 4 0.171071 0.208053 0.0240414
913 2 0.16866 0.228557 0.00993643
358 2 0.243088 0.173817 0.0156403
359 4 0.251513 0.180072 0.0383357
558 4 0.315111 0.176314 0.0605985
556 2 0.33837 0.183302 0.0546483
557 4 0.361628 0.190289 0.0486981
517 2 0.383953 0.217207 0.0530151
518 4 0.360348 0.209848 0.0492951
519 4 0.407558 0.224565 0.0567352
1095 4 0.425927 0.214559 0.0510717
3347 4 0.478259 0.200367 0.0287536
1093 2 0.444677 0.201323 0.0411528
1094 4 0.463428 0.188086 0.0312339
1069 2 0.423737 0.255885 0.00815676
3346 2 0.497272 0.21515 0.0220333
2624 4 0.0132633 0.261438 0.0386918
475 2 0.0982552 0.286312 0.060393
476 4 0.0982656 0.297484 0.0380243
483 4 0.21211 0.296471 0.0364438
481 2 0.196428 0.305858 0.0535063
286 2 0.188608 0.281129 0.00389576
287 4 0.202329 0.295786 0.0187988
482 4 0.180745 0.315244 0.0705688
572 4 0.265049 0.269772 0.0803767
573 4 0.267037 0.274679 0.0306506
571 2 0.266043 0.272225 0.0555137
357 4 0.279082 0.260999 0.0214957
355 2 0.29755 0.271811 0.00856542
955 2 0.317961 0.32753 0.0345468
956 4 0.304325 0.321232 0.0145571
356 4 0.316019 0.282623 0.995635
608 4 0.328947 0.327742 0.0742734
1071 4 0.433065 0.272602 0.0242417
294 4 0.0618813 0.342397 0.0375367
620 4 0.0435374 0.34836 0.0330504
619 2 0.0290951 0.353885 0.0526989
621 4 0.0146527 0.359411 0.0723474
551 4 0.994745 0.416422 0.0407693
1169 4 0.114449 0.33529 0.0153809
1168 2 0.133717 0.335205 0.999447
293 4 0.111782 0.340119 0.0352042
292 2 0.0868316 0.341258 0.0363705
456 4 0.175695 0.383811 0.0580844
454 2 0.175031 0.359319 0.0630762
455 4 0.174368 0.334828 0.068068
1289 4 0.186916 0.408242 0.0133307
957 4 0.331597 0.333827 0.0545366
38 3 0.356415 0.352876 0.0202376
39 3 0.39189 0.341502 0.0277612
36 1 0.378252 0.352309 0.0124116
40 3 0.385796 0.373506 0.00888727
315 4 0.00867371 0.423219 0.053903
251 4 0.140491 0.453778 0.014109
795 4 0.124393 0.463893 0.0149364
250 2 0.158438 0.437539 0.00783433
793 2 0.120003 0.487572 0.00821089
252 4 0.176384 0.421299 0.00155968
1438 2 0.233712 0.495676 0.0925411
63 3 0.327418 0.472797 0.0625216
61 1 0.329371 0.48217 0.0413855
62 3 0.308509 0.488623 0.0341557
1559 4 0.294931 0.484359 0.0483104
64 3 0.337947 0.466529 0.0265456
65 3 0.342999 0.500398 0.0421978
1568 4 0.483885 0.49342 0.0757797
673 2 0.238615 0.00657471 0.111049
674 4 0.228645 0.0105732 0.0884707
690 4 0.173539 0.00370915 0.143737
688 2 0.169868 0.00881301 0.167937
1475 4 0.247528 0.014014 0.150105
653 4 0.352486 0.0786147 0.084113
484 2 0.386832 0.0543147 0.0943326
486 4 0.370802 0.0718138 0.0864591
485 4 0.402863 0.0368155 0.102206
1608 4 0.410296 0.0187537 0.0948093
311 4 0.402064 0.0803906 0.124947
630 4 0.49391 0.0770233 0.0990954
296 4 0.470071 0.0264319 0.0917483
628 2 0.479056 0.0573897 0.103461
629 4 0.464203 0.037756 0.107828
2745 4 0.497203 0.0212759 0.130431
310 2 0.419209 0.0828208 0.142984
312 4 0.436354 0.085251 0.161021
2743 2 0.501083 0.0240332 0.154977
20 3 0.0368439 0.099303 0.126709
381 4 0.0232539 0.121137 0.103231
17 3 0.0303239 0.134685 0.116784
16 1 0.0393762 0.121057 0.132954
19 3 0.0283501 0.12487 0.153011
18 3 0.0619176 0.126068 0.13523
578 4 0.0801334 0.126076 0.129581
577 2 0.104509 0.121005 0.131883
579 4 0.128884 0.115934 0.134185
237 4 0.138469 0.122366 0.149202
255 4 0.387733 0.124635 0.0928657
253 2 0.392054 0.145992 0.105128
2469 4 0.438805 0.14815 0.096317
2467 2 0.450408 0.138271 0.11614
2724 4 0.468714 0.109977 0.143694
2468 4 0.462012 0.128392 0.135963
2722 2 0.492537 0.114915 0.14946
279 4 0.175838 0.241616 0.130676
737 4 0.161817 0.237578 0.144145
736 2 0.171651 0.221611 0.160684
254 4 0.396374 0.16735 0.11739
322 2 0.373998 0.19963 0.128274
323 4 0.368133 0.219773 0.141877
324 4 0.379864 0.179487 0.114671
672 4 0.357062 0.232092 0.132098
624 4 0.40735 0.250161 0.164394
2650 2 0.44936 0.230158 0.128273
2651 4 0.429558 0.237618 0.141593
2652 4 0.469162 0.222698 0.114953
527 4 0.436614 0.220199 0.16447
339 4 0.0817404 0.241143 0.139399
647 4 0.0300859 0.263484 0.146901
646 2 0.0342645 0.28676 0.155021
298 2 0.0727662 0.324858 0.149347
300 4 0.0490427 0.317286 0.147101
648 4 0.0384432 0.310037 0.163141
363 4 0.0849589 0.25805 0.151275
337 2 0.08418 0.25335 0.117714
477 4 0.0982447 0.27514 0.0827618
338 4 0.0866196 0.265557 0.09603
535 2 0.126871 0.31124 0.125128
536 4 0.145935 0.300759 0.112803
278 4 0.157415 0.285057 0.114118
537 4 0.107807 0.321721 0.137452
277 2 0.166626 0.263336 0.122397
299 4 0.0964897 0.33243 0.151593
607 2 0.335319 0.308862 0.0893768
755 4 0.275102 0.262148 0.132938
756 4 0.264665 0.285277 0.0898468
754 2 0.269883 0.273713 0.111392
671 4 0.33655 0.272349 0.110665
498 4 0.289355 0.332381 0.162183
344 4 0.270488 0.327348 0.167605
609 4 0.341692 0.289982 0.10448
670 2 0.346806 0.252221 0.121381
622 2 0.402565 0.266075 0.145712
740 4 0.410812 0.296554 0.126153
623 4 0.397781 0.281989 0.127029
739 2 0.41359 0.319427 0.135864
657 4 0.0140536 0.372866 0.0875016
655 2 0.999835 0.364206 0.106156
385 2 0.390736 0.375786 0.136924
387 4 0.402171 0.353577 0.138002
386 4 0.379301 0.397996 0.135846
741 4 0.416368 0.342299 0.145575
597 4 0.487829 0.394193 0.146162
595 2 0.47538 0.376301 0.158413
262 2 0.167799 0.484084 0.165451
263 4 0.178424 0.494224 0.145216
1439 4 0.213716 0.489086 0.106028
1567 2 0.483941 0.488366 0.100267
1569 4 0.483997 0.483311 0.124754
1573 2 0.423209 0.485945 0.172465
233 4 0.0601235 0.0224542 0.235432
232 2 0.0549457 0.00421639 0.21913
689 4 0.166197 0.0139169 0.192138
1506 4 0.18624 0.0117117 0.195127
1504 2 0.189988 0.0238466 0.216664
1505 4 0.193736 0.0359815 0.238202
332 4 0.448912 0.0719415 0.256811
2481 4 0.0251005 0.11897 0.171478
2479 2 0.00139901 0.126463 0.174177
235 2 0.147721 0.112801 0.170371
236 4 0.156972 0.103236 0.191539
722 4 0.176799 0.103925 0.185753
721 2 0.189526 0.105769 0.207196
693 4 0.196972 0.0980693 0.245623
723 4 0.202252 0.107614 0.22864
581 4 0.230392 0.166609 0.210895
580 2 0.240086 0.169053 0.233813
764 4 0.435441 0.101545 0.170997
521 4 0.446283 0.155995 0.205346
763 2 0.439478 0.118734 0.188701
765 4 0.443514 0.135923 0.206405
393 4 0.0963571 0.211323 0.240168
391 2 0.106706 0.220682 0.219421
362 4 0.11577 0.24749 0.18922
392 4 0.117056 0.230042 0.198673
361 2 0.100365 0.25277 0.170248
738 4 0.181485 0.205645 0.177223
284 4 0.195975 0.198112 0.166316
285 4 0.229584 0.183535 0.200355
283 2 0.21278 0.190823 0.183336
25 3 0.34482 0.177274 0.240435
759 4 0.356437 0.192578 0.233135
758 4 0.383732 0.194816 0.191293
757 2 0.370084 0.193697 0.212214
528 4 0.400043 0.190504 0.181248
526 2 0.418328 0.205352 0.172859
520 2 0.453481 0.177926 0.214959
522 4 0.460679 0.199857 0.224572
762 4 0.473842 0.210956 0.211133
760 2 0.48661 0.226327 0.226163
389 4 0.127732 0.262423 0.195992
390 4 0.137078 0.304352 0.221591
388 2 0.132405 0.283387 0.208791
372 4 0.140812 0.311298 0.239885
345 4 0.224305 0.310053 0.175892
343 2 0.247397 0.318701 0.171749
612 4 0.282632 0.252785 0.229152
308 4 0.297306 0.263412 0.237822
307 2 0.307543 0.273261 0.217246
309 4 0.317781 0.28311 0.19667
497 4 0.315067 0.293584 0.180471
496 2 0.302211 0.312983 0.171327
109 3 0.473391 0.316416 0.199872
749 4 0.0785182 0.379635 0.237392
366 4 0.0871418 0.364905 0.244833
748 2 0.0870887 0.398718 0.223697
750 4 0.0956591 0.417802 0.210002
11 1 0.405342 0.387503 0.235171
12 3 0.403869 0.376905 0.214808
13 3 0.401116 0.410121 0.232178
14 3 0.389607 0.378339 0.249552
15 3 0.42627 0.384565 0.243659
542 4 0.445203 0.389989 0.23755
541 2 0.462157 0.373644 0.229148
108 3 0.491158 0.349165 0.207369
543 4 0.479111 0.3573 0.220746
107 3 0.4759 0.343132 0.173555
106 1 0.48688 0.333151 0.191132
596 4 0.462931 0.358409 0.170663
2794 2 0.00384726 0.486226 0.200618
2795 4 0.00548754 0.4631 0.191256
2786 4 0.996615 0.450642 0.175975
603 4 0.110453 0.426968 0.201259
264 4 0.157173 0.473943 0.185686
602 4 0.141253 0.461258 0.181862
733 2 0.152884 0.431071 0.24394
601 2 0.125853 0.444113 0.19156
734 4 0.168414 0.427456 0.22468
417 4 0.173144 0.426987 0.204751
291 4 0.227616 0.425049 0.184359
416 4 0.215517 0.441033 0.182214
415 2 0.194331 0.43401 0.193482
289 2 0.249066 0.429002 0.196582
290 4 0.270517 0.432956 0.208806
658 2 0.300244 0.479483 0.194293
768 4 0.284565 0.432157 0.221856
659 4 0.299942 0.454575 0.196456
766 2 0.29712 0.424819 0.242196
660 4 0.300547 0.504391 0.19213
645 4 0.402058 0.425463 0.220209
643 2 0.415614 0.445258 0.213167
644 4 0.42917 0.465052 0.206125
1574 4 0.41711 0.475443 0.194321
3696 4 0.483148 0.434926 0.225524
3694 2 0.491501 0.452973 0.24068
732 4 0.0799896 0.00995868 0.279193
730 2 0.0784427 0.0348759 0.277809
731 4 0.0768957 0.0597932 0.276425
318 4 0.0808347 0.0787827 0.270665
1701 4 0.166205 0.0113322 0.311545
1699 2 0.190942 0.0142247 0.309331
1700 4 0.215679 0.0171171 0.307118
1830 4 0.228098 0.0186915 0.323531
474 4 0.245791 0.0694402 0.315708
472 2 0.251436 0.0841879 0.296322
1828 2 0.248042 0.0328532 0.328715
726 4 0.389735 0.0824111 0.309217
453 4 0.49408 0.0606649 0.30475
351 4 0.460025 0.0547456 0.253275
349 2 0.469765 0.0522198 0.276165
350 4 0.479505 0.0496941 0.299054
531 4 0.0682678 0.159944 0.318808
316 2 0.100102 0.0934297 0.276942
399 4 0.11939 0.12512 0.294487
317 4 0.11937 0.108077 0.28322
397 2 0.103358 0.13959 0.307086
398 4 0.0873255 0.154061 0.319685
691 2 0.219939 0.102194 0.254606
692 4 0.242906 0.106318 0.263589
473 4 0.257081 0.0989356 0.276935
29 3 0.253601 0.121437 0.277173
27 3 0.256459 0.158465 0.27139
30 3 0.286729 0.1389 0.281078
28 3 0.259517 0.145044 0.306364
26 1 0.264235 0.140888 0.284029
377 4 0.277952 0.154199 0.308229
683 4 0.293635 0.143613 0.299135
682 2 0.315342 0.131935 0.303333
376 2 0.279099 0.16469 0.330897
684 4 0.337048 0.120257 0.307531
743 4 0.400587 0.112439 0.258913
425 4 0.405534 0.0917156 0.318036
742 2 0.384724 0.131319 0.263049
725 4 0.354115 0.116799 0.316246
744 4 0.368862 0.150199 0.267185
724 2 0.371925 0.0996051 0.312731
22 3 0.348557 0.15823 0.272314
451 2 0.49255 0.0810804 0.319105
333 4 0.419934 0.112567 0.260058
331 2 0.434423 0.0922545 0.258434
512 4 0.0828239 0.20386 0.292614
511 2 0.0895217 0.215298 0.271413
513 4 0.0962195 0.226736 0.250212
582 4 0.24978 0.171497 0.256731
23 3 0.314196 0.166089 0.259268
610 2 0.275875 0.237922 0.24809
707 4 0.278926 0.232538 0.282945
611 4 0.269117 0.223059 0.267027
706 2 0.269303 0.218321 0.301124
708 4 0.259681 0.204104 0.319303
24 3 0.336248 0.193732 0.273197
21 1 0.335962 0.173906 0.261144
632 4 0.366892 0.17086 0.277143
631 2 0.386773 0.182062 0.287362
633 4 0.406653 0.193264 0.297582
419 4 0.417736 0.20808 0.2954
418 2 0.442465 0.206128 0.292268
269 4 0.469478 0.221735 0.294365
420 4 0.467195 0.204177 0.289137
268 2 0.492547 0.231311 0.295507
2716 2 0.00789073 0.326298 0.267261
365 4 0.0440033 0.34881 0.264346
370 2 0.142565 0.320045 0.263243
371 4 0.144317 0.328792 0.286602
402 4 0.142076 0.312069 0.297632
400 2 0.158686 0.313704 0.31625
729 4 0.319813 0.303982 0.279582
727 2 0.301512 0.31763 0.269386
728 4 0.28321 0.331278 0.25919
559 2 0.404468 0.325829 0.317152
2717 4 0.0318847 0.33326 0.268261
364 2 0.0655726 0.356857 0.25459
616 2 0.0773017 0.38121 0.322385
617 4 0.0782971 0.398736 0.30458
678 4 0.0925957 0.401135 0.291096
676 2 0.110998 0.408553 0.275882
303 4 0.304595 0.397719 0.262983
301 2 0.29902 0.373371 0.261849
302 4 0.293446 0.349023 0.260714
767 4 0.309674 0.417482 0.262536
560 4 0.414016 0.340313 0.299146
2537 4 0.406526 0.358742 0.292429
2536 2 0.41084 0.381071 0.302821
2538 4 0.415153 0.4034 0.313212
1790 4 0.0639545 0.482979 0.323522
1758 4 0.0695655 0.474056 0.305648
735 4 0.137355 0.434686 0.2632
677 4 0.129401 0.415972 0.260667
1756 2 0.0855377 0.455363 0.310189
1757 4 0.10151 0.43667 0.314731
776 4 0.109611 0.431053 0.331573
1320 4 0.104804 0.495866 0.328474
1862 4 0.261486 0.495723 0.251368
1861 2 0.283238 0.495575 0.263697
1863 4 0.30499 0.495427 0.276026
447 4 0.399617 0.416346 0.310662
229 2 0.341417 0.485215 0.284424
230 4 0.358648 0.468279 0.290859
1802 4 0.351651 0.453321 0.301786
445 2 0.406433 0.435464 0.325263
1801 2 0.347772 0.446656 0.32557
3640 2 0.494411 0.483617 0.294469
3641 4 0.481305 0.494459 0.312795
3990 4 0.473892 0.501186 0.330743
2484 4 0.000347404 0.0576189 0.336646
2757 4 0.994462 0.0452576 0.352886
2755 2 0.00997637 0.0263455 0.358066
2756 4 0.0254904 0.00743334 0.363245
429 4 0.139325 0.0164316 0.380286
427 2 0.16238 0.0156353 0.370641
428 4 0.185435 0.014839 0.360996
1151 4 0.213118 0.0690135 0.404958
1782 4 0.199563 0.000755982 0.355662
441 4 0.304277 0.998792 0.357761
439 2 0.308454 0.00504366 0.381607
1829 4 0.267986 0.0470149 0.333898
1496 4 0.278843 0.0604056 0.344827
440 4 0.312632 0.0112953 0.405453
1495 2 0.291135 0.0723325 0.363043
1818 4 0.296644 0.0156794 0.416957
1517 4 0.318337 0.0718829 0.380796
697 2 0.369355 0.00992344 0.400632
1516 2 0.341135 0.0621752 0.384146
1518 4 0.363932 0.0524675 0.387497
699 4 0.365254 0.0344706 0.398224
257 4 0.480943 0.0809254 0.403566
546 4 0.140817 0.152621 0.397277
544 2 0.116859 0.157459 0.40255
600 4 0.162205 0.156461 0.403249
545 4 0.0929012 0.162298 0.407822
1497 4 0.303427 0.0842594 0.381259
605 4 0.269944 0.122445 0.413371
320 4 0.254381 0.134235 0.408364
424 2 0.419987 0.091829 0.338438
452 4 0.49102 0.101496 0.333459
426 4 0.434441 0.0919425 0.358841
258 4 0.452137 0.080951 0.362688
256 2 0.46654 0.0809382 0.383127
641 4 0.486481 0.0989445 0.410517
2491 2 0.999329 0.248519 0.362168
529 2 0.0545695 0.172596 0.335466
2655 4 0.027559 0.19602 0.362243
2654 4 0.0255704 0.177578 0.408682
530 4 0.0408712 0.185248 0.352123
2653 2 0.0265647 0.186799 0.385463
1035 4 0.0974315 0.234149 0.397993
249 4 0.085904 0.22372 0.384594
247 2 0.0871735 0.202284 0.397403
248 4 0.088443 0.180847 0.410211
598 2 0.169522 0.177703 0.414223
404 4 0.223577 0.234784 0.386261
687 4 0.206291 0.239987 0.395205
599 4 0.176839 0.198946 0.425196
403 2 0.243337 0.229621 0.371837
405 4 0.263098 0.224458 0.357413
378 4 0.280245 0.17518 0.353564
614 4 0.278249 0.194059 0.360567
613 2 0.299191 0.207718 0.360415
615 4 0.320134 0.221377 0.360263
716 4 0.334863 0.218319 0.374286
715 2 0.348288 0.238119 0.381559
584 4 0.378777 0.247471 0.389416
2848 2 0.995981 0.30135 0.374168
2493 4 0.0110424 0.267136 0.374059
2850 4 0.00558875 0.28186 0.386538
443 4 0.0862772 0.314506 0.370933
1034 4 0.100702 0.283598 0.3913
1033 2 0.0990668 0.258874 0.394646
710 4 0.137587 0.330161 0.410141
407 4 0.156919 0.324451 0.409651
401 4 0.175295 0.315339 0.334868
510 4 0.193855 0.320188 0.343324
561 4 0.394919 0.311345 0.335158
717 4 0.361714 0.257919 0.388832
583 2 0.399198 0.260817 0.394899
336 4 0.382086 0.317409 0.349649
334 2 0.373378 0.322268 0.372578
335 4 0.36467 0.327126 0.395507
240 4 0.433774 0.285025 0.392358
585 4 0.419619 0.274162 0.400383
238 2 0.436428 0.304874 0.407329
442 2 0.0894874 0.336773 0.360022
444 4 0.0926977 0.35904 0.349111
618 4 0.0763063 0.363684 0.34019
777 4 0.154393 0.411704 0.342569
412 2 0.163739 0.395795 0.372988
413 4 0.167788 0.396475 0.348324
414 4 0.15969 0.395115 0.397653
508 2 0.204075 0.34242 0.348468
504 4 0.236963 0.410197 0.392429
502 2 0.233674 0.390746 0.377067
503 4 0.230384 0.371294 0.361705
509 4 0.214295 0.364652 0.353613
587 4 0.353072 0.342012 0.385354
586 2 0.348373 0.358811 0.403267
752 4 0.40122 0.382052 0.393034
751 2 0.403204 0.406942 0.394351
927 4 0.40018 0.371662 0.410623
2507 4 0.500802 0.396414 0.360287
2742 4 0.489724 0.411286 0.355675
499 2 0.0508099 0.494835 0.405056
501 4 0.0320098 0.486046 0.419002
775 2 0.132002 0.421378 0.337071
436 2 0.226752 0.49265 0.360807
1436 4 0.207196 0.472788 0.389318
438 4 0.20862 0.47805 0.369932
1435 2 0.214288 0.471217 0.413243
635 4 0.245652 0.422884 0.406375
434 4 0.296008 0.500677 0.39763
5 3 0.307383 0.482997 0.396337
593 4 0.335505 0.423137 0.35666
592 2 0.335275 0.431732 0.380138
634 2 0.262751 0.441119 0.406896
636 4 0.27985 0.459354 0.407417
446 4 0.413249 0.454583 0.339865
594 4 0.335044 0.440327 0.403617
1803 4 0.343893 0.43999 0.349355
120 3 0.409511 0.460308 0.358546
753 4 0.405188 0.431832 0.395667
119 3 0.417306 0.447232 0.392984
2740 2 0.472228 0.429095 0.357055
117 3 0.440899 0.470876 0.375751
116 1 0.426186 0.453498 0.372483
3988 2 0.464952 0.48398 0.346528
118 3 0.437623 0.435664 0.36302
3989 4 0.456012 0.466773 0.362314
2741 4 0.454732 0.446904 0.358434
3077 4 0.0275298 0.0305297 0.425018
3076 2 0.00525616 0.0403904 0.43066
368 4 0.138827 0.0793433 0.424604
719 4 0.133248 0.0617645 0.420432
720 4 0.14071 0.0363995 0.462878
718 2 0.136979 0.049082 0.441655
342 4 0.133085 0.0304587 0.481583
1645 2 0.201021 0.0224809 0.467223
1646 4 0.216248 0.0421983 0.469355
1152 4 0.217808 0.0538711 0.452386
1150 2 0.215463 0.0614423 0.428672
1647 4 0.185794 0.00276354 0.465091
1816 2 0.282279 0.0360175 0.419232
606 4 0.27487 0.0745386 0.42684
1817 4 0.267914 0.0563557 0.421508
3487 2 0.474167 0.0617712 0.477229
3488 4 0.463238 0.0398166 0.482101
3489 4 0.485096 0.0837257 0.472357
470 4 0.0318099 0.145077 0.493247
469 2 0.038447 0.156315 0.47192
459 4 0.0215088 0.159684 0.50171
367 2 0.152074 0.0999344 0.429672
369 4 0.165322 0.120526 0.434739
275 4 0.160981 0.136137 0.492523
276 4 0.180093 0.123139 0.448178
274 2 0.170537 0.129638 0.470351
857 4 0.171531 0.144454 0.507387
604 2 0.272407 0.0984919 0.420106
319 2 0.263548 0.155254 0.418331
642 4 0.497454 0.0835333 0.456807
640 2 0.491967 0.0912389 0.433662
2846 4 0.00611011 0.180676 0.415749
983 4 0.00149349 0.227714 0.466005
2847 4 0.00478519 0.210516 0.455855
2845 2 0.00544765 0.195596 0.435802
471 4 0.0450841 0.167552 0.450593
982 2 0.0104729 0.243868 0.482845
261 4 0.0562677 0.184566 0.450203
259 2 0.0655746 0.206805 0.456835
260 4 0.0748815 0.229044 0.463467
348 4 0.074387 0.246217 0.474242
685 2 0.198774 0.224827 0.413612
686 4 0.191256 0.209667 0.43202
411 4 0.255073 0.183681 0.434027
321 4 0.272715 0.176274 0.428297
409 2 0.263063 0.203722 0.446665
410 4 0.271052 0.223763 0.459302
489 4 0.289083 0.227722 0.449788
487 2 0.303507 0.248135 0.45044
878 4 0.0331147 0.273742 0.498778
984 4 0.0194524 0.260022 0.499685
711 4 0.0969362 0.317171 0.436209
709 2 0.117261 0.323666 0.423175
7 3 0.15123 0.335144 0.47189
375 4 0.157215 0.316951 0.478687
326 4 0.140025 0.308532 0.489466
10 3 0.122792 0.319001 0.489878
374 4 0.202736 0.304526 0.495245
373 2 0.179975 0.310739 0.486966
792 4 0.223221 0.302683 0.488117
488 4 0.317932 0.268548 0.451091
651 4 0.327879 0.28502 0.458947
649 2 0.333932 0.28518 0.483206
872 4 0.384847 0.272176 0.486812
871 2 0.407705 0.268481 0.496246
239 4 0.439082 0.324724 0.422301
4432 2 0.00323417 0.396863 0.491547
9 3 0.116434 0.337926 0.457955
6 1 0.12899 0.337049 0.477449
679 2 0.0922854 0.412729 0.470862
568 2 0.140857 0.39504 0.437593
570 4 0.128273 0.394055 0.459176
680 4 0.115861 0.4044 0.470847
8 3 0.125962 0.356519 0.489703
569 4 0.153441 0.396025 0.416009
406 2 0.174014 0.340646 0.418058
408 4 0.191108 0.35684 0.426466
773 4 0.334449 0.361647 0.434343
588 4 0.343673 0.37561 0.421181
772 2 0.342062 0.357163 0.457733
774 4 0.349676 0.352678 0.481123
929 4 0.349052 0.373056 0.484663
925 2 0.41982 0.358136 0.418141
926 4 0.43946 0.344611 0.425659
382 2 0.026152 0.492299 0.467404
681 4 0.0687101 0.421059 0.470877
539 4 0.0528639 0.413928 0.461206
538 2 0.0389542 0.434366 0.464946
540 4 0.0250444 0.454804 0.468686
383 4 0.0374687 0.470259 0.464037
1437 4 0.221381 0.469647 0.437168
1557 4 0.216984 0.484367 0.450987
3 3 0.328974 0.472226 0.425241
1 1 0.307665 0.478665 0.418693
4 3 0.292433 0.461892 0.4237
2 3 0.301794 0.497712 0.430176
668 4 0.337035 0.433195 0.422281
669 4 0.343933 0.411615 0.466862
882 4 0.345684 0.430979 0.473521
667 2 0.340484 0.422405 0.444571
662 4 0.451309 0.4471 0.470439
663 4 0.49576 0.427664 0.482566
1741 2 0.451331 0.489635 0.461251
661 2 0.473534 0.437382 0.476503
1743 4 0.456698 0.465228 0.462056
4508 4 0.0438642 0.0519055 0.574839
4507 2 0.0658028 0.0399607 0.573746
4509 4 0.0877415 0.0280159 0.572653
2428 2 0.121062 0.0559311 0.55903
2430 4 0.122184 0.0409959 0.539009
341 4 0.109744 0.0331078 0.52573
2429 4 0.11994 0.0708663 0.579052
340 2 0.121415 0.0317833 0.503656
1181 4 0.27635 0.0178353 0.570494
1180 2 0.274358 0.0406815 0.560531
1182 4 0.272366 0.0635277 0.550568
1032 4 0.287472 0.0742789 0.559808
962 4 0.28157 0.999144 0.575872
4466 4 0.419885 0.0560295 0.544702
575 4 0.42217 0.0691937 0.529779
4465 2 0.424729 0.031944 0.54935
4467 4 0.429573 0.00785854 0.553998
90 3 0.447553 0.0119939 0.562205
3007 2 0.462544 0.0156309 0.514154
1062 4 0.492378 0.00220728 0.542432
3008 4 0.45378 0.0255784 0.492954
1076 4 0.0271435 0.107476 0.574386
1030 2 0.306274 0.0899809 0.554797
1031 4 0.325077 0.105683 0.549787
467 4 0.33962 0.099379 0.538208
466 2 0.347074 0.119432 0.525265
468 4 0.354527 0.139484 0.512322
574 2 0.429739 0.0875814 0.51462
576 4 0.437307 0.105969 0.499461
306 4 0.43474 0.126093 0.50129
304 2 0.436427 0.149337 0.51035
305 4 0.438115 0.17258 0.51941
346 2 0.0890154 0.25214 0.493636
856 2 0.182789 0.164813 0.516549
858 4 0.194046 0.185172 0.525712
1220 4 0.197377 0.182207 0.544811
1221 4 0.231558 0.218231 0.538924
1219 2 0.214467 0.200219 0.541868
1212 4 0.238422 0.216194 0.556965
1210 2 0.247122 0.238903 0.562781
515 4 0.43969 0.187365 0.505986
514 2 0.455657 0.201814 0.518692
516 4 0.471624 0.216264 0.531398
1026 4 0.477376 0.218936 0.551122
1024 2 0.480083 0.203631 0.570708
1270 2 0.056924 0.257725 0.565227
879 4 0.0447398 0.29378 0.543096
877 2 0.0389273 0.283761 0.520937
1272 4 0.0542898 0.277707 0.55043
347 4 0.103644 0.258063 0.513029
325 2 0.131016 0.287973 0.500482
327 4 0.122007 0.267414 0.511498
1191 4 0.239759 0.316671 0.553332
790 2 0.229852 0.311718 0.510468
1189 2 0.22047 0.321932 0.568348
791 4 0.236482 0.320753 0.53282
1211 4 0.255822 0.261611 0.568598
813 4 0.336087 0.300311 0.521356
811 2 0.328321 0.321737 0.531641
650 4 0.339986 0.28534 0.507465
905 4 0.451206 0.2501 0.568216
904 2 0.446825 0.252665 0.543734
873 4 0.430564 0.264787 0.505681
906 4 0.442444 0.255231 0.519251
936 4 0.0306953 0.406386 0.524824
4433 4 0.0186827 0.405381 0.509266
812 4 0.320555 0.343163 0.541927
930 4 0.359072 0.367375 0.533326
928 2 0.354062 0.370216 0.508994
1238 4 0.3695 0.360754 0.547418
1237 2 0.381738 0.343847 0.561187
1239 4 0.393976 0.32694 0.574955
934 2 0.0394076 0.427929 0.534051
935 4 0.04812 0.449473 0.543278
1938 4 0.0418318 0.467546 0.541394
1936 2 0.0198354 0.478687 0.545542
896 4 0.111887 0.466954 0.571735
1161 4 0.260829 0.474093 0.562636
1172 4 0.27841 0.466076 0.562644
1171 2 0.300019 0.455272 0.569088
880 2 0.336324 0.438798 0.495348
881 4 0.326963 0.446616 0.517175
1173 4 0.321628 0.444469 0.575532
1910 4 0.333056 0.462022 0.529982
1909 2 0.343745 0.480893 0.542425
1077 4 0.0361559 0.060903 0.590213
1081 2 0.0249001 0.00433583 0.651342
1082 4 0.00975043 0.00851409 0.631894
1893 4 0.0822016 0.0319177 0.628925
2317 2 0.0910773 0.0599084 0.650242
2319 4 0.0847497 0.0357679 0.648701
1891 2 0.0865222 0.00851048 0.621269
2318 4 0.0974048 0.0840489 0.651783
1284 4 0.226675 0.0698692 0.646633
1282 2 0.248815 0.0710994 0.658188
1283 4 0.270955 0.0723296 0.669742
44 3 0.4278 0.0409786 0.639443
2283 4 0.445311 0.0320503 0.643232
43 3 0.436634 0.0759728 0.65135
2281 2 0.450153 0.0165632 0.624209
41 1 0.431517 0.054351 0.658038
1163 4 0.461014 0.0358917 0.65722
1162 2 0.485599 0.0357907 0.661771
42 3 0.449295 0.04583 0.669891
1075 2 0.0316497 0.0841893 0.5823
938 4 0.110487 0.0994519 0.655462
939 4 0.0968534 0.145726 0.668636
937 2 0.10367 0.122589 0.662049
908 4 0.214305 0.0855165 0.644904
907 2 0.215375 0.102731 0.626802
909 4 0.216446 0.119946 0.6087
1227 4 0.234593 0.128643 0.611538
1225 2 0.227535 0.152251 0.607293
265 2 0.325857 0.160575 0.595948
267 4 0.300926 0.160157 0.594089
266 4 0.350788 0.160993 0.597806
888 4 0.363663 0.174247 0.601382
4226 4 0.491065 0.103335 0.649012
4225 2 0.469574 0.0944502 0.658197
1154 4 0.0545211 0.231513 0.597704
1153 2 0.0559104 0.206981 0.602334
1155 4 0.0572997 0.182449 0.606963
1271 4 0.0595582 0.237743 0.580024
1226 4 0.220477 0.17586 0.603048
1277 4 0.209461 0.226807 0.609307
1276 2 0.223617 0.206292 0.607319
1278 4 0.237772 0.185777 0.60533
798 4 0.205753 0.224987 0.628943
796 2 0.197387 0.246536 0.638474
1167 4 0.308747 0.245985 0.660194
1165 2 0.320743 0.255636 0.640494
887 4 0.408289 0.184702 0.621379
886 2 0.385976 0.179474 0.61138
900 4 0.427473 0.184727 0.619838
898 2 0.438766 0.181529 0.641916
1025 4 0.48279 0.188326 0.590294
899 4 0.450059 0.178332 0.663993
696 4 0.143882 0.303363 0.622348
1259 4 0.125913 0.307081 0.631453
1258 2 0.124329 0.329525 0.642358
694 2 0.165649 0.295064 0.631433
695 4 0.187415 0.286764 0.640518
797 4 0.189021 0.268085 0.648005
1190 4 0.201182 0.327192 0.583363
804 4 0.181641 0.324346 0.588967
1166 4 0.332739 0.265287 0.620793
1028 4 0.368305 0.319237 0.632451
1027 2 0.382617 0.325715 0.612999
807 4 0.36331 0.32426 0.650715
3370 2 0.480591 0.262582 0.65649
1010 4 0.449123 0.253211 0.587464
3371 4 0.474038 0.271903 0.634234
1011 4 0.484015 0.274421 0.616332
1009 2 0.466569 0.263816 0.601898
1260 4 0.122746 0.351969 0.653264
1136 4 0.191521 0.384799 0.618111
803 4 0.180301 0.367709 0.613838
802 2 0.180971 0.346027 0.601403
1135 2 0.209601 0.398348 0.628821
1137 4 0.227681 0.411898 0.63953
1029 4 0.396929 0.332193 0.593547
805 2 0.349489 0.340425 0.663862
3238 2 0.0284445 0.492875 0.65448
3239 4 0.0340279 0.468553 0.656034
897 4 0.139276 0.480045 0.611474
895 2 0.125581 0.473499 0.591604
2015 4 0.141091 0.494777 0.626381
1160 4 0.244492 0.504093 0.599157
1067 4 0.248136 0.407368 0.637642
1159 2 0.252661 0.489093 0.580896
1066 2 0.25279 0.418666 0.659457
891 4 0.334356 0.458353 0.582029
889 2 0.35092 0.440003 0.585782
890 4 0.367484 0.421653 0.589535
1000 2 0.403398 0.437075 0.607259
1002 4 0.386199 0.421733 0.597564
1953 4 0.411486 0.485317 0.653138
1101 4 0.397857 0.432375 0.668645
1001 4 0.420596 0.452418 0.616954
943 2 0.0748374 0.00619438 0.683705
863 4 0.0901592 0.0422625 0.697078
945 4 0.0918919 0.0213376 0.693953
862 2 0.0843018 0.0649168 0.70589
1091 4 0.323222 0.00771336 0.680272
45 3 0.413022 0.0544987 0.671326
2321 4 0.421687 0.0504332 0.688789
2320 2 0.42315 0.053506 0.71356
2322 4 0.424613 0.0565789 0.738331
2285 4 0.0823407 0.142034 0.719462
2286 4 0.0640822 0.0978278 0.704861
2284 2 0.0732115 0.119931 0.712162
864 4 0.0784443 0.0875712 0.714702
32 3 0.129802 0.149358 0.719356
34 3 0.0934117 0.157977 0.715599
1241 4 0.238879 0.164953 0.71936
1004 4 0.282965 0.0874052 0.665144
1003 2 0.303354 0.100879 0.670429
1005 4 0.323743 0.114352 0.675715
831 4 0.340938 0.105911 0.679907
1257 4 0.35477 0.117865 0.742921
829 2 0.355332 0.123057 0.691043
830 4 0.369726 0.140203 0.702178
978 4 0.35999 0.138373 0.745555
976 2 0.373754 0.156046 0.756665
4227 4 0.448083 0.0855653 0.667382
3386 4 0.00416705 0.182771 0.707724
3084 4 0.996276 0.187366 0.689957
3387 4 0.0223963 0.22769 0.72
3385 2 0.0132817 0.205231 0.713862
31 1 0.114219 0.166088 0.721896
33 3 0.120164 0.18399 0.708383
35 3 0.113732 0.172638 0.743702
1240 2 0.252545 0.185876 0.718553
1242 4 0.266211 0.206799 0.717747
917 4 0.268823 0.218294 0.702098
916 2 0.279993 0.233665 0.685845
918 4 0.291162 0.249036 0.669592
1262 4 0.498071 0.242967 0.69255
1194 4 0.469566 0.184729 0.667858
1192 2 0.463013 0.18341 0.691951
1193 4 0.456459 0.182092 0.716044
3122 4 0.453743 0.308913 0.687927
952 2 0.457963 0.298499 0.730548
954 4 0.459412 0.30109 0.705721
3372 4 0.487144 0.25326 0.678747
3121 2 0.471178 0.325404 0.68091
1244 4 0.996541 0.381336 0.715588
1209 4 0.0801889 0.363728 0.704799
993 4 0.0724968 0.365693 0.723631
991 2 0.0587726 0.365904 0.744531
1243 2 0.0134096 0.398777 0.709551
1208 4 0.113187 0.362601 0.667241
1207 2 0.0966878 0.363165 0.68602
948 4 0.192137 0.353577 0.742903
1006 2 0.325413 0.371953 0.703267
1007 4 0.305029 0.379121 0.715848
806 4 0.335667 0.35659 0.677009
1008 4 0.345797 0.364785 0.690685
1204 2 0.40998 0.379385 0.726406
1099 2 0.413283 0.416307 0.680006
1205 4 0.397377 0.371278 0.746421
3123 4 0.488613 0.341895 0.673893
1100 4 0.428708 0.400239 0.691366
1206 4 0.422583 0.387493 0.706391
1245 4 0.0302779 0.416218 0.703514
2171 4 0.0446255 0.427703 0.711251
2172 4 0.03984 0.456892 0.670929
2170 2 0.0422328 0.442298 0.69109
1175 4 0.285222 0.424227 0.732381
1176 4 0.25343 0.441257 0.697741
1174 2 0.269326 0.432742 0.715061
1068 4 0.257445 0.429964 0.681271
1138 2 0.319426 0.472038 0.704759
1140 4 0.314949 0.490051 0.721512
1139 4 0.323904 0.454025 0.688006
1229 4 0.331559 0.455687 0.66959
1951 2 0.395793 0.495566 0.669686
1230 4 0.376047 0.432863 0.668818
1228 2 0.353803 0.444275 0.669204
3183 4 0.505011 0.461643 0.693153
3181 2 0.491281 0.473513 0.710351