ITEM: TIMESTEP
720000
ITEM: NUMBER OF ATOMS
4590
ITEM: BOX BOUNDS pp pp pp
-9.9985700000000008e+00 9.9985700000000008e+00
-9.9985700000000008e+00 9.9985700000000008e+00
-9.9985700000000008e+00 9.9985700000000008e+00
ITEM: ATOMS id type xs ys zs
464 4 0.0766323 0.015867 0.0039261
3234 4 0.044714 0.0634204 0.00290193
996 4 0.0915614 0.00417056 0.997131
491 4 0.228731 0.0475659 0.0197624
490 2 0.240406 0.0681882 0.0277366
484 2 0.319085 0.010829 0.0604159
486 4 0.307194 0.0306308 0.06999
652 2 0.277315 0.0351026 0.0922031
653 4 0.288376 0.0380808 0.0699779
2263 2 0.347038 0.0429425 0.00393344
2265 4 0.368218 0.031427 0.0105649
985 2 0.401894 0.0450371 0.0119487
987 4 0.378423 0.045985 0.0205175
986 4 0.425364 0.0440892 0.00337979
745 2 0.453265 0.0610115 0.0255413
746 4 0.460281 0.0753682 0.0447724
747 4 0.446249 0.0466549 0.0063102
3232 2 0.0371668 0.08716 0.000745504
590 4 0.035699 0.130051 0.999562
3233 4 0.0296196 0.1109 0.998589
701 4 0.0948207 0.144686 0.0496769
700 2 0.104252 0.128275 0.0660153
702 4 0.113682 0.111865 0.0823537
421 2 0.157946 0.137875 0.0353266
422 4 0.169483 0.117112 0.0431338
492 4 0.252081 0.0888106 0.0357108
567 4 0.169803 0.106641 0.0598238
565 2 0.193389 0.0986053 0.0618982
359 4 0.224334 0.107084 0.0742533
566 4 0.216975 0.0905693 0.0639727
358 2 0.246586 0.117888 0.0778996
460 2 0.301595 0.151047 0.0726419
462 4 0.285452 0.131953 0.0726599
360 4 0.268838 0.128692 0.0815459
461 4 0.317738 0.170141 0.072624
297 4 0.445011 0.080283 0.0549904
1132 2 0.133614 0.180606 0.00441302
1134 4 0.151985 0.177029 0.0209921
423 4 0.146409 0.158639 0.0275194
293 4 0.0998426 0.244539 0.00340188
354 4 0.246829 0.190757 0.0714292
352 2 0.25129 0.205793 0.051956
353 4 0.255751 0.220829 0.0324828
355 2 0.306102 0.228933 0.00680241
357 4 0.294252 0.238511 0.0266263
558 4 0.333897 0.177099 0.0624639
556 2 0.354156 0.186736 0.0514241
557 4 0.374416 0.196372 0.0403844
665 4 0.375139 0.215408 0.0354019
664 2 0.385977 0.225486 0.0152485
2469 4 0.458803 0.171929 0.0769819
769 2 0.454929 0.199503 0.0458455
1013 4 0.46515 0.216453 0.0176885
771 4 0.451063 0.220135 0.0322596
770 4 0.458795 0.178872 0.0594313
1012 2 0.481311 0.222157 0.999482
621 4 0.00853067 0.306168 0.0757472
619 2 0.0288572 0.310632 0.0618878
620 4 0.0491838 0.315096 0.0480283
476 4 0.11939 0.277942 0.0407353
475 2 0.123805 0.269524 0.0638617
1169 4 0.109516 0.301594 0.0226293
294 4 0.0966041 0.294109 0.00914742
1168 2 0.119336 0.324304 0.0190179
292 2 0.0982234 0.269324 0.00627465
573 4 0.304981 0.251646 0.0376803
571 2 0.308152 0.257061 0.0618837
323 4 0.451711 0.279646 0.0537788
670 2 0.443585 0.319591 0.0629002
3347 4 0.464977 0.317827 0.993858
672 4 0.441204 0.294709 0.0635512
330 4 0.0655993 0.400607 0.0363058
328 2 0.0597074 0.389001 0.0149572
454 2 0.146003 0.380987 0.0345951
456 4 0.134174 0.365271 0.019159
1170 4 0.129155 0.347013 0.0154065
455 4 0.157831 0.396703 0.0500312
955 2 0.318602 0.374003 0.0281393
957 4 0.327088 0.376413 0.0515352
956 4 0.310117 0.371593 0.00474343
608 4 0.343067 0.365737 0.0551021
607 2 0.358823 0.373941 0.0726981
609 4 0.374579 0.382145 0.0902941
39 3 0.3643 0.380524 0.00854953
671 4 0.445965 0.344472 0.0622492
550 2 0.0302335 0.462848 0.0395007
551 4 0.0184398 0.463555 0.0174646
552 4 0.0420272 0.462141 0.0615367
625 2 0.138815 0.435259 0.049389
626 4 0.152135 0.414709 0.0443448
627 4 0.125495 0.45581 0.0544333
251 4 0.205798 0.421327 0.0617678
250 2 0.228162 0.430035 0.0547546
252 4 0.250527 0.438743 0.0477414
245 4 0.250243 0.491278 0.0125412
246 4 0.249251 0.443399 0.0269393
244 2 0.249747 0.467338 0.0197403
62 3 0.310764 0.506239 0.0738642
525 4 0.378487 0.476317 0.0198068
523 2 0.366957 0.49543 0.031074
272 4 0.361544 0.466251 0.0188154
271 2 0.34899 0.450213 0.00431228
226 2 0.483425 0.445055 0.0634371
562 2 0.470441 0.475452 0.0184739
227 4 0.487368 0.44587 0.0387598
563 4 0.477423 0.451917 0.0232236
494 4 0.431634 0.460315 0.0862537
228 4 0.479482 0.44424 0.0881143
1667 4 0.0703241 0.0266784 0.145331
16 1 0.0739114 0.0669029 0.165104
1666 2 0.0615812 0.00505942 0.136311
17 3 0.0559472 0.0769005 0.154784
20 3 0.0749126 0.0450188 0.15888
1806 4 0.0893529 0.0350399 0.143422
449 4 0.154008 0.0127147 0.138764
1805 4 0.135451 0.0177572 0.134649
1804 2 0.112402 0.0263985 0.139036
1474 2 0.238864 0.0224785 0.141804
1475 4 0.229216 0.0218569 0.164863
654 4 0.266254 0.0321244 0.114428
1476 4 0.248512 0.0231002 0.118746
1662 4 0.338666 0.00698022 0.151941
629 4 0.434666 0.080408 0.120623
295 2 0.437182 0.0777692 0.0786031
296 4 0.429352 0.0752553 0.102216
381 4 0.0390876 0.0821755 0.14553
379 2 0.0320675 0.101177 0.130872
380 4 0.0250473 0.120178 0.116214
18 3 0.0933202 0.0778634 0.158656
577 2 0.108614 0.110199 0.160352
578 4 0.0874516 0.0980429 0.154915
579 4 0.129776 0.122355 0.16579
758 4 0.325646 0.106153 0.170112
253 2 0.384225 0.161495 0.101534
312 4 0.40828 0.123639 0.160201
630 4 0.41465 0.106034 0.158614
628 2 0.424658 0.093221 0.139618
310 2 0.41291 0.146607 0.151472
254 4 0.383224 0.141198 0.0869673
255 4 0.385226 0.181792 0.116101
2467 2 0.477627 0.16436 0.0915942
2468 4 0.496452 0.15679 0.106207
339 4 0.137822 0.251293 0.137434
363 4 0.132405 0.249241 0.156749
738 4 0.217804 0.184602 0.123359
736 2 0.230414 0.179242 0.102444
737 4 0.243025 0.173881 0.0815297
284 4 0.233354 0.23678 0.153639
279 4 0.221293 0.247385 0.141339
277 2 0.199477 0.248164 0.15353
278 4 0.177661 0.248943 0.165721
283 2 0.24918 0.22449 0.168596
311 4 0.417541 0.169575 0.142743
518 4 0.456895 0.244053 0.112435
517 2 0.439352 0.22658 0.115919
519 4 0.421809 0.209108 0.119403
394 2 0.00679752 0.265152 0.151226
396 4 0.0196071 0.267003 0.172619
477 4 0.12822 0.261106 0.0869881
337 2 0.126707 0.261767 0.117637
338 4 0.115592 0.272241 0.0978392
572 4 0.311322 0.262476 0.0860872
756 4 0.296005 0.272048 0.0962296
754 2 0.288043 0.27812 0.119141
755 4 0.280081 0.284193 0.142052
740 4 0.375741 0.281233 0.134139
739 2 0.392655 0.299599 0.132799
741 4 0.40957 0.317964 0.13146
322 2 0.457324 0.266413 0.0742374
324 4 0.462937 0.253179 0.094696
2650 2 0.4796 0.323533 0.118097
2652 4 0.474931 0.322928 0.0935407
507 4 0.123557 0.347079 0.113341
506 4 0.143712 0.385603 0.0886351
505 2 0.133635 0.366341 0.100988
387 4 0.399775 0.335544 0.12745
385 2 0.392776 0.350731 0.108862
14 3 0.392521 0.344818 0.143638
11 1 0.381968 0.349425 0.163783
386 4 0.385778 0.365919 0.0902731
15 3 0.359383 0.349595 0.160864
643 2 0.376614 0.407416 0.176099
645 4 0.385641 0.385393 0.183759
2651 4 0.484269 0.324137 0.142653
2795 4 0.00590971 0.468823 0.173474
416 4 0.160031 0.437863 0.167295
1559 4 0.300622 0.501236 0.0906858
1558 2 0.282927 0.494971 0.107203
1560 4 0.265232 0.488705 0.123719
1440 4 0.246317 0.488983 0.117376
65 3 0.341132 0.490921 0.0892294
644 4 0.367586 0.429438 0.168438
659 4 0.37784 0.439001 0.154661
658 2 0.384742 0.460659 0.165074
493 2 0.436311 0.449459 0.108287
495 4 0.440988 0.438604 0.13032
597 4 0.436139 0.440517 0.150223
595 2 0.458583 0.433135 0.158405
1402 2 0.072004 0.00539927 0.239814
1422 4 0.0112551 0.0729868 0.212067
1420 2 0.00478711 0.048995 0.214849
19 3 0.0711882 0.0684793 0.188093
2481 4 0.0591046 0.0679504 0.205079
674 4 0.147105 0.0723439 0.190276
673 2 0.13869 0.0490128 0.187108
675 4 0.130276 0.0256817 0.18394
1539 4 0.111809 0.0286697 0.192558
1505 4 0.222344 0.0308418 0.182847
1504 2 0.214755 0.0226356 0.205213
723 4 0.215845 0.0712589 0.236176
721 2 0.197518 0.0772658 0.220264
2479 2 0.0750653 0.0794831 0.220488
2480 4 0.0910261 0.0910159 0.235897
237 4 0.146756 0.129778 0.170134
235 2 0.158354 0.115212 0.186822
236 4 0.169952 0.100645 0.20351
722 4 0.17919 0.0832726 0.204351
582 4 0.255764 0.165235 0.220215
757 2 0.327844 0.113168 0.194011
30 3 0.273791 0.135577 0.235064
759 4 0.330043 0.120183 0.217909
26 1 0.269241 0.153577 0.248253
23 3 0.368005 0.0855526 0.242742
25 3 0.347383 0.111192 0.22444
21 1 0.351508 0.101746 0.244748
522 4 0.461219 0.151132 0.231533
392 4 0.0749479 0.227677 0.175466
511 2 0.035856 0.188433 0.234346
513 4 0.0270453 0.192322 0.211272
393 4 0.0458101 0.19681 0.201903
391 2 0.060379 0.212244 0.188684
362 4 0.0954405 0.225499 0.180637
361 2 0.113923 0.23737 0.168693
404 4 0.18701 0.181592 0.233761
580 2 0.258201 0.179068 0.19953
27 3 0.252134 0.165738 0.238839
581 4 0.260639 0.192901 0.178844
285 4 0.265005 0.212201 0.183553
707 4 0.277751 0.249705 0.238932
624 4 0.403047 0.227681 0.163007
622 2 0.386355 0.244859 0.170184
520 2 0.446113 0.164236 0.216524
521 4 0.431007 0.17734 0.201515
763 2 0.442656 0.20994 0.180627
765 4 0.439018 0.185721 0.185667
764 4 0.446294 0.234158 0.175587
536 4 0.173995 0.268839 0.163439
535 2 0.158117 0.286824 0.170484
537 4 0.14224 0.304809 0.177528
299 4 0.145677 0.320863 0.190977
371 4 0.140409 0.277999 0.230736
370 2 0.152028 0.291492 0.248289
298 2 0.164733 0.336889 0.193265
611 4 0.286031 0.257516 0.221803
612 4 0.294914 0.306694 0.219988
610 2 0.290473 0.282105 0.220896
308 4 0.306627 0.318221 0.232144
623 4 0.369664 0.262036 0.177362
12 3 0.387519 0.333084 0.178993
528 4 0.447161 0.249342 0.189396
526 2 0.446424 0.273161 0.181828
527 4 0.445686 0.296981 0.174259
2538 4 0.44327 0.31843 0.17456
647 4 0.00606871 0.335109 0.204794
300 4 0.183788 0.352915 0.195553
13 3 0.389054 0.369967 0.171922
2536 2 0.440023 0.336529 0.191503
2537 4 0.436775 0.354628 0.208445
2794 2 0.0228954 0.485161 0.181824
2796 4 0.039881 0.5015 0.190174
602 4 0.087447 0.431953 0.207593
262 2 0.121336 0.427548 0.18738
264 4 0.100386 0.420497 0.199066
263 4 0.142286 0.434598 0.175694
601 2 0.0887374 0.423829 0.231204
415 2 0.182657 0.440991 0.177467
417 4 0.205283 0.444119 0.187638
291 4 0.213757 0.426401 0.193241
289 2 0.236622 0.426191 0.203357
290 4 0.259487 0.42598 0.213472
768 4 0.263833 0.431298 0.23221
766 2 0.282411 0.431445 0.248943
660 4 0.391644 0.482318 0.175487
1574 4 0.411063 0.484018 0.180532
108 3 0.470282 0.419646 0.216856
713 4 0.425397 0.456256 0.267217
596 4 0.481027 0.425753 0.166586
107 3 0.483126 0.434186 0.184665
712 2 0.425373 0.47989 0.259056
106 1 0.489288 0.426525 0.205461
1404 4 0.0660029 0.0172289 0.261009
234 4 0.069761 0.0375444 0.265104
232 2 0.0504076 0.0448988 0.279123
233 4 0.0310542 0.0522532 0.293142
730 2 0.154368 0.00682112 0.300358
732 4 0.139822 0.0175164 0.317655
429 4 0.150678 0.0237499 0.333919
1701 4 0.203141 0.014956 0.312167
742 2 0.39795 0.0774379 0.257183
1518 4 0.360992 0.99714 0.320769
743 4 0.414143 0.0589189 0.261658
699 4 0.360209 0.0156624 0.326099
333 4 0.41352 0.0507786 0.279853
331 2 0.428059 0.0592077 0.298366
332 4 0.442599 0.0676368 0.31688
529 2 0.0582552 0.154316 0.272723
317 4 0.0838642 0.0946876 0.329073
530 4 0.0600705 0.139467 0.292758
398 4 0.0803819 0.133804 0.292146
397 2 0.0909815 0.11831 0.308662
399 4 0.101581 0.102816 0.325177
546 4 0.159793 0.155854 0.330137
693 4 0.221395 0.0800538 0.253407
691 2 0.223257 0.0968582 0.271827
247 2 0.221904 0.151164 0.294376
248 4 0.223304 0.128521 0.304889
692 4 0.225119 0.113663 0.290248
29 3 0.262674 0.146478 0.269345
473 4 0.269245 0.134239 0.28365
472 2 0.275876 0.143984 0.305701
474 4 0.282507 0.153729 0.327752
24 3 0.332076 0.0922581 0.25316
744 4 0.381758 0.0959568 0.252709
22 3 0.358767 0.117991 0.259327
632 4 0.378513 0.114803 0.258684
631 2 0.386071 0.128087 0.278473
633 4 0.39363 0.141371 0.298261
762 4 0.473808 0.143815 0.244745
760 2 0.485024 0.145417 0.267034
761 4 0.496241 0.147019 0.289324
531 4 0.0564399 0.169164 0.252688
512 4 0.0446666 0.184545 0.257421
545 4 0.151789 0.191177 0.295656
544 2 0.155791 0.173516 0.312896
249 4 0.220504 0.173807 0.283863
405 4 0.219043 0.188939 0.271452
403 2 0.203026 0.185265 0.252606
28 3 0.288017 0.167105 0.249938
376 2 0.294425 0.240788 0.315986
378 4 0.315033 0.24087 0.330144
708 4 0.271419 0.230053 0.284478
706 2 0.274585 0.239879 0.261705
614 4 0.332943 0.248917 0.332573
377 4 0.273816 0.240706 0.301827
618 4 0.0573049 0.286137 0.292519
444 4 0.040169 0.289507 0.30126
616 2 0.082255 0.285096 0.293779
442 2 0.0164555 0.283013 0.296714
443 4 0.992742 0.276519 0.292167
617 4 0.107205 0.284055 0.29504
388 2 0.134429 0.29807 0.303071
389 4 0.110146 0.298197 0.309028
390 4 0.158712 0.297943 0.297115
372 4 0.163647 0.304986 0.265842
402 4 0.171073 0.307908 0.283381
400 2 0.189332 0.313686 0.299456
401 4 0.207591 0.319463 0.315531
307 2 0.313922 0.323183 0.255539
309 4 0.321217 0.328146 0.278935
542 4 0.401431 0.331386 0.253245
541 2 0.425873 0.335345 0.256726
543 4 0.450314 0.339304 0.260207
750 4 0.0686043 0.342334 0.257385
748 2 0.0462085 0.340133 0.268283
749 4 0.0238126 0.337931 0.27918
366 4 0.00542191 0.3448 0.269823
676 2 0.130834 0.376542 0.326643
677 4 0.152085 0.373197 0.313901
678 4 0.109583 0.379888 0.339386
735 4 0.159792 0.38282 0.297378
733 2 0.184434 0.38041 0.293893
345 4 0.207861 0.358524 0.297428
343 2 0.231345 0.351129 0.301786
734 4 0.209076 0.377999 0.290407
498 4 0.269637 0.348289 0.317455
344 4 0.254829 0.343734 0.306144
497 4 0.309931 0.340381 0.288914
496 2 0.289784 0.344335 0.303184
728 4 0.346445 0.36898 0.246306
301 2 0.332669 0.405365 0.26458
729 4 0.38208 0.334286 0.251525
302 4 0.344128 0.383738 0.259468
727 2 0.364262 0.351633 0.248916
447 4 0.458779 0.351988 0.274338
446 4 0.452922 0.39758 0.294029
445 2 0.455851 0.374784 0.284183
116 1 0.480585 0.407199 0.322179
120 3 0.469069 0.404866 0.30267
119 3 0.496506 0.390421 0.32403
1757 4 0.0847113 0.492494 0.281172
603 4 0.0900278 0.415705 0.254816
776 4 0.0913788 0.475389 0.288857
775 2 0.112223 0.464521 0.297377
777 4 0.133068 0.453654 0.305898
413 4 0.141705 0.455906 0.323209
303 4 0.32121 0.426992 0.269693
767 4 0.30099 0.431592 0.265677
230 4 0.365364 0.500733 0.327026
118 3 0.490869 0.427988 0.322864
3988 2 0.494965 0.473029 0.321589
3990 4 0.489592 0.497446 0.321231
318 4 0.0846297 0.0496347 0.350761
316 2 0.084247 0.0721612 0.339917
2756 4 0.0060019 0.0626996 0.346257
1772 4 0.0212604 0.0496822 0.350018
1771 2 0.018747 0.0248407 0.351346
1782 4 0.126723 0.018056 0.391475
428 4 0.130012 0.0331089 0.378484
427 2 0.140345 0.0284294 0.356201
1780 2 0.131491 0.01275 0.415439
606 4 0.205016 0.0546529 0.431432
698 4 0.352032 0.0317745 0.372728
697 2 0.35612 0.0237185 0.349414
258 4 0.413237 0.0600294 0.37588
426 4 0.402721 0.0714143 0.362722
256 2 0.423601 0.0637798 0.398323
351 4 0.458694 0.0785357 0.3149
349 2 0.475988 0.0828654 0.332431
257 4 0.433964 0.0675303 0.420767
2655 4 0.0130125 0.171791 0.402094
600 4 0.149262 0.159594 0.346677
598 2 0.161759 0.161786 0.368222
682 2 0.316158 0.168434 0.342373
424 2 0.384193 0.0882033 0.362751
725 4 0.342885 0.151318 0.361126
425 4 0.365664 0.104992 0.362779
726 4 0.363786 0.111389 0.382796
724 2 0.353335 0.131354 0.371961
684 4 0.336933 0.168763 0.356282
2654 4 0.0257194 0.218644 0.390092
2653 2 0.0193659 0.195218 0.396093
2846 4 0.0256603 0.224865 0.408575
685 2 0.203941 0.189314 0.397741
686 4 0.192789 0.168739 0.388938
599 4 0.174256 0.163979 0.389767
687 4 0.215093 0.209889 0.406543
683 4 0.295383 0.168106 0.328464
613 2 0.346175 0.250313 0.353742
715 2 0.376352 0.235081 0.404043
716 4 0.367169 0.255425 0.392775
2517 4 0.500382 0.214056 0.374337
269 4 0.471126 0.227865 0.421601
2848 2 0.0102565 0.28095 0.38507
2849 4 0.0329588 0.291387 0.385999
510 4 0.209866 0.316066 0.33597
508 2 0.213751 0.331139 0.355537
615 4 0.359406 0.25171 0.374912
268 2 0.472898 0.250913 0.412069
270 4 0.47467 0.27396 0.402537
560 4 0.428476 0.321156 0.398694
504 4 0.192149 0.401319 0.385416
509 4 0.217635 0.346213 0.375104
502 2 0.208083 0.383182 0.378908
503 4 0.224016 0.365045 0.372399
635 4 0.199419 0.405985 0.403905
336 4 0.383187 0.356239 0.401951
334 2 0.36978 0.375745 0.410008
561 4 0.39654 0.357861 0.387138
559 2 0.412508 0.339508 0.392916
117 3 0.465957 0.405552 0.339855
752 4 0.430898 0.406283 0.401898
751 2 0.434053 0.42635 0.387319
927 4 0.440459 0.396054 0.41626
549 4 0.985676 0.449293 0.376775
547 2 0.010143 0.453535 0.37385
548 4 0.0346099 0.457777 0.370924
501 4 0.0412889 0.454383 0.388687
499 2 0.0599832 0.46889 0.396764
412 2 0.15073 0.467393 0.343501
414 4 0.159756 0.47888 0.363793
569 4 0.172275 0.471237 0.377415
568 2 0.178385 0.453044 0.393442
570 4 0.184495 0.43485 0.409468
437 4 0.295833 0.46628 0.35155
436 2 0.279946 0.485584 0.351909
435 4 0.307092 0.454147 0.362323
433 2 0.326246 0.454585 0.378389
438 4 0.264059 0.504889 0.352268
1802 4 0.375625 0.496353 0.343314
434 4 0.3454 0.455024 0.394456
5 3 0.352923 0.47304 0.40292
663 4 0.499028 0.438847 0.42916
753 4 0.437208 0.446416 0.37274
720 4 0.129592 0.0449382 0.440229
718 2 0.149926 0.0592463 0.437587
342 4 0.150724 0.0538625 0.484391
1523 4 0.118853 0.997271 0.49057
719 4 0.17026 0.0735543 0.434944
1817 4 0.238712 0.98998 0.44527
962 4 0.251527 0.0194972 0.489196
1816 2 0.260606 0.00199372 0.444043
1818 4 0.2825 0.0140073 0.442816
440 4 0.294767 0.00722074 0.42709
431 4 0.336881 0.0701143 0.495387
843 4 0.355887 0.0725621 0.503106
642 4 0.40859 0.0662226 0.475862
842 4 0.403437 0.0595793 0.49467
841 2 0.379662 0.0660707 0.498888
1217 4 0.41497 0.00809937 0.493001
640 2 0.414132 0.0609125 0.452066
641 4 0.419674 0.0556025 0.428269
3489 4 0.464982 0.0203419 0.469696
3487 2 0.474229 0.0390634 0.455942
3488 4 0.483476 0.0577849 0.442188
2880 4 0.484209 0.0738127 0.453962
458 4 0.00319184 0.14102 0.460832
457 2 0.0259301 0.148007 0.468535
459 4 0.0486683 0.154993 0.476239
367 2 0.1667 0.114144 0.449182
1033 2 0.122676 0.161462 0.454658
1035 4 0.137732 0.181409 0.455417
368 4 0.164435 0.0897102 0.444385
369 4 0.168965 0.138579 0.45398
1034 4 0.107619 0.141514 0.453898
276 4 0.169314 0.157869 0.445781
604 2 0.206293 0.0782018 0.423125
605 4 0.20757 0.101751 0.414819
320 4 0.215641 0.118635 0.423257
319 2 0.224816 0.14139 0.428075
467 4 0.373435 0.147009 0.464764
466 2 0.38968 0.136113 0.480339
468 4 0.405925 0.125217 0.495913
266 4 0.344992 0.17067 0.484431
2879 4 0.489183 0.103974 0.414386
2878 2 0.486696 0.0888932 0.434174
470 4 0.0593453 0.173148 0.479829
469 2 0.0801424 0.186995 0.480788
2845 2 0.0290003 0.238852 0.429029
983 4 0.03123 0.235949 0.461604
982 2 0.0422421 0.239833 0.483713
2847 4 0.0323403 0.252838 0.449484
471 4 0.10094 0.200842 0.481747
259 2 0.106695 0.235538 0.480473
261 4 0.112988 0.214274 0.492024
275 4 0.20094 0.183584 0.474751
321 4 0.23399 0.164145 0.432893
411 4 0.241116 0.171626 0.450556
274 2 0.185127 0.170727 0.460266
857 4 0.189413 0.193386 0.488314
409 2 0.261303 0.186346 0.449542
410 4 0.281489 0.201065 0.448528
489 4 0.272253 0.216074 0.457524
487 2 0.290945 0.232408 0.460525
488 4 0.309637 0.248741 0.463527
717 4 0.385534 0.214736 0.41531
419 4 0.403744 0.216243 0.423502
420 4 0.453705 0.21806 0.42465
418 2 0.428724 0.217152 0.424076
304 2 0.459042 0.239731 0.476726
306 4 0.445367 0.240515 0.455807
346 2 0.0793096 0.283782 0.470607
347 4 0.0782805 0.308608 0.473398
348 4 0.0803386 0.258956 0.467816
260 4 0.100401 0.256801 0.468922
327 4 0.0856413 0.326003 0.481369
325 2 0.1084 0.329407 0.491149
373 2 0.184982 0.330096 0.494256
649 2 0.304685 0.283445 0.486285
651 4 0.300024 0.266089 0.4689
240 4 0.415451 0.306583 0.435868
238 2 0.422427 0.32641 0.44941
585 4 0.409255 0.289292 0.426819
583 2 0.419988 0.27022 0.438913
584 4 0.43072 0.251148 0.451006
408 4 0.08177 0.384793 0.434744
680 4 0.0655247 0.387599 0.446284
679 2 0.0720614 0.406401 0.461415
407 4 0.124395 0.360818 0.424305
406 2 0.103083 0.372806 0.429524
710 4 0.142022 0.357134 0.433184
709 2 0.159253 0.35279 0.450774
326 4 0.131158 0.332811 0.500929
375 4 0.183069 0.353498 0.48566
711 4 0.176483 0.348446 0.468364
634 2 0.209552 0.409054 0.426557
636 4 0.219684 0.412123 0.449208
772 2 0.330777 0.406494 0.489259
773 4 0.326808 0.417194 0.467012
335 4 0.356372 0.395252 0.418065
239 4 0.429404 0.346237 0.462952
926 4 0.433861 0.360321 0.450615
925 2 0.43716 0.378187 0.433438
1381 2 0.0107081 0.490905 0.449043
1383 4 0.0139427 0.475534 0.429589
500 4 0.0786774 0.483397 0.404842
538 2 0.0896986 0.461029 0.475695
935 4 0.0248019 0.437332 0.494928
539 4 0.0847528 0.439389 0.464187
681 4 0.0785981 0.425203 0.476546
540 4 0.0946445 0.482669 0.487203
588 4 0.329054 0.437636 0.443219
668 4 0.331025 0.44768 0.479245
593 4 0.414052 0.450235 0.454854
667 2 0.345381 0.462332 0.493542
4 3 0.339236 0.489505 0.433891
3 3 0.376259 0.491916 0.425652
592 2 0.400284 0.462448 0.437928
587 4 0.365089 0.413785 0.418054
1 1 0.354837 0.491007 0.416782
594 4 0.386516 0.47466 0.421003
669 4 0.359736 0.476984 0.50784
586 2 0.347071 0.42571 0.430637
662 4 0.478404 0.481223 0.445882
661 2 0.488716 0.460035 0.437521
1126 2 0.0473868 0.0414265 0.555645
1127 4 0.0302962 0.0345037 0.538758
2237 4 0.0321237 0.0150338 0.532017
2236 2 0.0453666 0.00336265 0.514308
3078 4 0.0235289 0.0454545 0.524083
3076 2 0.010472 0.0667744 0.523686
1128 4 0.0644774 0.0483494 0.572531
1059 4 0.130045 0.0086813 0.57972
2430 4 0.177405 0.000365807 0.508486
939 4 0.0796632 0.0585324 0.58042
341 4 0.179101 0.0200815 0.507935
1152 4 0.224521 0.0669144 0.489382
340 2 0.164912 0.036972 0.496163
961 2 0.269422 0.0282432 0.504311
963 4 0.287317 0.0369892 0.519426
430 2 0.321784 0.0544261 0.507681
432 4 0.306688 0.0387379 0.519976
89 3 0.413237 0.000182642 0.554579
4467 4 0.408035 0.0419426 0.579118
1216 2 0.407132 0.00520309 0.516567
90 3 0.423371 0.0334611 0.568984
4465 2 0.417369 0.0647742 0.575021
86 1 0.424179 0.0109033 0.572007
88 3 0.446257 0.0038389 0.573038
1150 2 0.220067 0.0871228 0.503416
1181 4 0.214497 0.123642 0.529513
1151 4 0.215613 0.107331 0.51745
1180 2 0.236214 0.133282 0.537298
1182 4 0.257932 0.142922 0.545083
1030 2 0.289159 0.113472 0.537338
1032 4 0.269898 0.129414 0.537133
1031 4 0.30842 0.0975295 0.537543
575 4 0.413885 0.129882 0.56289
574 2 0.409666 0.125164 0.538701
576 4 0.405446 0.120447 0.514512
4466 4 0.426702 0.0876058 0.570925
877 2 0.0607134 0.2443 0.538123
984 4 0.0532542 0.243717 0.505823
879 4 0.0546218 0.234859 0.56046
1272 4 0.0638089 0.219743 0.570497
856 2 0.1873 0.186361 0.512218
858 4 0.185188 0.179337 0.536121
1220 4 0.178843 0.19603 0.545417
1219 2 0.175866 0.19566 0.57024
888 4 0.307014 0.161454 0.582658
267 4 0.35511 0.184638 0.53137
265 2 0.350051 0.177654 0.5079
516 4 0.437374 0.231642 0.55663
514 2 0.451642 0.233093 0.536148
515 4 0.46591 0.234544 0.515667
305 4 0.472716 0.238947 0.497644
878 4 0.066805 0.253741 0.515786
695 4 0.061584 0.298539 0.530665
694 2 0.0799139 0.314675 0.536033
696 4 0.0982439 0.330811 0.541401
6 1 0.137313 0.318438 0.536518
10 3 0.147386 0.299813 0.544903
7 3 0.13937 0.318501 0.513607
1259 4 0.0958445 0.337896 0.560307
9 3 0.114772 0.318406 0.542025
791 4 0.194953 0.291102 0.566648
790 2 0.189466 0.292508 0.542294
792 4 0.183979 0.293914 0.517941
374 4 0.186895 0.306695 0.502852
804 4 0.245969 0.327956 0.56859
813 4 0.316952 0.295073 0.521793
811 2 0.331359 0.279684 0.535239
650 4 0.309347 0.300801 0.503669
812 4 0.345767 0.264295 0.548684
871 2 0.403752 0.281723 0.54859
872 4 0.395737 0.288323 0.525844
873 4 0.411768 0.275123 0.571336
906 4 0.425308 0.288689 0.578577
8 3 0.147517 0.337464 0.545018
1159 2 0.203939 0.411445 0.581698
929 4 0.325958 0.384612 0.526081
774 4 0.334747 0.395794 0.511506
928 2 0.336569 0.366058 0.539055
930 4 0.34718 0.347504 0.55203
1238 4 0.339495 0.355869 0.569401
890 4 0.355591 0.41421 0.552256
1938 4 0.034587 0.447274 0.507596
1936 2 0.0370848 0.457942 0.530071
1937 4 0.0395825 0.468611 0.552546
1040 4 0.0344581 0.470984 0.571159
897 4 0.161443 0.453297 0.522677
895 2 0.173142 0.442173 0.541771
896 4 0.18484 0.431049 0.560865
1161 4 0.202314 0.433066 0.569244
1002 4 0.407108 0.481555 0.586453
889 2 0.343863 0.418151 0.573984
1000 2 0.42312 0.466944 0.57399
1001 4 0.439132 0.452333 0.561528
1332 4 0.493924 0.478135 0.513191
4085 4 0.50354 0.463945 0.504382
1330 2 0.477301 0.496636 0.515754
863 4 0.0786336 0.0265746 0.6588
937 2 0.0996094 0.057389 0.595454
938 4 0.119556 0.0562455 0.610488
945 4 0.143432 0.0330385 0.641927
2318 4 0.162043 0.0273686 0.638046
943 2 0.118829 0.0352807 0.645781
944 4 0.0942264 0.0375229 0.649634
824 4 0.256333 0.029162 0.657742
951 4 0.267376 0.0371598 0.642664
949 2 0.276131 0.0161861 0.632242
950 4 0.284886 0.995212 0.621819
1004 4 0.312259 0.0660187 0.621826
1283 4 0.298531 0.0686018 0.606882
1282 2 0.276901 0.0779182 0.598482
1003 2 0.316068 0.0794064 0.642598
1050 4 0.312722 0.0549801 0.66739
1081 2 0.0183722 0.131249 0.64195
1082 4 0.996032 0.135786 0.631679
1083 4 0.0407129 0.126712 0.65222
852 4 0.046034 0.132419 0.670986
1155 4 0.121143 0.140531 0.607671
909 4 0.210108 0.112819 0.627749
907 2 0.22855 0.108787 0.611353
908 4 0.246991 0.104755 0.594957
1284 4 0.255271 0.0872345 0.590083
1005 4 0.319876 0.0927941 0.663369
1194 4 0.408087 0.157268 0.636833
899 4 0.387889 0.157703 0.634912
831 4 0.336641 0.101431 0.671519
1270 2 0.0678294 0.203545 0.589116
1271 4 0.0718499 0.187348 0.607735
1153 2 0.102641 0.156985 0.611152
1154 4 0.0841393 0.17344 0.614632
1221 4 0.172888 0.195291 0.595063
1212 4 0.240989 0.202793 0.633717
1210 2 0.218107 0.210788 0.639857
1211 4 0.195226 0.218782 0.645997
1277 4 0.180072 0.22398 0.65855
886 2 0.32822 0.172725 0.589616
898 2 0.371751 0.174196 0.625284
887 4 0.349427 0.183996 0.596575
900 4 0.355613 0.19069 0.615655
1192 2 0.42229 0.17258 0.650579
1025 4 0.485381 0.211196 0.642894
1193 4 0.436494 0.187893 0.664325
1258 2 0.0969137 0.331818 0.584537
946 2 0.164346 0.293253 0.649507
1260 4 0.097983 0.32574 0.608767
803 4 0.205012 0.334896 0.59643
802 2 0.22549 0.331426 0.58251
948 4 0.178513 0.28808 0.629564
798 4 0.199047 0.252648 0.660126
1189 2 0.188678 0.288967 0.598176
1190 4 0.176494 0.274583 0.614603
1191 4 0.200861 0.303351 0.581749
796 2 0.215156 0.270706 0.666417
954 4 0.429143 0.285803 0.657715
1010 4 0.483015 0.265924 0.589005
905 4 0.464879 0.258697 0.584516
904 2 0.445093 0.273693 0.581546
952 2 0.431447 0.291699 0.633526
953 4 0.433752 0.297595 0.609337
1245 4 0.0448482 0.394864 0.605012
1244 4 0.0210326 0.389576 0.648665
1243 2 0.0329404 0.39222 0.626839
1209 4 0.117271 0.389687 0.651023
993 4 0.122905 0.404725 0.639263
1160 4 0.205563 0.389825 0.594153
1137 4 0.176786 0.398112 0.62881
1237 2 0.352878 0.357934 0.59042
1027 2 0.385215 0.339775 0.63761
1028 4 0.388183 0.331083 0.660866
1029 4 0.382246 0.348467 0.614355
1239 4 0.366262 0.359998 0.611439
3121 2 0.478082 0.335687 0.672603
1039 2 0.0230985 0.484894 0.588556
991 2 0.115322 0.42602 0.649949
992 4 0.107739 0.447315 0.660635
1135 2 0.19132 0.417516 0.634927
1136 4 0.205853 0.436921 0.641045
1172 4 0.291075 0.472613 0.618795
1171 2 0.305538 0.453246 0.612395
1173 4 0.320001 0.43388 0.605996
891 4 0.332135 0.422092 0.595711
1953 4 0.390858 0.474035 0.595991
1951 2 0.388367 0.487717 0.61677
1269 4 0.480028 0.458675 0.648928
1267 2 0.459089 0.459897 0.662537
1268 4 0.438149 0.46112 0.676147
862 2 0.0664147 0.0188901 0.679216
864 4 0.0541958 0.0112056 0.699632
2284 2 0.0748027 0.0118682 0.737962
2286 4 0.0577408 0.0144095 0.719862
823 2 0.23981 0.0167906 0.671853
825 4 0.223287 0.00441927 0.685964
1147 2 0.236901 0.00251336 0.744084
1149 4 0.258222 0.0153239 0.746632
2400 4 0.27682 0.00983881 0.742843
2399 4 0.316015 0.0398412 0.734824
2398 2 0.296417 0.02484 0.738834
1049 4 0.318368 0.046009 0.716261
1048 2 0.315545 0.0504946 0.691825
1143 4 0.402336 0.0321977 0.730399
1141 2 0.40196 0.0540292 0.742582
2283 4 0.40203 0.0267957 0.681139
2281 2 0.416947 0.00803535 0.674018
1163 4 0.471517 0.0549297 0.71022
2321 4 0.435672 0.0443424 0.71174
42 3 0.473236 0.0724831 0.702246
41 1 0.451584 0.0801936 0.703194
45 3 0.438011 0.0635322 0.710732
2320 2 0.44223 0.021891 0.720578
850 2 0.0476379 0.133076 0.695929
851 4 0.0492418 0.133733 0.720873
1225 2 0.207143 0.155586 0.677899
1226 4 0.183999 0.148711 0.684402
830 4 0.343753 0.142884 0.698571
978 4 0.335399 0.159344 0.69174
829 2 0.340197 0.122157 0.685045
43 3 0.450695 0.098295 0.717683
44 3 0.445016 0.0867424 0.681925
1146 4 0.503237 0.148044 0.748219
1215 4 0.0651143 0.217682 0.722319
1213 2 0.0792556 0.203579 0.737362
1227 4 0.230286 0.162462 0.671395
1240 2 0.244118 0.232224 0.742954
1241 4 0.223011 0.227122 0.755348
1276 2 0.174313 0.235988 0.679712
1278 4 0.168555 0.247996 0.700873
1242 4 0.265226 0.237327 0.730559
976 2 0.324187 0.181683 0.69108
977 4 0.312974 0.204022 0.69042
918 4 0.310869 0.223271 0.684341
916 2 0.294408 0.233051 0.700421
917 4 0.277946 0.24283 0.716501
947 4 0.15018 0.298425 0.66945
1064 4 0.148749 0.312831 0.681623
1063 2 0.147175 0.331687 0.697967
797 4 0.231266 0.288764 0.672709
1166 4 0.329608 0.27303 0.726301
1167 4 0.359265 0.261286 0.687788
1165 2 0.344436 0.267158 0.707044
1006 2 0.348567 0.334285 0.742809
1207 2 0.117277 0.373346 0.669947
1208 4 0.117283 0.357005 0.688872
894 4 0.130095 0.360625 0.722184
892 2 0.141534 0.380986 0.731115
1065 4 0.145601 0.350544 0.714312
893 4 0.152972 0.401347 0.740045
941 4 0.166282 0.390937 0.750559
940 2 0.188942 0.391811 0.761091
1007 4 0.346856 0.340335 0.718609
806 4 0.361012 0.352772 0.711334
807 4 0.368749 0.335862 0.664913
1205 4 0.411368 0.329609 0.71518
805 2 0.36488 0.344317 0.688123
1019 4 0.416253 0.318858 0.732346
3122 4 0.455101 0.334807 0.682417
1204 2 0.427642 0.340377 0.699547
1206 4 0.443915 0.351145 0.683913
3238 2 0.00628006 0.463119 0.703213
3239 4 0.0159825 0.484685 0.695092
2171 4 0.0957455 0.457455 0.672478
2172 4 0.093661 0.468238 0.721265
2170 2 0.0947032 0.462846 0.696871
1067 4 0.215694 0.477336 0.676778
1068 4 0.236708 0.488865 0.720666
1066 2 0.226201 0.483101 0.698722
1176 4 0.240351 0.481626 0.738894
1174 2 0.253783 0.460752 0.741901
1140 4 0.285487 0.437857 0.749659
1228 2 0.362746 0.431886 0.741764
1230 4 0.379154 0.439506 0.724505
1101 4 0.384938 0.456504 0.714565
1099 2 0.405125 0.453314 0.700161
1100 4 0.425312 0.450124 0.685757
1296 4 0.0166615 0.0169638 0.812632
1294 2 0.0380706 0.0296226 0.815198
912 4 0.0774009 0.0399742 0.825602
1295 4 0.0594797 0.0422814 0.817764
2049 4 0.102796 0.996689 0.765051
910 2 0.0870784 0.0620791 0.832152
2285 4 0.0918647 0.00932682 0.756062
1257 4 0.276899 0.0815328 0.750061
1255 2 0.270827 0.0931696 0.771343
1086 4 0.34392 0.0524562 0.813898
1084 2 0.354513 0.0727151 0.824024
974 4 0.330698 0.038193 0.821006