ITEM: TIMESTEP
5180000
ITEM: NUMBER OF ATOMS
4590
ITEM: BOX BOUNDS pp pp pp
-9.9985700000000008e+00 9.9985700000000008e+00
-9.9985700000000008e+00 9.9985700000000008e+00
-9.9985700000000008e+00 9.9985700000000008e+00
ITEM: ATOMS id type xs ys zs
700 2 0.0177063 0.0602319 0.0179605
701 4 0.0242299 0.0591569 0.0420741
1421 4 0.00769724 0.0216542 0.0754247
1633 2 0.133093 0.00878624 0.0124473
1635 4 0.138428 0.0105303 0.0368126
1605 4 0.150907 0.0164294 0.0522908
1603 2 0.151015 0.00213883 0.0728078
1134 4 0.163999 0.0786916 0.0376692
566 4 0.248942 0.0571526 0.076981
567 4 0.269646 0.0728964 0.0342705
565 2 0.259294 0.0650245 0.0556258
2263 2 0.322529 0.0191287 0.0198455
2264 4 0.306604 0.999999 0.017476
2265 4 0.338455 0.0382584 0.0222151
987 4 0.372591 0.012609 0.0631324
985 2 0.394863 0.0238826 0.0617114
986 4 0.417136 0.0351562 0.0602904
2975 4 0.435105 0.0367051 0.0676391
555 4 0.0550891 0.15109 0.0071964
553 2 0.071211 0.137978 0.0211005
554 4 0.0873329 0.124865 0.0350047
836 4 0.10294 0.111788 0.0330568
835 2 0.125329 0.100708 0.0319857
837 4 0.147718 0.0896287 0.0309146
1132 2 0.181159 0.0938322 0.027596
933 4 0.217564 0.111007 0.0172383
1133 4 0.198319 0.108973 0.0175228
931 2 0.229792 0.128527 0.00425075
653 4 0.279606 0.087616 0.0250661
652 2 0.298743 0.102487 0.0312167
654 4 0.317879 0.117358 0.0373673
491 4 0.317537 0.131884 0.0511034
490 2 0.307157 0.154627 0.0515654
52 3 0.285954 0.160915 0.00842544
460 2 0.358606 0.107666 0.0416361
462 4 0.357883 0.109697 0.0665465
2469 4 0.369474 0.126485 0.0653957
461 4 0.359328 0.105634 0.0167256
2467 2 0.367041 0.145036 0.0819822
1086 4 0.349649 0.107234 0.999793
771 4 0.486717 0.153955 0.0266837
2640 4 0.500892 0.155243 0.0138139
2625 4 0.00862267 0.251055 0.0382188
2521 2 0.00578189 0.244707 0.999425
2623 2 0.0306217 0.246475 0.0491842
2624 4 0.0526207 0.241894 0.0601495
476 4 0.108468 0.23756 0.0217701
492 4 0.296778 0.177369 0.0520275
360 4 0.261376 0.213732 0.0293055
358 2 0.269522 0.19594 0.0448699
359 4 0.277667 0.178147 0.0604343
354 4 0.273489 0.219863 0.0141066
322 2 0.38381 0.214781 0.0506721
324 4 0.404879 0.217751 0.0375396
254 4 0.346413 0.217049 0.0742128
323 4 0.362741 0.211811 0.0638046
519 4 0.420293 0.230069 0.038362
518 4 0.45614 0.201478 0.0583173
517 2 0.438216 0.215773 0.0483396
769 2 0.479652 0.173093 0.0411415
770 4 0.472588 0.19223 0.0555992
292 2 0.0380401 0.320592 0.0153665
294 4 0.0294567 0.307205 0.0346615
620 4 0.0150094 0.32098 0.0389451
1169 4 0.0842815 0.331248 0.0223884
2523 4 0.000923931 0.257432 0.0203932
482 4 0.145836 0.307925 0.0622613
456 4 0.144644 0.315915 0.0825497
481 2 0.154866 0.303014 0.0394679
483 4 0.163895 0.298103 0.0166746
287 4 0.166626 0.28485 0.00248149
1304 4 0.350692 0.321445 0.000524002
607 2 0.392796 0.326614 0.072411
1070 4 0.452035 0.267853 0.00151091
1095 4 0.497705 0.270724 0.0791261
1094 4 0.497463 0.293378 0.0345455
1093 2 0.497584 0.282051 0.0568358
2872 2 0.0345703 0.391746 0.0205848
2874 4 0.0130969 0.388682 0.0330219
2873 4 0.0560437 0.39481 0.00814771
1168 2 0.100417 0.336618 0.00405856
1290 4 0.183099 0.372362 0.00497403
1288 2 0.188382 0.376281 0.0290966
252 4 0.209878 0.388592 0.0632605
250 2 0.225699 0.406921 0.0695013
1289 4 0.193666 0.3802 0.0532192
345 4 0.262921 0.347415 0.0798158
608 4 0.400357 0.346112 0.0587056
957 4 0.357486 0.407272 0.0354265
525 4 0.42622 0.367376 0.00812316
524 4 0.417695 0.356144 0.0561012
523 2 0.421958 0.36176 0.0321122
2288 4 0.419074 0.385069 0.00974354
552 4 0.0252783 0.444404 0.0426563
550 2 0.00506351 0.455838 0.033392
1223 4 0.134362 0.468688 0.00680822
2358 4 0.148267 0.482737 0.00534345
251 4 0.24152 0.425249 0.0757421
243 4 0.223959 0.497274 0.0519349
794 4 0.237865 0.485038 0.0438171
793 2 0.235558 0.461833 0.0528376
795 4 0.233251 0.438627 0.0618582
955 2 0.342889 0.41521 0.0167423
17 3 0.0321799 0.0736323 0.128448
381 4 0.0223759 0.0565197 0.131449
379 2 0.0199657 0.0426557 0.110782
380 4 0.0175554 0.0287916 0.0901138
463 2 0.0882069 0.058657 0.122709
464 4 0.0913244 0.0804799 0.134509
450 4 0.104353 0.0326375 0.117498
448 2 0.112859 0.00995431 0.123687
465 4 0.0850894 0.0368342 0.11091
1475 4 0.258082 0.0700302 0.0900572
1769 4 0.291131 0.043078 0.142807
1474 2 0.267386 0.0627981 0.11211
1476 4 0.276689 0.0555661 0.134162
1768 2 0.281873 0.0383816 0.165554
2974 2 0.445874 0.0240929 0.086351
2976 4 0.456643 0.0114807 0.105063
630 4 0.4397 0.0057219 0.115637
20 3 0.026371 0.0939738 0.159195
16 1 0.0371683 0.0933726 0.139153
18 3 0.0601039 0.0945142 0.142479
19 3 0.0301991 0.111077 0.125871
2481 4 0.0104411 0.109601 0.128873
578 4 0.0808268 0.0966471 0.142138
234 4 0.00710729 0.0872819 0.162357
577 2 0.103145 0.106651 0.147334
579 4 0.125463 0.116655 0.15253
237 4 0.144987 0.121783 0.154597
311 4 0.364243 0.088386 0.120174
310 2 0.374384 0.091776 0.142776
23 3 0.383319 0.164965 0.149875
312 4 0.384524 0.095166 0.165378
2468 4 0.364608 0.163587 0.0985687
2723 4 0.495269 0.0893065 0.148106
362 4 0.0491587 0.246332 0.135343
647 4 0.0298666 0.242809 0.138642
277 2 0.120169 0.2401 0.157733
754 2 0.305744 0.227554 0.151132
756 4 0.318553 0.233485 0.130494
572 4 0.306685 0.241485 0.11641
253 2 0.34868 0.196724 0.0885973
255 4 0.350947 0.176398 0.102982
21 1 0.380107 0.181609 0.13403
24 3 0.374303 0.172138 0.113658
22 3 0.362998 0.195313 0.141003
25 3 0.399124 0.193927 0.131736
759 4 0.395256 0.208621 0.145914
309 4 0.374765 0.209677 0.150475
307 2 0.363246 0.230158 0.159022
757 2 0.41638 0.221621 0.149072
527 4 0.496929 0.227565 0.133186
758 4 0.437504 0.234621 0.15223
528 4 0.450108 0.243554 0.140451
526 2 0.473519 0.23556 0.136818
2651 4 0.500411 0.218481 0.116003
361 2 0.0731878 0.250332 0.129706
646 2 0.00729818 0.253515 0.139749
363 4 0.0972168 0.254333 0.124069
278 4 0.110212 0.254127 0.139587
535 2 0.112564 0.318457 0.155619
454 2 0.138012 0.308396 0.105455
455 4 0.13138 0.300877 0.128361
536 4 0.125432 0.319117 0.134191
672 4 0.317962 0.294055 0.0876226
573 4 0.309449 0.28988 0.104118
571 2 0.308067 0.265682 0.110264
609 4 0.385235 0.307116 0.0861165
671 4 0.365819 0.308405 0.089751
670 2 0.34189 0.30123 0.0886868
622 2 0.480611 0.313398 0.148601
623 4 0.458455 0.310396 0.159793
749 4 0.0386134 0.397585 0.159393
343 2 0.267167 0.370637 0.0880561
344 4 0.271412 0.393859 0.0962963
498 4 0.290698 0.391831 0.101882
496 2 0.309101 0.390508 0.118757
497 4 0.327504 0.389184 0.135632
1674 4 0.393441 0.411732 0.0913502
541 2 0.477444 0.390536 0.118322
543 4 0.457446 0.405491 0.117056
542 4 0.497442 0.375581 0.119587
750 4 0.0487506 0.443773 0.143126
603 4 0.0660425 0.447692 0.133543
601 2 0.0782117 0.461888 0.116943
748 2 0.043682 0.420679 0.151259
602 4 0.0903809 0.476084 0.100342
263 4 0.082497 0.491673 0.0924516
1672 2 0.406451 0.433049 0.0925852
1584 4 0.409924 0.474563 0.157319
1575 4 0.416449 0.45334 0.155989
1673 4 0.419461 0.454366 0.0938202
1582 2 0.42217 0.493448 0.146431
689 4 0.0778933 0.0333748 0.204355
688 2 0.0729595 0.0112139 0.193879
1464 4 0.0898519 0.0222902 0.217423
1462 2 0.0980423 0.0345988 0.237587
1622 4 0.23634 0.0198037 0.239355
1504 2 0.210013 0.0810037 0.235509
1621 2 0.254959 0.0224802 0.222883
1623 4 0.273579 0.0251566 0.206411
1770 4 0.272615 0.0336851 0.1883
1607 4 0.404818 0.00847324 0.249685
235 2 0.161956 0.13572 0.166556
236 4 0.178924 0.149656 0.178515
721 2 0.215455 0.136002 0.188763
723 4 0.237756 0.136366 0.200064
722 4 0.193154 0.135637 0.177461
1505 4 0.194887 0.0852544 0.216059
693 4 0.254162 0.141851 0.211698
691 2 0.26343 0.132287 0.23286
764 4 0.372473 0.10014 0.179298
763 2 0.389165 0.114524 0.191117
765 4 0.405857 0.128907 0.202935
744 4 0.402621 0.147018 0.209681
742 2 0.425787 0.151337 0.218038
743 4 0.448953 0.155656 0.226396
333 4 0.46022 0.139604 0.224565
331 2 0.468618 0.128652 0.245414
279 4 0.130126 0.226073 0.175879
512 4 0.137804 0.240126 0.221988
737 4 0.144507 0.224768 0.235272
736 2 0.162141 0.21362 0.249056
755 4 0.292934 0.221623 0.171769
612 4 0.338609 0.2429 0.179588
708 4 0.410806 0.245767 0.222934
760 2 0.486476 0.233403 0.193735
522 4 0.460485 0.230448 0.226084
520 2 0.447919 0.24588 0.24122
762 4 0.471875 0.238322 0.213428
300 4 0.0944337 0.276521 0.218202
513 4 0.104156 0.274481 0.23571
511 2 0.12098 0.257304 0.228849
298 2 0.0928613 0.298597 0.206567
299 4 0.0912888 0.320673 0.194933
537 4 0.0996964 0.317796 0.177047
610 2 0.322901 0.252127 0.196715
611 4 0.307193 0.261353 0.213842
308 4 0.351728 0.250638 0.167569
766 2 0.349818 0.300698 0.23941
768 4 0.356065 0.277581 0.232216
707 4 0.36638 0.261925 0.239244
706 2 0.388593 0.253846 0.231089
767 4 0.343572 0.323815 0.246604
740 4 0.441692 0.304135 0.170253
739 2 0.432177 0.322412 0.184416
365 4 0.0256539 0.370519 0.210904
364 2 0.0318349 0.388054 0.194186
366 4 0.038016 0.405589 0.177468
2619 4 0.00579084 0.373652 0.208635
2538 4 0.336714 0.411963 0.241621
387 4 0.41201 0.356833 0.201657
386 4 0.368188 0.380914 0.200982
385 2 0.390099 0.368874 0.201319
2537 4 0.348922 0.379424 0.205665
2536 2 0.342818 0.395693 0.223643
13 3 0.464914 0.412367 0.177663
741 4 0.422662 0.340688 0.19858
291 4 0.221613 0.443704 0.248124
289 2 0.241165 0.457769 0.24141
290 4 0.260717 0.471834 0.234696
1430 4 0.256537 0.500128 0.18184
1573 2 0.407272 0.449906 0.178993
639 4 0.355266 0.489158 0.232079
638 4 0.389011 0.461969 0.207124
637 2 0.372138 0.475563 0.219602
1574 4 0.398094 0.446472 0.201996
14 3 0.446383 0.445437 0.17495
12 3 0.442728 0.42407 0.205654
15 3 0.475008 0.441622 0.19911
11 1 0.457412 0.430961 0.189343
645 4 0.492824 0.450264 0.200742
316 2 0.0626348 0.0534573 0.320298
318 4 0.065653 0.0288536 0.317022
317 4 0.0596166 0.0780609 0.323573
1469 4 0.0824226 0.0229311 0.32534
1463 4 0.106233 0.0469074 0.257751
732 4 0.116509 0.0604804 0.266789
1405 2 0.174616 0.00378297 0.309385
1406 4 0.174365 0.0128607 0.286089
1506 4 0.225139 0.0767529 0.254959
1700 4 0.228472 0.0175456 0.256762
1701 4 0.17978 0.020018 0.267886
1699 2 0.204126 0.0187818 0.262324
1830 4 0.292333 0.0492188 0.272356
474 4 0.273324 0.0533875 0.267297
1828 2 0.313289 0.035601 0.273133
472 2 0.277676 0.0774599 0.262124
376 2 0.30872 0.0796783 0.317641
378 4 0.294903 0.0630844 0.330247
1829 4 0.334244 0.0219832 0.273911
1496 4 0.340938 0.0055021 0.264075
399 4 0.046421 0.0910197 0.32233
397 2 0.0431762 0.115799 0.323141
398 4 0.0399314 0.140577 0.323952
531 4 0.0580976 0.148161 0.325434
730 2 0.126239 0.0823775 0.259646
731 4 0.135968 0.104275 0.252502
692 4 0.272698 0.122722 0.254021
473 4 0.282028 0.101532 0.256951
29 3 0.278971 0.114507 0.274033
28 3 0.308204 0.111988 0.298188
26 1 0.292882 0.126357 0.288332
683 4 0.328853 0.117658 0.301361
377 4 0.322536 0.0962723 0.305034
30 3 0.303825 0.142656 0.276788
27 3 0.280092 0.136037 0.30482
582 4 0.275805 0.153007 0.295758
682 2 0.345298 0.127156 0.317626
684 4 0.361742 0.136655 0.33389
350 4 0.477073 0.0991369 0.327969
349 2 0.471879 0.103366 0.303879
351 4 0.466686 0.107594 0.279789
332 4 0.477015 0.117699 0.266264
453 4 0.494591 0.0954042 0.321328
2655 4 0.057809 0.210307 0.33143
738 4 0.179774 0.202472 0.262839
284 4 0.189883 0.211021 0.278738
283 2 0.211272 0.200618 0.286448
285 4 0.232661 0.190214 0.294159
581 4 0.25117 0.196415 0.292662
580 2 0.263488 0.174711 0.29421
388 2 0.0996744 0.287796 0.312856
390 4 0.100967 0.305641 0.295391
372 4 0.102094 0.323525 0.284457
389 4 0.0983816 0.269951 0.330322
521 4 0.435352 0.261312 0.256357
632 4 0.434959 0.270111 0.274543
631 2 0.429905 0.272819 0.29888
633 4 0.424852 0.275527 0.323217
419 4 0.430387 0.29219 0.333212
678 4 0.0702505 0.380059 0.327069
370 2 0.119604 0.341131 0.281523
676 2 0.0897913 0.386133 0.312701
371 4 0.137114 0.358737 0.278588
677 4 0.109332 0.392207 0.298333
402 4 0.153434 0.348794 0.285054
735 4 0.125037 0.394947 0.285536
733 2 0.139123 0.413121 0.275714
400 2 0.166186 0.36423 0.30003
401 4 0.178938 0.379666 0.315007
510 4 0.190965 0.392732 0.305749
508 2 0.204322 0.395269 0.326733
301 2 0.326874 0.347221 0.279575
728 4 0.302477 0.354455 0.305559
302 4 0.321812 0.35859 0.301261
727 2 0.289938 0.365284 0.324285
303 4 0.331935 0.335851 0.257889
120 3 0.370414 0.41454 0.319693
118 3 0.395043 0.388857 0.332001
1758 4 0.00612143 0.44954 0.331406
1318 2 0.132244 0.497438 0.310539
734 4 0.153209 0.431295 0.265892
1320 4 0.114458 0.49512 0.327959
417 4 0.168865 0.437917 0.277441
416 4 0.209158 0.457352 0.255093
415 2 0.189011 0.447635 0.266267
230 4 0.316225 0.482727 0.275333
1801 2 0.29009 0.485662 0.308884
1803 4 0.277823 0.479246 0.329706
593 4 0.29112 0.465607 0.334301
1802 4 0.302357 0.492077 0.288062
447 4 0.342636 0.420423 0.259077
445 2 0.354165 0.422032 0.281205
446 4 0.365694 0.423642 0.303334
3990 4 0.399378 0.476306 0.298521
3988 2 0.411888 0.455689 0.305127
713 4 0.409847 0.481504 0.282635
3989 4 0.424399 0.435073 0.311732
2741 4 0.443333 0.442022 0.310831
2740 2 0.466136 0.440207 0.320928
2924 4 0.496105 0.445079 0.313013
2742 4 0.488938 0.438391 0.331024
428 4 0.0844258 0.0718408 0.402256
1468 2 0.103211 0.0116885 0.333502
1470 4 0.124 0.000445906 0.341664
274 2 0.166398 0.0611436 0.338802
276 4 0.171868 0.0370413 0.342588
441 4 0.29029 0.00356469 0.349725
1818 4 0.279176 0.0462466 0.386034
440 4 0.274516 0.0480341 0.366289
439 2 0.282403 0.0257994 0.358007
1816 2 0.274757 0.054385 0.409259
641 4 0.490885 0.0229221 0.387856
257 4 0.4905 0.0417682 0.385727
424 2 0.415956 0.078029 0.378897
256 2 0.466657 0.0487374 0.382878
258 4 0.442814 0.0557065 0.38003
426 4 0.422766 0.0540032 0.380146
275 4 0.160928 0.0852459 0.335016
368 4 0.165672 0.0986532 0.350014
367 2 0.183701 0.115949 0.349031
369 4 0.20173 0.133246 0.348048
600 4 0.207298 0.147131 0.361934
725 4 0.369678 0.132856 0.35141
724 2 0.381499 0.120606 0.369724
726 4 0.393321 0.108357 0.388038
425 4 0.409146 0.102055 0.377649
530 4 0.0644289 0.195543 0.340115
529 2 0.0612632 0.171852 0.332775
2653 2 0.0415901 0.228878 0.33558
2654 4 0.0253712 0.24745 0.339731
2846 4 0.0249358 0.249188 0.360083
598 2 0.197122 0.169314 0.367371
599 4 0.186946 0.191496 0.372808
686 4 0.175127 0.198321 0.388608
685 2 0.182371 0.21445 0.406287
583 2 0.411964 0.248403 0.390348
717 4 0.373745 0.250438 0.411522
585 4 0.434586 0.242867 0.381249
2845 2 0.0079961 0.261186 0.374021
1034 4 0.0621261 0.313685 0.392776
2850 4 0.0426463 0.309629 0.386202
2848 2 0.0314785 0.309916 0.408571
249 4 0.104016 0.288746 0.410969
1035 4 0.109152 0.296736 0.394183
1033 2 0.0856391 0.30521 0.39348
406 2 0.229762 0.324755 0.410295
615 4 0.31159 0.272744 0.341215
614 4 0.313118 0.295442 0.385748
405 4 0.320793 0.308239 0.398986
613 2 0.312354 0.284093 0.363482
584 4 0.389343 0.25394 0.399446
418 2 0.451216 0.30493 0.338601
420 4 0.472045 0.31767 0.343989
617 4 0.0750833 0.378541 0.347089
616 2 0.0555443 0.364026 0.352808
618 4 0.0360052 0.34951 0.358527
2693 4 0.0227477 0.340521 0.371905
444 4 0.0644937 0.36322 0.392031
539 4 0.0472005 0.371198 0.394851
538 2 0.0298664 0.388076 0.401163
540 4 0.0125324 0.404954 0.407475
442 2 0.0867089 0.36175 0.403411
443 4 0.108924 0.36028 0.41479
408 4 0.216367 0.339122 0.394824
503 4 0.230789 0.340226 0.380411
509 4 0.217678 0.397807 0.347718
635 4 0.226577 0.402102 0.364444
502 2 0.245132 0.354233 0.36547
634 2 0.24695 0.41343 0.373489
729 4 0.277398 0.376114 0.343011
504 4 0.259475 0.368241 0.350529
774 4 0.317717 0.409246 0.409823
119 3 0.358707 0.387429 0.343052
751 2 0.394718 0.38914 0.391006
116 1 0.376305 0.401445 0.33737
753 4 0.387596 0.406366 0.374341
752 4 0.401839 0.371914 0.407672
927 4 0.405328 0.353116 0.40797
117 3 0.381262 0.414841 0.355402
669 4 0.366164 0.415635 0.372889
269 4 0.471292 0.33761 0.338685
268 2 0.481592 0.358724 0.347243
270 4 0.491893 0.379839 0.355802
776 4 0.0571967 0.480012 0.364373
1757 4 0.0386282 0.47678 0.357901
1756 2 0.0223748 0.46316 0.344653
775 2 0.077571 0.486697 0.351513
777 4 0.0979452 0.493382 0.338653
412 2 0.175506 0.486978 0.413212
636 4 0.267323 0.424758 0.382534
592 2 0.285624 0.452135 0.354635
2 3 0.314589 0.442244 0.395924
5 3 0.278332 0.434275 0.399776
1 1 0.297954 0.43715 0.410973
594 4 0.280128 0.438664 0.37497
668 4 0.323608 0.424362 0.397659
667 2 0.344886 0.419999 0.385274
427 2 0.0668186 0.071102 0.419993
429 4 0.0492115 0.0703632 0.437731
719 4 0.0424061 0.054913 0.449394
718 2 0.0471945 0.0547803 0.473935
720 4 0.0519829 0.0546477 0.498475
606 4 0.258345 0.0789803 0.431817
1817 4 0.270337 0.0625234 0.432485
3487 2 0.417023 0.00213585 0.481754
3489 4 0.395368 0.999062 0.469638
576 4 0.42204 0.0669411 0.484027
3488 4 0.438678 0.00521008 0.49387
468 4 0.225839 0.114773 0.470443
466 2 0.228345 0.134483 0.485622
604 2 0.244107 0.0871181 0.450691
605 4 0.229869 0.0952559 0.469565
320 4 0.286628 0.114696 0.425066
319 2 0.286463 0.139678 0.426073
321 4 0.286298 0.164661 0.427079
469 2 0.0115147 0.206733 0.432686
471 4 0.0250267 0.207113 0.453721
261 4 0.0334034 0.219032 0.467621
259 2 0.0524542 0.22151 0.483625
260 4 0.0715049 0.223987 0.499628
878 4 0.0106132 0.24759 0.496533
546 4 0.0981176 0.206214 0.468671
544 2 0.110822 0.221092 0.453101
545 4 0.123527 0.23597 0.437531
248 4 0.131602 0.249701 0.42564
687 4 0.189614 0.230579 0.423966
10 3 0.176063 0.235409 0.438224
7 3 0.191729 0.246253 0.470316
488 4 0.209249 0.240552 0.424126
487 2 0.233016 0.233362 0.427057
411 4 0.30212 0.176611 0.424805
489 4 0.256784 0.226172 0.429987
410 4 0.27049 0.213606 0.436276
409 2 0.286305 0.195109 0.430541
1009 2 0.458422 0.245336 0.479274
1010 4 0.451829 0.22736 0.495355
4434 4 0.0214711 0.316587 0.449931
2849 4 0.0203106 0.310203 0.43094
247 2 0.117809 0.269224 0.418305
325 2 0.134171 0.273459 0.474246
326 4 0.157092 0.271309 0.46449
327 4 0.11125 0.275609 0.484002
6 1 0.186612 0.252597 0.448805
9 3 0.206269 0.257879 0.437665
8 3 0.172705 0.271155 0.449565
375 4 0.177995 0.281244 0.468132
373 2 0.18892 0.296101 0.485017
407 4 0.243156 0.310388 0.425766
403 2 0.320131 0.299211 0.422293
710 4 0.256771 0.302364 0.43806
709 2 0.257744 0.278381 0.445065
711 4 0.258717 0.254399 0.452071
404 4 0.319468 0.290182 0.4456
650 4 0.351409 0.323326 0.48297
649 2 0.362531 0.313756 0.462725
651 4 0.373653 0.304186 0.442479
716 4 0.36107 0.289796 0.439647
715 2 0.367408 0.270117 0.425585
238 2 0.453213 0.299167 0.450508
240 4 0.458558 0.280992 0.466827
1011 4 0.465015 0.263312 0.463194
239 4 0.447867 0.317341 0.434189
926 4 0.429698 0.323868 0.440396
936 4 0.00123972 0.370999 0.476362
4433 4 0.00353119 0.351755 0.480624
4432 2 0.0125012 0.334171 0.465278
680 4 0.124221 0.349012 0.422065
679 2 0.139321 0.368598 0.425746
681 4 0.15442 0.388185 0.429428
570 4 0.151778 0.402374 0.445554
560 4 0.20958 0.350934 0.464097
559 2 0.234323 0.35104 0.460498
561 4 0.259066 0.351146 0.4569
335 4 0.31659 0.348624 0.443033
334 2 0.294457 0.342529 0.45294
336 4 0.272324 0.336434 0.462847
773 4 0.320243 0.364643 0.432293
772 2 0.31898 0.386944 0.421058
812 4 0.339018 0.334003 0.494462
588 4 0.442833 0.415003 0.456034
586 2 0.452007 0.397049 0.441246
587 4 0.461181 0.379095 0.426459
925 2 0.417513 0.338492 0.424183
384 4 0.00270206 0.488174 0.459067
2813 4 0.0110492 0.424785 0.415115
568 2 0.162251 0.424046 0.438786
569 4 0.172724 0.445719 0.432019
414 4 0.171017 0.464112 0.422277
1401 4 0.322957 0.491247 0.479955
1400 4 0.309187 0.468992 0.437343
4 3 0.29594 0.45461 0.426122
434 4 0.288646 0.475364 0.429284
1399 2 0.316072 0.48012 0.458649
3 3 0.303647 0.417611 0.422118
433 2 0.269931 0.489094 0.419989
880 2 0.461603 0.45758 0.496123
881 4 0.474657 0.447751 0.477198
663 4 0.493434 0.453325 0.479181
2430 4 0.0690454 0.0204109 0.572639
340 2 0.0618625 0.0448443 0.541081
341 4 0.0651271 0.0384334 0.565027
342 4 0.0585979 0.0512551 0.517135
2428 2 0.0524734 0.00202759 0.576189
856 2 0.139381 0.0732293 0.538369
857 4 0.14307 0.0527369 0.524526
1151 4 0.148879 0.0416437 0.508362
1645 2 0.20505 0.0284693 0.553344
1646 4 0.201518 0.0305501 0.528679
1152 4 0.19839 0.0350514 0.510814
1647 4 0.208582 0.0263885 0.578009
1150 2 0.173635 0.0383476 0.509588
1182 4 0.260231 0.048942 0.570264
1032 4 0.271273 0.0635011 0.5631
1180 2 0.274701 0.0286002 0.571673
1181 4 0.289172 0.0082583 0.573081
4466 4 0.402597 0.0304219 0.525256
4465 2 0.410821 0.0182999 0.545519
575 4 0.411147 0.0489168 0.529383
574 2 0.416594 0.0579289 0.506705
1062 4 0.479304 0.00342746 0.561336
4467 4 0.419046 0.00617802 0.565782
1219 2 0.145485 0.131199 0.538153
1220 4 0.142377 0.112708 0.554693
858 4 0.135692 0.0937216 0.552212
1221 4 0.148592 0.149691 0.521613
1212 4 0.165388 0.160509 0.517817
467 4 0.230851 0.154193 0.500802
1030 2 0.275963 0.0874568 0.557686
1031 4 0.280653 0.111412 0.552272
1225 2 0.27212 0.146981 0.547202
1226 4 0.287339 0.127726 0.542426
1227 4 0.256902 0.166236 0.551978
514 2 0.486579 0.150463 0.527704
305 4 0.492333 0.124947 0.55949
304 2 0.481384 0.109728 0.576034
515 4 0.4934 0.129559 0.539606
879 4 0.0239224 0.234251 0.542854
877 2 0.0172678 0.240921 0.519693
1272 4 0.016712 0.249446 0.554939
348 4 0.076864 0.237923 0.514399
1210 2 0.16071 0.183541 0.52635
1211 4 0.156032 0.206573 0.534883
1242 4 0.161901 0.232525 0.56261
1240 2 0.181601 0.235854 0.577643
909 4 0.24603 0.181161 0.561325
888 4 0.410431 0.21547 0.569023
886 2 0.389875 0.209771 0.582068
516 4 0.479757 0.171368 0.515802
266 4 0.418479 0.234092 0.570282
265 2 0.438332 0.237413 0.555449
1024 2 0.472256 0.20592 0.523194
1026 4 0.474487 0.187308 0.506648
267 4 0.458184 0.240734 0.540616
1025 4 0.470025 0.224533 0.53974
1270 2 0.0263472 0.254736 0.577397
3461 4 0.0051183 0.266609 0.50091
3264 4 0.000686656 0.323614 0.504653
346 2 0.0944131 0.255003 0.509353
347 4 0.111962 0.272083 0.504306
792 4 0.216009 0.313486 0.513214
790 2 0.232062 0.326155 0.5276
374 4 0.199846 0.310957 0.501902
1191 4 0.264511 0.332497 0.550379
872 4 0.459844 0.256923 0.529552
871 2 0.479612 0.269868 0.537729
1179 4 0.0109428 0.378563 0.54002
3263 4 0.00267476 0.359912 0.538993
1177 2 0.00563588 0.402465 0.545091
3262 2 0.00168071 0.341763 0.521823
791 4 0.248115 0.338824 0.541986
1189 2 0.284398 0.346798 0.555397
1190 4 0.304285 0.361098 0.560415
811 2 0.353248 0.348413 0.509126
813 4 0.367479 0.362823 0.523789
1238 4 0.372794 0.362343 0.543121
1237 2 0.383254 0.353969 0.564231
1178 4 0.000329 0.426367 0.550162
1171 2 0.293426 0.42852 0.580118
1172 4 0.26972 0.434695 0.575114
1909 2 0.449469 0.458556 0.552647
1911 4 0.438802 0.455369 0.575035
1910 4 0.460135 0.461743 0.530258
882 4 0.448548 0.46741 0.515048
33 3 0.0462878 0.0817102 0.636581
939 4 0.156681 0.0286565 0.630962
1892 4 0.143161 0.0303879 0.647041
950 4 0.226611 0.0318455 0.586311
937 2 0.170595 0.00809774 0.627977
949 2 0.22224 0.0440279 0.607704
1092 4 0.20848 0.0680843 0.641483
951 4 0.217868 0.0562103 0.629097
1090 2 0.223184 0.0705709 0.661552
43 3 0.309956 0.0322614 0.661129
42 3 0.343955 0.0482814 0.66142
809 4 0.424102 0.0618435 0.625916
808 2 0.441009 0.0460949 0.616361
810 4 0.457916 0.0303463 0.606805
90 3 0.459352 0.0221404 0.588932
4226 4 0.433281 0.0713681 0.641291
86 1 0.454114 0.999979 0.588646
34 3 0.0712152 0.107316 0.649517
32 3 0.0428883 0.117952 0.627221
31 1 0.0489873 0.10351 0.644055
2285 4 0.0807382 0.0919333 0.657737
35 3 0.0357785 0.107181 0.66224
4225 2 0.414657 0.0868149 0.647593
1193 4 0.381787 0.0988065 0.640822
4227 4 0.396033 0.102262 0.653896
899 4 0.350264 0.148295 0.627516
1194 4 0.367502 0.14242 0.62096
1192 2 0.374645 0.120613 0.630891
306 4 0.470435 0.094509 0.592577
3387 4 0.00729666 0.230899 0.665094
1155 4 0.0189457 0.245713 0.660557
1154 4 0.0407116 0.250376 0.615777
1153 2 0.0298287 0.248044 0.638167
907 2 0.246353 0.186865 0.585667
1241 4 0.201301 0.239182 0.592677
1278 4 0.201752 0.23908 0.613402
1277 4 0.192976 0.200535 0.644029
1276 2 0.197364 0.219808 0.628716
908 4 0.246676 0.192569 0.610009
798 4 0.181833 0.207118 0.658719
1283 4 0.293595 0.199188 0.654919
1282 2 0.272851 0.193885 0.642005
1284 4 0.252108 0.188582 0.629091
898 2 0.354841 0.171113 0.618376
900 4 0.359417 0.193932 0.609236
887 4 0.369319 0.204072 0.595112
1271 4 0.0359823 0.260027 0.599855
1165 2 0.158552 0.311332 0.608032
1166 4 0.139941 0.324272 0.597478
1167 4 0.177162 0.298391 0.618586
918 4 0.196502 0.293118 0.623091
916 2 0.211558 0.312398 0.628263
917 4 0.226614 0.331679 0.633435
802 2 0.276613 0.255162 0.652514
806 4 0.303053 0.283195 0.638566
804 4 0.292125 0.266983 0.636867
805 2 0.324085 0.295383 0.644422
807 4 0.345117 0.307571 0.650278
1028 4 0.356633 0.32101 0.63898
1027 2 0.371347 0.329412 0.620593
993 4 0.0930859 0.405817 0.65297
897 4 0.140422 0.342231 0.60612
896 4 0.121039 0.387657 0.598277
895 2 0.130731 0.364944 0.602199
1136 4 0.229526 0.340819 0.651765
1239 4 0.393715 0.345596 0.585341
1029 4 0.38606 0.337815 0.602206
3023 4 0.481606 0.338231 0.66046
1139 4 0.462397 0.34494 0.657165
1280 4 0.0357619 0.48527 0.603024
2172 4 0.0153339 0.492091 0.605248
2014 2 0.072999 0.441447 0.664367
1279 2 0.0527143 0.496943 0.588828
2015 4 0.0865723 0.424588 0.651848
2154 4 0.236635 0.43366 0.654501
2152 2 0.22378 0.455097 0.653897
1160 4 0.237449 0.427967 0.636416
2153 4 0.210925 0.476534 0.653293
1159 2 0.249026 0.427089 0.614271
2352 4 0.210538 0.495199 0.646181
1173 4 0.317133 0.422345 0.585123
890 4 0.32927 0.438246 0.586442
1161 4 0.260603 0.426211 0.592127
1001 4 0.36834 0.486177 0.592726
889 2 0.338762 0.461266 0.588711
891 4 0.348254 0.484286 0.59098
1268 4 0.421617 0.451165 0.585573
1267 2 0.428065 0.450253 0.609714
1269 4 0.434513 0.449342 0.633854
862 2 0.0797298 0.0383725 0.717133
863 4 0.0716385 0.0225934 0.73476
2286 4 0.0937111 0.0740855 0.702613
864 4 0.087821 0.0541515 0.699505
1891 2 0.138804 0.0366166 0.670861
1893 4 0.134447 0.0428453 0.694682
2399 4 0.140067 0.0401949 0.714012
2398 2 0.159931 0.0519158 0.723669
2284 2 0.0872247 0.0830094 0.680175
2400 4 0.179794 0.0636367 0.733325
1091 4 0.237889 0.0730575 0.681621
1149 4 0.193667 0.0559732 0.746741
45 3 0.318512 0.0585001 0.686741
2321 4 0.329062 0.00913685 0.705626
41 1 0.326647 0.0409703 0.674692
1050 4 0.258086 0.0676391 0.678204
1048 2 0.27114 0.0815647 0.694355
2320 2 0.307541 0.000428044 0.71491
44 3 0.3346 0.0245342 0.68901
980 4 0.343969 0.0254698 0.708975
979 2 0.368118 0.025675 0.715453
1112 4 0.40713 0.024689 0.734731
981 4 0.392267 0.0258801 0.721932
852 4 0.0142174 0.110919 0.669837
945 4 0.0525652 0.0985607 0.726932
943 2 0.0422443 0.105702 0.705307
944 4 0.0319234 0.112844 0.683682
1023 4 0.247842 0.147497 0.72541
1256 4 0.244222 0.15417 0.742954
1022 4 0.274728 0.105333 0.725485
1049 4 0.284194 0.0954902 0.710506
1021 2 0.261285 0.126415 0.725447
833 4 0.0404627 0.194964 0.728396
3245 4 0.0427517 0.173992 0.735462
832 2 0.0549615 0.211676 0.740043
796 2 0.161602 0.214638 0.671343
797 4 0.141372 0.222158 0.683966
695 4 0.143854 0.241381 0.687755
694 2 0.137143 0.249471 0.710442
1004 4 0.292719 0.195705 0.674131
1003 2 0.291657 0.187098 0.697583
1005 4 0.290596 0.178492 0.721035
831 4 0.306636 0.191393 0.72559
829 2 0.32451 0.197775 0.741868
803 4 0.261101 0.243341 0.66816
978 4 0.348469 0.215093 0.740648
1298 4 0.465064 0.250538 0.736144
1258 2 0.116871 0.301357 0.732889
1259 4 0.124795 0.277646 0.733275
696 4 0.130433 0.25756 0.733129
1260 4 0.108947 0.325069 0.732502
953 4 0.465207 0.259857 0.718436
954 4 0.468152 0.301216 0.690482
952 2 0.46668 0.280536 0.704459
991 2 0.105545 0.390331 0.66814
1208 4 0.120928 0.339534 0.725427
992 4 0.118003 0.374845 0.68331
1209 4 0.120455 0.383193 0.701047
1207 2 0.120691 0.361364 0.713237
947 4 0.164501 0.365316 0.726395
1135 2 0.222714 0.344159 0.67559
1137 4 0.215902 0.347499 0.699415
948 4 0.200319 0.355813 0.692817
946 2 0.18241 0.360565 0.709606
1068 4 0.247214 0.386791 0.737476
1230 4 0.307302 0.412659 0.669831
1006 2 0.308042 0.371352 0.696228
1007 4 0.285485 0.36126 0.69242
1067 4 0.273918 0.356165 0.708327
1066 2 0.260566 0.371478 0.722902
1176 4 0.252206 0.406518 0.737593
1008 4 0.330599 0.381444 0.700037
860 4 0.316649 0.39195 0.745247
1018 2 0.413638 0.372733 0.712821
1019 4 0.40058 0.393403 0.718054
1101 4 0.395769 0.397574 0.737544
1020 4 0.426697 0.352062 0.707588
1138 2 0.461399 0.36426 0.673006
1140 4 0.460402 0.383579 0.688846
1206 4 0.441739 0.390096 0.690713
1204 2 0.438636 0.412877 0.680886
3432 4 0.0708808 0.474682 0.679357
2016 4 0.0594258 0.458305 0.676887
3430 2 0.0728259 0.499443 0.68223
1228 2 0.300858 0.436814 0.669391
1229 4 0.294414 0.460969 0.668952
1205 4 0.435533 0.435657 0.671058
2169 4 0.47154 0.495535 0.696956
911 4 0.0353262 0.00934781 0.787752
912 4 0.0706648 0.0156892 0.752942
910 2 0.0529955 0.0125185 0.770347
2277 4 0.0264305 0.0113654 0.805067
1196 4 0.154838 0.0288101 0.830549
1195 2 0.133754 0.0154026 0.829598
1895 4 0.159416 0.042036 0.817325
1197 4 0.112671 0.00199514 0.828647
1147 2 0.211403 0.0424735 0.758071
1148 4 0.229139 0.0289738 0.769401
1894 2 0.181061 0.0545446 0.816848
2048 4 0.212238 0.0718583 0.833679
1896 4 0.202705 0.0670533 0.816371
1111 2 0.416902 0.0369514 0.754207
1113 4 0.426675 0.0492137 0.773683
3038 4 0.00808456 0.139842 0.783177
3246 4 0.0226211 0.147434 0.772747
3244 2 0.0326864 0.160713 0.754105
834 4 0.0694603 0.228389 0.751689
920 4 0.0898206 0.22281 0.753207
919 2 0.101083 0.238893 0.768688
1130 4 0.239732 0.240877 0.78776
1129 2 0.246456 0.216908 0.790096
1255 2 0.253329 0.166419 0.762758
1131 4 0.25318 0.192939 0.792433
1257 4 0.262436 0.178669 0.782562
976 2 0.368556 0.226775 0.74988
830 4 0.342384 0.204156 0.758146
1146 4 0.384656 0.228402 0.77566
1144 2 0.393997 0.228898 0.798848
977 4 0.388643 0.238457 0.759112
1145 4 0.403338 0.229394 0.822036
1105 2 0.0492473 0.289316 0.796388
1107 4 0.042399 0.312715 0.790839
1106 4 0.0560957 0.265917 0.801936
1214 4 0.0387986 0.324477 0.774467
921 4 0.112345 0.254977 0.78417
1074 4 0.131962 0.261075 0.785083
815 4 0.100718 0.311784 0.808538
1073 4 0.11536 0.299356 0.812646
1072 2 0.123661 0.280215 0.798865
814 2 0.0978911 0.324364 0.82996
1266 4 0.169771 0.284619 0.811022
801 4 0.24592 0.251473 0.803723
941 4 0.239562 0.311214 0.824175
1264 2 0.187758 0.268483 0.817448
940 2 0.235433 0.33322 0.813046
1265 4 0.205745 0.252348 0.823874
799 2 0.249696 0.275265 0.810423
800 4 0.253472 0.299056 0.817123
1299 4 0.48853 0.257929 0.77968
1297 2 0.476797 0.254233 0.757912