ITEM: TIMESTEP
2200000
ITEM: NUMBER OF ATOMS
4590
ITEM: BOX BOUNDS pp pp pp
-9.9985700000000008e+00 9.9985700000000008e+00
-9.9985700000000008e+00 9.9985700000000008e+00
-9.9985700000000008e+00 9.9985700000000008e+00
ITEM: ATOMS id type xs ys zs
3752 4 0.0603007 0.00374529 0.0377126
3751 2 0.0455953 0.0233554 0.032776
3753 4 0.0308898 0.0429656 0.0278393
702 4 0.0251119 0.0564508 0.0407157
700 2 0.00568111 0.0719134 0.037795
465 4 0.0785843 0.0125402 0.0375358
463 2 0.100522 0.0119767 0.0255534
996 4 0.153563 0.00815239 0.00685755
423 4 0.155301 0.0247863 0.0185896
464 4 0.122461 0.0114133 0.013571
422 4 0.1959 0.0520726 0.028979
567 4 0.211662 0.0491698 0.041997
565 2 0.21796 0.0503064 0.0661678
421 2 0.1756 0.0384295 0.0237843
490 2 0.295851 0.0309405 0.0565034
654 4 0.313396 0.0649121 0.0383319
491 4 0.311609 0.0500473 0.0530719
492 4 0.280092 0.0118337 0.0599348
652 2 0.338274 0.0669447 0.0397816
653 4 0.363153 0.0689772 0.0412312
486 4 0.381028 0.067559 0.0510186
484 2 0.384801 0.0431965 0.0551911
485 4 0.388574 0.0188339 0.0593637
1608 4 0.388252 0.00442195 0.0447983
745 2 0.42916 0.00792998 0.007486
295 2 0.446897 0.0108563 0.060259
296 4 0.464668 0.0164656 0.0769299
629 4 0.468063 0.0327454 0.0863235
628 2 0.479977 0.0545567 0.0835841
746 4 0.41665 0.00495581 0.0289292
380 4 0.0224858 0.120979 0.0666482
358 2 0.264996 0.157686 0.0151677
359 4 0.271767 0.155774 0.0391609
460 2 0.286331 0.158136 0.0659623
558 4 0.324739 0.155276 0.0630259
461 4 0.309419 0.156736 0.075459
556 2 0.34375 0.161284 0.0479376
557 4 0.362761 0.167292 0.0328492
771 4 0.426827 0.130279 0.033653
1013 4 0.441532 0.119794 0.0255356
769 2 0.425887 0.138634 0.0572005
770 4 0.424947 0.14699 0.080748
553 2 0.0420217 0.180492 0.992341
554 4 0.0649921 0.170632 0.992919
2808 4 0.0189226 0.19819 0.0104085
915 4 0.159721 0.192084 0.0239364
913 2 0.159966 0.213897 0.0117157
462 4 0.263244 0.159535 0.0564657
517 2 0.391919 0.195212 0.045816
518 4 0.371311 0.18444 0.0366263
519 4 0.412527 0.205984 0.0550057
1095 4 0.43027 0.203607 0.0648041
3347 4 0.495713 0.21371 0.0437971
1093 2 0.452797 0.205863 0.0541929
1094 4 0.475325 0.20812 0.0435817
475 2 0.109926 0.290767 0.0726491
476 4 0.132915 0.294117 0.0634037
477 4 0.0869374 0.287416 0.0818944
483 4 0.212252 0.2964 0.00901563
481 2 0.211249 0.308183 0.0310462
482 4 0.210247 0.319966 0.0530767
573 4 0.28196 0.272411 0.0327732
571 2 0.272459 0.277256 0.0553881
357 4 0.290137 0.28014 0.0158189
355 2 0.313417 0.284817 0.00798691
608 4 0.325821 0.338398 0.0572875
572 4 0.262958 0.282101 0.0780031
957 4 0.307143 0.333764 0.0505102
607 2 0.341421 0.320174 0.0643376
609 4 0.357021 0.30195 0.0713878
671 4 0.363036 0.292959 0.0884591
294 4 0.0579108 0.367831 0.0113382
620 4 0.0579769 0.365221 0.0309349
619 2 0.0382851 0.362311 0.0460658
621 4 0.0185933 0.359401 0.0611968
657 4 0.00368345 0.347204 0.0631413
292 2 0.0792807 0.355473 0.00736314
1170 4 0.159977 0.343494 0.997184
456 4 0.170026 0.353591 0.0102788
454 2 0.181605 0.35982 0.0315463
455 4 0.193184 0.366049 0.0528138
955 2 0.297794 0.333769 0.0273202
956 4 0.288445 0.333774 0.00413015
38 3 0.36946 0.389627 0.0187545
37 3 0.379196 0.354139 0.0111073
551 4 0.997078 0.423636 0.0446308
251 4 0.122402 0.45125 0.0132811
795 4 0.109128 0.46631 0.015525
250 2 0.146662 0.447403 0.00860629
1560 4 0.241561 0.500291 0.0777884
1289 4 0.189301 0.438622 0.00886845
64 3 0.330057 0.484465 0.0263546
61 1 0.328477 0.494789 0.0470746
63 3 0.336071 0.480455 0.0636666
62 3 0.306425 0.499893 0.0511768
563 4 0.481561 0.493982 0.0556777
566 4 0.224258 0.0514429 0.0903385
1475 4 0.240274 0.0325917 0.158163
675 4 0.247021 0.0362109 0.139246
673 2 0.232745 0.0488062 0.123037
674 4 0.218469 0.0614015 0.106828
688 2 0.187616 0.00206267 0.165189
630 4 0.491891 0.0763681 0.0808446
2745 4 0.47829 0.0348983 0.123064
311 4 0.423538 0.0941062 0.114483
2743 2 0.495004 0.0436845 0.139453
20 3 0.0737029 0.100878 0.146812
379 2 0.0324646 0.115829 0.0889883
381 4 0.0424434 0.110679 0.111328
17 3 0.0457124 0.11822 0.129243
16 1 0.0621337 0.120428 0.1452
19 3 0.0521879 0.125443 0.165555
18 3 0.0764302 0.137593 0.138927
578 4 0.0880595 0.130835 0.122716
577 2 0.112794 0.127181 0.122589
579 4 0.137529 0.123527 0.122462
237 4 0.155384 0.132687 0.124331
235 2 0.16793 0.14183 0.143932
236 4 0.180475 0.150974 0.163533
255 4 0.406716 0.144496 0.14703
253 2 0.393191 0.161069 0.134085
312 4 0.413579 0.0975202 0.163369
2469 4 0.434464 0.137947 0.0962475
2467 2 0.453366 0.143003 0.111815
310 2 0.418558 0.0958132 0.138926
2724 4 0.473279 0.14756 0.147464
2468 4 0.472268 0.148059 0.127382
764 4 0.430991 0.102612 0.16991
737 4 0.215053 0.232839 0.126751
738 4 0.206319 0.195724 0.159107
736 2 0.210686 0.214281 0.142929
279 4 0.201123 0.243776 0.118982
322 2 0.386945 0.212378 0.112084
323 4 0.381134 0.232829 0.0989245
254 4 0.379666 0.177643 0.12114
324 4 0.392757 0.191928 0.125244
624 4 0.356429 0.249238 0.144779
2650 2 0.447124 0.207542 0.121004
2651 4 0.441797 0.202538 0.144915
2652 4 0.45245 0.212545 0.097092
527 4 0.428247 0.209139 0.155794
2624 4 0.0227031 0.277123 0.100787
339 4 0.0833212 0.263533 0.138322
338 4 0.0737247 0.278355 0.0915363
337 2 0.0785229 0.270944 0.114929
2623 2 0.000991587 0.28853 0.105654
300 4 0.0633138 0.315534 0.166312
363 4 0.0975434 0.266705 0.153935
298 2 0.0876392 0.310844 0.162927
535 2 0.142927 0.294817 0.143597
537 4 0.130755 0.313687 0.154595
299 4 0.111965 0.306155 0.159542
536 4 0.155098 0.275946 0.1326
278 4 0.16266 0.275284 0.113636
277 2 0.181891 0.25953 0.116309
755 4 0.231712 0.275169 0.131587
754 2 0.244655 0.271108 0.110583
756 4 0.257599 0.267047 0.0895797
670 2 0.363343 0.268594 0.0940641
622 2 0.376896 0.263381 0.147277
740 4 0.394853 0.297457 0.146493
672 4 0.36365 0.244228 0.0996691
739 2 0.402334 0.319975 0.138608
623 4 0.397363 0.277525 0.149775
655 2 0.00329078 0.347559 0.0881393
656 4 0.0028981 0.347914 0.113137
385 2 0.382628 0.369861 0.117296
386 4 0.369787 0.391275 0.118618
387 4 0.395469 0.348448 0.115975
741 4 0.409814 0.342493 0.130723
495 4 0.487602 0.412536 0.131237
493 2 0.499245 0.411174 0.109151
494 4 0.510889 0.409813 0.087066
264 4 0.152602 0.425299 0.154364
602 4 0.137087 0.420491 0.167451
262 2 0.172255 0.438184 0.162904
263 4 0.191908 0.451068 0.171445
1584 4 0.416481 0.503516 0.114611
1573 2 0.408717 0.488265 0.149588
1575 4 0.42355 0.491997 0.129808
597 4 0.475806 0.425271 0.144227
232 2 0.0424938 0.0104796 0.211463
233 4 0.0348544 0.0319599 0.22173
689 4 0.199593 0.0233517 0.159851
1506 4 0.189716 0.03956 0.167412
1504 2 0.185272 0.0545563 0.186919
1505 4 0.180828 0.0695527 0.206427
1474 2 0.25241 0.0251622 0.178723
1476 4 0.264546 0.0177327 0.199283
331 2 0.414283 0.0827208 0.252355
332 4 0.437612 0.0742802 0.249239
2481 4 0.0437204 0.133449 0.18216
2479 2 0.0234754 0.147947 0.184422
2480 4 0.0032304 0.162445 0.186684
722 4 0.170214 0.152961 0.178095
721 2 0.175921 0.141746 0.199701
693 4 0.18659 0.120557 0.238688
723 4 0.181627 0.130531 0.221307
580 2 0.243348 0.162309 0.240967
333 4 0.390954 0.0911613 0.255471
521 4 0.435554 0.146439 0.199115
763 2 0.428454 0.117844 0.189575
765 4 0.425917 0.133077 0.20924
513 4 0.0853797 0.197443 0.252416
393 4 0.0816265 0.215719 0.244666
391 2 0.0815371 0.220592 0.220142
362 4 0.0784367 0.245387 0.194937
392 4 0.0814477 0.225465 0.195618
581 4 0.222359 0.175744 0.243008
284 4 0.204066 0.197486 0.179062
285 4 0.221304 0.179962 0.22261
283 2 0.212685 0.188724 0.200836
612 4 0.30791 0.215517 0.226495
308 4 0.30591 0.237522 0.224221
25 3 0.348129 0.188128 0.242832
759 4 0.355171 0.173117 0.23104
758 4 0.383903 0.187248 0.192628
757 2 0.369537 0.180183 0.211834
528 4 0.394534 0.204393 0.192422
526 2 0.411391 0.206766 0.174108
520 2 0.442723 0.170084 0.202944
522 4 0.449893 0.19373 0.206774
762 4 0.463756 0.192522 0.221046
760 2 0.48624 0.193873 0.231899
648 4 0.0560054 0.306485 0.18241
646 2 0.0348645 0.294495 0.176537
647 4 0.0137235 0.282506 0.170665
361 2 0.08799 0.256046 0.174436
389 4 0.102984 0.274249 0.215524
390 4 0.145254 0.297544 0.228613
388 2 0.124119 0.285896 0.222069
372 4 0.158982 0.312149 0.233495
344 4 0.245983 0.325676 0.184494
498 4 0.255988 0.309692 0.177068
307 2 0.301964 0.261709 0.219261
309 4 0.298018 0.285896 0.214301
497 4 0.289517 0.304121 0.213749
496 2 0.272753 0.306906 0.195408
729 4 0.32316 0.322775 0.245134
749 4 0.0745193 0.393649 0.249235
366 4 0.067151 0.382257 0.2345
364 2 0.0499831 0.366244 0.243104
365 4 0.0328152 0.350232 0.251709
748 2 0.0881146 0.401753 0.229878
750 4 0.10171 0.409858 0.210522
345 4 0.200363 0.343579 0.174543
343 2 0.223173 0.334627 0.179518
11 1 0.403502 0.407505 0.22116
12 3 0.408044 0.393968 0.203124
14 3 0.382519 0.402127 0.229479
15 3 0.419312 0.404172 0.237209
542 4 0.430657 0.38779 0.241625
541 2 0.453638 0.379403 0.236455
108 3 0.493368 0.366478 0.221152
543 4 0.476619 0.371017 0.231284
109 3 0.486376 0.347553 0.188944
595 2 0.472959 0.409004 0.163002
107 3 0.487658 0.385116 0.189017
106 1 0.496788 0.366106 0.198205
596 4 0.470112 0.392737 0.181776
2794 2 0.0124036 0.472199 0.192757
2796 4 0.0267496 0.492213 0.197093
2795 4 0.998058 0.452185 0.188421
603 4 0.106681 0.42915 0.206196
601 2 0.121884 0.424821 0.186824
734 4 0.168626 0.419418 0.225539
417 4 0.183797 0.431126 0.232251
291 4 0.236984 0.437736 0.189793
416 4 0.221599 0.443995 0.202149
415 2 0.202698 0.437561 0.2172
289 2 0.257719 0.435738 0.203622
290 4 0.278454 0.43374 0.217452
658 2 0.302647 0.485068 0.19574
768 4 0.290686 0.440564 0.230906
659 4 0.298461 0.461671 0.187977
766 2 0.289681 0.424389 0.249947
1862 4 0.25225 0.484288 0.243526
1861 2 0.274337 0.493184 0.251154
13 3 0.403829 0.429637 0.214199
1574 4 0.393884 0.484533 0.169368
645 4 0.387166 0.439666 0.215161
643 2 0.391991 0.460654 0.202456
644 4 0.396816 0.481641 0.18975
3696 4 0.47799 0.445924 0.251303
2755 2 0.0279273 0.996761 0.322456
2757 4 0.0063686 0.00322408 0.311565
731 4 0.06799 0.0499058 0.283432
730 2 0.0767519 0.0266729 0.280493
318 4 0.0854046 0.0573636 0.290483
316 2 0.0911953 0.0807393 0.283758
474 4 0.239252 0.0831759 0.319465
1699 2 0.197448 0.00988999 0.31509
1700 4 0.215997 0.0264279 0.317853
1830 4 0.236469 0.0266765 0.323301
1828 2 0.26124 0.0294524 0.321337
1829 4 0.286011 0.0322283 0.319374
1496 4 0.294723 0.0443616 0.33255
453 4 0.491051 0.0576941 0.314568
351 4 0.450315 0.0627803 0.25918
349 2 0.466351 0.0590331 0.277996
350 4 0.482386 0.0552859 0.296811
399 4 0.108544 0.1174 0.284621
317 4 0.0969861 0.104115 0.277033
397 2 0.103814 0.135349 0.301373
398 4 0.0990833 0.153299 0.318125
691 2 0.20332 0.114811 0.256359
472 2 0.222458 0.0913939 0.302864
692 4 0.22005 0.109065 0.27403
473 4 0.205664 0.0996118 0.286262
29 3 0.241572 0.117085 0.275673
582 4 0.264336 0.148873 0.238927
27 3 0.264708 0.133761 0.251192
30 3 0.27526 0.102136 0.267968
28 3 0.273329 0.1341 0.287774
26 1 0.263781 0.121614 0.270705
377 4 0.290566 0.13285 0.299226
376 2 0.286556 0.153601 0.312586
683 4 0.309089 0.128125 0.294456
682 2 0.328776 0.114191 0.301047
23 3 0.355574 0.15425 0.257478
684 4 0.348463 0.100257 0.307639
724 2 0.377023 0.091356 0.322943
743 4 0.389084 0.105179 0.268669
742 2 0.379457 0.128237 0.269582
725 4 0.35234 0.0874125 0.322348
744 4 0.369831 0.151295 0.270496
726 4 0.401707 0.0952996 0.323539
451 2 0.499068 0.0809989 0.318786
425 4 0.42232 0.0977093 0.322447
529 2 0.0576769 0.182902 0.330939
531 4 0.0648911 0.183977 0.307023
512 4 0.0565714 0.180691 0.289701
511 2 0.0709756 0.189067 0.271058
24 3 0.326559 0.174917 0.270722
610 2 0.299291 0.211585 0.249635
707 4 0.279021 0.223426 0.276163
611 4 0.290673 0.207653 0.272774
706 2 0.269445 0.240712 0.291483
632 4 0.372357 0.168404 0.280496
21 1 0.348019 0.175731 0.261936
631 2 0.389347 0.175874 0.297251
22 3 0.36201 0.18548 0.277375
633 4 0.406337 0.183343 0.314006
419 4 0.42536 0.188174 0.312612
418 2 0.445227 0.202664 0.317141
268 2 0.493289 0.230642 0.292984
269 4 0.473193 0.219174 0.302459
420 4 0.465095 0.217154 0.321671
444 4 0.057895 0.332104 0.335863
370 2 0.170491 0.314056 0.25561
371 4 0.182001 0.315963 0.277726
400 2 0.19604 0.331638 0.308958
402 4 0.179988 0.332856 0.289827
401 4 0.212093 0.330419 0.328089
708 4 0.259869 0.257998 0.306802
405 4 0.25083 0.264357 0.323782
561 4 0.373005 0.336861 0.322224
618 4 0.0739723 0.345222 0.332284
2717 4 0.014907 0.351834 0.259131
616 2 0.0901743 0.354461 0.315632
617 4 0.106376 0.3637 0.298979
678 4 0.112965 0.356959 0.282369
677 4 0.132582 0.401775 0.272004
676 2 0.122773 0.379367 0.277187
727 2 0.316414 0.334687 0.266057
303 4 0.289363 0.40788 0.289784
301 2 0.301701 0.386277 0.292287
302 4 0.314038 0.364674 0.294791
728 4 0.309668 0.346599 0.28698
559 2 0.39598 0.334193 0.312726
560 4 0.418955 0.331525 0.303228
447 4 0.436592 0.41548 0.287872
2537 4 0.423482 0.349375 0.297779
2536 2 0.431975 0.372426 0.293118
2538 4 0.440467 0.395476 0.288457
2619 4 0.020516 0.505139 0.292464
1789 2 0.0515768 0.500988 0.304638
1758 4 0.0789942 0.482614 0.319619
1790 4 0.0727326 0.487863 0.302327
1756 2 0.0833587 0.459289 0.327499
1319 4 0.122757 0.496525 0.277937
1775 4 0.141889 0.499652 0.280391
735 4 0.130406 0.41567 0.257568
733 2 0.149516 0.417544 0.241554
776 4 0.107558 0.43976 0.339072
1429 2 0.218417 0.501482 0.26292
1431 4 0.23455 0.484554 0.254068
1776 4 0.191784 0.502905 0.279647
1774 2 0.166837 0.501278 0.280019
767 4 0.288676 0.408214 0.268987
1863 4 0.296424 0.50208 0.258782
231 4 0.312312 0.507174 0.269685
229 2 0.319879 0.491002 0.28719
230 4 0.327445 0.47483 0.304694
1802 4 0.341469 0.471839 0.317302
446 4 0.408051 0.433912 0.324565
445 2 0.422321 0.424696 0.306219
3694 2 0.495979 0.456099 0.265376
429 4 0.175154 0.0296394 0.38899
427 2 0.174735 0.00613892 0.380462
1151 4 0.207089 0.052048 0.396345
606 4 0.248458 0.0647513 0.419977
440 4 0.27928 0.0201239 0.376863
1495 2 0.305734 0.048172 0.354672
1818 4 0.288215 0.0357225 0.384871
1816 2 0.273966 0.0422806 0.404342
1497 4 0.316746 0.0519823 0.376794
1517 4 0.332559 0.049538 0.390143
1516 2 0.348838 0.0368372 0.404245
546 4 0.159177 0.173803 0.385342
319 2 0.233476 0.143975 0.421064
604 2 0.248567 0.0896957 0.418262
320 4 0.230004 0.119221 0.421695
605 4 0.248677 0.11464 0.416546
424 2 0.44267 0.0924991 0.336009
258 4 0.470223 0.102424 0.360241
426 4 0.463019 0.0872889 0.349571
256 2 0.48423 0.107827 0.380236
257 4 0.498236 0.11323 0.400231
2655 4 0.0355502 0.178882 0.368155
530 4 0.0504626 0.181827 0.354855
2654 4 0.000679977 0.173861 0.403645
2653 2 0.0181151 0.176371 0.3859
2846 4 0.00361113 0.19182 0.413106
249 4 0.0752269 0.221185 0.370229
1035 4 0.074776 0.239275 0.378989
544 2 0.135883 0.1744 0.39441
545 4 0.112589 0.174997 0.403478
247 2 0.0873191 0.201414 0.379613
248 4 0.0994113 0.181643 0.388998
600 4 0.17596 0.16718 0.395205
598 2 0.189876 0.187826 0.397492
686 4 0.197468 0.226901 0.396705
599 4 0.203792 0.208473 0.39978
685 2 0.209847 0.247475 0.389732
321 4 0.236948 0.168728 0.420433
378 4 0.282545 0.174352 0.325947
614 4 0.2929 0.189683 0.33279
613 2 0.304146 0.207095 0.346772
615 4 0.315393 0.224508 0.360755
716 4 0.328821 0.239633 0.356959
715 2 0.342275 0.237277 0.377902
717 4 0.35573 0.234921 0.398845
584 4 0.368507 0.248291 0.390001
583 2 0.391858 0.250415 0.398686
442 2 0.064638 0.314666 0.352465
443 4 0.0713809 0.297227 0.369066
1034 4 0.0814437 0.288587 0.38395
711 4 0.070353 0.303557 0.412699
1033 2 0.0781098 0.263931 0.381469
709 2 0.0921572 0.312429 0.40427
710 4 0.113961 0.3213 0.39584
407 4 0.126344 0.336498 0.398092
510 4 0.212602 0.320173 0.345818
403 2 0.241343 0.27116 0.345893
508 2 0.228262 0.326366 0.364301
687 4 0.222227 0.268049 0.382759
404 4 0.231856 0.277963 0.368004
585 4 0.415208 0.252539 0.407371
336 4 0.374118 0.332015 0.342256
240 4 0.428402 0.265915 0.413309
777 4 0.146221 0.408488 0.344357
408 4 0.1607 0.365547 0.376263
406 2 0.143522 0.351023 0.387178
412 2 0.163235 0.409516 0.384527
413 4 0.148257 0.408887 0.364516
569 4 0.166177 0.399001 0.417833
414 4 0.178212 0.410145 0.404539
509 4 0.243921 0.332558 0.382783
503 4 0.239984 0.349479 0.391849
502 2 0.243198 0.374231 0.39332
504 4 0.246412 0.398984 0.394791
334 2 0.367194 0.34174 0.364226
335 4 0.360271 0.351465 0.386196
587 4 0.342536 0.35956 0.391021
586 2 0.352954 0.366334 0.412717
751 2 0.4144 0.408416 0.40706
752 4 0.421799 0.38736 0.418333
927 4 0.424194 0.375504 0.40184
925 2 0.424209 0.353561 0.413827
499 2 0.0483871 0.492769 0.401359
501 4 0.0250676 0.483818 0.400237
548 4 0.0127568 0.468645 0.395202
775 2 0.12689 0.424124 0.341714
1757 4 0.0877232 0.435965 0.335379
635 4 0.236301 0.413912 0.405065
1436 4 0.20324 0.49006 0.362026
438 4 0.217354 0.490431 0.347029
1435 2 0.205919 0.494755 0.386438
634 2 0.245155 0.437184 0.407348
1 1 0.2942 0.471275 0.412999
4 3 0.273207 0.461404 0.412492
1400 4 0.299936 0.501867 0.408558
434 4 0.298224 0.494405 0.388929
5 3 0.301612 0.474871 0.391768
636 4 0.254008 0.460456 0.409631
594 4 0.323894 0.447505 0.41139
3 3 0.309105 0.457611 0.424381
592 2 0.339486 0.443243 0.392314
1801 2 0.349667 0.456948 0.335639
593 4 0.355078 0.438981 0.373238
1803 4 0.357865 0.442057 0.353975
120 3 0.419979 0.427 0.339133
753 4 0.407001 0.429472 0.395787
2740 2 0.481996 0.432361 0.354068
117 3 0.430755 0.455664 0.360467
116 1 0.428213 0.43282 0.359553
119 3 0.413457 0.426242 0.376208
3988 2 0.45215 0.475822 0.33529
118 3 0.44889 0.422832 0.362892
3989 4 0.447117 0.456285 0.35006
2741 4 0.458101 0.439645 0.355131
368 4 0.11435 0.0730706 0.427216
719 4 0.119956 0.0535899 0.42512
720 4 0.124419 0.0157178 0.45747
718 2 0.122187 0.0346538 0.441295
342 4 0.124476 0.0181313 0.477742
340 2 0.133821 0.0191649 0.50091
1645 2 0.189167 0.013897 0.475576
1646 4 0.19468 0.0304673 0.457682
1152 4 0.200123 0.0267218 0.438899
1150 2 0.203606 0.0393849 0.417622
1817 4 0.259716 0.0488386 0.423813
699 4 0.381164 0.0138846 0.415501
1518 4 0.365117 0.0241364 0.418347
3487 2 0.500989 0.0645615 0.487682
3488 4 0.502237 0.0421783 0.498755
470 4 0.00650753 0.159614 0.500323
367 2 0.134041 0.0884786 0.427415
369 4 0.153732 0.103887 0.427613
276 4 0.168605 0.111592 0.437363
274 2 0.164888 0.125276 0.457957
857 4 0.160987 0.157191 0.484839
275 4 0.161171 0.13896 0.478552
640 2 0.498465 0.0908271 0.435983
642 4 0.491907 0.0811561 0.458088
469 2 0.0224759 0.171599 0.485271
471 4 0.0384442 0.183584 0.470219
261 4 0.0547804 0.182844 0.458574
259 2 0.073849 0.198708 0.461718
260 4 0.0929176 0.214573 0.464863
348 4 0.0956607 0.233709 0.464428
346 2 0.114609 0.249222 0.469472
411 4 0.253699 0.178557 0.425357
409 2 0.257311 0.201161 0.435415
410 4 0.260923 0.223766 0.445474
489 4 0.280076 0.227491 0.443871
487 2 0.298115 0.243928 0.449314
347 4 0.133558 0.264736 0.474517
326 4 0.133157 0.320374 0.493108
325 2 0.134291 0.295398 0.493395
375 4 0.147076 0.33244 0.486267
327 4 0.135425 0.270422 0.493683
373 2 0.171839 0.335824 0.487004
792 4 0.215013 0.345321 0.495193
488 4 0.316153 0.260364 0.454757
651 4 0.306334 0.275457 0.462975
649 2 0.299021 0.290866 0.481258
650 4 0.291708 0.306276 0.499541
238 2 0.423358 0.289762 0.418879
239 4 0.418313 0.31361 0.424449
926 4 0.424224 0.331618 0.425814
4434 4 0.00317009 0.391142 0.464144
4432 2 0.0139447 0.393246 0.486609
7 3 0.135837 0.350216 0.486596
679 2 0.0997151 0.405639 0.445775
568 2 0.152203 0.395572 0.438282
570 4 0.138229 0.392143 0.45873
680 4 0.119782 0.390934 0.448273
9 3 0.100778 0.349599 0.473064
6 1 0.113979 0.345091 0.491607
374 4 0.196601 0.339209 0.48774
588 4 0.363372 0.373109 0.434414
773 4 0.365793 0.355237 0.443541
772 2 0.364489 0.362486 0.467435
774 4 0.363184 0.369735 0.49133
929 4 0.350041 0.381213 0.501671
681 4 0.0796478 0.420344 0.443277
383 4 0.0450395 0.480099 0.460496
382 2 0.0279768 0.496958 0.453438
539 4 0.0610237 0.428669 0.437574
540 4 0.0349756 0.462813 0.463194
538 2 0.0479997 0.445741 0.450384
2 3 0.292682 0.491417 0.424008
669 4 0.315059 0.455239 0.47987
667 2 0.320791 0.449321 0.456263
668 4 0.326523 0.443404 0.432655
882 4 0.306747 0.452077 0.498204
1741 2 0.445611 0.47867 0.466377
661 2 0.483662 0.432684 0.451766
1743 4 0.451165 0.454513 0.469661
662 4 0.460795 0.439635 0.459113
1077 4 0.0343515 0.0625484 0.55888
2238 4 0.00563702 0.0161848 0.548174
4507 2 0.0297478 0.0224416 0.571954
4508 4 0.0246418 0.0459571 0.565163
1075 2 0.0171865 0.0796421 0.565072
2236 2 0.999521 0.00199714 0.528515
2428 2 0.138916 0.0447393 0.558364
2430 4 0.134825 0.034073 0.536123
341 4 0.143167 0.0201984 0.524079
2429 4 0.143007 0.0554056 0.580606
1181 4 0.258686 0.0495986 0.558704
962 4 0.268433 0.0422615 0.542826
961 2 0.266847 0.0200689 0.531418
1180 2 0.275569 0.0675528 0.554488
963 4 0.26526 0.997876 0.52001
4466 4 0.414517 0.0536299 0.522739
4465 2 0.421396 0.0415022 0.543494
4467 4 0.428274 0.0293744 0.56425
575 4 0.426318 0.0652477 0.511294
90 3 0.447157 0.0218082 0.568028
3007 2 0.487095 0.0173933 0.524935
3008 4 0.486866 0.034997 0.50718
1182 4 0.292453 0.085507 0.550273
1030 2 0.303141 0.112042 0.529962
1032 4 0.296033 0.105019 0.552883
1031 4 0.310249 0.119064 0.507042
467 4 0.330416 0.118778 0.508487
574 2 0.417826 0.0867139 0.501689
576 4 0.409334 0.10818 0.492083
466 2 0.350247 0.109696 0.496264
468 4 0.370079 0.100614 0.48404
306 4 0.413761 0.122798 0.506672
304 2 0.431775 0.139513 0.511282
305 4 0.44979 0.156228 0.515892
877 2 0.00203413 0.249226 0.528315
879 4 0.0151661 0.25584 0.548538
1270 2 0.0433166 0.235087 0.57146
856 2 0.169442 0.170309 0.504374
858 4 0.177897 0.183427 0.523909
1220 4 0.199239 0.184265 0.526992
1221 4 0.234904 0.218772 0.520831
1219 2 0.217072 0.201518 0.523912
1212 4 0.234274 0.236856 0.530474
1210 2 0.258522 0.23651 0.536561
1211 4 0.282771 0.236165 0.542648
515 4 0.438421 0.172069 0.519478
514 2 0.454218 0.182742 0.535655
516 4 0.470015 0.193416 0.551832
1026 4 0.47009 0.187117 0.570727
905 4 0.482639 0.245622 0.552154
1272 4 0.0276224 0.240372 0.552727
10 3 0.1125 0.323019 0.497018
1191 4 0.219688 0.343503 0.548911
1189 2 0.212951 0.340469 0.572798
811 2 0.320055 0.319499 0.525986
813 4 0.298925 0.319591 0.512619
812 4 0.341186 0.319407 0.539353
872 4 0.404573 0.279418 0.517111
906 4 0.457863 0.267393 0.514566
904 2 0.470251 0.256508 0.53336
1010 4 0.486253 0.262143 0.564085
873 4 0.448189 0.265282 0.497146
871 2 0.426381 0.27235 0.507128
1009 2 0.484038 0.273911 0.586035
934 2 0.0264725 0.404353 0.545613
936 4 0.0283024 0.387152 0.527559
4433 4 0.0247194 0.395349 0.509073
8 3 0.107145 0.358118 0.509551
790 2 0.219482 0.335505 0.517752
791 4 0.22395 0.32569 0.54031
930 4 0.352108 0.362259 0.5479
928 2 0.351074 0.371736 0.524785
1238 4 0.352938 0.362681 0.567761
1237 2 0.367872 0.350265 0.583509
1040 4 0.999783 0.497292 0.570174
935 4 0.0246426 0.421555 0.563666
1938 4 0.016342 0.434403 0.55092
1936 2 0.00925042 0.457988 0.555236
1937 4 0.00215882 0.481573 0.559552
896 4 0.0958003 0.489426 0.582469
1161 4 0.252977 0.466243 0.56246
1172 4 0.268877 0.454102 0.566485
881 4 0.320396 0.477512 0.539038
880 2 0.313571 0.464794 0.518621
1159 2 0.257633 0.490039 0.568561
1910 4 0.340009 0.479385 0.536444
890 4 0.366212 0.438774 0.589415
1083 4 0.0340547 0.00045095 0.661702
1081 2 0.0119542 0.0120129 0.659951
943 2 0.0691202 0.0010019 0.671562
2317 2 0.0948341 0.0533067 0.633455
2319 4 0.105015 0.0310465 0.638556
1893 4 0.109458 0.0121129 0.635762
2318 4 0.0846537 0.075567 0.628354
1891 2 0.105083 0.994343 0.618724
938 4 0.0989842 0.0873557 0.617576
1284 4 0.238185 0.0759998 0.648075
908 4 0.22277 0.0759942 0.634523
1282 2 0.258506 0.0696213 0.661173
1092 4 0.33657 0.0185147 0.628607
2117 4 0.340905 0.0149691 0.609736
1090 2 0.338261 0.0113052 0.652489
4225 2 0.477182 0.069612 0.650333
44 3 0.426733 0.0256162 0.658584
2283 4 0.442932 0.0148091 0.650785
2281 2 0.450143 0.00187751 0.630637
4226 4 0.501129 0.0767772 0.649701
939 4 0.109402 0.134433 0.63084
937 2 0.104193 0.110894 0.624208
907 2 0.217059 0.0999858 0.630403
909 4 0.211349 0.123977 0.626283
1227 4 0.216783 0.123706 0.60547
1225 2 0.220751 0.147822 0.600192
1003 2 0.31299 0.092163 0.670313
1005 4 0.328743 0.111536 0.669012
900 4 0.428773 0.15713 0.633327
898 2 0.433696 0.163572 0.656979
1271 4 0.0590109 0.229803 0.590194
1154 4 0.0748273 0.239291 0.597041
1153 2 0.0781685 0.220199 0.612837
1155 4 0.0815097 0.201107 0.628633
1226 4 0.224719 0.171938 0.594914
1277 4 0.224088 0.227516 0.629827
1276 2 0.222984 0.204013 0.621366
1278 4 0.22188 0.180511 0.612905
798 4 0.215158 0.239416 0.617594
796 2 0.192517 0.24966 0.62036
267 4 0.312028 0.190181 0.618678
265 2 0.330449 0.177165 0.607886
1242 4 0.258339 0.212978 0.668173
887 4 0.411024 0.162133 0.625763
886 2 0.38739 0.164639 0.617993
266 4 0.348869 0.164149 0.597094
888 4 0.363757 0.167145 0.610224
1165 2 0.339351 0.254848 0.665264
1024 2 0.487218 0.179366 0.587211
696 4 0.11762 0.297252 0.627099
694 2 0.140462 0.287448 0.629799
695 4 0.163305 0.277644 0.6325
1259 4 0.117783 0.317324 0.624729
797 4 0.169877 0.259903 0.623125
1190 4 0.206213 0.337436 0.596685
804 4 0.201884 0.332211 0.615728
1028 4 0.385127 0.306264 0.650035
1027 2 0.378253 0.314196 0.627342
807 4 0.37489 0.321593 0.659897
1029 4 0.371379 0.322128 0.604648
1166 4 0.363984 0.256033 0.661141
1011 4 0.481822 0.285678 0.607985
1258 2 0.116506 0.338325 0.63824
1260 4 0.115229 0.359325 0.65175
1208 4 0.103991 0.370486 0.662993
1136 4 0.186692 0.391548 0.620252
803 4 0.178088 0.374375 0.628243
802 2 0.189986 0.353293 0.621985
1135 2 0.202314 0.407667 0.631265
1067 4 0.23474 0.412539 0.646859
1239 4 0.382807 0.33785 0.599257
3024 4 0.45609 0.35825 0.660325
3238 2 0.0267328 0.489146 0.66051
3239 4 0.0421847 0.471723 0.651407
895 2 0.118714 0.495374 0.590517
1137 4 0.217937 0.423787 0.642278
1066 2 0.252311 0.418784 0.663515
1171 2 0.285463 0.445404 0.583051
891 4 0.318074 0.446272 0.600694
1173 4 0.302049 0.436705 0.599617
1139 4 0.314586 0.461983 0.663921
1000 2 0.408542 0.440033 0.590531
889 2 0.342143 0.442523 0.595054
1002 4 0.384389 0.433891 0.592548
1001 4 0.432695 0.446176 0.588514
3183 4 0.483142 0.448581 0.680279
1269 4 0.495576 0.43697 0.669426
1953 4 0.415737 0.49607 0.652172
863 4 0.0764924 0.0132312 0.704912
945 4 0.0867204 0.00946272 0.687177
862 2 0.0824943 0.0365018 0.711813
864 4 0.0884963 0.0597724 0.718715
2286 4 0.0932344 0.0775164 0.711512
1004 4 0.297236 0.07279 0.671614
1283 4 0.278826 0.0632428 0.674271
1091 4 0.339953 0.00409566 0.67637
2321 4 0.42888 0.0582264 0.701709
2320 2 0.417647 0.0665199 0.722451
2322 4 0.406415 0.0748134 0.743193
4227 4 0.453236 0.0624469 0.650964
43 3 0.44503 0.0572503 0.669019
1163 4 0.472276 0.0216193 0.686849
45 3 0.420051 0.0412257 0.692189
42 3 0.452752 0.0244573 0.685682
41 1 0.435989 0.0372059 0.676427
1162 2 0.495885 0.0176247 0.679649
2284 2 0.0954986 0.0942862 0.693104
2285 4 0.0977627 0.111056 0.674697
33 3 0.137662 0.165698 0.738118
34 3 0.103437 0.149344 0.735754
1257 4 0.316805 0.109135 0.740246
831 4 0.344038 0.124481 0.670162
829 2 0.339717 0.138923 0.690111
830 4 0.335395 0.153365 0.710059
978 4 0.347505 0.166194 0.718376
976 2 0.369155 0.17409 0.728078
1194 4 0.450105 0.165859 0.695525
899 4 0.438618 0.170014 0.680632
1192 2 0.436057 0.164847 0.716184
3385 2 0.989696 0.215416 0.743803
1107 4 0.142292 0.233358 0.743755
1105 2 0.130535 0.21353 0.753438
1241 4 0.212946 0.21495 0.689059
1240 2 0.235642 0.213964 0.678616
917 4 0.267787 0.225392 0.680671
916 2 0.292055 0.229908 0.676687
918 4 0.316323 0.234423 0.672704
1167 4 0.314718 0.253662 0.669387
977 4 0.390804 0.181987 0.737779
1193 4 0.422009 0.163834 0.736844
1298 4 0.461515 0.253084 0.738834
1146 4 0.419732 0.18251 0.744119
1008 4 0.331328 0.333467 0.708667
806 4 0.34087 0.340629 0.691217
805 2 0.35788 0.331111 0.675557
953 4 0.464248 0.255217 0.718655
3122 4 0.449132 0.30988 0.709936
952 2 0.46458 0.280167 0.720261
3121 2 0.455291 0.327881 0.693713
954 4 0.464911 0.305117 0.721867
1209 4 0.063801 0.36235 0.691616
993 4 0.0719254 0.355898 0.710032
991 2 0.058156 0.363778 0.729358
1243 2 0.0174878 0.415216 0.708728
1245 4 0.0358784 0.406049 0.694482
992 4 0.0443865 0.371657 0.748685
1207 2 0.0838959 0.366418 0.677305
948 4 0.183325 0.371445 0.725676
1006 2 0.310989 0.346174 0.715742
1007 4 0.290651 0.358881 0.722817
998 4 0.500043 0.396479 0.68625
1205 4 0.435257 0.377764 0.733003
1204 2 0.426459 0.385452 0.710897
3123 4 0.46145 0.345883 0.67749
1206 4 0.417662 0.393141 0.688791
3022 2 0.476581 0.371772 0.665063
3023 4 0.497072 0.385295 0.6698
1019 4 0.428304 0.380064 0.75176
2172 4 0.0543606 0.457409 0.655482
2170 2 0.0501057 0.440228 0.673142
2171 4 0.0458509 0.423046 0.690802
1138 2 0.301243 0.480841 0.673488
1175 4 0.292355 0.41866 0.73046
1068 4 0.269882 0.425029 0.680172
1176 4 0.289494 0.427226 0.681275
1174 2 0.290925 0.422943 0.705868
1229 4 0.325712 0.447233 0.667439
1140 4 0.2879 0.499698 0.683055
1228 2 0.348301 0.438843 0.674113
1952 4 0.387275 0.50469 0.692375
1951 2 0.401506 0.50038 0.672274
1230 4 0.370889 0.430454 0.680786
1101 4 0.383943 0.442781 0.670494
1099 2 0.402166 0.428216 0.679493
3181 2 0.489544 0.468932 0.693319
1100 4 0.420389 0.413652 0.688492
912 4 0.041158 0.028848 0.788417
910 2 0.0584463 0.0451871 0.79612
3245 4 0.0305949 0.0641495 0.820074
1295 4 0.0252862 0.0264286 0.80025
1294 2 0.0155202 0.00540215 0.809614
833 4 0.0247557 0.08155 0.812206
911 4 0.0757347 0.0615261 0.803822
1202 4 0.0955703 0.062156 0.798218
1201 2 0.117821 0.07274 0.802469
2047 2 0.182523 0.0813445 0.792836
2048 4 0.189478 0.0676075 0.812537
974 4 0.364417 0.0205978 0.809938
1143 4 0.352387 0.02067 0.793513
1141 2 0.366828 0.0218034 0.773133
1142 4 0.381269 0.0229369 0.752753
981 4 0.39444 0.0706991 0.806544
979 2 0.404618 0.0714378 0.783718
973 2 0.354711 0.0164679 0.832608
3401 4 0.484713 0.0434801 0.750086
3402 4 0.441943 0.0278346 0.770741
2442 4 0.438648 0.0092099 0.776648
3400 2 0.463328 0.0356573 0.760414
980 4 0.414797 0.0721764 0.760892
2990 4 0.0124792 0.144176 0.783947
834 4 0.0185958 0.127611 0.793737
832 2 0.0216757 0.104581 0.802972
31 1 0.121978 0.152747 0.749284
1203 4 0.140071 0.083324 0.80672
32 3 0.131375 0.132356 0.754288
1287 4 0.149151 0.101204 0.809696
1285 2 0.138656 0.121698 0.819446
921 4 0.0862598 0.166778 0.82757
2049 4 0.175568 0.0950815 0.773136