ITEM: TIMESTEP
3510000
ITEM: NUMBER OF ATOMS
4590
ITEM: BOX BOUNDS pp pp pp
-9.9985700000000008e+00 9.9985700000000008e+00
-9.9985700000000008e+00 9.9985700000000008e+00
-9.9985700000000008e+00 9.9985700000000008e+00
ITEM: ATOMS id type xs ys zs
702 4 0.0243088 0.0332954 0.0458304
3753 4 0.0566905 0.00956821 0.0446896
3751 2 0.0760704 0.0151098 0.0298948
3752 4 0.0954504 0.0206513 0.0151
422 4 0.186995 0.06423 0.014379
1633 2 0.173402 0.0480684 0.0449726
1635 4 0.166793 0.027393 0.0573836
1634 4 0.18001 0.0687438 0.0325617
1605 4 0.17535 0.011744 0.063631
567 4 0.322327 0.0413538 0.0504369
565 2 0.303673 0.0280885 0.0604986
566 4 0.285019 0.0148233 0.0705604
653 4 0.328116 0.0580392 0.0422214
652 2 0.322345 0.0788832 0.0296755
674 4 0.268718 0.00454067 0.0744149
985 2 0.388001 0.0145678 0.00905216
987 4 0.366516 0.026894 0.00564254
2265 4 0.351905 0.0402065 0.0026398
986 4 0.409487 0.0022416 0.0124618
747 4 0.422573 0.00995508 0.026684
2976 4 0.449794 0.0862071 0.0415283
2974 2 0.474113 0.0813299 0.0446807
555 4 0.0433372 0.165119 0.00838788
2624 4 0.0254733 0.176593 0.0552742
837 4 0.137742 0.13916 0.00718628
1134 4 0.141161 0.130878 0.0258525
835 2 0.115178 0.144783 0.997997
1132 2 0.165472 0.136722 0.0257276
1133 4 0.189782 0.142566 0.0256028
933 4 0.202729 0.132961 0.0140415
654 4 0.316574 0.0997272 0.0171297
491 4 0.318129 0.1141 0.00389973
486 4 0.388736 0.0767059 0.0730578
629 4 0.393207 0.0961566 0.067381
630 4 0.434004 0.0970419 0.0384757
628 2 0.413605 0.0965992 0.0529283
2469 4 0.45466 0.141973 0.0609224
769 2 0.465762 0.14403 0.0277604
771 4 0.467162 0.157026 0.00644573
770 4 0.464363 0.131033 0.0490751
2467 2 0.4368 0.151839 0.0753746
2623 2 0.00394067 0.187217 0.06225
2807 4 0.00726388 0.205122 0.975413
354 4 0.249471 0.188991 0.016947
352 2 0.224528 0.187295 0.0165802
353 4 0.199584 0.1856 0.0162134
915 4 0.198256 0.202134 0.00560884
913 2 0.189601 0.223638 0.996236
360 4 0.256958 0.202402 0.0288935
359 4 0.305382 0.193971 0.0381007
358 2 0.28117 0.198187 0.0334971
462 4 0.312498 0.175059 0.0386492
460 2 0.335625 0.18395 0.0420108
461 4 0.358751 0.19284 0.0453724
558 4 0.363025 0.200907 0.0275821
556 2 0.387213 0.207062 0.0290712
557 4 0.411401 0.213217 0.0305603
518 4 0.425172 0.22079 0.016451
517 2 0.448436 0.229598 0.0139239
519 4 0.4717 0.238405 0.0113969
1095 4 0.486402 0.251733 0.0136927
294 4 0.0141542 0.321496 0.0272109
620 4 0.00942016 0.31501 0.0462424
476 4 0.0820681 0.311298 0.0420789
475 2 0.0889034 0.307431 0.0658172
1169 4 0.0955633 0.31123 0.0282069
1168 2 0.11149 0.321441 0.0118588
482 4 0.180826 0.334698 0.0716743
483 4 0.190633 0.308176 0.0304301
481 2 0.185729 0.321437 0.0510522
287 4 0.191125 0.287743 0.0300236
286 2 0.183152 0.276002 0.00943788
357 4 0.274589 0.296304 0.051351
355 2 0.288046 0.3119 0.0371785
356 4 0.301503 0.327496 0.023006
573 4 0.282797 0.283886 0.0669466
323 4 0.374434 0.273191 0.0788161
609 4 0.374595 0.330909 0.0812648
292 2 0.0296693 0.337621 0.0160563
293 4 0.0451843 0.353747 0.00490175
552 4 0.996893 0.409738 0.999271
1304 4 0.319604 0.337243 0.0200501
955 2 0.328727 0.375376 0.0371954
956 4 0.322428 0.388749 0.0170294
903 4 0.306077 0.397903 0.00859766
1303 2 0.327165 0.330867 0.997086
957 4 0.335025 0.362002 0.0573615
608 4 0.348305 0.371757 0.0693894
607 2 0.36145 0.351333 0.0753271
493 2 0.485942 0.400615 0.0674707
550 2 0.991172 0.429761 0.0131105
251 4 0.156835 0.474513 0.0607517
795 4 0.15758 0.493764 0.0607439
250 2 0.169815 0.457056 0.0484247
252 4 0.182796 0.4396 0.0360976
1289 4 0.190259 0.427854 0.0208288
64 3 0.309208 0.493408 0.0751028
1673 4 0.386355 0.449229 0.0319034
1672 2 0.392021 0.468109 0.0472858
524 4 0.384236 0.4466 0.0116834
1674 4 0.397687 0.486989 0.0626682
1583 4 0.396895 0.486419 0.0822384
17 3 0.0535401 0.0234602 0.114485
16 1 0.0529038 0.0376819 0.132554
18 3 0.0686028 0.0544811 0.129434
19 3 0.0316598 0.0468832 0.134114
2481 4 0.0178013 0.0582626 0.144067
2479 2 0.00449426 0.0789414 0.148593
20 3 0.0577099 0.0259743 0.151488
381 4 0.0406656 0.0263309 0.0992827
464 4 0.0914502 0.036518 0.146125
463 2 0.108312 0.0267022 0.130488
578 4 0.0839029 0.0546396 0.141558
577 2 0.0943817 0.0763847 0.14808
465 4 0.125173 0.0168863 0.114851
690 4 0.220539 0.00285623 0.172292
1475 4 0.269725 0.0377805 0.152024
484 2 0.378504 0.0568931 0.0843685
485 4 0.368272 0.0370803 0.0956792
1608 4 0.385002 0.0263615 0.0956355
1606 2 0.400836 0.00706125 0.0942318
579 4 0.10486 0.0981297 0.154601
237 4 0.119507 0.112751 0.156161
235 2 0.142051 0.113014 0.166971
310 2 0.401144 0.105654 0.140327
311 4 0.40109 0.114611 0.116983
277 2 0.139768 0.232613 0.12428
278 4 0.131036 0.242121 0.102867
279 4 0.148501 0.223106 0.145693
737 4 0.162445 0.221791 0.160327
324 4 0.385938 0.224748 0.0741671
253 2 0.396846 0.195811 0.096753
254 4 0.382016 0.215419 0.0921945
255 4 0.411676 0.176204 0.101312
322 2 0.380186 0.248969 0.0764916
2468 4 0.41894 0.161704 0.0898269
527 4 0.484701 0.21733 0.107075
526 2 0.463709 0.222223 0.119746
528 4 0.442717 0.227116 0.132418
758 4 0.43297 0.242409 0.141077
298 2 0.0447105 0.31253 0.154385
299 4 0.0666988 0.313791 0.142548
537 4 0.0750433 0.328094 0.132765
477 4 0.0957387 0.303564 0.0895554
363 4 0.095181 0.283388 0.164533
339 4 0.0960915 0.282107 0.144502
338 4 0.0998374 0.283477 0.0946545
337 2 0.0979644 0.282792 0.119578
456 4 0.173972 0.348577 0.0841144
755 4 0.262107 0.313674 0.161595
754 2 0.258652 0.301209 0.140197
756 4 0.255196 0.288744 0.118799
571 2 0.278268 0.283198 0.0915268
572 4 0.273738 0.282509 0.116107
385 2 0.325793 0.307595 0.15535
672 4 0.392897 0.280775 0.079897
387 4 0.348638 0.30219 0.146743
670 2 0.391515 0.304762 0.0868188
741 4 0.367779 0.294912 0.144848
739 2 0.38797 0.30883 0.14973
740 4 0.40816 0.322747 0.154611
671 4 0.390133 0.328748 0.0937405
622 2 0.441152 0.333928 0.152734
109 3 0.486909 0.334281 0.178417
703 2 0.0108938 0.375158 0.151244
704 4 0.0296339 0.375057 0.167796
454 2 0.149531 0.349955 0.0892037
536 4 0.104902 0.348815 0.0984157
455 4 0.12509 0.351332 0.094293
535 2 0.0899726 0.338454 0.11559
345 4 0.271669 0.404112 0.17597
106 1 0.494172 0.348039 0.161202
107 3 0.477001 0.350807 0.146147
624 4 0.456746 0.350746 0.142777
596 4 0.445024 0.362561 0.131307
495 4 0.463875 0.403971 0.078737
595 2 0.450768 0.378781 0.113166
597 4 0.456512 0.395 0.0950245
264 4 0.0633121 0.496456 0.144862
602 4 0.0677622 0.477199 0.148457
601 2 0.0452134 0.46925 0.155774
1430 4 0.177326 0.50555 0.175457
63 3 0.295169 0.458266 0.0786186
61 1 0.295093 0.479729 0.0874345
65 3 0.301818 0.479219 0.109187
62 3 0.273718 0.488155 0.0863081
1582 2 0.407998 0.49112 0.104143
1584 4 0.419101 0.49582 0.126048
1573 2 0.407159 0.476752 0.164803
1575 4 0.415605 0.487783 0.144014
1568 4 0.495925 0.484093 0.122823
563 4 0.485973 0.485536 0.105083
1538 4 0.0457922 0.0232789 0.168035
1537 2 0.0336396 0.0384945 0.183719
1539 4 0.021487 0.0537101 0.199403
234 4 0.0358732 0.00590449 0.170823
1404 4 0.156455 0.0245103 0.191868
1402 2 0.155076 0.000445997 0.185221
1504 2 0.181904 0.0506329 0.235875
1506 4 0.194929 0.0302841 0.229435
1505 4 0.16888 0.0709818 0.242315
689 4 0.195004 0.0207366 0.211394
688 2 0.207772 0.0117964 0.191843
1476 4 0.268228 0.999439 0.184093
1769 4 0.26975 0.000769383 0.203069
1474 2 0.268976 0.0186099 0.168059
764 4 0.411422 0.0837404 0.175428
236 4 0.164596 0.113278 0.177782
722 4 0.175201 0.0966172 0.17579
721 2 0.195425 0.101969 0.189486
723 4 0.215648 0.10732 0.203181
693 4 0.219882 0.095073 0.217189
691 2 0.239254 0.100803 0.231922
692 4 0.258627 0.106533 0.246655
312 4 0.401198 0.0966963 0.163671
763 2 0.421024 0.0925452 0.19677
765 4 0.430626 0.10135 0.218111
521 4 0.440925 0.11075 0.233463
520 2 0.446269 0.132486 0.222322
522 4 0.451614 0.154223 0.21118
513 4 0.123229 0.23388 0.197519
511 2 0.120876 0.21149 0.208398
512 4 0.118522 0.189101 0.219276
736 2 0.169555 0.229084 0.183163
738 4 0.176664 0.236377 0.205998
284 4 0.189374 0.220829 0.206889
283 2 0.205576 0.206485 0.219416
285 4 0.221778 0.192141 0.231943
581 4 0.235501 0.186874 0.217498
580 2 0.248598 0.175065 0.235224
25 3 0.410293 0.219893 0.186308
24 3 0.395276 0.190693 0.204734
21 1 0.393462 0.213376 0.200198
22 3 0.37324 0.217321 0.189968
23 3 0.394363 0.225503 0.21996
309 4 0.359579 0.223154 0.204844
307 2 0.344937 0.238967 0.217521
761 4 0.483652 0.196177 0.190852
759 4 0.41934 0.239121 0.189078
762 4 0.444102 0.173201 0.211068
757 2 0.426155 0.240765 0.165078
760 2 0.463877 0.184689 0.20096
300 4 0.0227223 0.31127 0.166221
648 4 0.0180257 0.30619 0.185362
646 2 0.0114071 0.297935 0.208017
392 4 0.013236 0.292328 0.248475
647 4 0.00478848 0.289679 0.230671
362 4 0.120903 0.243374 0.179961
361 2 0.108042 0.263381 0.172247
389 4 0.114559 0.251376 0.245478
386 4 0.302949 0.312999 0.163957
497 4 0.291819 0.30538 0.178046
612 4 0.318725 0.270155 0.237248
496 2 0.279696 0.326048 0.18519
308 4 0.330295 0.254781 0.230198
623 4 0.425557 0.31711 0.162692
343 2 0.263302 0.380614 0.177701
498 4 0.267573 0.346717 0.192334
344 4 0.254935 0.357116 0.179432
766 2 0.289737 0.39675 0.230924
768 4 0.27952 0.415422 0.217804
767 4 0.299955 0.378077 0.244044
541 2 0.488204 0.398414 0.210395
13 3 0.413894 0.40459 0.221441
12 3 0.441119 0.382254 0.234577
11 1 0.435613 0.404024 0.229587
15 3 0.450023 0.411988 0.213853
542 4 0.463533 0.398024 0.214435
748 2 0.00924844 0.430447 0.181098
750 4 0.0172487 0.443193 0.16113
603 4 0.0226646 0.461301 0.163091
1776 4 0.121751 0.513111 0.240323
416 4 0.223813 0.449621 0.258428
291 4 0.236576 0.4405 0.245459
289 2 0.246157 0.439852 0.222372
290 4 0.255737 0.439204 0.199286
659 4 0.271178 0.440138 0.186133
658 2 0.284907 0.459272 0.177731
660 4 0.298636 0.478406 0.16933
639 4 0.310043 0.478625 0.18578
645 4 0.401369 0.418703 0.216097
1574 4 0.398713 0.465722 0.185592
644 4 0.391999 0.466646 0.205403
643 2 0.396684 0.442675 0.21075
14 3 0.437159 0.416771 0.248914
2755 2 0.0436292 0.0461208 0.301169
2756 4 0.0373237 0.0261618 0.314846
1772 4 0.0508399 0.0121544 0.310135
2757 4 0.0499348 0.0660797 0.287492
1463 4 0.132964 0.0165174 0.252314
732 4 0.12868 0.0265827 0.267899
730 2 0.120494 0.0486206 0.276414
731 4 0.112309 0.0706586 0.284929
1700 4 0.153512 0.0389881 0.312222
1699 2 0.166861 0.0344151 0.332863
474 4 0.280142 0.0489366 0.279044
1830 4 0.272243 0.0372702 0.292272
1828 2 0.290052 0.0298381 0.308171
1829 4 0.307861 0.022406 0.324071
1496 4 0.315573 0.0407202 0.327662
472 2 0.275792 0.0721994 0.270976
399 4 0.0324901 0.117374 0.294957
397 2 0.0403083 0.121034 0.318423
317 4 0.107291 0.130436 0.294976
316 2 0.103879 0.107415 0.285832
318 4 0.100467 0.0843948 0.276689
582 4 0.261695 0.163256 0.252949
27 3 0.275722 0.153088 0.262713
473 4 0.271441 0.0954622 0.262908
29 3 0.264185 0.117416 0.265371
28 3 0.264609 0.139813 0.296073
30 3 0.296898 0.128121 0.280633
26 1 0.275477 0.134507 0.276271
683 4 0.298983 0.134941 0.300982
682 2 0.321143 0.126893 0.309311
377 4 0.281452 0.145136 0.305829
376 2 0.28121 0.166365 0.319037
684 4 0.343303 0.118846 0.317639
351 4 0.464744 0.149358 0.314831
349 2 0.483979 0.136298 0.305631
332 4 0.45862 0.167791 0.308399
743 4 0.401874 0.186172 0.281634
744 4 0.389133 0.234409 0.285031
742 2 0.395503 0.21029 0.283332
419 4 0.401205 0.241045 0.299091
418 2 0.414783 0.253465 0.316019
633 4 0.381208 0.251714 0.280683
333 4 0.421253 0.181462 0.278107
331 2 0.439937 0.174626 0.293253
391 2 0.0348396 0.28428 0.258155
393 4 0.0564432 0.276233 0.267835
388 2 0.111776 0.269832 0.262116
390 4 0.108993 0.288288 0.278754
372 4 0.121214 0.300576 0.289206
370 2 0.140303 0.316712 0.288557
610 2 0.302985 0.273489 0.256387
611 4 0.287244 0.276824 0.275526
706 2 0.269368 0.283896 0.308569
707 4 0.288402 0.287203 0.292697
708 4 0.250333 0.280589 0.324441
631 2 0.357368 0.258244 0.284449
632 4 0.333528 0.264774 0.288215
727 2 0.355008 0.325183 0.306518
729 4 0.372782 0.318784 0.322898
420 4 0.428361 0.265885 0.332947
617 4 0.109522 0.377177 0.292419
616 2 0.102379 0.374743 0.316257
371 4 0.159392 0.332848 0.287909
678 4 0.110399 0.37943 0.271174
676 2 0.102195 0.402579 0.266484
402 4 0.162843 0.351936 0.296403
510 4 0.224862 0.366182 0.297708
400 2 0.186742 0.356501 0.290643
401 4 0.210641 0.361067 0.284884
508 2 0.239948 0.357447 0.315633
303 4 0.296684 0.372958 0.263656
302 4 0.320343 0.340703 0.293666
509 4 0.255034 0.348712 0.333557
301 2 0.308513 0.356831 0.278661
728 4 0.337234 0.331583 0.290138
2536 2 0.404172 0.375168 0.27443
2538 4 0.40583 0.399839 0.278139
447 4 0.416465 0.416117 0.286176
2537 4 0.402514 0.350496 0.27072
445 2 0.411192 0.425284 0.308834
3717 4 0.000868072 0.475213 0.328495
2619 4 0.00418145 0.447398 0.275879
1789 2 0.0480584 0.43678 0.268394
1790 4 0.0725819 0.432247 0.266598
1791 4 0.0235349 0.441313 0.27019
2693 4 0.00399184 0.45566 0.330711
735 4 0.114122 0.433374 0.255887
677 4 0.0939912 0.425728 0.261795
733 2 0.137616 0.440445 0.251068
1758 4 0.0754839 0.438814 0.286064
1756 2 0.0908017 0.450732 0.301828
1757 4 0.10612 0.462649 0.317593
734 4 0.16111 0.447516 0.24625
1775 4 0.141078 0.508685 0.286232
1774 2 0.131415 0.510898 0.263278
415 2 0.199929 0.442736 0.255722
1319 4 0.156061 0.500786 0.296634
1320 4 0.196361 0.500393 0.32624
417 4 0.176044 0.435852 0.253016
1318 2 0.176211 0.50059 0.311437
230 4 0.287775 0.492065 0.267905
1802 4 0.282422 0.478234 0.281156
1801 2 0.276596 0.47845 0.305471
1803 4 0.27077 0.478667 0.329785
427 2 0.125306 0.00464416 0.413826
429 4 0.142206 0.0228198 0.416865
719 4 0.14713 0.0418898 0.411188
1701 4 0.18021 0.0298421 0.353504
1406 4 0.185196 0.00975899 0.350248
439 2 0.245313 0.00400523 0.345935
440 4 0.245872 0.0288276 0.342982
1818 4 0.263987 0.0367274 0.346832
1816 2 0.264363 0.0614714 0.350406
1495 2 0.336281 0.0316858 0.338375
1517 4 0.370558 0.022339 0.364094
1497 4 0.356988 0.0226513 0.349087
1516 2 0.366284 0.0207974 0.388682
1518 4 0.36201 0.0192557 0.413269
258 4 0.433064 0.0807858 0.407957
256 2 0.452956 0.0663748 0.403288
257 4 0.472849 0.0519638 0.398619
398 4 0.0481264 0.124693 0.341889
529 2 0.0404497 0.149385 0.374272
531 4 0.0450806 0.128139 0.361929
600 4 0.154178 0.146122 0.372169
367 2 0.134505 0.146949 0.397629
369 4 0.145813 0.130295 0.382798
368 4 0.123198 0.163603 0.412461
598 2 0.170515 0.155059 0.355483
276 4 0.208753 0.0959901 0.400904
1817 4 0.264738 0.0862153 0.35398
606 4 0.259138 0.100176 0.367594
604 2 0.266568 0.113624 0.38732
605 4 0.273998 0.127073 0.407046
725 4 0.345882 0.11294 0.336183
726 4 0.388479 0.120955 0.361122
724 2 0.367181 0.116947 0.348652
425 4 0.392339 0.123691 0.380593
424 2 0.409587 0.106552 0.386417
426 4 0.426836 0.0894132 0.39224
2654 4 0.002474 0.21764 0.362384
2653 2 0.0107817 0.195028 0.369079
530 4 0.0358189 0.170631 0.386615
2655 4 0.0190894 0.172415 0.375775
599 4 0.186852 0.163995 0.338797
686 4 0.197672 0.180988 0.340773
685 2 0.20664 0.204319 0.340143
687 4 0.215608 0.227651 0.339514
404 4 0.223579 0.245339 0.339277
378 4 0.280969 0.187594 0.332245
403 2 0.245212 0.241436 0.351192
614 4 0.28464 0.22749 0.36299
613 2 0.303833 0.222921 0.37835
405 4 0.266845 0.237533 0.363107
615 4 0.323026 0.218352 0.39371
716 4 0.33897 0.218301 0.378787
715 2 0.363115 0.217937 0.385273
717 4 0.38726 0.217573 0.39176
584 4 0.40045 0.231797 0.395566
443 4 0.0783324 0.319064 0.338284
442 2 0.0571438 0.332211 0.33645
249 4 0.0752733 0.28029 0.4091
1034 4 0.0840656 0.301223 0.346531
1035 4 0.0840882 0.292961 0.395851
1033 2 0.0840769 0.297092 0.371191
711 4 0.139265 0.320921 0.412591
709 2 0.158646 0.323268 0.396969
559 2 0.380005 0.31481 0.365418
561 4 0.390352 0.3133 0.388131
336 4 0.388267 0.314116 0.409309
583 2 0.408817 0.254355 0.402371
560 4 0.369658 0.316321 0.342706
270 4 0.491258 0.2778 0.354224
269 4 0.442031 0.271362 0.348226
268 2 0.466645 0.274581 0.351225
585 4 0.417185 0.276912 0.409177
240 4 0.436334 0.282531 0.409062
238 2 0.438554 0.306652 0.41526
444 4 0.0359553 0.345359 0.334616
539 4 0.0272522 0.362922 0.338002
538 2 0.0161206 0.374328 0.357268
618 4 0.0952368 0.372309 0.340095
681 4 0.0889314 0.379653 0.358314
679 2 0.10496 0.378865 0.377487
570 4 0.138734 0.386255 0.389912
680 4 0.120989 0.378076 0.396661
568 2 0.148779 0.407131 0.399319
710 4 0.178026 0.325614 0.381347
407 4 0.195226 0.335292 0.378043
503 4 0.227908 0.382902 0.405098
406 2 0.211881 0.349406 0.390232
408 4 0.228536 0.363519 0.402422
502 2 0.23169 0.40448 0.417151
751 2 0.384164 0.405121 0.413412
753 4 0.369218 0.422017 0.402628
501 4 0.0545186 0.500315 0.387427
549 4 0.0481393 0.481652 0.389748
547 2 0.0336959 0.468741 0.405556
548 4 0.0192524 0.45583 0.421364
1310 4 0.0761028 0.49646 0.35106
776 4 0.120493 0.473838 0.326413
569 4 0.158824 0.428006 0.408725
775 2 0.131687 0.473774 0.348771
777 4 0.14288 0.47371 0.371129
413 4 0.136983 0.480193 0.390372
412 2 0.152794 0.462967 0.399229
438 4 0.203807 0.486961 0.340137
594 4 0.310475 0.470456 0.383506
592 2 0.297943 0.476856 0.362838
593 4 0.28541 0.483257 0.34217
5 3 0.285176 0.493261 0.407944
3 3 0.319614 0.479397 0.401661
668 4 0.33109 0.472528 0.381426
1 1 0.305326 0.488583 0.417469
446 4 0.405919 0.43445 0.331491
669 4 0.364667 0.435493 0.382767
667 2 0.347879 0.454011 0.382096
120 3 0.400278 0.423229 0.346782
119 3 0.386285 0.430128 0.38105
116 1 0.405115 0.431257 0.367538
117 3 0.411724 0.453223 0.365815
3990 4 0.439815 0.495053 0.342908
3988 2 0.436043 0.473187 0.354432
3989 4 0.43227 0.45132 0.365956
118 3 0.422378 0.418947 0.376963
2741 4 0.436145 0.433878 0.375135
2742 4 0.48154 0.429416 0.395631
2740 2 0.458842 0.431647 0.385383
1126 2 0.994905 0.0683848 0.43999
1127 4 0.00565969 0.0693097 0.417436
2236 2 0.019883 0.00664904 0.484552
2238 4 0.0310036 0.0153571 0.505184
718 2 0.134629 0.05736 0.42634
342 4 0.107655 0.064431 0.453594
720 4 0.122129 0.0728303 0.441492
340 2 0.100385 0.0524602 0.474307
341 4 0.0931145 0.0404895 0.49502
2430 4 0.10315 0.022234 0.492648
641 4 0.482577 0.0343255 0.405381
274 2 0.196505 0.104144 0.42112
275 4 0.184256 0.112298 0.441336
857 4 0.186393 0.127103 0.454982
856 2 0.188968 0.13636 0.478066
858 4 0.191542 0.145616 0.50115
1220 4 0.21155 0.150593 0.502091
1151 4 0.223679 0.118919 0.504242
320 4 0.290714 0.136237 0.414077
319 2 0.307069 0.153425 0.42197
466 2 0.296418 0.113186 0.494292
467 4 0.311613 0.094167 0.488586
468 4 0.281222 0.132205 0.499997
471 4 0.0252425 0.181818 0.450759
261 4 0.0387364 0.188843 0.464017
259 2 0.0415222 0.211428 0.474377
260 4 0.0443079 0.234013 0.484737
248 4 0.0788995 0.254331 0.451687
348 4 0.0745537 0.247672 0.469612
545 4 0.0919448 0.241281 0.445966
544 2 0.100265 0.217758 0.447573
546 4 0.108586 0.194234 0.44918
321 4 0.323424 0.170612 0.429863
489 4 0.31474 0.221687 0.459042
487 2 0.31092 0.245295 0.451744
411 4 0.341263 0.176524 0.438003
409 2 0.33846 0.200003 0.446132
410 4 0.335657 0.223481 0.454261
247 2 0.0770864 0.267311 0.430394
346 2 0.0877735 0.249945 0.490713
9 3 0.140249 0.304678 0.423499
326 4 0.151574 0.291753 0.482313
10 3 0.13989 0.269534 0.437005
6 1 0.14959 0.290051 0.4389
8 3 0.146641 0.298247 0.460407
325 2 0.135174 0.276392 0.493281
7 3 0.172126 0.288197 0.434674
375 4 0.158472 0.310888 0.476213
373 2 0.182151 0.317653 0.48054
374 4 0.20583 0.324417 0.484867
792 4 0.220208 0.317307 0.497467
651 4 0.323314 0.276254 0.453407
488 4 0.3071 0.268903 0.444446
334 2 0.371175 0.326641 0.422582
649 2 0.340953 0.293398 0.457893
650 4 0.358592 0.310542 0.462379
812 4 0.375009 0.314222 0.471637
928 2 0.443887 0.28082 0.481208
929 4 0.454664 0.303356 0.482277
930 4 0.43311 0.258283 0.480138
772 2 0.331919 0.418607 0.436034
335 4 0.354083 0.339166 0.435855
752 4 0.399109 0.388224 0.424197
882 4 0.377914 0.408767 0.459704
927 4 0.398633 0.377942 0.442351
587 4 0.36311 0.354673 0.444814
773 4 0.356007 0.412293 0.438291
588 4 0.350908 0.389465 0.478598
586 2 0.357009 0.372069 0.461706
239 4 0.440773 0.330773 0.421459
925 2 0.418223 0.364854 0.433978
663 4 0.464694 0.399844 0.459326
926 4 0.437813 0.351765 0.425605
382 2 0.00754576 0.48074 0.454774
383 4 0.0194904 0.472282 0.434501
414 4 0.168605 0.445741 0.408087
1435 2 0.176091 0.468276 0.481175
1436 4 0.177859 0.457719 0.458579
504 4 0.235471 0.426059 0.429203
774 4 0.307832 0.424922 0.433776
636 4 0.291796 0.45703 0.439436
635 4 0.253712 0.429202 0.422827
4 3 0.302495 0.4738 0.435128
634 2 0.272754 0.443116 0.431132
881 4 0.402208 0.450128 0.473839
1910 4 0.407134 0.468821 0.479034
880 2 0.390061 0.429447 0.466772
1909 2 0.390564 0.477924 0.495397
662 4 0.451021 0.43734 0.489455
661 2 0.457857 0.418592 0.47439
1075 2 0.0427053 0.0167091 0.536691
2319 4 0.0156732 0.02776 0.584793
1076 4 0.0419197 0.0310737 0.516241
2428 2 0.111053 0.0108549 0.513463
1152 4 0.236874 0.0769481 0.528014
1646 4 0.241522 0.064854 0.513206
1645 2 0.249918 0.0418287 0.508256
1180 2 0.332682 0.0272497 0.574158
1181 4 0.338899 0.00559839 0.585009
1030 2 0.316626 0.0761422 0.530335
1182 4 0.326465 0.0489011 0.563307
1032 4 0.321856 0.0664903 0.5528
1647 4 0.258315 0.0188033 0.503305
431 4 0.26732 6.94273e-05 0.499752
4466 4 0.422911 0.0307424 0.526244
575 4 0.40999 0.0470323 0.522884
574 2 0.414416 0.0651613 0.506243
4465 2 0.41271 0.0146731 0.542459
3487 2 0.45889 0.0299015 0.518786
810 4 0.460335 0.0264851 0.576571
3488 4 0.481729 0.0208623 0.523458
3489 4 0.43605 0.0389407 0.514113
3008 4 0.498737 0.0102061 0.529684
1150 2 0.230277 0.0979333 0.516128
1219 2 0.234141 0.156965 0.510706
909 4 0.241167 0.126198 0.570602
1227 4 0.230623 0.143548 0.567187
1031 4 0.311395 0.0857942 0.50787
576 4 0.418843 0.0832903 0.489602
515 4 0.454187 0.153217 0.531204
305 4 0.468776 0.140778 0.534887
304 2 0.470395 0.115916 0.536983
306 4 0.472014 0.0910526 0.539079
877 2 0.0113339 0.234006 0.533554
1272 4 0.0225356 0.244224 0.566093
879 4 0.030517 0.237029 0.549304
1221 4 0.256732 0.163336 0.519322
1225 2 0.225683 0.164794 0.57941
1242 4 0.230507 0.238914 0.538974
1240 2 0.220708 0.223925 0.556424
1241 4 0.210909 0.208936 0.573873
1212 4 0.269271 0.176371 0.510484
1210 2 0.275446 0.198512 0.520324
1211 4 0.28162 0.220654 0.530164
265 2 0.351524 0.224871 0.575104
266 4 0.350573 0.204766 0.589938
267 4 0.352476 0.244976 0.560269
514 2 0.46739 0.173959 0.526658
516 4 0.480593 0.1947 0.522113
1026 4 0.496249 0.196628 0.50939
905 4 0.473948 0.238219 0.558481
904 2 0.450404 0.241379 0.550679
347 4 0.100993 0.252217 0.511814
327 4 0.118775 0.261031 0.504248
790 2 0.230537 0.313738 0.519956
1166 4 0.227927 0.293947 0.542421
1165 2 0.234467 0.276746 0.559349
791 4 0.240865 0.310169 0.542445
1167 4 0.241006 0.259546 0.576277
811 2 0.380995 0.30556 0.494315
872 4 0.364715 0.259183 0.554545
813 4 0.386981 0.296899 0.516994
871 2 0.387193 0.255943 0.544084
873 4 0.409671 0.252703 0.533623
906 4 0.426859 0.244538 0.542877
1237 2 0.411257 0.337809 0.544209
1238 4 0.429499 0.321025 0.540938
1191 4 0.222875 0.401426 0.548535
1189 2 0.221694 0.3937 0.572285
1239 4 0.393016 0.354594 0.547481
1029 4 0.381705 0.350733 0.56372
1280 4 0.0574197 0.462742 0.582111
1557 4 0.17682 0.488029 0.520908
1437 4 0.174322 0.478834 0.503771
1911 4 0.373994 0.487028 0.51176
891 4 0.375362 0.483728 0.530829
889 2 0.380567 0.473302 0.552951
890 4 0.385773 0.462876 0.575073
1741 2 0.470053 0.463976 0.50992
3441 4 0.482686 0.486354 0.546959
1742 4 0.475664 0.475192 0.531551
3439 2 0.48004 0.482949 0.571588
1743 4 0.464442 0.45276 0.488289
2317 2 0.0337914 0.0341216 0.600807
2318 4 0.0519096 0.0404832 0.61682
938 4 0.0639908 0.0297344 0.628021
944 4 0.022306 0.0288594 0.66258
3476 4 0.00257644 0.0405901 0.595146
937 2 0.0848197 0.0195618 0.637394
1892 4 0.122413 0.019013 0.641383
939 4 0.105649 0.00938931 0.646767
1891 2 0.145879 0.0221342 0.649431
1893 4 0.169345 0.0252554 0.65748
1092 4 0.240494 0.0346603 0.65338
4225 2 0.409283 0.0640115 0.623035
4226 4 0.40895 0.0655254 0.598079
4227 4 0.409616 0.0624976 0.64799
90 3 0.458921 0.00771043 0.583526
809 4 0.423219 0.0527543 0.597381
808 2 0.441777 0.0396197 0.586976
1193 4 0.421173 0.0785041 0.661209
2281 2 0.437446 0.998047 0.64697
907 2 0.243714 0.110938 0.590245
908 4 0.24626 0.0956783 0.609887
1284 4 0.249036 0.101036 0.629165
1282 2 0.255382 0.118606 0.645785
1283 4 0.261727 0.136175 0.662405
1004 4 0.275988 0.148869 0.668434
1003 2 0.290261 0.169222 0.671122
887 4 0.400094 0.164687 0.585775
900 4 0.410291 0.149945 0.595875
898 2 0.42 0.140466 0.616876
899 4 0.42971 0.130986 0.637877
1194 4 0.433894 0.126739 0.657706
1192 2 0.427534 0.102622 0.659458
1270 2 0.037297 0.237861 0.585245
1155 4 0.0486599 0.214763 0.661454
1154 4 0.0634926 0.218288 0.613828
1153 2 0.0560762 0.216525 0.637641
1271 4 0.0520583 0.231497 0.604397
1226 4 0.220743 0.186039 0.591634
1278 4 0.210297 0.204579 0.593933
1276 2 0.200768 0.220268 0.610911
1277 4 0.191239 0.235956 0.627889
917 4 0.293123 0.242076 0.610658
888 4 0.358777 0.191483 0.577075
886 2 0.379435 0.178085 0.581425
796 2 0.15905 0.256225 0.623221
797 4 0.134889 0.259898 0.628504
695 4 0.123578 0.271853 0.638985
694 2 0.122766 0.282369 0.661655
798 4 0.183211 0.252552 0.617937
918 4 0.256038 0.266467 0.587625
916 2 0.274581 0.254272 0.599142
1244 4 0.0160762 0.413444 0.621676
896 4 0.115983 0.404849 0.608805
1190 4 0.220513 0.385974 0.596036
804 4 0.227197 0.368216 0.601529
803 4 0.227342 0.366685 0.651512
802 2 0.227269 0.367451 0.626521
1136 4 0.22743 0.351989 0.665998
1027 2 0.367537 0.345838 0.583733
806 4 0.346309 0.332873 0.666926
807 4 0.359492 0.33037 0.618752
805 2 0.3529 0.331622 0.642839
1028 4 0.35337 0.340943 0.603745
1269 4 0.406013 0.401296 0.635226
1268 4 0.452883 0.416229 0.626227
3023 4 0.469996 0.410313 0.633036
3022 2 0.486428 0.391668 0.630292
1267 2 0.429448 0.408762 0.630726
1243 2 0.0214566 0.436887 0.628507
1245 4 0.0268371 0.460329 0.635338
2171 4 0.0158199 0.476716 0.633565
1279 2 0.0693523 0.476306 0.599397
2170 2 0.00560501 0.498934 0.638781
1281 4 0.0812849 0.48987 0.616684
3432 4 0.0932815 0.503982 0.624705
895 2 0.113046 0.429424 0.605252
897 4 0.11011 0.453999 0.601698
2015 4 0.115973 0.470653 0.594542
2014 2 0.125413 0.483743 0.613639
2016 4 0.134853 0.496834 0.632737
2351 4 0.14659 0.50499 0.648407
2152 2 0.221562 0.481356 0.629705
2154 4 0.23591 0.463572 0.619554
1160 4 0.239536 0.450997 0.605521
1172 4 0.296799 0.428067 0.604847
1171 2 0.321622 0.430944 0.603997
1161 4 0.289428 0.44768 0.604842
1159 2 0.264482 0.449339 0.605182
1000 2 0.287822 0.509702 0.641285
1001 4 0.302128 0.504797 0.661196
1173 4 0.346445 0.433821 0.603146
2307 4 0.473168 0.490981 0.611847
2305 2 0.489231 0.493458 0.630848
3440 4 0.477394 0.479544 0.596217
1083 4 0.002714 0.0256743 0.659046
851 4 0.0153427 0.0669761 0.678645
943 2 0.0410886 0.0293233 0.679078
945 4 0.0598712 0.0297871 0.695576
863 4 0.0508959 0.0450085 0.704292
862 2 0.0662409 0.0599937 0.717143
1090 2 0.252704 0.044351 0.672929
1091 4 0.264914 0.0540417 0.692479
1050 4 0.271371 0.0709288 0.684212
2399 4 0.296805 0.0284894 0.75063
44 3 0.41865 0.0215058 0.664268
45 3 0.405124 0.0355257 0.696488
2321 4 0.393178 0.0257256 0.709232
980 4 0.377517 0.0367182 0.717083
979 2 0.386156 0.0511767 0.735562
2320 2 0.391333 0.00134109 0.714444
2283 4 0.435643 0.0115799 0.667917
43 3 0.416455 0.0590986 0.669403
3400 2 0.495117 0.998229 0.741189
41 1 0.420264 0.0386933 0.679772
1163 4 0.444923 0.0193695 0.684455
42 3 0.441478 0.0387171 0.688667
1162 2 0.463528 0.00554562 0.693832
864 4 0.0815858 0.0749789 0.729995
2286 4 0.0776187 0.0939933 0.725771
2284 2 0.0901981 0.114965 0.720561
2285 4 0.102778 0.135936 0.715352
34 3 0.121339 0.144983 0.714948
35 3 0.132056 0.16237 0.683317
1048 2 0.28129 0.0907379 0.695804
1022 4 0.294757 0.127507 0.717025
1049 4 0.291209 0.110547 0.707397
1021 2 0.30967 0.127798 0.737092
3114 4 0.502124 0.137709 0.688611
3387 4 0.0358291 0.228423 0.667839
3385 2 0.0138838 0.220945 0.677202
32 3 0.0971098 0.149686 0.686602
33 3 0.107998 0.17958 0.706613
31 1 0.114788 0.159207 0.697825
1005 4 0.304535 0.189574 0.673809
831 4 0.320734 0.182403 0.684847
978 4 0.357779 0.21408 0.728102
829 2 0.337615 0.196105 0.697195
830 4 0.354496 0.209806 0.709542
976 2 0.378461 0.205226 0.739013
977 4 0.399143 0.196371 0.749923
1298 4 0.488374 0.25594 0.707945
696 4 0.121954 0.292885 0.684325
1259 4 0.118834 0.300402 0.702734
1213 2 0.149718 0.292057 0.740955
1258 2 0.122042 0.325185 0.701905
1215 4 0.152229 0.292035 0.716078
954 4 0.490598 0.302972 0.656493
952 2 0.489722 0.283623 0.672304
821 4 0.0668051 0.403048 0.746162
1208 4 0.137674 0.361111 0.690536
1260 4 0.12525 0.349968 0.701075
1207 2 0.130846 0.383735 0.698704
1209 4 0.124018 0.406359 0.706872
1135 2 0.229643 0.355049 0.690715
948 4 0.229052 0.342654 0.730444
1137 4 0.231856 0.35811 0.715432
946 2 0.215887 0.344053 0.751655
1067 4 0.261234 0.362204 0.722257
1066 2 0.275788 0.380873 0.73031
1068 4 0.290341 0.399541 0.738362
1008 4 0.362184 0.341919 0.675913
1007 4 0.358335 0.323214 0.722131
1006 2 0.360259 0.332567 0.699022
992 4 0.0623164 0.407547 0.727633
991 2 0.0833892 0.409726 0.714352
993 4 0.104462 0.411906 0.701072
1121 4 0.185597 0.487883 0.727245
1120 2 0.205057 0.476874 0.716051
1122 4 0.224517 0.465866 0.704857
1236 4 0.238864 0.476067 0.695692
2012 4 0.188404 0.478173 0.745247
1230 4 0.309098 0.486612 0.664701
1174 2 0.282736 0.437572 0.740977
1235 4 0.28249 0.472021 0.719799
1175 4 0.273435 0.459017 0.732101
1228 2 0.31897 0.483115 0.687405
1234 2 0.260677 0.474044 0.707746
1229 4 0.328843 0.479617 0.710109
1139 4 0.337131 0.461331 0.707683
1138 2 0.339613 0.443179 0.724698
1099 2 0.407981 0.464054 0.737959
1100 4 0.400982 0.487844 0.741162
1101 4 0.41498 0.440265 0.734757
3183 4 0.433836 0.444642 0.73235
3181 2 0.4587 0.445199 0.734924
3182 4 0.483565 0.445757 0.737497
2168 4 0.499655 0.499711 0.669291
2276 4 0.00787985 0.0232113 0.820904
1202 4 0.0098277 0.0425333 0.826425
1201 2 0.0329169 0.0508901 0.821711
1203 4 0.0560062 0.0592469 0.816996
1287 4 0.0669401 0.0499647 0.830733
1149 4 0.233569 0.0478701 0.750056
1147 2 0.216961 0.0384529 0.766201
1148 4 0.200353 0.0290356 0.782347
840 4 0.227216 0.0810337 0.823278
2400 4 0.249093 0.0403792 0.759733
2398 2 0.272949 0.0344343 0.755181
1112 4 0.396402 0.0713952 0.773345
1111 2 0.378471 0.0692473 0.790638