ITEM: TIMESTEP
5430000
ITEM: NUMBER OF ATOMS
4590
ITEM: BOX BOUNDS pp pp pp
-9.9985700000000008e+00 9.9985700000000008e+00
-9.9985700000000008e+00 9.9985700000000008e+00
-9.9985700000000008e+00 9.9985700000000008e+00
ITEM: ATOMS id type xs ys zs
1633 2 0.140351 0.00652944 0.0154499
1605 4 0.159976 0.009776 0.0433878
1635 4 0.161356 0.998018 0.0260098
1634 4 0.119346 0.0150409 0.00488994
1475 4 0.263684 0.023967 0.0617563
566 4 0.256454 0.0418354 0.0596641
567 4 0.27794 0.0722944 0.0263277
565 2 0.267197 0.0570649 0.0429959
653 4 0.297008 0.0674193 0.0203058
985 2 0.390276 0.017418 0.0613134
986 4 0.41159 0.0289325 0.0675014
2975 4 0.411726 0.0455662 0.07755
295 2 0.486055 0.0160315 0.0143563
701 4 0.0388771 0.0870036 0.0242313
555 4 0.0807968 0.171134 0.00628981
700 2 0.0428083 0.0921026 7.08751e-05
837 4 0.149563 0.0978158 0.0294121
1134 4 0.166198 0.0870422 0.0277934
836 4 0.104487 0.119424 0.0280251
835 2 0.127025 0.10862 0.0287186
553 2 0.096311 0.154838 0.0171947
554 4 0.111825 0.138541 0.0280997
1132 2 0.190097 0.0943763 0.0272826
933 4 0.216084 0.0979516 0.00557754
1133 4 0.213995 0.10171 0.0267718
652 2 0.297699 0.0899699 0.00952741
654 4 0.298389 0.11252 0.998749
491 4 0.290158 0.122931 0.0182775
490 2 0.29221 0.138917 0.037393
54 3 0.288244 0.133792 0.999281
492 4 0.294263 0.154904 0.0565086
460 2 0.36353 0.097795 0.0457008
462 4 0.379321 0.0954661 0.0649464
461 4 0.347739 0.100124 0.0264553
1086 4 0.339873 0.116382 0.019829
1084 2 0.346829 0.12627 0.997942
476 4 0.10929 0.225457 0.0100701
360 4 0.292886 0.221261 0.0435271
358 2 0.294408 0.196314 0.0442354
359 4 0.295929 0.171367 0.0449437
354 4 0.279713 0.233309 0.0340776
352 2 0.260576 0.248982 0.0304242
322 2 0.371921 0.238016 0.0273187
254 4 0.362853 0.230041 0.0645447
323 4 0.357632 0.240113 0.0477292
324 4 0.38621 0.235918 0.00690814
519 4 0.402303 0.229819 0.016187
517 2 0.41825 0.210758 0.0189303
518 4 0.434197 0.191696 0.0216736
769 2 0.475556 0.176672 0.0252493
770 4 0.451662 0.183166 0.02177
771 4 0.499449 0.170178 0.0287286
294 4 0.0224399 0.302759 0.0142314
620 4 0.008364 0.299064 0.0286042
292 2 0.0408857 0.314021 0.00165773
482 4 0.188295 0.311209 0.0545696
481 2 0.177732 0.306696 0.0323612
483 4 0.167168 0.302182 0.0101529
287 4 0.174549 0.284558 0.0084169
456 4 0.181716 0.310237 0.0736405
353 4 0.24144 0.264655 0.0267707
1304 4 0.36813 0.308044 0.00282994
356 4 0.35572 0.324445 0.00467484
609 4 0.377444 0.327205 0.0740323
671 4 0.360273 0.318226 0.0829997
1095 4 0.481476 0.2785 0.0733752
1093 2 0.500703 0.275688 0.0576404
495 4 0.506745 0.317332 0.0128568
2872 2 0.0279938 0.381796 0.0230654
657 4 0.0084187 0.3608 0.0477067
655 2 0.00149193 0.369043 0.0702733
2874 4 0.00753713 0.377993 0.0369304
625 2 0.152071 0.364502 0.00959289
1170 4 0.114373 0.360575 0.000398828
626 4 0.132788 0.356156 0.996039
1168 2 0.0932224 0.347253 0.000983791
1288 2 0.193171 0.402512 0.0238418
252 4 0.227877 0.407103 0.0411031
627 4 0.171354 0.372847 0.0231466
1290 4 0.175435 0.389053 0.0124638
1673 4 0.335836 0.41836 0.0708276
523 2 0.399973 0.364185 0.0160541
524 4 0.390799 0.364203 0.0393139
607 2 0.383045 0.351454 0.0716311
608 4 0.388646 0.375704 0.0692299
1672 2 0.352378 0.399632 0.0699357
1674 4 0.36892 0.380904 0.0690438
525 4 0.409146 0.364168 0.992794
552 4 0.00926777 0.435578 0.033645
1223 4 0.130233 0.503008 0.999892
1289 4 0.210908 0.415971 0.0352197
250 2 0.245393 0.422519 0.050087
243 4 0.224858 0.508885 0.0575752
251 4 0.262909 0.437935 0.0590709
795 4 0.267313 0.45732 0.0566581
793 2 0.252595 0.47707 0.0609552
956 4 0.292793 0.481744 0.0055622
957 4 0.334668 0.456306 0.0155673
903 4 0.273709 0.477999 0.00480496
955 2 0.31373 0.469025 0.0105648
17 3 0.0337248 0.0711833 0.124675
381 4 0.0204884 0.0564836 0.123296
379 2 0.0145076 0.03546 0.111155
464 4 0.0779495 0.0863419 0.130158
380 4 0.00852684 0.0144364 0.0990131
16 1 0.0376118 0.0891984 0.138441
463 2 0.0912633 0.0654374 0.126853
450 4 0.118132 0.0307551 0.125757
448 2 0.116662 0.0224157 0.149283
465 4 0.104577 0.044533 0.123548
1474 2 0.265041 0.0189319 0.08621
1476 4 0.266397 0.0138968 0.110664
1769 4 0.284109 0.00733471 0.120083
1768 2 0.282633 0.0111339 0.144752
987 4 0.368962 0.00590338 0.0551255
630 4 0.452924 0.033835 0.12979
2974 2 0.427881 0.0444896 0.0966034
2976 4 0.444036 0.043413 0.115657
628 2 0.437016 0.0267321 0.147724
2723 4 0.473587 0.0348611 0.130144
20 3 0.0256793 0.0866566 0.157672
18 3 0.060286 0.0901968 0.143267
19 3 0.0309795 0.108561 0.127509
2481 4 0.0296494 0.104138 0.108786
2479 2 0.00969695 0.113445 0.0969347
578 4 0.0797062 0.0916547 0.152832
234 4 0.00656262 0.0857421 0.162814
2469 4 0.36231 0.133135 0.100198
2467 2 0.361081 0.158102 0.10077
311 4 0.377886 0.0984677 0.0838307
310 2 0.372039 0.0964975 0.108061
312 4 0.366192 0.0945273 0.132292
764 4 0.366204 0.106281 0.148688
647 4 0.0235805 0.244533 0.122111
361 2 0.0590692 0.238994 0.148656
363 4 0.0804004 0.237521 0.161617
646 2 0.999238 0.238824 0.12224
362 4 0.037738 0.240466 0.135695
277 2 0.112197 0.25472 0.161512
756 4 0.307987 0.217857 0.147349
572 4 0.307217 0.238261 0.141993
571 2 0.317006 0.252545 0.123957
253 2 0.354179 0.215557 0.0829885
2468 4 0.359852 0.183069 0.101342
23 3 0.381577 0.180052 0.142153
255 4 0.345506 0.201074 0.101432
21 1 0.375378 0.201154 0.134756
24 3 0.361245 0.199294 0.116448
22 3 0.364214 0.21199 0.151699
25 3 0.393889 0.213152 0.129095
759 4 0.391786 0.227862 0.144234
309 4 0.375909 0.227936 0.156542
757 2 0.413256 0.240099 0.140426
527 4 0.494229 0.218189 0.133518
758 4 0.434725 0.252335 0.136618
528 4 0.450453 0.240956 0.141644
526 2 0.472341 0.229572 0.137581
2651 4 0.499737 0.228039 0.116005
279 4 0.129769 0.263798 0.146216
454 2 0.166914 0.318394 0.0920678
535 2 0.119359 0.316255 0.135049
455 4 0.152112 0.32655 0.110495
536 4 0.133756 0.326388 0.117295
537 4 0.104962 0.306121 0.152804
573 4 0.326796 0.266828 0.105921
672 4 0.330063 0.279158 0.0908584
670 2 0.345168 0.298692 0.086929
622 2 0.474957 0.32549 0.149366
597 4 0.488286 0.284824 0.0911252
624 4 0.492138 0.328519 0.131454
748 2 0.066556 0.404069 0.164308
705 4 0.0122152 0.388567 0.0946123
703 2 0.00400814 0.41067 0.102935
345 4 0.234952 0.354159 0.111358
343 2 0.253726 0.370624 0.110069
344 4 0.272499 0.387088 0.108781
498 4 0.28086 0.405465 0.104708
496 2 0.298787 0.407179 0.0873629
497 4 0.316714 0.408893 0.0700175
541 2 0.481477 0.400552 0.0979608
14 3 0.445861 0.41499 0.14357
11 1 0.462026 0.418616 0.159817
543 4 0.464955 0.418723 0.0932695
13 3 0.479924 0.404218 0.156536
109 3 0.499458 0.343088 0.141793
108 3 0.504293 0.367333 0.112928
542 4 0.497999 0.382381 0.102652
750 4 0.0821686 0.41893 0.151637
603 4 0.0753258 0.437787 0.15436
601 2 0.0770662 0.456544 0.137918
704 4 0.995801 0.432773 0.111258
263 4 0.0973596 0.476658 0.124966
602 4 0.0788067 0.4753 0.121476
63 3 0.228132 0.505564 0.132299
1584 4 0.396192 0.463104 0.12196
1575 4 0.391629 0.466122 0.140943
1582 2 0.390867 0.483644 0.108733
15 3 0.469179 0.440221 0.158976
689 4 0.0618174 0.0376855 0.223444
688 2 0.0579784 0.0162667 0.235759
1464 4 0.0561473 0.0565161 0.219512
1462 2 0.0796128 0.0605827 0.211895
1403 4 0.110081 0.000347346 0.186484
449 4 0.115193 0.0140764 0.172809
1463 4 0.103078 0.0646493 0.204278
732 4 0.116876 0.0577927 0.217334
730 2 0.139105 0.0465286 0.215285
731 4 0.161333 0.0352646 0.213236
1504 2 0.222556 0.0614505 0.236005
1622 4 0.245911 0.0286252 0.228171
1506 4 0.233981 0.0440983 0.222093
1621 2 0.259282 0.0246848 0.207414
1623 4 0.272653 0.0207444 0.186656
486 4 0.409623 0.00355276 0.166336
484 2 0.396716 0.00026397 0.187496
485 4 0.383808 0.996975 0.208656
629 4 0.421108 0.0196293 0.165659
577 2 0.0926979 0.100467 0.172293
579 4 0.10569 0.109279 0.191754
235 2 0.138006 0.126661 0.190565
237 4 0.118355 0.11973 0.204384
236 4 0.157657 0.133592 0.176746
722 4 0.174126 0.134323 0.1882
721 2 0.196788 0.125993 0.181705
723 4 0.219451 0.117663 0.175209
693 4 0.232601 0.122616 0.189273
691 2 0.245159 0.125849 0.210651
692 4 0.257718 0.129082 0.232029
473 4 0.266229 0.113251 0.241532
763 2 0.364986 0.117346 0.171077
765 4 0.363768 0.128411 0.193466
744 4 0.376321 0.129116 0.210525
742 2 0.400138 0.121939 0.213058
333 4 0.44149 0.126028 0.214559
743 4 0.423955 0.114762 0.215592
331 2 0.456653 0.127425 0.234391
278 4 0.0946243 0.245641 0.176808
512 4 0.141334 0.235959 0.247251
754 2 0.297348 0.220089 0.169866
755 4 0.28671 0.222321 0.192383
610 2 0.314866 0.231151 0.223894
611 4 0.299377 0.221473 0.24097
307 2 0.362124 0.23504 0.176155
612 4 0.330355 0.240829 0.206817
760 2 0.502493 0.229925 0.184875
762 4 0.495825 0.242622 0.205357
511 2 0.139333 0.258703 0.23706
300 4 0.130596 0.290792 0.20987
513 4 0.137332 0.281448 0.226869
298 2 0.119723 0.301991 0.190337
299 4 0.10885 0.31319 0.170805
308 4 0.348339 0.242143 0.195768
708 4 0.407028 0.288955 0.220914
706 2 0.386597 0.290322 0.235264
741 4 0.40475 0.294979 0.202232
707 4 0.366167 0.291689 0.249613
768 4 0.352037 0.278352 0.254947
387 4 0.439619 0.339436 0.210262
522 4 0.492271 0.26057 0.214145
520 2 0.474499 0.261527 0.231708
623 4 0.457776 0.322461 0.167277
740 4 0.440309 0.319988 0.177517
739 2 0.422529 0.307483 0.189874
521 4 0.456728 0.262483 0.24927
749 4 0.0509434 0.389208 0.17698
365 4 0.999519 0.386418 0.221708
364 2 0.0168055 0.388218 0.203732
366 4 0.0340919 0.390017 0.185757
386 4 0.403479 0.368838 0.228432
2537 4 0.387901 0.373693 0.217022
2536 2 0.37509 0.38996 0.231039
2538 4 0.36228 0.406226 0.245056
385 2 0.421549 0.354137 0.219347
3897 4 0.0103063 0.452768 0.206412
3600 4 0.030336 0.521206 0.184182
417 4 0.158285 0.454213 0.251891
1431 4 0.298854 0.494387 0.192918
659 4 0.306208 0.486524 0.209741
658 2 0.32769 0.485972 0.222524
1429 2 0.28997 0.496084 0.169607
1573 2 0.399849 0.465905 0.164556
639 4 0.36877 0.484072 0.241444
638 4 0.396742 0.475983 0.200789
637 2 0.382756 0.480027 0.221116
1574 4 0.40807 0.465689 0.188169
660 4 0.349171 0.48542 0.235308
645 4 0.513282 0.466142 0.182631
12 3 0.452845 0.414474 0.180498
643 2 0.501438 0.485954 0.192244
316 2 0.0426697 0.0383915 0.31592
317 4 0.0293962 0.0595089 0.314173
1469 4 0.0676579 0.00167031 0.325976
318 4 0.0559431 0.0172741 0.317666
399 4 0.0425887 0.0732322 0.312261
1468 2 0.0914571 0.00417049 0.333223
1505 4 0.211131 0.0788027 0.249917
1700 4 0.224137 0.0321137 0.286495
1406 4 0.168744 0.00679579 0.304225
1701 4 0.188015 0.0045049 0.30732
1699 2 0.206076 0.0183093 0.296907
1496 4 0.315944 0.00183284 0.28799
474 4 0.278032 0.0721028 0.267382
1830 4 0.293012 0.0592985 0.266347
1828 2 0.299427 0.0355403 0.270771
1829 4 0.305842 0.011782 0.275195
378 4 0.270365 0.0612497 0.327933
376 2 0.282648 0.0817974 0.33515
397 2 0.0447561 0.098133 0.311604
398 4 0.0469235 0.123034 0.310947
529 2 0.0482874 0.156884 0.318966
531 4 0.0610428 0.135384 0.318475
472 2 0.272131 0.0926768 0.254457
29 3 0.262492 0.125602 0.310793
28 3 0.296902 0.117716 0.32487
26 1 0.284662 0.132389 0.311706
30 3 0.293428 0.133144 0.2907
27 3 0.285636 0.153372 0.321082
582 4 0.283889 0.172489 0.321962
377 4 0.294932 0.102345 0.342366
332 4 0.471817 0.128822 0.254223
351 4 0.480459 0.113441 0.263558
349 2 0.493448 0.110974 0.28478
530 4 0.035532 0.178383 0.319456
2655 4 0.0452543 0.192961 0.328342
737 4 0.139688 0.234196 0.266313
736 2 0.159633 0.227353 0.279749
738 4 0.179579 0.220511 0.293186
284 4 0.194112 0.219624 0.307045
283 2 0.212082 0.204925 0.29776
285 4 0.230051 0.190227 0.288474
581 4 0.24515 0.196352 0.301212
580 2 0.264519 0.184421 0.311587
389 4 0.0530629 0.246516 0.274997
2716 2 0.0113926 0.290955 0.278971
2717 4 0.0146916 0.293004 0.254271
388 2 0.0708547 0.264078 0.275462
390 4 0.0886464 0.28164 0.275927
2718 4 0.00809357 0.288907 0.303671
372 4 0.106861 0.289674 0.276053
370 2 0.116449 0.312532 0.279334
767 4 0.336938 0.312812 0.28789
303 4 0.323215 0.311971 0.302738
301 2 0.32176 0.335531 0.310982
766 2 0.344487 0.295582 0.271418
632 4 0.466989 0.276495 0.261076
631 2 0.456154 0.289804 0.27926
633 4 0.445319 0.303113 0.297444
419 4 0.442774 0.31897 0.308295
676 2 0.0957417 0.416097 0.308768
678 4 0.0861981 0.398302 0.323513
371 4 0.126036 0.33539 0.282615
402 4 0.121603 0.354953 0.282837
400 2 0.139348 0.36829 0.294344
401 4 0.157092 0.381628 0.305852
510 4 0.169704 0.381694 0.321201
508 2 0.187507 0.394904 0.332765
728 4 0.305188 0.356128 0.332458
302 4 0.320304 0.359092 0.319225
120 3 0.36555 0.397952 0.319331
447 4 0.346316 0.400477 0.255861
445 2 0.348889 0.397861 0.280594
446 4 0.351463 0.395245 0.305326
118 3 0.389135 0.415641 0.342752
2742 4 0.462564 0.380622 0.31544
2740 2 0.45515 0.403856 0.309927
1758 4 0.00766845 0.433684 0.318096
1756 2 0.0107892 0.455813 0.329308
776 4 0.0608943 0.467354 0.320296
1757 4 0.01391 0.477943 0.34052
1790 4 0.995304 0.438245 0.303489
735 4 0.0955177 0.440204 0.278751
677 4 0.105285 0.433893 0.294023
733 2 0.11824 0.445078 0.269525
734 4 0.140963 0.449951 0.260299
291 4 0.222553 0.455225 0.253968
289 2 0.237498 0.465889 0.270941
416 4 0.206306 0.46228 0.263275
415 2 0.182296 0.458246 0.257583
290 4 0.252444 0.476554 0.287914
1802 4 0.332521 0.500899 0.293016
1801 2 0.31443 0.495053 0.309256
1803 4 0.29634 0.489207 0.325496
3990 4 0.396486 0.454504 0.27023
713 4 0.397058 0.475504 0.272014
3988 2 0.414993 0.447544 0.285535
2741 4 0.447735 0.42709 0.304415
3989 4 0.4335 0.440583 0.300839
3078 4 0.995396 0.0554502 0.41138
1470 4 0.115256 0.00667068 0.34047
1683 4 0.123756 0.0108051 0.358028
276 4 0.112583 0.0725529 0.383237
1443 4 0.0974109 0.0204053 0.404868
1682 4 0.11409 0.0309721 0.402756
1681 2 0.118923 0.0208886 0.380392
1817 4 0.236866 0.0517151 0.405588
1816 2 0.257538 0.0490868 0.39177
1818 4 0.278209 0.0464584 0.377951
440 4 0.297123 0.0418669 0.374854
439 2 0.295333 0.017955 0.367769
257 4 0.487969 0.0486785 0.372779
641 4 0.486369 0.0503579 0.392857
256 2 0.464469 0.0537932 0.365941
258 4 0.440969 0.0589079 0.359103
426 4 0.445245 0.0747403 0.370491
424 2 0.426249 0.0903968 0.374873
274 2 0.123101 0.0946193 0.377982
275 4 0.133619 0.116686 0.372726
368 4 0.138149 0.121476 0.353377
367 2 0.153585 0.141124 0.354328
369 4 0.16902 0.160771 0.355278
683 4 0.295864 0.125009 0.345815
682 2 0.314721 0.121051 0.361751
320 4 0.345143 0.153389 0.420263
725 4 0.350391 0.118999 0.36775
684 4 0.333577 0.117092 0.377687
724 2 0.371766 0.116031 0.380378
726 4 0.393141 0.113062 0.393006
425 4 0.407252 0.106053 0.379255
2653 2 0.0416795 0.212132 0.34399
2654 4 0.0381047 0.231304 0.359639
2846 4 0.0217257 0.22632 0.369491
2845 2 0.0126516 0.245488 0.382736
247 2 0.120788 0.250924 0.398411
545 4 0.109029 0.21227 0.402737
248 4 0.124561 0.226365 0.401202
600 4 0.171955 0.178914 0.348627
598 2 0.181007 0.199164 0.360167
599 4 0.190059 0.219414 0.371707
686 4 0.196599 0.238117 0.371827
685 2 0.193802 0.237988 0.396674
249 4 0.117016 0.275483 0.39562
1035 4 0.10271 0.287946 0.403569
404 4 0.248053 0.251548 0.424425
406 2 0.195187 0.337666 0.396254
615 4 0.284416 0.309247 0.34303
614 4 0.27896 0.274975 0.379035
405 4 0.277961 0.255743 0.384568
613 2 0.281688 0.292111 0.361033
403 2 0.263007 0.253646 0.404497
717 4 0.384309 0.26877 0.394662
418 2 0.451144 0.325525 0.330925
585 4 0.449331 0.284573 0.384072
583 2 0.425664 0.281164 0.391383
420 4 0.459514 0.33208 0.353556
2692 2 0.00514775 0.344097 0.367914
617 4 0.0711129 0.396692 0.336491
616 2 0.0548877 0.380164 0.345912
618 4 0.0386626 0.363637 0.355333
2693 4 0.0294155 0.349928 0.366412
443 4 0.0956908 0.351434 0.413052
680 4 0.103946 0.368398 0.420994
408 4 0.202035 0.355679 0.380323
503 4 0.222171 0.352935 0.378659
509 4 0.205311 0.408114 0.344329
502 2 0.246443 0.352271 0.384624
727 2 0.29413 0.357975 0.354807
729 4 0.283073 0.359822 0.377157
504 4 0.270716 0.351607 0.390589
668 4 0.318406 0.411938 0.399692
119 3 0.37287 0.38287 0.353044
751 2 0.385803 0.371145 0.386951
116 1 0.370007 0.402601 0.341175
753 4 0.368099 0.383012 0.373878
752 4 0.403507 0.359278 0.400025
669 4 0.354584 0.398886 0.367731
667 2 0.336495 0.405412 0.383712
117 3 0.352325 0.414214 0.35021
927 4 0.405121 0.340453 0.402876
269 4 0.467364 0.348999 0.347478
268 2 0.476348 0.365805 0.363666
270 4 0.485332 0.382611 0.379853
588 4 0.48665 0.384439 0.400722
3717 4 0.0266542 0.49142 0.347003
775 2 0.0822184 0.478776 0.32662
1318 2 0.135647 0.494237 0.349419
1320 4 0.111988 0.486193 0.350284
777 4 0.103542 0.490198 0.332944
635 4 0.220272 0.42304 0.34278
436 2 0.24444 0.486981 0.407743
634 2 0.240117 0.436542 0.349785
412 2 0.18868 0.477951 0.407423
413 4 0.208852 0.488376 0.396956
593 4 0.299786 0.490841 0.345308
437 4 0.266169 0.474623 0.408306
636 4 0.259962 0.450043 0.35679
592 2 0.290332 0.468717 0.352114
2 3 0.315391 0.431937 0.398578
5 3 0.28275 0.447992 0.40693
594 4 0.280878 0.446593 0.35892
1127 4 0.989699 0.0639817 0.427573
719 4 0.0454736 0.0772286 0.491059
1442 4 0.0666438 0.000726072 0.439027
429 4 0.0465414 0.0792113 0.470408
1441 2 0.0820273 0.0105657 0.421947
606 4 0.227454 0.0681121 0.413917
604 2 0.223855 0.0874944 0.429298
574 2 0.394067 0.0675135 0.489228
3008 4 0.459406 0.000639649 0.501594
427 2 0.0476048 0.0970865 0.452958
428 4 0.0486682 0.114962 0.435507
468 4 0.23122 0.117358 0.457322
605 4 0.220256 0.106877 0.444678
466 2 0.25346 0.128539 0.459679
467 4 0.275699 0.13972 0.462037
576 4 0.38898 0.0883943 0.47645
469 2 0.00354625 0.178541 0.447536
470 4 0.0050913 0.158745 0.432341
261 4 0.069752 0.212683 0.445872
259 2 0.063444 0.227233 0.465204
546 4 0.0792065 0.195429 0.439175
260 4 0.0571359 0.241782 0.484535
544 2 0.0941176 0.20385 0.420956
7 3 0.158988 0.228344 0.445764
1210 2 0.145656 0.179455 0.495433
1211 4 0.159712 0.196197 0.483296
687 4 0.191005 0.237858 0.42152
488 4 0.202305 0.233159 0.438201
487 2 0.223442 0.219975 0.440341
9 3 0.193859 0.238803 0.455106
6 1 0.17381 0.245936 0.445857
489 4 0.244579 0.206791 0.442482
411 4 0.305407 0.201899 0.44164
321 4 0.311383 0.182507 0.442914
410 4 0.257565 0.195874 0.454893
409 2 0.281486 0.198886 0.448266
319 2 0.328263 0.167948 0.431588
1009 2 0.44109 0.245474 0.487034
2850 4 0.0698614 0.294076 0.461029
2848 2 0.048831 0.307536 0.462342
2849 4 0.0278007 0.320997 0.463655
4434 4 0.0195948 0.339059 0.471138
348 4 0.0741253 0.238765 0.495152
1033 2 0.0938311 0.2934 0.426298
1034 4 0.0849522 0.298853 0.449027
326 4 0.157962 0.270492 0.495972
10 3 0.177196 0.253004 0.424474
8 3 0.164907 0.263178 0.458579
375 4 0.16888 0.267855 0.478072
373 2 0.182755 0.288225 0.482279
407 4 0.18834 0.319652 0.412185
710 4 0.196596 0.300647 0.413855
709 2 0.214646 0.283763 0.41764
559 2 0.231121 0.320856 0.480664
560 4 0.209353 0.323539 0.49267
711 4 0.232695 0.26688 0.421425
374 4 0.19663 0.308596 0.486487
561 4 0.252889 0.318173 0.468659
336 4 0.269694 0.32805 0.462415
650 4 0.313837 0.289661 0.458093
649 2 0.335191 0.298816 0.448854
334 2 0.291647 0.336547 0.453985
716 4 0.356834 0.290184 0.430541
715 2 0.370572 0.279477 0.412601
651 4 0.356545 0.307971 0.439615
584 4 0.401998 0.277754 0.398693
926 4 0.417413 0.333956 0.450912
925 2 0.411267 0.337204 0.426894
1011 4 0.444828 0.263517 0.470132
239 4 0.425838 0.315762 0.450174
238 2 0.436609 0.293217 0.45113
240 4 0.447379 0.270673 0.452087
442 2 0.0748598 0.362607 0.421201
444 4 0.0540289 0.37378 0.429351
538 2 0.0348627 0.393583 0.439024
539 4 0.0344955 0.369212 0.433445
679 2 0.125008 0.381086 0.42553
681 4 0.14607 0.393775 0.430065
570 4 0.141992 0.413062 0.433125
3 3 0.291474 0.414491 0.421737
774 4 0.30842 0.40555 0.414963
335 4 0.3136 0.345044 0.445556
773 4 0.30761 0.358565 0.432064
772 2 0.308015 0.382057 0.423513
586 2 0.493175 0.377068 0.423706
384 4 0.996193 0.500263 0.462876
1937 4 0.996831 0.48206 0.470816
540 4 0.0352298 0.417953 0.444604
2813 4 0.0241572 0.43459 0.438355
568 2 0.15137 0.436208 0.434353
569 4 0.160747 0.459354 0.435582
414 4 0.168508 0.467525 0.41789
438 4 0.22271 0.499338 0.407179
1401 4 0.336951 0.463389 0.488777
1400 4 0.307811 0.457212 0.44861
434 4 0.300311 0.476407 0.444862
1399 2 0.322381 0.4603 0.468694
4 3 0.309778 0.445818 0.433053
1 1 0.299694 0.435146 0.415085
882 4 0.43213 0.454455 0.468041
880 2 0.45583 0.456208 0.460268
881 4 0.47953 0.457962 0.452496
1910 4 0.432444 0.450824 0.48685
2430 4 0.0505853 0.996363 0.577299
340 2 0.0607476 0.016678 0.543283
342 4 0.0732322 0.0215134 0.522166
718 2 0.0580007 0.0588226 0.502437
720 4 0.0705279 0.0404166 0.513815
3477 4 0.00166525 0.0822759 0.554001
857 4 0.133688 0.0463559 0.526087
1151 4 0.132656 0.0317231 0.514987
856 2 0.135504 0.0704155 0.532646
1150 2 0.15457 0.0210693 0.520594
1645 2 0.195793 0.0188185 0.557383
1646 4 0.195096 0.00944808 0.534212
1152 4 0.176484 0.0104154 0.526202
1647 4 0.19649 0.0281889 0.580554
1030 2 0.254626 0.0863794 0.552347
1182 4 0.269077 0.0445303 0.552858
1032 4 0.267086 0.064727 0.551306
1180 2 0.275335 0.0214046 0.560014
4466 4 0.405882 0.0407634 0.521705
575 4 0.399154 0.0466327 0.502007
4465 2 0.423421 0.0261204 0.531861
1062 4 0.492323 0.0146344 0.559708
86 1 0.456885 0.0124126 0.5751
88 3 0.473595 0.00110158 0.563644
4467 4 0.44096 0.0114774 0.542018
89 3 0.436997 0.0113381 0.563196
858 4 0.137321 0.0944751 0.539204
1219 2 0.133433 0.128672 0.525843
1220 4 0.123804 0.108991 0.537889
1221 4 0.143063 0.148353 0.513797
1212 4 0.131599 0.162714 0.50757
1225 2 0.245436 0.153171 0.552472
1226 4 0.246012 0.128188 0.551648
1031 4 0.242165 0.108032 0.553388
514 2 0.480228 0.158735 0.557895
305 4 0.45619 0.145305 0.577749
515 4 0.459871 0.144222 0.557559
1270 2 0.0162815 0.248265 0.566461
1272 4 0.999857 0.246753 0.547669
879 4 0.0108283 0.239991 0.531267
1227 4 0.24486 0.178154 0.553296
909 4 0.235666 0.19588 0.548813
907 2 0.243735 0.203386 0.571257
266 4 0.389496 0.240285 0.585337
888 4 0.38118 0.226042 0.575504
516 4 0.500586 0.173249 0.558231
1010 4 0.437352 0.227432 0.503936
346 2 0.0925585 0.2418 0.51177
327 4 0.127863 0.255763 0.533091
347 4 0.110992 0.244836 0.528389
325 2 0.142913 0.263127 0.514532
790 2 0.236532 0.330873 0.545129
791 4 0.249229 0.319961 0.563701
1191 4 0.255963 0.300637 0.561442
1189 2 0.25547 0.2792 0.574302
812 4 0.311858 0.305101 0.50615
811 2 0.312286 0.329964 0.508765
265 2 0.408158 0.254715 0.577049
872 4 0.444132 0.278755 0.563239
267 4 0.42682 0.269144 0.56876
871 2 0.468782 0.276622 0.559634
873 4 0.493432 0.274488 0.55603
1178 4 0.046881 0.405575 0.548892
1177 2 0.0230905 0.39807 0.5472
1179 4 0.9993 0.390565 0.545508
1166 4 0.132411 0.36113 0.586254
792 4 0.223835 0.341785 0.526558
813 4 0.312714 0.354826 0.511381
1238 4 0.317901 0.374011 0.514854
1237 2 0.328976 0.380386 0.536345
1239 4 0.340052 0.386761 0.557836
1029 4 0.344803 0.369012 0.56523
1587 4 0.334995 0.475891 0.504125
1585 2 0.326741 0.497282 0.514098
1909 2 0.436929 0.446482 0.511062
1911 4 0.441415 0.44214 0.535274
1268 4 0.434072 0.427587 0.547562
1267 2 0.432261 0.445561 0.564849
1891 2 0.130267 0.00923741 0.645739
1893 4 0.129823 0.030369 0.659097
950 4 0.190111 0.0412668 0.593845
949 2 0.203342 0.0486863 0.613722
1092 4 0.230716 0.0450914 0.641199
951 4 0.216572 0.0561058 0.633599
1090 2 0.238594 0.0372951 0.663612
42 3 0.324557 0.0413062 0.660081
4225 2 0.403851 0.0680459 0.633486
4227 4 0.384613 0.0697017 0.649371
90 3 0.462928 0.0341519 0.578188
809 4 0.441079 0.0737248 0.619144
808 2 0.456403 0.058086 0.60707
810 4 0.471727 0.0424472 0.594996
2283 4 0.48204 0.0225901 0.652583
2281 2 0.47605 0.0106474 0.631449
4226 4 0.42309 0.0663901 0.617602
87 3 0.453837 0.00241181 0.59559
33 3 0.058178 0.0817372 0.633609
32 3 0.0707141 0.111936 0.652144
31 1 0.0526196 0.0980529 0.649143
35 3 0.0349553 0.110281 0.641587
852 4 0.004788 0.131501 0.67307
34 3 0.0472979 0.0881702 0.669451
899 4 0.353479 0.13719 0.647633
1193 4 0.368917 0.077919 0.637984
1194 4 0.351906 0.124645 0.632696
1192 2 0.360411 0.101282 0.63534
898 2 0.359484 0.157058 0.633692
304 2 0.449087 0.132773 0.598186
306 4 0.441985 0.120241 0.618624
1154 4 0.018995 0.24837 0.60019
1271 4 0.0327062 0.249776 0.585252
1240 2 0.193196 0.253556 0.596874
1241 4 0.198401 0.239468 0.616864
1278 4 0.198294 0.221033 0.626129
1276 2 0.192628 0.203139 0.642648
1277 4 0.186962 0.185245 0.659167
908 4 0.251804 0.210892 0.593701
1284 4 0.264049 0.226925 0.589929
1283 4 0.282612 0.223765 0.636256
1282 2 0.27333 0.225345 0.613093
1004 4 0.296906 0.224509 0.650716
886 2 0.377311 0.205602 0.589375
900 4 0.36549 0.176926 0.61975
887 4 0.373441 0.185162 0.603247
1153 2 0.0201057 0.257159 0.623571
1155 4 0.0212163 0.265948 0.646953
1242 4 0.18799 0.267644 0.576883
1190 4 0.254977 0.257763 0.587162
802 2 0.266652 0.303276 0.654734
806 4 0.289933 0.319472 0.627289
804 4 0.27091 0.31268 0.631961
805 2 0.313263 0.32047 0.618349
1028 4 0.348178 0.328741 0.594685
895 2 0.0966698 0.377807 0.578225
897 4 0.119971 0.369642 0.574278
896 4 0.0733688 0.385972 0.582173
993 4 0.0946307 0.40304 0.63893
991 2 0.0972939 0.378766 0.644299
992 4 0.099957 0.354491 0.649668
1167 4 0.179606 0.349593 0.598097
918 4 0.197444 0.352018 0.604608
1165 2 0.156008 0.355361 0.592176
916 2 0.207785 0.348727 0.627134
1136 4 0.211762 0.353784 0.666699
917 4 0.218127 0.345437 0.64966
1160 4 0.245643 0.422631 0.65285
1159 2 0.260509 0.410713 0.63666
807 4 0.336592 0.321468 0.60941
1161 4 0.275376 0.398794 0.62047
1008 4 0.303214 0.334064 0.670142
1172 4 0.283212 0.407392 0.603904
1027 2 0.346491 0.348877 0.579957
3023 4 0.477376 0.337365 0.641945
1139 4 0.472518 0.355557 0.648919
3022 2 0.496688 0.34454 0.627777
2014 2 0.0826337 0.436834 0.657988
2015 4 0.0989339 0.42064 0.648127
1041 4 0.105166 0.496058 0.615783
2154 4 0.236877 0.442532 0.652619
2152 2 0.214609 0.453838 0.653831
2153 4 0.192341 0.465144 0.655043
1173 4 0.309429 0.447308 0.589068
1171 2 0.296321 0.42735 0.596486
890 4 0.313166 0.459038 0.605116
889 2 0.336896 0.459451 0.612984
1001 4 0.369516 0.470597 0.635455
891 4 0.360626 0.459863 0.620853
1000 2 0.369444 0.493356 0.645808
1269 4 0.43045 0.463536 0.582135
2285 4 0.0644486 0.0768382 0.670626
1081 2 0.00745572 0.0179646 0.67783
2284 2 0.0797349 0.0709361 0.689512
1082 4 0.00956062 0.0420283 0.671374
2286 4 0.0950212 0.065034 0.708398
862 2 0.0959463 0.0441005 0.741539
864 4 0.106199 0.0532668 0.720658
2399 4 0.132463 0.0291209 0.679022
2398 2 0.137534 0.0271741 0.703429
2400 4 0.142606 0.0252272 0.727835
1149 4 0.146769 0.0329378 0.745379
1147 2 0.171194 0.0381562 0.746559
43 3 0.294615 0.0219215 0.671929
1091 4 0.246472 0.0294988 0.686025
1050 4 0.255511 0.0429813 0.700479
45 3 0.29754 0.0587907 0.678982
2321 4 0.315527 0.0257004 0.716217
41 1 0.309135 0.0392871 0.677029
1048 2 0.2632 0.0651801 0.709039
2320 2 0.307246 0.0203005 0.739183
44 3 0.320316 0.0347051 0.696838
979 2 0.360543 0.0411667 0.711396
981 4 0.383888 0.0499709 0.713031
1111 2 0.405328 0.0678175 0.745437
1112 4 0.397318 0.0527144 0.727191
980 4 0.337198 0.0323625 0.709761
4462 2 0.492969 0.999808 0.686246
3131 4 0.0112702 0.110622 0.743976
3392 4 0.0223574 0.0994952 0.757384
943 2 0.0369545 0.14645 0.686725
944 4 0.0217054 0.126952 0.683196
945 4 0.0522035 0.165949 0.690253
1256 4 0.264785 0.15974 0.725654
1049 4 0.270889 0.0873789 0.717598
1023 4 0.267975 0.14426 0.712994
1022 4 0.258296 0.095864 0.704942
1021 2 0.263135 0.120062 0.708968
1113 4 0.413337 0.0829206 0.763684
833 4 0.0505957 0.207234 0.734461
3245 4 0.0328477 0.202278 0.742327
796 2 0.159618 0.192932 0.688557
797 4 0.139169 0.202493 0.699307
695 4 0.138177 0.222313 0.695515
694 2 0.122072 0.240248 0.702161
696 4 0.105968 0.258183 0.708807
798 4 0.180067 0.18337 0.677806
1255 2 0.258761 0.173262 0.745804
1005 4 0.307524 0.201149 0.693637
1003 2 0.302215 0.212829 0.672176
831 4 0.327205 0.200412 0.692553
829 2 0.335827 0.203839 0.715772
830 4 0.344449 0.207265 0.73899
1298 4 0.467463 0.237671 0.731235
953 4 0.464714 0.217679 0.735653
952 2 0.464647 0.206355 0.713361
954 4 0.46458 0.19503 0.691069
1258 2 0.106263 0.298048 0.706156
1259 4 0.0948003 0.27583 0.706522
1260 4 0.117726 0.320266 0.705791
1208 4 0.127337 0.338665 0.707141
1266 4 0.237645 0.27151 0.759826
803 4 0.262393 0.293872 0.677507
1297 2 0.477107 0.253086 0.748398
1213 2 0.0765819 0.363106 0.738101
1214 4 0.0627694 0.345406 0.749104
1215 4 0.0903943 0.380807 0.727097
821 4 0.105912 0.391903 0.73156
1209 4 0.101445 0.3596 0.669831
1207 2 0.114391 0.349133 0.688486
1135 2 0.206694 0.371374 0.683731
1137 4 0.201625 0.388964 0.700763
948 4 0.204071 0.37484 0.71437
946 2 0.199743 0.365884 0.73731
1006 2 0.299843 0.352966 0.686159
1007 4 0.296472 0.371868 0.702175
1067 4 0.280884 0.377626 0.715088
1066 2 0.286075 0.401227 0.721509
1068 4 0.291266 0.424828 0.72793
1176 4 0.292817 0.426807 0.747227
1018 2 0.417238 0.38519 0.745501
1019 4 0.39855 0.399706 0.737425
1101 4 0.388138 0.415251 0.730714
1138 2 0.466452 0.372871 0.665908
1140 4 0.460387 0.390185 0.682896
1206 4 0.470011 0.398486 0.699047
2016 4 0.0663334 0.453028 0.667849
3432 4 0.0746347 0.471513 0.662707
3430 2 0.0709403 0.489912 0.67923
990 4 0.016712 0.501837 0.746197
2352 4 0.190552 0.478758 0.669727
2350 2 0.177437 0.496246 0.681866
1230 4 0.286319 0.432407 0.682801
1229 4 0.314416 0.473707 0.680432
1228 2 0.300368 0.453057 0.681616
2987 4 0.406378 0.467255 0.743105
1204 2 0.487015 0.416765 0.697664
2986 2 0.422158 0.485984 0.748145
1203 4 0.0970344 0.0078986 0.819156
912 4 0.0671376 0.0294909 0.766447
910 2 0.0551053 0.00800241 0.770766
863 4 0.0856931 0.0349342 0.76242
1148 4 0.195618 0.0433746 0.747739
1895 4 0.182322 0.00826849 0.82879
1894 2 0.203355 0.0209715 0.833419
2322 4 0.298966 0.0149005 0.76215
1143 4 0.292081 0.00257537 0.77795
3401 4 0.462701 0.00822135 0.821604
3254 4 0.473378 0.0242614 0.825239
3391 2 0.00946934 0.0851021 0.773256
832 2 0.0600819 0.221607 0.752588
834 4 0.0695681 0.23598 0.770716
920 4 0.0798302 0.220755 0.776141
3244 2 0.0107516 0.198174 0.753286
919 2 0.0982397 0.223502 0.792836
921 4 0.116649 0.22625 0.809531
1074 4 0.121428 0.243897 0.802954
1292 4 0.196863 0.246565 0.806584
1291 2 0.213015 0.241348 0.824943
1131 4 0.263446 0.202131 0.770819
1257 4 0.252737 0.186785 0.765954
1129 2 0.270145 0.222631 0.783471
1130 4 0.276843 0.243131 0.796122
801 4 0.275709 0.263408 0.79459
978 4 0.360132 0.20279 0.752625
976 2 0.367115 0.215429 0.773038