ITEM: TIMESTEP
5300000
ITEM: NUMBER OF ATOMS
4590
ITEM: BOX BOUNDS pp pp pp
-9.9985700000000008e+00 9.9985700000000008e+00
-9.9985700000000008e+00 9.9985700000000008e+00
-9.9985700000000008e+00 9.9985700000000008e+00
ITEM: ATOMS id type xs ys zs
701 4 0.00990702 0.0882931 0.0112834
1633 2 0.118629 0.0073691 0.0285017
1635 4 0.129667 0.00814301 0.0509237
1634 4 0.107591 0.00659518 0.00607964
837 4 0.141375 0.0788655 0.0279909
1134 4 0.16122 0.0776552 0.0296722
1605 4 0.143132 0.00865452 0.066212
1603 2 0.159634 0.00465794 0.0845671
566 4 0.245907 0.0475411 0.0740061
1475 4 0.228006 0.0517387 0.0791394
567 4 0.288489 0.0484535 0.0478021
565 2 0.267198 0.0479973 0.0609041
653 4 0.282928 0.0654022 0.0377358
2264 4 0.26012 0.00673145 0.00740608
2263 2 0.28193 0.0177656 0.0126746
2265 4 0.30374 0.0287998 0.0179432
553 2 0.0781472 0.136745 0.00353431
554 4 0.101643 0.131319 0.0101455
836 4 0.107845 0.11529 0.0209403
835 2 0.12461 0.0970776 0.0244656
1132 2 0.182519 0.0886136 0.0224995
933 4 0.218701 0.111032 0.00651795
1133 4 0.203817 0.0995719 0.0153268
652 2 0.283952 0.0887164 0.0287592
654 4 0.284977 0.112031 0.0197825
491 4 0.304169 0.123831 0.0228023
490 2 0.304985 0.145319 0.0355605
54 3 0.291979 0.123863 0.00264378
492 4 0.305801 0.166808 0.0483187
460 2 0.374709 0.112231 0.0419331
462 4 0.379176 0.118494 0.0657239
2469 4 0.375686 0.129398 0.0812546
461 4 0.370242 0.105968 0.0181423
1086 4 0.36209 0.0982774 0.000716803
2623 2 0.00772737 0.243824 0.05372
2523 4 0.0112289 0.240279 0.0230927
2624 4 0.0195997 0.240271 0.0754365
476 4 0.122514 0.225434 0.00700969
360 4 0.264525 0.216855 0.040155
358 2 0.277856 0.195737 0.0389429
359 4 0.291188 0.174619 0.0377308
354 4 0.262447 0.229577 0.0254934
352 2 0.250546 0.249517 0.0162214
322 2 0.38598 0.226182 0.0380822
254 4 0.353291 0.22988 0.0615692
323 4 0.361889 0.230917 0.0428129
324 4 0.410071 0.221448 0.0333514
253 2 0.350674 0.21022 0.0767948
519 4 0.425229 0.225644 0.0215851
518 4 0.449446 0.186287 0.0406971
517 2 0.437338 0.205966 0.0311411
769 2 0.489585 0.181755 0.0378982
770 4 0.468301 0.194857 0.0385948
292 2 0.0541184 0.315136 0.00480715
294 4 0.0419465 0.324071 0.0247365
620 4 0.0238831 0.314364 0.0269773
619 2 0.00109704 0.315814 0.037169
456 4 0.155184 0.307045 0.062926
482 4 0.154116 0.320768 0.0488099
481 2 0.168597 0.306569 0.0341852
483 4 0.183077 0.29237 0.0195606
353 4 0.238646 0.269456 0.00694953
672 4 0.345361 0.276645 0.073379
670 2 0.357884 0.298005 0.0698992
1304 4 0.36688 0.326337 0.00612375
671 4 0.370408 0.319364 0.0664194
609 4 0.387003 0.314892 0.0774479
1305 4 0.409833 0.300904 0.00313689
1303 2 0.388357 0.31362 0.00463032
1095 4 0.488264 0.275274 0.0793802
2872 2 0.0322016 0.384946 0.00843204
2874 4 0.011596 0.380598 0.0219112
657 4 0.00913443 0.385952 0.0424021
1288 2 0.196661 0.378872 0.0183614
252 4 0.217662 0.388476 0.046723
250 2 0.224146 0.410419 0.056804
1289 4 0.202166 0.394146 0.0373765
607 2 0.395253 0.338479 0.0783034
608 4 0.403504 0.362067 0.079159
524 4 0.412277 0.359754 0.0459092
523 2 0.411557 0.362554 0.0210733
1672 2 0.40253 0.399695 0.0790048
495 4 0.487469 0.335447 0.0276815
1674 4 0.421856 0.385906 0.071158
552 4 0.00805238 0.427136 0.0375745
2358 4 0.132368 0.493661 0.0015713
251 4 0.230631 0.432363 0.0668849
793 2 0.244735 0.463113 0.0643326
795 4 0.241863 0.44347 0.0795344
794 4 0.247608 0.482755 0.0491308
243 4 0.250797 0.499883 0.0621559
955 2 0.340448 0.428732 0.0153307
957 4 0.360068 0.432741 0.0303025
17 3 0.0268215 0.0724696 0.13929
381 4 0.0252756 0.0536551 0.141938
379 2 0.0142072 0.0390973 0.124887
380 4 0.0031387 0.0245396 0.107836
463 2 0.0822505 0.064492 0.14737
450 4 0.102282 0.0372206 0.121072
448 2 0.111827 0.0186614 0.134843
465 4 0.092678 0.0433085 0.139141
1474 2 0.22992 0.0444708 0.102987
1476 4 0.231835 0.0372028 0.126834
1604 4 0.176135 0.000661358 0.102922
1769 4 0.25144 0.0332141 0.134251
1768 2 0.262683 0.037792 0.15611
987 4 0.358792 0.00882973 0.0884818
985 2 0.377361 0.025535 0.0873438
986 4 0.39593 0.0422402 0.0862058
2975 4 0.412974 0.05223 0.0844775
630 4 0.451459 0.0125807 0.124195
2974 2 0.429328 0.0379056 0.0968274
2976 4 0.445683 0.0235812 0.109177
464 4 0.0718231 0.0856756 0.155598
16 1 0.0306207 0.0933488 0.148166
19 3 0.0323122 0.108676 0.130827
2481 4 0.0233839 0.126696 0.123473
20 3 0.0132879 0.0989575 0.161832
18 3 0.0504108 0.0928661 0.160271
2479 2 0.00255192 0.129368 0.109906
235 2 0.153134 0.147156 0.165064
236 4 0.175648 0.157993 0.164134
2467 2 0.370846 0.153137 0.0874375
311 4 0.351329 0.0985988 0.120989
310 2 0.368239 0.105443 0.138088
312 4 0.38515 0.112288 0.155186
2723 4 0.489924 0.0906404 0.124073
647 4 0.0280804 0.249379 0.147613
646 2 0.00654818 0.249383 0.134903
361 2 0.073191 0.250248 0.139824
277 2 0.135345 0.24476 0.154526
363 4 0.0977952 0.24843 0.135762
278 4 0.118022 0.247591 0.13672
754 2 0.302769 0.224998 0.150137
755 4 0.293479 0.205828 0.163228
756 4 0.31206 0.244168 0.137046
2468 4 0.366005 0.176875 0.0936204
23 3 0.370682 0.16664 0.141944
255 4 0.348057 0.19056 0.0920204
21 1 0.36888 0.187545 0.132037
24 3 0.357045 0.185892 0.112147
22 3 0.357532 0.20158 0.146298
25 3 0.38962 0.196069 0.128052
759 4 0.390133 0.211771 0.14148
309 4 0.370899 0.216066 0.146404
757 2 0.413769 0.219575 0.143849
527 4 0.496266 0.233772 0.13248
758 4 0.437405 0.227379 0.146219
528 4 0.446401 0.237523 0.132183
526 2 0.471334 0.235648 0.132331
362 4 0.0485867 0.252067 0.143886
535 2 0.125702 0.301308 0.133085
454 2 0.14494 0.315522 0.0841009
455 4 0.134695 0.323999 0.105276
536 4 0.130292 0.303725 0.108626
537 4 0.121113 0.298892 0.157545
572 4 0.32091 0.262282 0.134791
573 4 0.344529 0.266304 0.090897
571 2 0.33272 0.264293 0.112844
622 2 0.488668 0.304403 0.165861
597 4 0.495936 0.272849 0.0969004
749 4 0.0457282 0.397693 0.162722
748 2 0.0553742 0.413675 0.146087
345 4 0.256743 0.336373 0.0852227
343 2 0.267153 0.358445 0.0906675
344 4 0.277564 0.380516 0.0961124
498 4 0.295262 0.376779 0.0891751
496 2 0.316033 0.388617 0.0964961
497 4 0.336805 0.400454 0.103817
1673 4 0.383205 0.413484 0.0868516
541 2 0.494494 0.400986 0.122467
13 3 0.462113 0.414598 0.160831
750 4 0.0650201 0.429657 0.129453
601 2 0.0792703 0.463726 0.125527
602 4 0.0803597 0.48504 0.112498
603 4 0.078181 0.442413 0.138556
1429 2 0.288239 0.497166 0.161916
1430 4 0.27072 0.495897 0.144122
1584 4 0.39201 0.478675 0.123675
1575 4 0.395683 0.465147 0.138213
1573 2 0.399812 0.467285 0.16278
543 4 0.487608 0.424496 0.127468
11 1 0.454941 0.435481 0.167963
645 4 0.492641 0.459706 0.171527
14 3 0.44147 0.445191 0.151757
689 4 0.0613729 0.0265317 0.218176
688 2 0.0614157 0.00889599 0.200451
1464 4 0.0759914 0.0348926 0.22869
1462 2 0.0940042 0.0522334 0.228817
1463 4 0.112017 0.0695741 0.228944
732 4 0.124123 0.0596687 0.241689
1504 2 0.224405 0.0668946 0.222472
1506 4 0.232857 0.0436982 0.218514
1621 2 0.254808 0.0128795 0.205077
1623 4 0.267711 0.0301674 0.192436
1770 4 0.273927 0.0423699 0.177969
474 4 0.291014 0.0558856 0.241417
472 2 0.285216 0.079855 0.237291
578 4 0.0707096 0.0997757 0.169169
577 2 0.0918633 0.113104 0.169421
579 4 0.113017 0.126432 0.169673
237 4 0.13062 0.136319 0.165994
1505 4 0.215952 0.090091 0.22643
721 2 0.206352 0.143555 0.182123
723 4 0.228558 0.145524 0.193447
722 4 0.184147 0.141587 0.170799
693 4 0.239729 0.137283 0.207899
691 2 0.258474 0.130206 0.222856
692 4 0.277219 0.123128 0.237813
473 4 0.279418 0.103824 0.233164
764 4 0.376175 0.108951 0.171381
763 2 0.379651 0.125191 0.190072
765 4 0.383127 0.141431 0.208763
744 4 0.389962 0.154798 0.220772
742 2 0.41344 0.162802 0.223916
333 4 0.448272 0.160839 0.239112
512 4 0.125081 0.229577 0.242483
737 4 0.143539 0.223886 0.248524
611 4 0.330165 0.232158 0.235849
307 2 0.363117 0.232843 0.163231
308 4 0.355335 0.24962 0.180058
610 2 0.335515 0.234486 0.211536
612 4 0.340865 0.236815 0.187223
743 4 0.436918 0.170806 0.227061
760 2 0.48708 0.226189 0.196052
762 4 0.471523 0.245078 0.201187
279 4 0.152669 0.241928 0.172333
511 2 0.124019 0.251612 0.230713
300 4 0.140557 0.281645 0.218961
513 4 0.122957 0.273646 0.218943
298 2 0.136285 0.292261 0.19673
299 4 0.132013 0.302878 0.174499
708 4 0.406396 0.30235 0.214832
707 4 0.370286 0.277455 0.238852
706 2 0.388341 0.289902 0.226842
387 4 0.403035 0.324809 0.188748
741 4 0.420218 0.32275 0.198777
520 2 0.447517 0.267347 0.230845
522 4 0.456977 0.251835 0.213668
623 4 0.477381 0.292401 0.184669
740 4 0.467087 0.305392 0.197128
739 2 0.443652 0.314071 0.197953
365 4 0.00473103 0.378833 0.209971
364 2 0.0164065 0.390234 0.191027
366 4 0.028082 0.401636 0.172083
386 4 0.391227 0.365786 0.214866
385 2 0.397131 0.345297 0.201807
2537 4 0.37525 0.378723 0.211388
2536 2 0.371416 0.38964 0.233554
1431 4 0.305759 0.498434 0.17971
660 4 0.342798 0.495266 0.228009
639 4 0.361245 0.487046 0.229019
638 4 0.404639 0.480207 0.205126
637 2 0.382942 0.483627 0.217072
1574 4 0.403942 0.469424 0.187348
15 3 0.472896 0.448844 0.172171
643 2 0.491277 0.484337 0.175606
12 3 0.442694 0.432943 0.187269
3800 4 0.491413 0.436745 0.172135
316 2 0.0609253 0.0471815 0.316823
317 4 0.0481502 0.0680921 0.31185
1469 4 0.0674024 0.0065868 0.321762
399 4 0.0537532 0.077443 0.328774
318 4 0.0737004 0.026271 0.321795
730 2 0.142752 0.0592126 0.25836
731 4 0.161382 0.0587564 0.275031
1700 4 0.233293 0.013034 0.28352
1406 4 0.177808 0.00190038 0.295761
1701 4 0.184493 0.00407111 0.27728
1699 2 0.208893 0.00855258 0.2804
1830 4 0.286287 0.047095 0.258216
1828 2 0.302675 0.0310232 0.26813
1829 4 0.319064 0.0149515 0.278044
378 4 0.258931 0.0612414 0.305719
1495 2 0.348465 0.00544977 0.291686
1496 4 0.337091 0.0235065 0.278657
397 2 0.0521767 0.10234 0.330461
529 2 0.0407247 0.157368 0.330074
531 4 0.0311241 0.134345 0.328346
398 4 0.0506003 0.127237 0.332148
376 2 0.272544 0.0818927 0.309378
29 3 0.273804 0.111959 0.263554
28 3 0.298506 0.109082 0.292294
26 1 0.290022 0.123094 0.275859
683 4 0.296743 0.122843 0.316045
377 4 0.286157 0.102544 0.313037
30 3 0.306814 0.130012 0.262118
27 3 0.280438 0.14142 0.285931
582 4 0.274023 0.16131 0.288978
682 2 0.319843 0.124435 0.325483
725 4 0.355693 0.11191 0.329083
349 2 0.496781 0.106469 0.292239
331 2 0.456945 0.148264 0.258906
351 4 0.478958 0.122147 0.284382
332 4 0.465619 0.135689 0.2787
530 4 0.0503252 0.18039 0.331803
2655 4 0.0459128 0.195431 0.317239
2653 2 0.0425169 0.215798 0.33134
736 2 0.166672 0.22102 0.257568
738 4 0.189806 0.218154 0.266613
284 4 0.192389 0.227162 0.284377
283 2 0.212856 0.214569 0.291281
285 4 0.233323 0.201975 0.298186
581 4 0.252476 0.204302 0.302695
580 2 0.263249 0.182806 0.295837
2717 4 0.0140416 0.309629 0.284732
389 4 0.0847928 0.262503 0.310317
388 2 0.0905437 0.279796 0.293198
390 4 0.0962945 0.297089 0.276079
372 4 0.0995178 0.309875 0.261196
370 2 0.115875 0.326776 0.269681
767 4 0.323156 0.315877 0.266869
615 4 0.291117 0.294783 0.32702
303 4 0.311741 0.331605 0.266518
768 4 0.363417 0.294905 0.245895
766 2 0.343287 0.305391 0.256382
521 4 0.438057 0.28286 0.248022
632 4 0.428814 0.277382 0.26464
631 2 0.441327 0.290119 0.282143
633 4 0.45384 0.302857 0.299647
419 4 0.45196 0.317401 0.314185
418 2 0.472099 0.33134 0.319213
678 4 0.0536176 0.377587 0.32011
676 2 0.0708544 0.394205 0.312904
371 4 0.132231 0.343677 0.278167
402 4 0.138299 0.361701 0.28575
400 2 0.159503 0.361763 0.298999
677 4 0.0880913 0.410822 0.305698
401 4 0.180708 0.361825 0.312249
510 4 0.185096 0.372898 0.328927
301 2 0.301799 0.340688 0.287585
728 4 0.306176 0.353658 0.323003
302 4 0.291856 0.349771 0.308653
727 2 0.287829 0.365813 0.334869
2538 4 0.367581 0.400556 0.255719
120 3 0.352565 0.399149 0.329351
119 3 0.388461 0.388571 0.333506
447 4 0.350344 0.407346 0.260453
445 2 0.351806 0.406231 0.285389
446 4 0.353268 0.405116 0.310325
420 4 0.492239 0.34528 0.324241
2741 4 0.447961 0.413972 0.30936
2740 2 0.47287 0.4138 0.311526
2742 4 0.497779 0.413628 0.313692
1758 4 0.0307876 0.465365 0.309175
1790 4 0.0122031 0.464171 0.300019
735 4 0.0974192 0.428017 0.299814
733 2 0.118686 0.428652 0.286681
734 4 0.139954 0.429287 0.273548
417 4 0.157691 0.431227 0.262509
1319 4 0.160957 0.493454 0.32507
289 2 0.232114 0.45106 0.263033
416 4 0.202909 0.432517 0.283826
291 4 0.21181 0.436753 0.26591
415 2 0.1803 0.431872 0.273168
290 4 0.252417 0.465366 0.260156
1801 2 0.29034 0.495249 0.307488
1803 4 0.289117 0.481889 0.328588
712 2 0.415133 0.498006 0.270753
118 3 0.379565 0.425377 0.330252
3990 4 0.417031 0.463646 0.280028
713 4 0.418211 0.481571 0.289343
3988 2 0.433865 0.448848 0.29111
3989 4 0.450699 0.43405 0.302192
276 4 0.116084 0.0683872 0.37077
1443 4 0.113741 0.0215114 0.410836
1682 4 0.122809 0.0257118 0.393596
1681 2 0.120845 0.00921045 0.374914
274 2 0.134769 0.0779031 0.35715
1817 4 0.24375 0.0668406 0.419336
441 4 0.290493 0.00136316 0.343274
1818 4 0.260974 0.0398442 0.380927
440 4 0.265864 0.0194524 0.382858
439 2 0.278179 0.0104078 0.363066
1816 2 0.252362 0.0533424 0.400132
257 4 0.496579 0.0508807 0.38189
256 2 0.472941 0.0523531 0.389905
258 4 0.449303 0.0538254 0.397921
426 4 0.440029 0.0708858 0.396959
275 4 0.153454 0.0874191 0.34353
368 4 0.153643 0.105463 0.351915
367 2 0.157602 0.129823 0.3479
369 4 0.161561 0.154183 0.343886
684 4 0.342942 0.126028 0.33492
724 2 0.374484 0.111379 0.345569
726 4 0.393275 0.110847 0.362055
425 4 0.40655 0.0969204 0.370462
424 2 0.42329 0.0839031 0.38371
2654 4 0.039121 0.236164 0.345441
2846 4 0.021303 0.230261 0.354418
600 4 0.167371 0.172565 0.352426
247 2 0.113463 0.24928 0.402839
598 2 0.17104 0.196042 0.360208
599 4 0.17471 0.219519 0.367989
686 4 0.185634 0.223216 0.384387
685 2 0.190098 0.229116 0.408271
321 4 0.297607 0.170179 0.416427
585 4 0.412716 0.227379 0.375972
1034 4 0.0816294 0.315808 0.408116
1033 2 0.0940706 0.300171 0.393086
249 4 0.109597 0.265964 0.384622
1035 4 0.106512 0.284534 0.378057
406 2 0.22721 0.312486 0.411668
408 4 0.229576 0.324235 0.389723
614 4 0.319491 0.294122 0.368194
405 4 0.315329 0.285671 0.386815
613 2 0.305304 0.294453 0.347607
403 2 0.306928 0.293643 0.408974
583 2 0.411318 0.250765 0.384707
717 4 0.389784 0.276979 0.39466
584 4 0.40992 0.274152 0.393443
715 2 0.376054 0.292147 0.409033
617 4 0.053768 0.38031 0.339647
616 2 0.0407182 0.363829 0.353184
618 4 0.0276684 0.347348 0.366721
2693 4 0.0106194 0.356744 0.370711
442 2 0.0890165 0.359422 0.409464
443 4 0.113015 0.35587 0.403412
680 4 0.129653 0.357591 0.413573
679 2 0.13872 0.380882 0.412863
681 4 0.147787 0.404173 0.412154
508 2 0.205028 0.37809 0.343101
503 4 0.228604 0.343395 0.383087
509 4 0.224961 0.383283 0.357275
635 4 0.22716 0.397031 0.373119
502 2 0.244184 0.352345 0.3657
634 2 0.248174 0.410059 0.376844
729 4 0.269481 0.377968 0.346734
504 4 0.259764 0.361294 0.348312
668 4 0.320058 0.41319 0.405768
751 2 0.393416 0.379704 0.394616
116 1 0.372649 0.40481 0.338474
753 4 0.373571 0.390187 0.383594
752 4 0.413261 0.369221 0.405637
117 3 0.370443 0.406297 0.361323
669 4 0.358339 0.401844 0.375658
667 2 0.339199 0.407517 0.390713
268 2 0.484063 0.350384 0.368472
270 4 0.478028 0.357143 0.391776
269 4 0.490099 0.343626 0.345168
927 4 0.418977 0.350071 0.411149
588 4 0.457457 0.390091 0.38525
586 2 0.452307 0.385397 0.409263
776 4 0.0578487 0.475271 0.364267
1757 4 0.0395747 0.468107 0.358327
1756 2 0.0351812 0.466736 0.333751
775 2 0.0813408 0.482999 0.360582
1318 2 0.141814 0.488368 0.34033
1320 4 0.122671 0.483283 0.35559
777 4 0.104833 0.490726 0.356896
413 4 0.200022 0.493023 0.415734
1 1 0.298659 0.436553 0.414081
593 4 0.288471 0.466146 0.340727
636 4 0.269187 0.423088 0.380569
592 2 0.282069 0.45381 0.361511
2 3 0.315772 0.432633 0.399218
5 3 0.279813 0.442054 0.40254
594 4 0.275667 0.441473 0.382296
1442 4 0.0797711 0.00794563 0.444935
2238 4 0.0633296 0.00116495 0.435183
429 4 0.0397798 0.0794465 0.468869
719 4 0.0456135 0.0608906 0.46764
718 2 0.0523724 0.0445583 0.485325
720 4 0.0591314 0.0282261 0.50301
1441 2 0.0967561 0.0147285 0.427885
606 4 0.230747 0.0775081 0.430386
3489 4 0.40577 0.0236878 0.464609
3488 4 0.451921 0.00590464 0.471991
3487 2 0.428845 0.0147962 0.4683
427 2 0.0517431 0.0963111 0.454811
428 4 0.0637064 0.113176 0.440752
468 4 0.225725 0.141766 0.455399
466 2 0.231351 0.143061 0.479727
604 2 0.231065 0.101782 0.436373
605 4 0.231383 0.126057 0.442359
320 4 0.316782 0.131987 0.442396
319 2 0.307195 0.151083 0.429411
469 2 0.0147137 0.201034 0.447685
471 4 0.0313215 0.195954 0.465673
261 4 0.0354881 0.215504 0.465548
259 2 0.0419564 0.230717 0.484307
546 4 0.061553 0.218656 0.443005
248 4 0.117328 0.232595 0.421056
544 2 0.0862237 0.221966 0.440642
545 4 0.110894 0.225275 0.438279
7 3 0.155147 0.239317 0.457524
1211 4 0.152245 0.173364 0.494617
687 4 0.194562 0.235017 0.432155
488 4 0.203033 0.227704 0.449392
487 2 0.226248 0.218546 0.447859
9 3 0.188694 0.224106 0.465
6 1 0.177699 0.243622 0.458947
411 4 0.290575 0.185083 0.426691
489 4 0.249464 0.209387 0.446327
410 4 0.263078 0.222674 0.444898
409 2 0.276826 0.203879 0.435794
2850 4 0.0801414 0.320444 0.427109
2848 2 0.0579593 0.320695 0.438644
2849 4 0.0357771 0.320947 0.45018
4434 4 0.0247532 0.335331 0.44229
10 3 0.18525 0.250838 0.438709
326 4 0.173709 0.271547 0.493517
8 3 0.18121 0.259999 0.475005
375 4 0.179497 0.281957 0.474104
373 2 0.196747 0.297546 0.483301
374 4 0.213997 0.313135 0.492498
559 2 0.246563 0.332145 0.46115
407 4 0.224845 0.300738 0.433612
710 4 0.242679 0.297145 0.440698
792 4 0.225032 0.329932 0.497727
709 2 0.252729 0.27774 0.452849
711 4 0.262779 0.258336 0.464999
404 4 0.298527 0.301615 0.431134
561 4 0.268717 0.326613 0.450962
336 4 0.282778 0.323384 0.463734
650 4 0.35948 0.325238 0.478234
649 2 0.35312 0.314452 0.456592
651 4 0.34676 0.303666 0.434949
716 4 0.362324 0.307315 0.423406
812 4 0.361884 0.322157 0.498235
1009 2 0.426811 0.253311 0.494391
238 2 0.441199 0.28624 0.448936
240 4 0.446026 0.264898 0.461035
1011 4 0.429153 0.266009 0.472979
239 4 0.436372 0.307582 0.436836
926 4 0.43581 0.322707 0.449471
4432 2 0.00231319 0.344532 0.44837
444 4 0.065018 0.362974 0.415517
538 2 0.0388033 0.393236 0.420769
540 4 0.0279588 0.415116 0.415397
539 4 0.0496477 0.371357 0.426141
570 4 0.13912 0.410604 0.42961
560 4 0.224409 0.337676 0.471337
774 4 0.307317 0.403343 0.4174
3 3 0.294986 0.417322 0.426534
335 4 0.321144 0.355223 0.459858
334 2 0.301961 0.339303 0.461796
773 4 0.30657 0.367512 0.452275
772 2 0.306944 0.385428 0.434837
925 2 0.427393 0.336389 0.43031
587 4 0.447157 0.380703 0.433276
2813 4 0.0134303 0.421298 0.425674
1937 4 0.00447513 0.461059 0.471282
384 4 0.0143445 0.473221 0.457733
382 2 0.0242087 0.488617 0.440679
569 4 0.142958 0.460395 0.426989
568 2 0.141039 0.435499 0.428299
414 4 0.156187 0.474762 0.431408
412 2 0.178105 0.483892 0.423571
434 4 0.298963 0.471625 0.43989
1400 4 0.317512 0.460092 0.445232
1399 2 0.326369 0.469547 0.466618
4 3 0.304745 0.45402 0.428091
433 2 0.285134 0.488297 0.427401
1401 4 0.335226 0.479001 0.488004
880 2 0.471835 0.458139 0.484773
881 4 0.486195 0.45969 0.464362
663 4 0.500116 0.458007 0.449435
2430 4 0.0571657 0.0182626 0.564363
340 2 0.0753255 0.0195238 0.530107
341 4 0.0719248 0.0111424 0.553417
342 4 0.0787262 0.0279052 0.506797
2428 2 0.0364941 0.00516062 0.569481
857 4 0.137738 0.0526408 0.532017
1151 4 0.13955 0.0396611 0.517412
856 2 0.138175 0.077166 0.536865
1150 2 0.161974 0.0286596 0.516282
1645 2 0.205869 0.0312835 0.550408
1646 4 0.19965 0.0225428 0.527823
1152 4 0.184399 0.017658 0.515152
1647 4 0.212087 0.0400242 0.572994
1182 4 0.290719 0.0482832 0.56746
1032 4 0.296009 0.068583 0.565717
1180 2 0.293048 0.023608 0.564161
4466 4 0.409628 0.0280959 0.522673
575 4 0.408181 0.0362613 0.505219
4465 2 0.417814 0.0149464 0.542301
574 2 0.419734 0.0583905 0.503802
1062 4 0.482327 0.998512 0.55437
3009 4 0.47302 0.00202245 0.537155
88 3 0.475049 0.00214225 0.571656
3007 2 0.46432 0.000157917 0.513787
89 3 0.439547 0.0154504 0.569024
4467 4 0.426 0.0017968 0.561929
576 4 0.431287 0.0805197 0.502385
1219 2 0.144549 0.127793 0.551073
1220 4 0.12711 0.110293 0.554915
858 4 0.138612 0.101691 0.541712
1210 2 0.163842 0.163079 0.514236
1221 4 0.161989 0.145294 0.547231
1212 4 0.17544 0.152794 0.533854
467 4 0.236977 0.144356 0.504055
1227 4 0.235179 0.160986 0.562838
1030 2 0.281483 0.0862061 0.555539
1031 4 0.266957 0.103829 0.54536
1225 2 0.250262 0.142456 0.555469
1226 4 0.265346 0.123926 0.5481
514 2 0.493462 0.153857 0.536633
305 4 0.479026 0.129745 0.559294
515 4 0.497776 0.136148 0.553749
304 2 0.462123 0.117248 0.572832
1270 2 0.0216523 0.240641 0.575143
1272 4 0.00724294 0.244923 0.555163
260 4 0.0484247 0.24593 0.503067
1242 4 0.175037 0.224869 0.573249
909 4 0.22689 0.168345 0.579697
266 4 0.413712 0.215982 0.578037
265 2 0.424375 0.237566 0.571282
1024 2 0.486464 0.212465 0.512866
1025 4 0.477543 0.235637 0.509924
516 4 0.489149 0.171567 0.519518
1010 4 0.424469 0.240614 0.515803
1026 4 0.495385 0.189293 0.515809
879 4 0.015086 0.255988 0.541
348 4 0.0651803 0.254098 0.510053
346 2 0.0899581 0.253482 0.506758
347 4 0.114736 0.252866 0.503463
327 4 0.132041 0.253566 0.514521
325 2 0.152875 0.262557 0.504019
790 2 0.235354 0.326835 0.520289
791 4 0.245676 0.323738 0.54285
1189 2 0.287763 0.327064 0.55653
1190 4 0.311667 0.324072 0.563223
1191 4 0.263858 0.330057 0.549837
872 4 0.450174 0.25216 0.552497
267 4 0.435039 0.259149 0.564528
871 2 0.472063 0.260887 0.54414
873 4 0.493953 0.269615 0.535784
906 4 0.501216 0.279489 0.520118
896 4 0.101388 0.375581 0.557298
895 2 0.124322 0.372076 0.566621
897 4 0.147256 0.36857 0.575945
1166 4 0.144726 0.347324 0.575143
811 2 0.36463 0.346226 0.504426
813 4 0.367376 0.370295 0.510616
1238 4 0.369951 0.378471 0.529643
1237 2 0.37464 0.368518 0.552097
1239 4 0.379329 0.358565 0.57455
1173 4 0.310674 0.451527 0.582254
890 4 0.326858 0.448322 0.570391
889 2 0.347843 0.456869 0.580962
1587 4 0.34289 0.493634 0.498596
1909 2 0.457093 0.463064 0.541367
1911 4 0.444343 0.466322 0.562628
1910 4 0.469843 0.459806 0.520107
882 4 0.457476 0.456588 0.505183
1268 4 0.431792 0.456474 0.575274
2285 4 0.070132 0.0730582 0.647963
1892 4 0.141548 0.00143648 0.628856
1891 2 0.146918 0.00954248 0.651892
950 4 0.196723 0.050849 0.584584
949 2 0.21038 0.0446714 0.604596
1092 4 0.233178 0.0547992 0.632476
951 4 0.224038 0.0384938 0.624608
1090 2 0.240263 0.0530405 0.65639
43 3 0.299928 0.0192173 0.660486
809 4 0.463812 0.0729495 0.636566
808 2 0.468382 0.0536956 0.621282
810 4 0.472952 0.0344417 0.605999
90 3 0.465857 0.0350292 0.587519
86 1 0.458387 0.0141087 0.582501
4225 2 0.419816 0.0753533 0.638939
4226 4 0.443477 0.0698522 0.633015
2283 4 0.446339 0.00450803 0.663278
87 3 0.452844 0.00317181 0.601964
34 3 0.0602415 0.089936 0.655005
33 3 0.0327097 0.0828005 0.629796
32 3 0.055789 0.112068 0.624954
31 1 0.0446834 0.0994467 0.640656
35 3 0.0304809 0.11285 0.652373
943 2 0.0419481 0.149095 0.663212
944 4 0.0250463 0.130884 0.666019
899 4 0.355359 0.139882 0.61436
1193 4 0.392053 0.0980497 0.636012
4227 4 0.396155 0.0808544 0.644862
1194 4 0.366094 0.126713 0.604306
1192 2 0.379073 0.112381 0.620159
898 2 0.358989 0.164468 0.611618
306 4 0.445219 0.104751 0.58637
1154 4 0.0414794 0.237863 0.613896
1155 4 0.0109083 0.230624 0.652802
1153 2 0.0261938 0.234244 0.633349
1271 4 0.0360616 0.236359 0.595123
3387 4 0.00412633 0.241707 0.668805
945 4 0.0588499 0.167305 0.660405
1240 2 0.186784 0.229402 0.59485
907 2 0.241593 0.177452 0.597755
1241 4 0.198531 0.233936 0.616452
1278 4 0.203577 0.221757 0.633315
1276 2 0.200745 0.206987 0.65329
908 4 0.256295 0.186559 0.615813
1283 4 0.296888 0.203291 0.64992
1282 2 0.274984 0.203648 0.637867
1284 4 0.25308 0.204005 0.625815
1004 4 0.30066 0.185533 0.656618
888 4 0.409817 0.214529 0.598483
886 2 0.386728 0.211357 0.607538
900 4 0.36262 0.189054 0.608876
887 4 0.363638 0.208184 0.616593
1167 4 0.176798 0.322492 0.60439
918 4 0.1848 0.33282 0.620363
803 4 0.251245 0.255788 0.645676
802 2 0.269384 0.272994 0.645345
806 4 0.300644 0.303977 0.635916
804 4 0.287522 0.2902 0.645015
805 2 0.320353 0.317843 0.629248
807 4 0.340062 0.331709 0.622579
1139 4 0.485078 0.326821 0.655991
3023 4 0.491675 0.329227 0.636624
1165 2 0.160762 0.334908 0.589766
991 2 0.0880312 0.384406 0.660565
992 4 0.106585 0.36846 0.6554
916 2 0.20595 0.340962 0.630925
1136 4 0.226547 0.356295 0.659982
917 4 0.227101 0.349105 0.641486
1161 4 0.268642 0.413732 0.607566
1028 4 0.352317 0.34784 0.622854
1027 2 0.370506 0.348289 0.605704
1029 4 0.388696 0.348738 0.588554
1269 4 0.426104 0.412433 0.598269
2014 2 0.0654489 0.434522 0.665939
2016 4 0.073362 0.456653 0.657408
3432 4 0.0781602 0.476531 0.659411
2172 4 0.0120869 0.496009 0.614788
1160 4 0.224539 0.425157 0.628183
1159 2 0.24659 0.419444 0.617875
2154 4 0.211816 0.4249 0.642346
2152 2 0.211486 0.448748 0.649854
2352 4 0.19359 0.47919 0.647834
2153 4 0.211156 0.472595 0.657362
2350 2 0.187332 0.497977 0.663101
1171 2 0.298947 0.434509 0.596326
1172 4 0.287219 0.41749 0.610398
1230 4 0.279416 0.418174 0.658627
1229 4 0.305844 0.458754 0.671097
1228 2 0.29263 0.438464 0.664862
1001 4 0.366332 0.47433 0.609871
891 4 0.368828 0.465417 0.591534
1000 2 0.362616 0.497557 0.618349
1267 2 0.428948 0.434453 0.586772
1331 4 0.49079 0.474811 0.607476
862 2 0.0672464 0.0378312 0.720553
863 4 0.0634429 0.0159722 0.732081
864 4 0.0710499 0.0596902 0.709024
2284 2 0.0728824 0.0616337 0.670034
2286 4 0.0756329 0.0502091 0.692104
912 4 0.0549347 0.00617595 0.747331
1893 4 0.152288 0.0176485 0.674927
2399 4 0.144229 0.0368275 0.672918
2398 2 0.142481 0.0466231 0.695856
2400 4 0.140733 0.0564187 0.718794
1149 4 0.159463 0.0514074 0.723426
1091 4 0.247348 0.0512819 0.680304
1147 2 0.180129 0.0473268 0.736896
1050 4 0.2542 0.0481452 0.699095
45 3 0.302473 0.0435557 0.689101
2321 4 0.328357 0.000778198 0.708668
41 1 0.3128 0.0262727 0.678456
1048 2 0.267921 0.0669284 0.708266
2320 2 0.31396 0.0043198 0.728802
44 3 0.316076 0.00869166 0.693241
2322 4 0.299563 0.0078614 0.748936
1049 4 0.281643 0.0857117 0.717436
42 3 0.333253 0.0333241 0.670639
979 2 0.370122 0.00607124 0.726147
981 4 0.389178 0.0151329 0.739561
1111 2 0.40868 0.0509287 0.734712
1112 4 0.390446 0.0356067 0.742323
1113 4 0.426914 0.0662506 0.7271
2997 4 0.49636 0.0200435 0.687269
4464 4 0.485849 0.00402197 0.696142
852 4 0.0111296 0.116759 0.664659
1256 4 0.266631 0.162454 0.731941
1023 4 0.271309 0.14408 0.732564
1022 4 0.266357 0.0988205 0.711883
1021 2 0.268833 0.12145 0.722223
1005 4 0.316421 0.165761 0.699761
3114 4 0.48821 0.136111 0.685204
833 4 0.0229181 0.194766 0.728884
3245 4 0.0190279 0.191639 0.748507
832 2 0.0468959 0.200643 0.732847
834 4 0.0708737 0.206521 0.736809
920 4 0.0792588 0.221921 0.745923
796 2 0.160263 0.203288 0.695701
797 4 0.138071 0.208208 0.706117
695 4 0.118704 0.216031 0.71021
694 2 0.115347 0.24037 0.705572
1277 4 0.197913 0.192217 0.673264
798 4 0.182455 0.198367 0.685285
1003 2 0.308541 0.175647 0.678189
831 4 0.317242 0.184092 0.707117
829 2 0.330518 0.197543 0.723488
1255 2 0.263396 0.180793 0.748627
978 4 0.361166 0.220646 0.737765
830 4 0.343793 0.210994 0.739859
1298 4 0.46391 0.238508 0.748013
953 4 0.463793 0.238333 0.727954
952 2 0.452276 0.239527 0.705793
954 4 0.440759 0.240721 0.683632
1214 4 0.0580905 0.313001 0.736059
1258 2 0.114742 0.296117 0.715468
1259 4 0.111727 0.271764 0.720264
696 4 0.111989 0.26471 0.700935
1260 4 0.117757 0.320471 0.710672
2015 4 0.0575359 0.412391 0.67447
993 4 0.0694777 0.400352 0.665729
1213 2 0.0704731 0.334721 0.73633
1208 4 0.120169 0.340003 0.714915
1215 4 0.0828557 0.356442 0.736601
821 4 0.0907025 0.374702 0.740514
1209 4 0.117251 0.368703 0.674068
1207 2 0.11871 0.354353 0.694492
1135 2 0.233863 0.347133 0.682067
1137 4 0.241179 0.337972 0.704151
948 4 0.233253 0.348586 0.718969
946 2 0.218947 0.353762 0.738811
1006 2 0.300225 0.363941 0.685611
1007 4 0.282012 0.373126 0.70007
1067 4 0.27612 0.360535 0.714529
1066 2 0.268511 0.377702 0.73104
1008 4 0.318438 0.354755 0.671151
1068 4 0.260902 0.394868 0.74755
1018 2 0.404992 0.384907 0.72235
1019 4 0.391275 0.398225 0.738465
1020 4 0.418709 0.37159 0.706236
1138 2 0.476384 0.344792 0.671046
1140 4 0.467691 0.362763 0.6861
1206 4 0.455447 0.378721 0.683002
1204 2 0.453922 0.40353 0.685719
3181 2 0.481822 0.407298 0.733846
3183 4 0.474119 0.384286 0.73987
788 4 0.471154 0.366014 0.747667
2173 2 0.0659565 0.490998 0.74642
3430 2 0.0644373 0.49164 0.673853
2174 4 0.089454 0.488942 0.738124
1251 4 0.495075 0.447073 0.736236
3182 4 0.489524 0.43031 0.727822
1205 4 0.452396 0.428339 0.688436
1185 4 0.00527775 0.0536683 0.796999
910 2 0.0522582 0.00978357 0.771928
911 4 0.0495816 0.0133912 0.796524
1196 4 0.159232 0.011334 0.829082
1195 2 0.139446 0.00130801 0.817542
1895 4 0.167029 0.0272966 0.820326
1148 4 0.200796 0.0432463 0.750365
1894 2 0.190732 0.0297851 0.827886
2048 4 0.219817 0.0478178 0.82355
1896 4 0.214435 0.0322736 0.835445
2047 2 0.238283 0.0628055 0.831266
3244 2 0.00790958 0.174975 0.763469
919 2 0.0890694 0.229738 0.767553
921 4 0.09888 0.237555 0.789182
1074 4 0.107695 0.243244 0.806913
1265 4 0.191708 0.249208 0.823941
1292 4 0.209522 0.241533 0.829667
1131 4 0.269585 0.191051 0.780645
1257 4 0.260162 0.199131 0.765313
1129 2 0.27494 0.212667 0.792014
1130 4 0.280294 0.234282 0.803383
976 2 0.382419 0.225523 0.750001
1146 4 0.407908 0.222253 0.779799
1144 2 0.402438 0.219069 0.803988
977 4 0.403672 0.2304 0.762236
1145 4 0.396968 0.215885 0.828177
1297 2 0.479539 0.239722 0.767493
1299 4 0.495167 0.240936 0.786973
1105 2 0.0584181 0.295264 0.774204
1107 4 0.0510933 0.303615 0.751803
1106 4 0.0657429 0.286913 0.796605
3227 4 0.0246755 0.33232 0.826974
815 4 0.108807 0.307212 0.815763
1073 4 0.0995535 0.290536 0.820983
1072 2 0.103624 0.26689 0.813948
1266 4 0.202161 0.253982 0.775272
1264 2 0.196935 0.251595 0.799606
941 4 0.247258 0.314013 0.804337
801 4 0.281867 0.25446 0.809376
800 4 0.256754 0.2976 0.806389
799 2 0.269311 0.27603 0.807882
820 2 0.0999556 0.387181 0.760105
822 4 0.109209 0.399661 0.779696
1065 4 0.112531 0.416068 0.790036
1063 2 0.118702 0.411852 0.813896
947 4 0.204641 0.358938 0.758654
940 2 0.239187 0.337656 0.805358
868 2 0.21851 0.398965 0.812374