ITEM: TIMESTEP
490000
ITEM: NUMBER OF ATOMS
4590
ITEM: BOX BOUNDS pp pp pp
-9.9985700000000008e+00 9.9985700000000008e+00
-9.9985700000000008e+00 9.9985700000000008e+00
-9.9985700000000008e+00 9.9985700000000008e+00
ITEM: ATOMS id type xs ys zs
465 4 0.0446838 0.0603513 0.028501
463 2 0.0674102 0.0592401 0.0181349
3234 4 0.0334014 0.0761952 0.0350385
464 4 0.0901366 0.0581289 0.00776882
996 4 0.0855295 0.0379074 0.00558762
994 2 0.104188 0.0215958 0.0022756
995 4 0.122846 0.00528416 0.998964
492 4 0.231547 0.0688533 0.0278063
490 2 0.243705 0.0833599 0.011469
484 2 0.30678 0.996978 0.063461
745 2 0.451653 0.0464752 0.0449739
746 4 0.458093 0.0580304 0.0661914
747 4 0.445213 0.0349199 0.0237564
297 4 0.463484 0.0683838 0.0825448
3232 2 0.0321251 0.0922788 0.05414
590 4 0.995885 0.136657 0.0144846
3233 4 0.0308489 0.108362 0.0732414
701 4 0.0871439 0.127121 0.0591735
702 4 0.102938 0.0818561 0.0449489
700 2 0.0950411 0.104489 0.0520612
421 2 0.181681 0.161838 0.0594417
423 4 0.177732 0.163196 0.0347894
422 4 0.185631 0.160481 0.0840941
360 4 0.288107 0.114896 0.0793951
462 4 0.298852 0.132709 0.0788646
460 2 0.30252 0.147145 0.0587819
254 4 0.375593 0.145955 0.0460461
253 2 0.393023 0.162209 0.0384845
2834 4 0.00934972 0.233272 0.0217505
475 2 0.14594 0.242685 0.060402
476 4 0.158509 0.226299 0.0463067
1132 2 0.169194 0.192868 0.00828007
1134 4 0.179587 0.18107 0.0277217
352 2 0.235345 0.206132 0.0653751
354 4 0.22375 0.215992 0.085212
353 4 0.24694 0.196272 0.0455382
461 4 0.306188 0.161582 0.0386993
558 4 0.315762 0.17846 0.0435762
357 4 0.302657 0.229064 0.0201097
355 2 0.281763 0.221791 0.00845906
255 4 0.410453 0.178464 0.0309228
556 2 0.332614 0.196902 0.0425558
557 4 0.349467 0.215344 0.0415354
665 4 0.355968 0.230196 0.0282927
664 2 0.370831 0.229743 0.00819117
769 2 0.458062 0.222368 0.0539027
1013 4 0.471202 0.225026 0.0238212
771 4 0.475627 0.213992 0.0382028
1012 2 0.48554 0.231058 0.00424582
770 4 0.440497 0.230744 0.0696026
477 4 0.133371 0.259072 0.0744974
481 2 0.21514 0.314954 0.0236445
482 4 0.228008 0.303065 0.0414843
483 4 0.202272 0.326842 0.00580462
573 4 0.303403 0.251369 0.0242483
571 2 0.29554 0.266879 0.0422142
572 4 0.287677 0.282389 0.0601801
756 4 0.269221 0.273257 0.0611112
754 2 0.26032 0.284593 0.081543
956 4 0.319847 0.323842 0.0467643
672 4 0.45009 0.301845 0.070694
620 4 0.0278159 0.360717 0.0378979
619 2 0.0149902 0.349911 0.0564425
454 2 0.112581 0.402456 0.01356
505 2 0.152664 0.343306 0.0749594
506 4 0.148228 0.328016 0.0556797
456 4 0.0990379 0.381443 0.0140418
251 4 0.225373 0.402322 0.0623303
250 2 0.237286 0.41396 0.0436808
955 2 0.320384 0.348308 0.0518935
957 4 0.320921 0.372774 0.0570227
608 4 0.335107 0.383959 0.0487315
607 2 0.35118 0.392092 0.0660721
609 4 0.367253 0.400225 0.0834127
455 4 0.126124 0.423469 0.0130782
2358 4 0.152726 0.489531 0.000235376
795 4 0.145374 0.431786 0.0127641
626 4 0.166506 0.420977 0.0385421
241 2 0.188876 0.480146 0.0268585
242 4 0.194826 0.45639 0.021819
252 4 0.2492 0.425598 0.0250313
625 2 0.182231 0.417211 0.0576135
627 4 0.197956 0.413446 0.0766849
246 4 0.258748 0.434329 0.0089423
244 2 0.251568 0.456481 0.999836
525 4 0.341604 0.48323 0.0208843
272 4 0.333277 0.475717 0.00437477
226 2 0.47681 0.428462 0.0708192
562 2 0.467618 0.467527 0.0260751
227 4 0.462229 0.434481 0.0514192
563 4 0.47447 0.448729 0.0410703
564 4 0.460766 0.486325 0.0110799
1666 2 0.0552258 0.0159918 0.105202
1667 4 0.065611 0.0293907 0.123581
1806 4 0.0772397 0.0438341 0.131747
3560 4 0.0120199 0.993422 0.0930356
1805 4 0.124914 0.0306188 0.124454
449 4 0.137167 0.0209859 0.137301
1804 2 0.101077 0.0372265 0.1281
448 2 0.152493 0.00132859 0.139265
1474 2 0.252625 0.0224418 0.161817
652 2 0.289864 0.00832407 0.11497
486 4 0.30098 0.00364472 0.0868509
654 4 0.272145 0.998851 0.129852
1476 4 0.267878 0.0111153 0.145561
653 4 0.307583 0.0177968 0.100088
2723 4 0.48752 0.0619374 0.13781
379 2 0.0377334 0.157506 0.137508
380 4 0.0311474 0.170765 0.117358
381 4 0.0443194 0.144248 0.157658
20 3 0.0547018 0.0885363 0.161134
237 4 0.15565 0.113645 0.141831
579 4 0.143359 0.110215 0.158169
577 2 0.120214 0.115433 0.16606
567 4 0.199403 0.153396 0.0986125
565 2 0.217277 0.136685 0.103758
566 4 0.235151 0.119975 0.108904
235 2 0.177944 0.110169 0.152604
236 4 0.200239 0.106693 0.163377
358 2 0.271178 0.115723 0.0977773
359 4 0.254249 0.11655 0.116159
628 2 0.423449 0.124729 0.141351
295 2 0.454089 0.0877267 0.0953022
296 4 0.444693 0.10707 0.10806
629 4 0.431694 0.115485 0.119631
2469 4 0.496351 0.148103 0.082354
363 4 0.121891 0.251536 0.152819
361 2 0.107977 0.234116 0.164138
738 4 0.187667 0.232691 0.129477
736 2 0.205779 0.220549 0.11724
737 4 0.22389 0.208407 0.105003
518 4 0.453697 0.210376 0.100369
517 2 0.473543 0.215129 0.114817
519 4 0.493389 0.219881 0.129265
324 4 0.427195 0.24507 0.0757948
657 4 0.999491 0.320208 0.0805875
337 2 0.131171 0.258162 0.11634
338 4 0.131518 0.251733 0.0921794
339 4 0.130824 0.264592 0.1405
535 2 0.170259 0.314896 0.147917
277 2 0.228151 0.26151 0.160044
278 4 0.22507 0.283155 0.147913
536 4 0.183647 0.311659 0.12705
755 4 0.251418 0.295928 0.101975
740 4 0.371288 0.287064 0.124139
739 2 0.374579 0.311847 0.124531
623 4 0.416125 0.260522 0.168614
322 2 0.43062 0.269715 0.0782571
323 4 0.434045 0.29436 0.0807194
670 2 0.451566 0.319217 0.0886169
2651 4 0.498761 0.324209 0.128629
671 4 0.453042 0.336588 0.10654
262 2 0.0868598 0.409974 0.181243
507 4 0.157101 0.358597 0.0942391
263 4 0.0748099 0.424174 0.164559
741 4 0.37787 0.33663 0.124924
387 4 0.391374 0.35622 0.124092
385 2 0.384689 0.369483 0.103979
14 3 0.387914 0.343403 0.142731
11 1 0.385679 0.349157 0.165099
386 4 0.378004 0.382747 0.0838648
645 4 0.38822 0.388705 0.176858
643 2 0.410277 0.399256 0.171629
2794 2 0.999947 0.480153 0.165627
658 2 0.410751 0.467641 0.150338
228 4 0.491391 0.422444 0.0902192
659 4 0.418236 0.46261 0.127017
494 4 0.462266 0.472283 0.0942041
495 4 0.416694 0.47936 0.113539
493 2 0.43948 0.475821 0.103872
1422 4 0.0151547 0.0259776 0.184456
2479 2 0.0788177 0.0840944 0.226891
1420 2 0.995389 0.0176849 0.19733
674 4 0.0953031 0.03449 0.174095
2480 4 0.0909323 0.0790008 0.248163
673 2 0.116839 0.02359 0.180621
675 4 0.138375 0.01269 0.187146
1539 4 0.150903 0.0023937 0.199055
1475 4 0.237372 0.0337684 0.178072
1505 4 0.23724 0.0267612 0.198182
1504 2 0.221448 0.0314559 0.21699
1506 4 0.205655 0.0361505 0.235797
689 4 0.20015 0.016443 0.235902
693 4 0.198592 0.0770923 0.239014
688 2 0.180999 0.00295574 0.244648
21 1 0.35181 0.0698549 0.240628
23 3 0.373717 0.0634448 0.244797
25 3 0.349909 0.0776181 0.219303
2481 4 0.0667031 0.0891881 0.20562
17 3 0.0466015 0.124667 0.165808
19 3 0.0605438 0.104868 0.194553
16 1 0.0611058 0.107757 0.171537
18 3 0.0825196 0.113642 0.164813
578 4 0.0970691 0.120651 0.173951
723 4 0.193276 0.0935606 0.227511
721 2 0.199402 0.101911 0.204754
722 4 0.205529 0.110262 0.181996
580 2 0.249453 0.15377 0.204301
581 4 0.246835 0.158932 0.179976
582 4 0.25207 0.148608 0.228625
27 3 0.256303 0.130456 0.235763
630 4 0.415204 0.133973 0.163071
759 4 0.359979 0.0883441 0.205827
757 2 0.368986 0.109164 0.195309
758 4 0.377993 0.129983 0.184792
312 4 0.410461 0.150944 0.173745
520 2 0.452843 0.158952 0.23269
521 4 0.439405 0.152733 0.212543
511 2 0.0456738 0.191062 0.23465
513 4 0.0523617 0.199747 0.212177
393 4 0.0467171 0.187817 0.198902
391 2 0.0615195 0.199556 0.182523
392 4 0.076322 0.211294 0.166144
362 4 0.094064 0.216695 0.175457
284 4 0.247392 0.228191 0.172273
283 2 0.249437 0.203407 0.174865
285 4 0.251482 0.178622 0.177457
279 4 0.231231 0.239864 0.172176
310 2 0.409046 0.171765 0.187516
311 4 0.40763 0.192587 0.201287
763 2 0.438093 0.224889 0.203256
765 4 0.423288 0.205439 0.197992
764 4 0.452898 0.244338 0.20852
395 4 0.0182602 0.259 0.180148
394 2 0.0261614 0.276465 0.196202
396 4 0.0340626 0.29393 0.212256
537 4 0.15687 0.318132 0.168785
299 4 0.172197 0.316128 0.180741
371 4 0.165459 0.283891 0.251761
298 2 0.169805 0.327871 0.202685
370 2 0.181124 0.275114 0.234361
372 4 0.196788 0.266336 0.216962
300 4 0.167412 0.339614 0.22463
612 4 0.301329 0.292634 0.219188
610 2 0.287944 0.294462 0.198148
308 4 0.311471 0.278518 0.229839
611 4 0.274559 0.29629 0.177108
707 4 0.276828 0.239607 0.24239
622 2 0.395006 0.26381 0.181589
624 4 0.373886 0.267098 0.194564
307 2 0.331612 0.291421 0.237121
309 4 0.351753 0.304324 0.244403
526 2 0.464559 0.281971 0.197099
528 4 0.461855 0.257135 0.196075
527 4 0.467263 0.306807 0.198124
2538 4 0.458943 0.324894 0.200888
264 4 0.0989096 0.395775 0.197927
364 2 0.00527457 0.372005 0.223101
366 4 0.027049 0.368875 0.234986
15 3 0.363994 0.346728 0.171618
13 3 0.392517 0.371089 0.168358
12 3 0.398985 0.335266 0.177715
302 4 0.371428 0.383934 0.225552
301 2 0.357837 0.404253 0.230804
727 2 0.358795 0.343336 0.242576
728 4 0.366453 0.364773 0.232233
2536 2 0.451903 0.341456 0.218246
446 4 0.430076 0.399896 0.246141
2537 4 0.444863 0.358018 0.235604
644 4 0.432334 0.409807 0.166399
597 4 0.445309 0.416002 0.179632
416 4 0.146626 0.428929 0.181426
415 2 0.161735 0.444505 0.193848
417 4 0.176843 0.460081 0.206269
291 4 0.197172 0.463303 0.209437
289 2 0.219698 0.454545 0.215846
290 4 0.242223 0.445787 0.222255
768 4 0.285746 0.453249 0.224547
766 2 0.308379 0.445735 0.232061
767 4 0.331012 0.438221 0.239576
660 4 0.403267 0.472672 0.173658
1574 4 0.398484 0.492891 0.178086
303 4 0.344246 0.424573 0.236057
596 4 0.491889 0.425235 0.19531
595 2 0.468599 0.420619 0.187471
713 4 0.40306 0.479881 0.228458
712 2 0.411017 0.50137 0.238462
1402 2 0.0546822 0.0188747 0.244172
1404 4 0.0544146 0.0358383 0.262539
234 4 0.0488444 0.0553964 0.269017
232 2 0.0417647 0.0655287 0.290751
233 4 0.0346849 0.075661 0.312486
690 4 0.161848 0.989468 0.253395
732 4 0.152166 0.0172018 0.327128
731 4 0.186695 0.0455221 0.304625
730 2 0.169431 0.0313619 0.315876
1516 2 0.350779 0.00148766 0.308833
24 3 0.337544 0.0518307 0.243793
1518 4 0.372542 0.000167894 0.321074
742 2 0.403184 0.0708098 0.259759
1517 4 0.329017 0.00280743 0.296593
1749 4 0.489397 0.0103447 0.330555
2663 4 0.489615 0.0129428 0.254047
333 4 0.438839 0.0700356 0.276123
331 2 0.437133 0.0693905 0.30106
743 4 0.426519 0.0627327 0.263683
318 4 0.0447967 0.0900124 0.322362
529 2 0.0688729 0.157458 0.276463
530 4 0.0830099 0.137467 0.28153
398 4 0.0833643 0.145668 0.300165
397 2 0.0976362 0.136856 0.318708
545 4 0.157929 0.157308 0.272381
691 2 0.212507 0.0891141 0.255956
247 2 0.222703 0.141938 0.278438
249 4 0.211202 0.163777 0.282436
248 4 0.234204 0.120099 0.274441
692 4 0.226422 0.101136 0.272898
29 3 0.254329 0.120391 0.271922
30 3 0.280087 0.105011 0.249171
26 1 0.268688 0.124107 0.254078
28 3 0.283594 0.141102 0.259311
22 3 0.346031 0.086582 0.255324
744 4 0.379849 0.078887 0.255834
632 4 0.364638 0.090537 0.262122
631 2 0.367646 0.114198 0.269627
633 4 0.370653 0.137858 0.277131
522 4 0.466282 0.165171 0.252837
761 4 0.456951 0.111275 0.293954
760 2 0.463609 0.131244 0.28046
762 4 0.470267 0.151213 0.266966
512 4 0.0389859 0.182377 0.257123
531 4 0.054736 0.177449 0.271396
618 4 0.0600845 0.260043 0.29063
544 2 0.16172 0.167992 0.294667
404 4 0.22583 0.223532 0.273485
405 4 0.224731 0.176253 0.289737
546 4 0.165512 0.178676 0.316953
403 2 0.22528 0.199893 0.281611
706 2 0.281611 0.23385 0.266247
708 4 0.286394 0.228094 0.290104
377 4 0.295036 0.239373 0.304682
376 2 0.299148 0.233615 0.328664
614 4 0.366601 0.239995 0.324999
443 4 0.00148945 0.284964 0.309623
444 4 0.0467105 0.275016 0.290734
616 2 0.0827442 0.258333 0.30106
442 2 0.0241 0.27999 0.300179
617 4 0.105404 0.256622 0.31149
388 2 0.141195 0.276024 0.318851
389 4 0.116434 0.272605 0.318218
390 4 0.165955 0.279443 0.319483
402 4 0.172188 0.298234 0.320859
400 2 0.191657 0.313901 0.320029
401 4 0.211127 0.329567 0.3192
344 4 0.252583 0.326767 0.289174
497 4 0.294606 0.29664 0.301502
496 2 0.280125 0.317021 0.301206
729 4 0.351136 0.321899 0.25292
542 4 0.417775 0.299402 0.272062
541 2 0.416596 0.324313 0.273851
750 4 0.0179566 0.335051 0.293252
748 2 0.0168825 0.34723 0.271442
749 4 0.0158084 0.359409 0.249631
678 4 0.0799074 0.353735 0.29399
676 2 0.102001 0.364526 0.289453
733 2 0.16504 0.389733 0.276402
677 4 0.124095 0.375318 0.284916
735 4 0.143636 0.377918 0.281644
734 4 0.186444 0.401547 0.271161
343 2 0.2388 0.340432 0.27341
345 4 0.225017 0.354096 0.257647
510 4 0.226256 0.342558 0.324298
498 4 0.265645 0.337403 0.300911
543 4 0.415417 0.349225 0.275639
447 4 0.409761 0.368212 0.279068
117 3 0.474244 0.379181 0.311906
445 2 0.419919 0.384054 0.262605
120 3 0.48973 0.41113 0.300401
116 1 0.478886 0.400965 0.317656
118 3 0.45894 0.411975 0.322055
603 4 0.0454097 0.439873 0.275613
601 2 0.0671223 0.42992 0.283008
602 4 0.0888349 0.419967 0.290402
775 2 0.102498 0.489573 0.320389
777 4 0.115287 0.473085 0.334165
437 4 0.303746 0.485139 0.326979
230 4 0.355523 0.472233 0.279569
1802 4 0.382709 0.498723 0.308034
229 2 0.353272 0.496924 0.276336
1772 4 0.0176618 0.0471921 0.332936
1771 2 0.0221204 0.0242759 0.341888
316 2 0.0487605 0.0866643 0.346821
317 4 0.0527244 0.0833162 0.371281
429 4 0.150051 0.00996722 0.346375
1818 4 0.302645 0.00435351 0.407141
1816 2 0.284323 0.0195185 0.399427
1817 4 0.266001 0.0346835 0.391713
426 4 0.332519 0.0377471 0.41449
424 2 0.34308 0.0536844 0.398377
699 4 0.369377 0.00986534 0.338841
698 4 0.374603 0.0323105 0.383221
697 2 0.37199 0.0210879 0.361031
258 4 0.392734 0.0426814 0.384185
256 2 0.415294 0.0533412 0.385795
425 4 0.353641 0.0696218 0.382263
332 4 0.435426 0.0687454 0.325996
257 4 0.437854 0.0640009 0.387406
2879 4 0.452813 0.0676553 0.399689
2878 2 0.476246 0.0698198 0.408137
641 4 0.440756 0.0759211 0.413789
2655 4 0.0227328 0.167611 0.390447
399 4 0.111908 0.128044 0.337251
605 4 0.201752 0.113658 0.418016
604 2 0.213074 0.10727 0.396657
606 4 0.224396 0.100883 0.375298
473 4 0.248551 0.14954 0.330743
472 2 0.270792 0.150705 0.342108
474 4 0.293032 0.15187 0.353472
682 2 0.321514 0.160597 0.362219
683 4 0.303915 0.169004 0.346573
684 4 0.339113 0.15219 0.377864
725 4 0.348685 0.135503 0.372336
726 4 0.361348 0.0877351 0.379991
724 2 0.355016 0.111619 0.376163
351 4 0.450929 0.0723606 0.338655
453 4 0.491405 0.111787 0.372874
350 4 0.483055 0.10587 0.357248
349 2 0.466992 0.0891155 0.347952
2850 4 0.999086 0.224768 0.381023
2654 4 0.00555528 0.214245 0.396005
2653 2 0.014144 0.190928 0.393226
600 4 0.170629 0.171659 0.334475
598 2 0.189585 0.18544 0.34319
685 2 0.229998 0.212085 0.387485
686 4 0.216059 0.204028 0.368354
599 4 0.208541 0.199221 0.351905
687 4 0.243936 0.220142 0.406616
378 4 0.30326 0.227857 0.352645
613 2 0.371662 0.233049 0.348479
715 2 0.346368 0.230884 0.405921
716 4 0.364465 0.228683 0.388808
615 4 0.376722 0.226102 0.371959
419 4 0.415549 0.199622 0.392088
418 2 0.4314 0.209815 0.375656
420 4 0.447251 0.220009 0.359224
269 4 0.457833 0.233005 0.370211
270 4 0.460657 0.280444 0.354646
268 2 0.459245 0.256725 0.362429
585 4 0.446106 0.287776 0.411006
504 4 0.168725 0.362531 0.392347
508 2 0.221213 0.363337 0.337259
509 4 0.21617 0.384116 0.350219
502 2 0.183469 0.374666 0.376206
503 4 0.198213 0.386802 0.360066
336 4 0.383732 0.369313 0.382975
334 2 0.374784 0.376709 0.40512
2508 4 0.496654 0.374903 0.379556
561 4 0.427895 0.354564 0.387452
752 4 0.48743 0.414015 0.402835
559 2 0.433024 0.348653 0.411199
549 4 0.0183009 0.435584 0.351544
547 2 0.0356323 0.449231 0.363315
548 4 0.0529638 0.462878 0.375086
501 4 0.0510506 0.466458 0.393778
499 2 0.0719386 0.479249 0.398805
413 4 0.12111 0.454632 0.337181
412 2 0.13397 0.458735 0.358228
414 4 0.14683 0.462838 0.379274
1395 4 0.101708 0.48269 0.420243
569 4 0.151587 0.480031 0.387984
500 4 0.0928266 0.492039 0.403832
568 2 0.159403 0.467195 0.407967
436 2 0.28472 0.499441 0.334637
435 4 0.313761 0.469333 0.332741
433 2 0.330884 0.469242 0.35096
2 3 0.347026 0.504356 0.411542
3 3 0.378132 0.483381 0.409286
5 3 0.348238 0.475628 0.387748
434 4 0.348008 0.469151 0.36918
1 1 0.354956 0.483021 0.408214
3990 4 0.49182 0.492164 0.339667
751 2 0.478251 0.431423 0.387411
753 4 0.469072 0.448831 0.371988
2584 2 0.998855 0.0793856 0.440091
2586 4 0.0054667 0.0571405 0.430784
720 4 0.0911921 0.0650474 0.430683
1523 4 0.147396 0.0127138 0.494399
718 2 0.109538 0.0653931 0.447668
368 4 0.139956 0.0718581 0.478949
719 4 0.127883 0.0657389 0.464653
342 4 0.160032 0.0212228 0.481665
340 2 0.181599 0.0254648 0.493583
1152 4 0.194041 0.0904695 0.457277
962 4 0.222156 0.0347739 0.508109
843 4 0.330668 0.0551932 0.49534
841 2 0.355194 0.0599345 0.496424
642 4 0.414433 0.0723118 0.456154
1217 4 0.397581 0.0552081 0.501775
2880 4 0.499679 0.0719844 0.416586
3488 4 0.499206 0.0681608 0.435988
3487 2 0.497499 0.0587373 0.459085
640 2 0.427595 0.0741164 0.434972
3489 4 0.495792 0.0493137 0.482181
2585 4 0.992243 0.101631 0.449397
457 2 0.0104415 0.120364 0.476117
470 4 0.0267703 0.15678 0.478154
459 4 0.0276671 0.136945 0.483434
469 2 0.0433738 0.174727 0.48339
367 2 0.144444 0.0961921 0.482539
369 4 0.148932 0.120526 0.48613
320 4 0.200329 0.132978 0.423555
1150 2 0.203335 0.0882416 0.480381
319 2 0.208062 0.155905 0.42986
468 4 0.411586 0.128069 0.467609
576 4 0.390218 0.130029 0.46428
574 2 0.387811 0.152235 0.475517
467 4 0.450164 0.126925 0.435811
466 2 0.430875 0.127497 0.45171
2846 4 0.0244188 0.216058 0.434398
983 4 0.0190389 0.254936 0.483232
471 4 0.0599774 0.192674 0.488625
2847 4 0.030013 0.253953 0.466544
2845 2 0.0272159 0.235006 0.450471
1035 4 0.095365 0.199099 0.483487
259 2 0.0840698 0.227078 0.47736
1033 2 0.0961059 0.175035 0.490238
261 4 0.0750428 0.204778 0.48417
275 4 0.182741 0.239885 0.467698
274 2 0.189029 0.221352 0.452136
276 4 0.195317 0.202819 0.436574
321 4 0.215794 0.178831 0.436166
411 4 0.2309 0.190525 0.440668
409 2 0.252861 0.197338 0.450491
410 4 0.274821 0.204151 0.460314
489 4 0.291127 0.21477 0.460312
487 2 0.300299 0.236093 0.451019
717 4 0.328272 0.233085 0.423034
267 4 0.358293 0.189037 0.50441
265 2 0.369983 0.207002 0.491534
266 4 0.381673 0.224966 0.478657
515 4 0.448568 0.212985 0.499286
304 2 0.45204 0.241296 0.469821
305 4 0.442932 0.221389 0.481902
260 4 0.0930969 0.249379 0.47055
347 4 0.0940141 0.316109 0.461015
348 4 0.0977809 0.266244 0.460957
346 2 0.0958975 0.291176 0.460986
373 2 0.208991 0.316648 0.465648
374 4 0.222058 0.295455 0.46795
375 4 0.195924 0.33784 0.463346
649 2 0.313876 0.295224 0.462607
488 4 0.309472 0.257416 0.441726
650 4 0.323038 0.314732 0.475283
651 4 0.304713 0.275716 0.449932
813 4 0.321559 0.300474 0.491459
306 4 0.461147 0.261203 0.457741
584 4 0.472776 0.276758 0.451847
583 2 0.459441 0.282267 0.431427
327 4 0.0883201 0.328973 0.474913
325 2 0.0955805 0.33548 0.497938
407 4 0.125349 0.358446 0.44146
408 4 0.0916886 0.394473 0.433107
680 4 0.101689 0.410776 0.439094
406 2 0.108519 0.37646 0.437283
710 4 0.169992 0.379975 0.431277
709 2 0.17482 0.358168 0.442516
636 4 0.167862 0.39487 0.442377
711 4 0.179649 0.336361 0.453755
634 2 0.170057 0.419758 0.443375
587 4 0.365691 0.40065 0.438614
335 4 0.365835 0.384105 0.427265
240 4 0.398021 0.394322 0.485354
927 4 0.486797 0.385373 0.430383
560 4 0.438153 0.342741 0.434946
238 2 0.420065 0.391356 0.473933
239 4 0.44211 0.388391 0.462512
925 2 0.46808 0.395679 0.44337
926 4 0.449364 0.405985 0.456357
681 4 0.0722786 0.444871 0.460848
679 2 0.0869839 0.427824 0.449971
538 2 0.0768268 0.480185 0.461124
539 4 0.0601719 0.461619 0.459358
540 4 0.0934817 0.49875 0.462889
384 4 0.144364 0.49597 0.48101
570 4 0.167219 0.454359 0.42795
635 4 0.172252 0.444645 0.444373
667 2 0.348237 0.475757 0.464948
588 4 0.349008 0.445505 0.453123
668 4 0.351778 0.463502 0.443443
592 2 0.406172 0.455603 0.429279
586 2 0.357349 0.423077 0.445868
669 4 0.344697 0.488013 0.486452
594 4 0.386283 0.467175 0.419498
4 3 0.346473 0.469192 0.424804
662 4 0.492972 0.486771 0.483537
1332 4 0.483652 0.490348 0.500522
593 4 0.426061 0.44403 0.43906
1126 2 0.0762172 0.0422372 0.549559
1127 4 0.0626824 0.0273689 0.534695
2237 4 0.0642592 0.0102972 0.52437
1128 4 0.0897521 0.0571056 0.564422
939 4 0.0752711 0.0710588 0.568178
2236 2 0.065368 0.99969 0.501755
2430 4 0.200131 0.011777 0.516627
2428 2 0.202619 0.00444695 0.540402
961 2 0.247113 0.0361629 0.50873
341 4 0.203167 0.0297069 0.5055
963 4 0.272071 0.0375518 0.50935
430 2 0.303687 0.0543798 0.516724
432 4 0.278896 0.0520144 0.518957
431 4 0.328478 0.0567453 0.514491
842 4 0.37972 0.0646759 0.497508
1216 2 0.39896 0.037921 0.519787
1218 4 0.40034 0.0206339 0.537799
2196 4 0.3907 0.00593181 0.528915
90 3 0.414611 0.0257526 0.573073
86 1 0.413387 0.00408217 0.566178
89 3 0.395834 0.00151176 0.551222
1060 2 0.473371 0.995145 0.544516
1062 4 0.454395 0.99934 0.560248
937 2 0.0827717 0.0922347 0.579155
1153 2 0.133352 0.130997 0.576286
1155 4 0.143442 0.108334 0.573161
1034 4 0.0968467 0.150971 0.496988
1181 4 0.222905 0.0916875 0.519982
1151 4 0.212629 0.0860136 0.503486
1180 2 0.247628 0.0885279 0.521963
1182 4 0.272352 0.0853683 0.523944
1030 2 0.296688 0.120162 0.534516
1032 4 0.286925 0.0981907 0.52765
1031 4 0.306451 0.142133 0.541382
887 4 0.336707 0.150686 0.580217
886 2 0.315304 0.163611 0.580265
877 2 0.0583579 0.208644 0.541818
982 2 0.0264803 0.247006 0.505747
984 4 0.0339217 0.239075 0.528261
1200 4 0.0202422 0.193401 0.546783
878 4 0.0408404 0.220637 0.528609
879 4 0.0758754 0.196651 0.555028
1198 2 0.0151356 0.179932 0.567221
1272 4 0.0914296 0.198395 0.567361
1220 4 0.198213 0.207487 0.566348
858 4 0.192001 0.193847 0.553922
856 2 0.188858 0.202638 0.530727
857 4 0.185716 0.211428 0.507531
888 4 0.2939 0.176536 0.580313
575 4 0.385404 0.174441 0.486754
516 4 0.435749 0.170643 0.522599
514 2 0.442159 0.191814 0.510942
696 4 0.106014 0.302726 0.56596
694 2 0.0956463 0.282168 0.575711
6 1 0.133426 0.316447 0.538976
9 3 0.125394 0.308208 0.559126
10 3 0.140362 0.299247 0.52576
8 3 0.151032 0.331057 0.542846
1259 4 0.114893 0.324904 0.566798
790 2 0.237222 0.280094 0.576721
791 4 0.234429 0.256607 0.568611
803 4 0.228082 0.30854 0.569022
811 2 0.327845 0.293634 0.514673
812 4 0.334131 0.286794 0.537886
1238 4 0.330031 0.330272 0.572083
873 4 0.395242 0.292071 0.548782
871 2 0.382705 0.31102 0.538344
872 4 0.370169 0.329969 0.527907
905 4 0.478969 0.264761 0.561375
1010 4 0.492758 0.275903 0.553631
904 2 0.457781 0.272748 0.57198
7 3 0.116513 0.327839 0.52833
326 4 0.102841 0.341986 0.520962
1161 4 0.143843 0.408327 0.581333
802 2 0.226109 0.333454 0.568259
804 4 0.224136 0.358368 0.567495
1173 4 0.289756 0.41559 0.550526
930 4 0.331211 0.338887 0.553803
774 4 0.358463 0.383005 0.521408
929 4 0.343928 0.38349 0.535106
928 2 0.33757 0.361189 0.544454
772 2 0.361748 0.407513 0.52512
1938 4 0.0309501 0.455893 0.532611
1936 2 0.0348181 0.462883 0.556304
935 4 0.0290614 0.436383 0.526369
1937 4 0.0386862 0.469873 0.579997
934 2 0.00600507 0.430286 0.518858
1172 4 0.258183 0.453399 0.541909
1171 2 0.273969 0.434494 0.546217
891 4 0.310292 0.41447 0.553028
889 2 0.325378 0.430226 0.565248
890 4 0.340464 0.445982 0.577468
773 4 0.365033 0.43202 0.528832
1001 4 0.404977 0.432857 0.573261
1000 2 0.390101 0.447983 0.586494
1330 2 0.466523 0.493548 0.518453
1331 4 0.449394 0.496749 0.536385
1059 4 0.127619 0.0176568 0.578036
2319 4 0.165762 0.005952 0.605944
945 4 0.114609 0.0297245 0.643682
2318 4 0.132553 0.0233921 0.639015
943 2 0.101372 0.045944 0.657353
2317 2 0.149158 0.0146721 0.62248
824 4 0.252945 0.0425259 0.628131
823 2 0.229267 0.0429272 0.636155
825 4 0.205589 0.0433285 0.644178
951 4 0.25035 0.0330276 0.61037
950 4 0.282007 0.998502 0.592864
949 2 0.266178 0.0157646 0.601617
4467 4 0.419948 0.0307733 0.591175
2283 4 0.398398 0.0121085 0.650284
4466 4 0.449948 0.0692582 0.580239
4465 2 0.434948 0.0500158 0.585707
1081 2 0.0353055 0.134326 0.664351
1082 4 0.0128857 0.125342 0.657884
938 4 0.0902723 0.113411 0.590132
1154 4 0.123263 0.15366 0.579411
1271 4 0.113615 0.162861 0.594671
909 4 0.172513 0.130254 0.655144
1284 4 0.228755 0.119432 0.620335
908 4 0.218611 0.126115 0.636207
907 2 0.195562 0.128185 0.645676
1004 4 0.285803 0.084085 0.641439
1282 2 0.248022 0.10543 0.627944
1283 4 0.267289 0.0914275 0.635554
1003 2 0.29936 0.0987368 0.656497
900 4 0.357817 0.14977 0.582225
898 2 0.364761 0.156649 0.605239
899 4 0.371704 0.163529 0.628253
1199 4 0.010029 0.166464 0.587659
1270 2 0.102523 0.180628 0.581016
1221 4 0.189911 0.218069 0.614512
1219 2 0.194062 0.212778 0.59043
1212 4 0.221783 0.178125 0.65676
830 4 0.306117 0.175571 0.668573
978 4 0.291767 0.189462 0.661733
1194 4 0.382642 0.179946 0.623245
1192 2 0.403421 0.190654 0.632119
1193 4 0.4242 0.201362 0.640992
695 4 0.085279 0.26161 0.585462
946 2 0.132303 0.294373 0.657509
948 4 0.108216 0.287992 0.655439
947 4 0.15639 0.300754 0.659578
792 4 0.240014 0.30358 0.584831
798 4 0.217859 0.25875 0.64115
1189 2 0.201374 0.291894 0.627317
1190 4 0.209954 0.268492 0.625344
1191 4 0.192793 0.315296 0.62929
796 2 0.225005 0.250668 0.663706
906 4 0.436594 0.280736 0.582585
954 4 0.440946 0.313748 0.637351
952 2 0.434431 0.297154 0.619818
953 4 0.427916 0.280561 0.602285
3122 4 0.453924 0.308834 0.651323
3121 2 0.47545 0.321532 0.652074
1244 4 0.0838961 0.338882 0.618117
1243 2 0.0618234 0.350235 0.621133
1245 4 0.0397507 0.361587 0.624149
1159 2 0.124679 0.410185 0.597285
1160 4 0.105515 0.412044 0.613237
1258 2 0.108075 0.335274 0.588504
1209 4 0.0937006 0.355658 0.639652
1260 4 0.101257 0.345644 0.610211
1207 2 0.113858 0.359463 0.653948
993 4 0.0933316 0.406912 0.656791
1136 4 0.189504 0.40824 0.634108
1135 2 0.200925 0.386506 0.638841
1137 4 0.212345 0.364773 0.643574
1029 4 0.341573 0.347223 0.631298
1027 2 0.341108 0.341155 0.65555
1239 4 0.352775 0.34319 0.614704
1237 2 0.341403 0.336731 0.593393
1040 4 0.0265146 0.456095 0.588456
1039 2 0.0280605 0.45464 0.613369
1041 4 0.0296063 0.453186 0.638283
3430 2 0.00681265 0.500316 0.653179
2170 2 0.079731 0.488344 0.65576
2171 4 0.0880928 0.46677 0.646281
992 4 0.0747978 0.453241 0.653491
3431 4 0.0047289 0.479212 0.666425
896 4 0.158538 0.418916 0.591242
991 2 0.0840647 0.430076 0.655141
895 2 0.175211 0.436441 0.597572
897 4 0.191884 0.453966 0.603902
1953 4 0.385864 0.477468 0.607264
1002 4 0.375226 0.46311 0.599726
1951 2 0.371992 0.498267 0.607605
1267 2 0.479214 0.434376 0.635184
1268 4 0.461042 0.434728 0.652355
1100 4 0.454389 0.43814 0.671838
1269 4 0.497386 0.434023 0.618013
944 4 0.0881344 0.0621635 0.671023
863 4 0.0926679 0.060637 0.691008
862 2 0.100987 0.0523783 0.713093
864 4 0.109307 0.0441196 0.735179
2400 4 0.262969 0.0261105 0.736388
2399 4 0.312962 0.0257872 0.735272
2398 2 0.287966 0.0259488 0.73583
1149 4 0.248246 0.0194487 0.725621
1049 4 0.332474 0.0315858 0.737115
1048 2 0.342014 0.0338384 0.714113
1143 4 0.405037 0.0505061 0.723727
1141 2 0.411924 0.0392402 0.74496
1050 4 0.351555 0.036091 0.691111
1163 4 0.471411 0.0508431 0.701223
2321 4 0.439094 0.0310441 0.692819
42 3 0.465115 0.0675396 0.691861
41 1 0.44308 0.0681895 0.698435
45 3 0.436642 0.0474051 0.705159
2320 2 0.445994 0.0121387 0.707657
43 3 0.44093 0.0832093 0.71599
1162 2 0.493695 0.0408463 0.695867
1083 4 0.0577252 0.14331 0.670818
852 4 0.069947 0.128046 0.670061
850 2 0.0926667 0.135717 0.677144
851 4 0.115386 0.143387 0.684226
1225 2 0.215441 0.139176 0.726198
1226 4 0.195976 0.125705 0.734248
1227 4 0.234907 0.152648 0.718148
1005 4 0.312916 0.113389 0.671554
831 4 0.304716 0.127714 0.68301
829 2 0.305416 0.151643 0.675791
44 3 0.430096 0.0750783 0.680481
1146 4 0.472783 0.157315 0.729132
1144 2 0.451917 0.157319 0.742909
1214 4 0.0611243 0.203508 0.750869
1278 4 0.163875 0.220352 0.739839
1210 2 0.208409 0.181977 0.677532
797 4 0.232152 0.242585 0.686262
1211 4 0.195035 0.185828 0.698304
1276 2 0.179091 0.212976 0.72142
1277 4 0.194307 0.205599 0.703001
976 2 0.289447 0.203931 0.681991
977 4 0.287128 0.218401 0.70225
918 4 0.298847 0.212314 0.718453
916 2 0.28281 0.218112 0.73674
1064 4 0.172072 0.303965 0.699723
1063 2 0.186935 0.324069 0.700063
1007 4 0.334165 0.30338 0.72305
1166 4 0.350615 0.292363 0.718761
1167 4 0.363069 0.291248 0.670342
1165 2 0.356842 0.291805 0.694551
1206 4 0.415983 0.336783 0.678085
3275 4 0.000966681 0.404669 0.679888
821 4 0.118311 0.332344 0.73105
1208 4 0.134016 0.363268 0.668243
892 2 0.154759 0.375731 0.699625
894 4 0.135922 0.363566 0.688563
893 4 0.173595 0.387896 0.710687
941 4 0.182542 0.402774 0.720781
1065 4 0.201797 0.344172 0.700402
940 2 0.181156 0.410965 0.744364
806 4 0.332153 0.350492 0.736647
1028 4 0.340644 0.335087 0.679801
807 4 0.332296 0.352563 0.686683
805 2 0.332224 0.351528 0.711665
1204 2 0.409495 0.346149 0.700342
1205 4 0.403006 0.355514 0.722598
1019 4 0.389856 0.368176 0.728484
1018 2 0.404515 0.375398 0.747409
4424 4 0.0132522 0.443838 0.737461
1067 4 0.181259 0.471248 0.741649
1068 4 0.223119 0.463231 0.715492
1066 2 0.202189 0.46724 0.72857
1176 4 0.241875 0.466096 0.722666
1174 2 0.262901 0.473764 0.733814
1138 2 0.32098 0.467004 0.726993
1140 4 0.297178 0.473291 0.731364
1175 4 0.283928 0.481432 0.744962
1139 4 0.344783 0.460717 0.722623
1229 4 0.363609 0.456158 0.729452
1228 2 0.376515 0.450782 0.708723
1230 4 0.389421 0.445407 0.687993
1101 4 0.408168 0.450955 0.685984
3329 4 0.491616 0.452516 0.736218
1099 2 0.431278 0.444547 0.678911
1294 2 0.0224636 0.0472038 0.812222
912 4 0.0588852 0.0453795 0.823171
1295 4 0.0469206 0.0510737 0.808749
910 2 0.079192 0.059922 0.824323
1896 4 0.124693 0.0142375 0.820089
2048 4 0.104092 0.00938417 0.816443
911 4 0.0994988 0.0744645 0.825476
1257 4 0.257486 0.0556743 0.758818
1255 2 0.270208 0.0668552 0.777211
1256 4 0.28293 0.0780362 0.795605
1086 4 0.350269 0.0424337 0.83035
1142 4 0.418811 0.0279743 0.766192
1113 4 0.436208 0.0398199 0.767359
846 4 0.449905 0.0202697 0.815881
1111 2 0.451767 0.0511584 0.783314
1112 4 0.467326 0.0624968 0.799268
981 4 0.476418 0.0768863 0.810746
844 2 0.470281 0.00873856 0.824658
979 2 0.478714 0.0801392 0.835431
1202 4 0.108934 0.0878466 0.814324
1201 2 0.118779 0.110811 0.813378
1203 4 0.128624 0.133775 0.812432
1287 4 0.13672 0.145936 0.825204
33 3 0.121183 0.143148 0.795949
31 1 0.137406 0.159716 0.795085