ITEM: TIMESTEP
2790000
ITEM: NUMBER OF ATOMS
4590
ITEM: BOX BOUNDS pp pp pp
-9.9985700000000008e+00 9.9985700000000008e+00
-9.9985700000000008e+00 9.9985700000000008e+00
-9.9985700000000008e+00 9.9985700000000008e+00
ITEM: ATOMS id type xs ys zs
3752 4 0.0762986 0.0329797 0.0515972
3751 2 0.0536656 0.0242495 0.0455385
465 4 0.0762208 0.0364777 0.0712953
463 2 0.0831139 0.053894 0.0878585
379 2 0.013288 0.0524675 0.0710421
3753 4 0.0310326 0.0155192 0.0394797
381 4 0.0213352 0.0678381 0.0890467
422 4 0.214348 0.0272698 0.0215252
421 2 0.192057 0.0370816 0.0158673
1634 4 0.23281 0.0195219 0.0175714
423 4 0.169766 0.0468934 0.0102093
1633 2 0.233764 0.997907 0.0301041
490 2 0.260506 0.0787286 0.0337836
654 4 0.302939 0.0726402 0.0412245
491 4 0.282942 0.0689731 0.0389446
652 2 0.317372 0.0537648 0.0490091
653 4 0.331805 0.0348895 0.0567937
486 4 0.349693 0.0271384 0.0619526
484 2 0.372517 0.0282513 0.0721019
1608 4 0.405871 0.0127872 0.0769002
485 4 0.395341 0.0293642 0.0822512
745 2 0.460224 0.0340864 0.0482404
746 4 0.47135 0.0143877 0.0588876
297 4 0.463414 0.0137291 0.0775698
747 4 0.449099 0.053785 0.0375933
986 4 0.445755 0.0878451 0.0232336
985 2 0.425916 0.075239 0.0147091
630 4 0.43628 0.0712962 0.0754566
360 4 0.241021 0.163824 0.0160006
492 4 0.23807 0.0884842 0.0286225
358 2 0.253535 0.170387 0.0366283
2976 4 0.45302 0.0761211 0.0653022
769 2 0.442122 0.136161 0.0400975
2469 4 0.440111 0.138139 0.0795495
2974 2 0.473811 0.0899686 0.0642347
771 4 0.452819 0.131298 0.0180267
770 4 0.431426 0.141024 0.0621683
1013 4 0.467126 0.123343 0.00643984
2624 4 0.00501665 0.188656 0.0407074
354 4 0.24078 0.165549 0.995711
353 4 0.198355 0.191822 0.992457
352 2 0.219568 0.178686 0.994084
359 4 0.266049 0.17695 0.057256
460 2 0.300993 0.192054 0.0488673
461 4 0.317388 0.206091 0.0362439
462 4 0.284597 0.178017 0.0614907
573 4 0.282127 0.241234 0.0681685
357 4 0.273413 0.235086 0.0509509
556 2 0.355786 0.193248 0.0475064
557 4 0.374555 0.185283 0.0619787
518 4 0.391264 0.1953 0.0580068
558 4 0.337016 0.201212 0.0330341
517 2 0.410692 0.210912 0.056007
519 4 0.43012 0.226524 0.0540072
1095 4 0.43431 0.227996 0.0334244
1093 2 0.436574 0.2436 0.0140188
475 2 0.0942029 0.297395 0.05619
476 4 0.0938822 0.298074 0.0311977
477 4 0.0945235 0.296715 0.0811823
456 4 0.156856 0.314297 0.0634925
483 4 0.190569 0.275181 0.048146
481 2 0.183078 0.29665 0.058546
287 4 0.183807 0.258484 0.0377651
286 2 0.172644 0.255784 0.0155552
482 4 0.175588 0.318119 0.0689459
355 2 0.282154 0.250314 0.0331498
356 4 0.290895 0.265542 0.0153486
1304 4 0.296784 0.284819 0.0158381
1303 2 0.314095 0.298488 0.00406429
608 4 0.323557 0.328999 0.0714693
957 4 0.310425 0.324936 0.0574334
607 2 0.347021 0.321031 0.074802
671 4 0.375858 0.294011 0.0753302
1094 4 0.438839 0.259203 0.994613
620 4 0.0645572 0.352468 0.0282446
619 2 0.0487349 0.357393 0.0469685
294 4 0.0749452 0.356263 0.0107967
621 4 0.0329126 0.362317 0.0656924
657 4 0.0229246 0.344496 0.0725231
552 4 0.0153095 0.379498 0.0394295
550 2 0.0037656 0.400286 0.0471611
455 4 0.127339 0.343585 0.0912714
536 4 0.113544 0.350854 0.0756104
292 2 0.0961263 0.34559 0.0187114
1169 4 0.132549 0.338281 0.0136456
293 4 0.117307 0.334918 0.0266261
454 2 0.142098 0.328941 0.077382
956 4 0.299712 0.365319 0.0299528
955 2 0.305069 0.345127 0.0436931
903 4 0.301407 0.367865 0.00944064
282 4 0.47806 0.367987 0.00546345
854 4 0.492652 0.37868 0.999265
251 4 0.143342 0.44389 0.0244464
795 4 0.123419 0.441462 0.0233603
793 2 0.119704 0.465302 0.0168032
794 4 0.115988 0.489143 0.0102462
250 2 0.167467 0.437342 0.0238981
252 4 0.191592 0.430794 0.0233499
64 3 0.302581 0.477515 0.009111
61 1 0.313418 0.486323 0.0276412
63 3 0.320682 0.469164 0.0414688
464 4 0.090007 0.0713103 0.104422
20 3 0.0451898 0.089418 0.122399
567 4 0.275388 0.0389658 0.102915
565 2 0.253771 0.0265988 0.100693
566 4 0.232153 0.0142319 0.0984704
674 4 0.221598 0.005925 0.114283
310 2 0.431592 0.0627103 0.152582
295 2 0.472185 0.0127312 0.100963
311 4 0.437692 0.0542784 0.129847
629 4 0.422394 0.0507242 0.118869
296 4 0.480956 0.0117334 0.124357
628 2 0.429337 0.0610102 0.0971629
17 3 0.0372347 0.0812637 0.0868589
16 1 0.0432797 0.0980292 0.101403
19 3 0.0269474 0.114508 0.10106
18 3 0.0636169 0.10689 0.0945996
2481 4 0.0276661 0.120118 0.119829
578 4 0.0761177 0.105321 0.110695
577 2 0.0990137 0.101866 0.120129
579 4 0.12191 0.0984103 0.129564
237 4 0.134552 0.113785 0.132806
235 2 0.15782 0.119795 0.13971
236 4 0.181088 0.125805 0.146613
2467 2 0.428603 0.149892 0.0983811
279 4 0.174364 0.244145 0.148851
737 4 0.176694 0.229037 0.161377
736 2 0.192189 0.214704 0.174781
571 2 0.283412 0.24062 0.0931315
572 4 0.284697 0.240006 0.118094
253 2 0.394811 0.193474 0.135182
254 4 0.377819 0.206773 0.147815
322 2 0.356971 0.234088 0.133978
323 4 0.352978 0.251533 0.116516
324 4 0.360964 0.216643 0.151439
255 4 0.411802 0.180175 0.122548
2468 4 0.417095 0.161644 0.117213
2650 2 0.486432 0.218003 0.122801
2651 4 0.468718 0.200358 0.122576
527 4 0.459524 0.201674 0.140688
526 2 0.450292 0.199308 0.163804
300 4 0.0749849 0.328305 0.167588
363 4 0.104255 0.258849 0.140167
298 2 0.0737894 0.334721 0.143451
338 4 0.0789283 0.293531 0.094056
339 4 0.0887729 0.270554 0.137367
337 2 0.0838506 0.282043 0.115711
361 2 0.115652 0.253845 0.161853
277 2 0.182166 0.248436 0.125486
278 4 0.189969 0.252727 0.102122
755 4 0.231918 0.248837 0.162011
754 2 0.249859 0.243362 0.145479
756 4 0.2678 0.237887 0.128946
609 4 0.370485 0.313063 0.0781347
672 4 0.370627 0.260369 0.111958
670 2 0.373242 0.27719 0.0936442
739 2 0.415791 0.318881 0.148523
740 4 0.431135 0.306486 0.133157
624 4 0.487215 0.280572 0.126428
622 2 0.46773 0.296223 0.125679
623 4 0.448245 0.311874 0.12493
705 4 0.00098859 0.347725 0.128728
656 4 0.0207898 0.351965 0.121923
655 2 0.0218572 0.34823 0.0972232
537 4 0.0749787 0.356588 0.106924
299 4 0.0725939 0.341136 0.119314
535 2 0.0942615 0.353721 0.0912672
345 4 0.24511 0.413834 0.17277
344 4 0.269507 0.381996 0.142906
496 2 0.31208 0.380608 0.153915
498 4 0.289746 0.378192 0.142937
343 2 0.257309 0.397915 0.157838
741 4 0.400447 0.331275 0.163889
387 4 0.388093 0.347215 0.158655
386 4 0.351945 0.381516 0.154479
385 2 0.370019 0.364366 0.156567
497 4 0.334414 0.383025 0.164893
495 4 0.451262 0.39816 0.153898
595 2 0.457375 0.360647 0.160224
597 4 0.443405 0.379632 0.151882
493 2 0.465708 0.413021 0.139911
264 4 0.0885922 0.495127 0.175293
602 4 0.0975248 0.478112 0.178556
1439 4 0.228878 0.494108 0.124778
1438 2 0.239558 0.50344 0.104186
1573 2 0.402131 0.46953 0.138053
1582 2 0.391455 0.495296 0.0805157
1584 4 0.394243 0.478768 0.0990694
1575 4 0.406354 0.478419 0.115067
1574 4 0.397908 0.460642 0.161039
644 4 0.394641 0.450781 0.177632
494 4 0.480154 0.427882 0.125924
232 2 0.0104247 0.0538143 0.176652
234 4 0.0238381 0.0384639 0.191131
1538 4 0.0291476 0.0208099 0.195949
1537 2 0.0427756 0.000775562 0.20212
1505 4 0.241627 0.0586135 0.201235
1504 2 0.219784 0.046455 0.200762
1506 4 0.197941 0.0342965 0.20029
689 4 0.189394 0.0176056 0.194976
474 4 0.290491 0.0595712 0.261704
312 4 0.425493 0.0711423 0.175316
722 4 0.186095 0.130487 0.165294
721 2 0.191994 0.124523 0.188848
723 4 0.197894 0.118559 0.212403
693 4 0.217397 0.125648 0.217843
691 2 0.240335 0.121842 0.227037
692 4 0.263273 0.118036 0.236231
742 2 0.387382 0.146843 0.246236
743 4 0.398819 0.125332 0.24061
764 4 0.435058 0.0859379 0.183761
763 2 0.441924 0.107467 0.194464
765 4 0.448789 0.128996 0.205167
521 4 0.454058 0.142949 0.21658
520 2 0.455069 0.166644 0.20866
333 4 0.417671 0.118537 0.240078
392 4 0.0462903 0.2519 0.209266
391 2 0.0660236 0.24906 0.224356
393 4 0.0857568 0.246221 0.239446
513 4 0.0875862 0.225899 0.244382
738 4 0.207683 0.200371 0.188184
284 4 0.208797 0.217078 0.199951
283 2 0.222991 0.219355 0.220408
285 4 0.237186 0.221632 0.240866
23 3 0.369202 0.188691 0.251136
759 4 0.379992 0.197792 0.204235
25 3 0.365703 0.204721 0.217247
24 3 0.35756 0.22474 0.248078
757 2 0.402349 0.19138 0.195055
21 1 0.371287 0.208371 0.239022
22 3 0.393123 0.215518 0.240147
744 4 0.375946 0.168355 0.251861
758 4 0.424705 0.184969 0.185875
528 4 0.441059 0.196943 0.18692
522 4 0.45608 0.190339 0.20074
762 4 0.465502 0.205845 0.208669
760 2 0.488186 0.215855 0.211903
648 4 0.0587328 0.321949 0.178258
646 2 0.0494025 0.300008 0.18579
647 4 0.0400723 0.278067 0.193322
362 4 0.127049 0.24884 0.183538
389 4 0.126098 0.268778 0.187864
388 2 0.1402 0.282753 0.203063
390 4 0.154301 0.296729 0.218263
372 4 0.143927 0.310815 0.2296
308 4 0.314922 0.260073 0.245818
307 2 0.310848 0.264885 0.221623
309 4 0.306774 0.269698 0.197427
109 3 0.49508 0.302061 0.194319
106 1 0.493737 0.321725 0.182073
107 3 0.475178 0.320788 0.168514
749 4 0.0328611 0.400327 0.197803
366 4 0.0454438 0.391394 0.210257
364 2 0.0310488 0.375975 0.223681
365 4 0.0166538 0.360556 0.237106
734 4 0.171552 0.408751 0.246432
417 4 0.18606 0.399663 0.236807
415 2 0.205336 0.397039 0.221101
416 4 0.224613 0.394414 0.205394
291 4 0.238544 0.381984 0.214135
289 2 0.263195 0.383206 0.218131
768 4 0.295204 0.37047 0.235206
290 4 0.287847 0.384427 0.222127
12 3 0.41215 0.389782 0.238921
596 4 0.471345 0.341662 0.168566
108 3 0.491649 0.339854 0.196404
541 2 0.464576 0.362787 0.222285
11 1 0.429358 0.404711 0.235733
15 3 0.448762 0.395524 0.243332
543 4 0.480537 0.346534 0.211977
542 4 0.448615 0.379041 0.232593
748 2 0.0438534 0.422689 0.195738
750 4 0.0548458 0.445052 0.193673
603 4 0.0565194 0.449746 0.174729
601 2 0.0770221 0.463929 0.176643
2794 2 0.0176439 0.49628 0.183872
658 2 0.290409 0.480766 0.184031
659 4 0.270936 0.466507 0.177498
660 4 0.309881 0.495025 0.190564
645 4 0.425209 0.415115 0.194786
643 2 0.409925 0.432948 0.186209
13 3 0.431145 0.409369 0.213073
318 4 0.101422 0.0788148 0.262418
731 4 0.0890162 0.0648446 0.26811
732 4 0.123889 0.0291715 0.264637
730 2 0.106452 0.047008 0.266374
1463 4 0.133512 0.0137508 0.255378
1406 4 0.208236 0.00165981 0.324187
1701 4 0.199407 0.0179467 0.317161
1699 2 0.215627 0.0343402 0.326823
1700 4 0.231847 0.0507336 0.336484
1830 4 0.250204 0.0516489 0.326779
1828 2 0.273375 0.0609385 0.328204
1829 4 0.296545 0.0702281 0.329629
1496 4 0.315605 0.0725191 0.325336
1495 2 0.338255 0.0655509 0.33331
316 2 0.0987596 0.103458 0.265705
399 4 0.111303 0.130648 0.282955
317 4 0.0960974 0.128101 0.268993
397 2 0.107729 0.152854 0.293876
398 4 0.104154 0.175061 0.304797
29 3 0.278723 0.123438 0.253562
473 4 0.267945 0.103022 0.251486
28 3 0.271582 0.139368 0.287321
472 2 0.279218 0.0812967 0.256595
30 3 0.307059 0.135029 0.275479
26 1 0.285696 0.139389 0.268904
377 4 0.28507 0.149888 0.300306
683 4 0.302541 0.140734 0.293724
682 2 0.319809 0.134474 0.310689
27 3 0.284911 0.160116 0.258957
684 4 0.337076 0.128214 0.327654
725 4 0.352942 0.134397 0.338884
724 2 0.375292 0.12373 0.335436
726 4 0.397641 0.113064 0.331987
351 4 0.461243 0.0990599 0.291362
331 2 0.432931 0.110039 0.257969
332 4 0.448191 0.101541 0.27586
350 4 0.490384 0.103764 0.331728
349 2 0.475814 0.101412 0.311545
531 4 0.0980367 0.175661 0.323376
512 4 0.124911 0.207354 0.272016
511 2 0.106249 0.216627 0.258199
581 4 0.248186 0.204203 0.242878
580 2 0.259098 0.186237 0.256419
582 4 0.27001 0.168271 0.269959
376 2 0.275926 0.167148 0.315916
378 4 0.266782 0.184408 0.331525
632 4 0.387673 0.173275 0.267535
631 2 0.391042 0.180384 0.291269
633 4 0.394411 0.187494 0.315002
419 4 0.410559 0.19816 0.321271
418 2 0.435457 0.196198 0.32008
269 4 0.472438 0.208946 0.325558
420 4 0.460355 0.194237 0.318889
268 2 0.486081 0.229879 0.324646
444 4 0.0656458 0.348915 0.327702
370 2 0.154562 0.31826 0.25097
371 4 0.165197 0.325705 0.272339
708 4 0.243443 0.283942 0.338654
706 2 0.255375 0.28823 0.317104
707 4 0.267307 0.292518 0.295553
612 4 0.304609 0.25858 0.262573
611 4 0.264248 0.274734 0.287286
610 2 0.284429 0.266657 0.27493
727 2 0.326874 0.281522 0.326377
728 4 0.305459 0.291 0.317617
302 4 0.297401 0.307964 0.31112
559 2 0.379626 0.329271 0.324734
560 4 0.377629 0.343002 0.303934
618 4 0.0608683 0.367848 0.333253
616 2 0.0702178 0.382613 0.315371
617 4 0.0795672 0.397377 0.297488
678 4 0.0952202 0.409516 0.302476
733 2 0.146879 0.412283 0.244454
402 4 0.164098 0.345012 0.267115
676 2 0.101041 0.40941 0.278159
735 4 0.122205 0.415814 0.242476
677 4 0.106862 0.409303 0.253843
400 2 0.178819 0.355075 0.284643
401 4 0.19354 0.365138 0.30217
510 4 0.211409 0.35813 0.291869
508 2 0.226164 0.353972 0.311622
766 2 0.295544 0.360326 0.258057
301 2 0.304027 0.330642 0.302934
303 4 0.310653 0.353319 0.294747
767 4 0.295885 0.350181 0.280908
2537 4 0.391221 0.353758 0.294578
2536 2 0.38696 0.378383 0.293796
2538 4 0.382698 0.403008 0.293013
447 4 0.376667 0.409777 0.310434
1789 2 0.0292154 0.443159 0.298312
1790 4 0.0471626 0.442204 0.315695
1758 4 0.0569302 0.447448 0.332307
1791 4 0.0112681 0.444114 0.280929
2619 4 0.998853 0.460058 0.282816
229 2 0.286118 0.47578 0.27298
230 4 0.292818 0.466113 0.295044
1802 4 0.311253 0.458633 0.293932
1801 2 0.326143 0.446613 0.310025
231 4 0.279418 0.485447 0.250916
1863 4 0.265416 0.48613 0.235971
1861 2 0.246243 0.501908 0.238903
1803 4 0.341034 0.434594 0.326118
445 2 0.386191 0.431028 0.319535
14 3 0.42468 0.424169 0.247476
1771 2 0.0266882 0.999214 0.363649
1772 4 0.0162778 0.0219451 0.363355
3076 2 0.0434066 0.050056 0.42489
3077 4 0.0661991 0.0426389 0.417772
2756 4 0.000571165 0.0323617 0.355793
428 4 0.117282 0.0164758 0.357435
427 2 0.109281 0.012109 0.380718
429 4 0.101279 0.00774217 0.404001
719 4 0.090459 0.0200557 0.414254
1782 4 0.174641 0.0181606 0.393277
368 4 0.190653 0.076721 0.345348
439 2 0.313793 0.00806492 0.387243
440 4 0.320165 0.0296218 0.398192
1816 2 0.290055 0.0577204 0.403999
1818 4 0.301609 0.036312 0.398222
1817 4 0.278501 0.0791289 0.409775
1497 4 0.360906 0.0585827 0.341283
1516 2 0.353837 0.0526039 0.385025
1518 4 0.34957 0.0436719 0.407985
1517 4 0.358104 0.0615358 0.362064
699 4 0.351595 0.0446894 0.428077
426 4 0.454726 0.0868342 0.349858
258 4 0.453711 0.0838634 0.36993
256 2 0.465424 0.0788909 0.391454
600 4 0.154645 0.132442 0.352535
369 4 0.167539 0.12076 0.340149
598 2 0.157477 0.151418 0.368567
367 2 0.179096 0.0987406 0.342748
606 4 0.267225 0.0951689 0.412032
425 4 0.406649 0.0961471 0.33973
453 4 0.487048 0.116638 0.345721
424 2 0.430687 0.0914907 0.344794
257 4 0.477136 0.0739184 0.412977
2846 4 0.0389896 0.24137 0.3907
2654 4 0.0587996 0.23532 0.393491
2653 2 0.0615715 0.213487 0.381625
529 2 0.0912257 0.182249 0.346514
2655 4 0.0643434 0.191653 0.369759
530 4 0.0844146 0.188838 0.369652
249 4 0.109806 0.256107 0.397739
599 4 0.16031 0.170395 0.3846
686 4 0.168295 0.181475 0.368391
687 4 0.203513 0.215931 0.376947
685 2 0.185904 0.198703 0.372669
404 4 0.212566 0.233268 0.370492
403 2 0.219998 0.254641 0.359854
614 4 0.264579 0.197161 0.346441
613 2 0.279626 0.21648 0.351496
615 4 0.294672 0.235799 0.356551
716 4 0.315716 0.235489 0.353909
715 2 0.33436 0.24089 0.36967
717 4 0.353004 0.24629 0.38543
584 4 0.366418 0.253511 0.397055
442 2 0.0647298 0.326287 0.338298
2845 2 0.0302929 0.253299 0.41088
443 4 0.0638137 0.303658 0.348895
1034 4 0.0674659 0.292044 0.365543
1033 2 0.0791023 0.274336 0.378817
1035 4 0.0907386 0.256628 0.392092
405 4 0.22743 0.276014 0.349217
729 4 0.348289 0.272044 0.335137
561 4 0.381624 0.31554 0.345535
583 2 0.383068 0.27198 0.399663
336 4 0.367766 0.313563 0.358555
334 2 0.356956 0.321072 0.379813
585 4 0.399719 0.29045 0.402271
335 4 0.346145 0.328581 0.401072
587 4 0.35948 0.343417 0.405698
240 4 0.418619 0.283687 0.401635
238 2 0.436812 0.298779 0.409785
239 4 0.455006 0.313871 0.417934
926 4 0.462789 0.332697 0.413613
538 2 0.0423506 0.402469 0.403202
539 4 0.0673523 0.402227 0.403392
776 4 0.109522 0.404297 0.342062
710 4 0.158731 0.34862 0.388895
775 2 0.134225 0.403732 0.338236
709 2 0.145169 0.340054 0.408075
777 4 0.158927 0.403166 0.33441
1757 4 0.0993482 0.422145 0.340129
509 4 0.240919 0.349815 0.331376
413 4 0.172839 0.410347 0.348339
407 4 0.173803 0.341839 0.376321
503 4 0.234729 0.365282 0.384024
406 2 0.19728 0.349624 0.372657
408 4 0.220757 0.357409 0.368993
502 2 0.251473 0.37425 0.400285
504 4 0.268216 0.383218 0.416545
2507 4 0.507569 0.434459 0.357537
751 2 0.432363 0.413012 0.406506
752 4 0.444648 0.395675 0.419686
1756 2 0.0781392 0.434796 0.336218
540 4 0.017349 0.402711 0.403013
499 2 0.0735336 0.48358 0.380234
501 4 0.0510249 0.49037 0.371722
549 4 0.0375301 0.502046 0.379936
547 2 0.0250224 0.502733 0.401575
2813 4 0.0151219 0.410931 0.422071
1393 2 0.121412 0.499026 0.404097
500 4 0.0960422 0.476791 0.388745
1395 4 0.115358 0.478028 0.391946
568 2 0.154542 0.44895 0.414359
1320 4 0.165641 0.49619 0.343758
412 2 0.1771 0.427533 0.365994
414 4 0.181361 0.444719 0.383648
569 4 0.173349 0.455232 0.399129
5 3 0.279715 0.472977 0.395552
1 1 0.295115 0.4648 0.410201
3 3 0.312365 0.454477 0.398613
594 4 0.329573 0.440269 0.390277
592 2 0.329372 0.435186 0.365797
668 4 0.335473 0.455489 0.405204
4 3 0.285067 0.449639 0.42461
446 4 0.395716 0.45228 0.328636
593 4 0.329171 0.430102 0.341316
120 3 0.403182 0.455199 0.346611
119 3 0.404875 0.436973 0.379515
116 1 0.416385 0.450469 0.364555
117 3 0.422117 0.47008 0.375123
3988 2 0.450135 0.490646 0.349905
753 4 0.420078 0.430348 0.393326
2742 4 0.491077 0.430832 0.369025
2740 2 0.468939 0.442377 0.367672
118 3 0.435753 0.439791 0.357537
3989 4 0.439466 0.47383 0.365023
2741 4 0.446802 0.453923 0.366319
2236 2 0.0328355 0.999602 0.463652
2238 4 0.0527146 0.0125055 0.47162
1127 4 0.0184687 0.0665302 0.449641
3078 4 0.0206141 0.0574731 0.432008
720 4 0.113108 0.0134727 0.458349
718 2 0.101784 0.0167642 0.436302
342 4 0.113258 0.0247154 0.47542
340 2 0.123042 0.0208333 0.4981
1780 2 0.182319 0.0114821 0.416116
1646 4 0.206856 0.0188285 0.488333
1152 4 0.224298 0.0262181 0.478515
1150 2 0.225681 0.0339015 0.454761
1151 4 0.227064 0.0415848 0.431007
697 2 0.351143 0.0198209 0.430632
3487 2 0.484172 0.0692391 0.480796
3488 4 0.482312 0.0451297 0.487156
3008 4 0.48329 0.025513 0.491986
1126 2 0.00146525 0.0831994 0.457269
546 4 0.0779024 0.157207 0.440181
469 2 0.0136919 0.173116 0.437611
274 2 0.159155 0.106328 0.453725
544 2 0.0930466 0.176578 0.435644
276 4 0.140866 0.0893104 0.452685
275 4 0.177444 0.123346 0.454764
857 4 0.195801 0.131797 0.457145
856 2 0.194637 0.145716 0.477884
858 4 0.193474 0.159634 0.498623
605 4 0.269178 0.141457 0.430856
320 4 0.282063 0.152676 0.421154
319 2 0.297827 0.169953 0.429997
604 2 0.268202 0.118313 0.421444
466 2 0.317732 0.121519 0.495499
468 4 0.295973 0.120938 0.483195
641 4 0.498533 0.071914 0.411471
471 4 0.0248359 0.188563 0.453809
261 4 0.0301021 0.183491 0.472607
259 2 0.0506741 0.197621 0.471086
260 4 0.0712461 0.211751 0.469565
984 4 0.00311648 0.248348 0.495316
348 4 0.0684066 0.228916 0.480254
247 2 0.109007 0.232906 0.407027
545 4 0.108191 0.195949 0.431107
248 4 0.108207 0.209705 0.416314
346 2 0.0881016 0.240955 0.489864
411 4 0.303837 0.199216 0.451539
321 4 0.313591 0.18723 0.43884
409 2 0.303089 0.223697 0.45657
410 4 0.302341 0.248178 0.4616
489 4 0.305598 0.267427 0.464532
982 2 0.0113895 0.251854 0.471983
983 4 0.0196624 0.25536 0.448649
2847 4 0.0215963 0.265228 0.43106
347 4 0.107797 0.252993 0.499475
327 4 0.111942 0.259384 0.480422
326 4 0.135891 0.302986 0.475324
10 3 0.118799 0.313518 0.472448
325 2 0.123916 0.281185 0.477873
375 4 0.149167 0.311291 0.464334
7 3 0.148766 0.331998 0.460064
374 4 0.195595 0.293169 0.460241
373 2 0.172381 0.30223 0.462288
792 4 0.214845 0.289427 0.466293
790 2 0.219156 0.299401 0.488813
487 2 0.297622 0.270491 0.48803
679 2 0.105627 0.412435 0.420101
6 1 0.125835 0.332406 0.461847
8 3 0.119593 0.351127 0.474052
711 4 0.131607 0.331488 0.427255
9 3 0.116672 0.333415 0.440554
681 4 0.0854301 0.400076 0.41207
635 4 0.27378 0.394869 0.431792
586 2 0.355821 0.342157 0.4304
773 4 0.340677 0.339211 0.471673
588 4 0.352163 0.340896 0.455103
772 2 0.34745 0.358109 0.486578
927 4 0.452659 0.379882 0.426714
661 2 0.504925 0.406578 0.448058
925 2 0.457724 0.35629 0.420163
382 2 0.0200659 0.47113 0.484411
383 4 0.0410765 0.467267 0.471418
570 4 0.135734 0.442668 0.42959
680 4 0.125825 0.424795 0.428131
634 2 0.269861 0.419537 0.430639
636 4 0.265943 0.444205 0.429487
2 3 0.303795 0.482161 0.422546
881 4 0.391551 0.467019 0.487058
667 2 0.352891 0.469396 0.416536
882 4 0.364367 0.48115 0.447535
669 4 0.370309 0.483302 0.427869
880 2 0.377959 0.474084 0.467297
1743 4 0.474672 0.4363 0.462533
1742 4 0.480382 0.485866 0.465912
1741 2 0.477527 0.461083 0.464222
662 4 0.489732 0.423236 0.458867
1077 4 0.0727156 0.00992293 0.54668
1075 2 0.0572714 0.0292156 0.542878
1076 4 0.0418272 0.0485082 0.539077
4508 4 0.0732615 0.990791 0.552005
2428 2 0.140843 0.0309891 0.557259
2430 4 0.141149 0.03127 0.532259
341 4 0.132826 0.0169511 0.52078
1180 2 0.329473 0.0435228 0.565573
1181 4 0.307034 0.0340071 0.571149
962 4 0.308515 0.0187866 0.583757
1182 4 0.351913 0.0530385 0.559997
1032 4 0.347557 0.0645359 0.544755
4466 4 0.403638 0.0470159 0.518353
575 4 0.411579 0.065921 0.513925
4465 2 0.416294 0.0269038 0.526131
4467 4 0.428951 0.00679181 0.533909
90 3 0.439016 0.0143474 0.549922
3007 2 0.484463 0.011529 0.51268
467 4 0.339492 0.1221 0.507802
574 2 0.409901 0.0892918 0.522652
1030 2 0.341692 0.0842552 0.530544
1031 4 0.335828 0.103975 0.516334
576 4 0.408223 0.112663 0.53138
306 4 0.406061 0.130085 0.542151
304 2 0.429835 0.134494 0.548519
305 4 0.453608 0.138903 0.554888
515 4 0.469173 0.131757 0.562451
514 2 0.480184 0.154141 0.564153
1270 2 0.0270777 0.22777 0.568876
1272 4 0.00988264 0.217114 0.55418
1219 2 0.229178 0.181224 0.513506
1226 4 0.214751 0.212067 0.59224
1221 4 0.250309 0.193735 0.518207
1220 4 0.208046 0.168713 0.508804
1212 4 0.268618 0.194629 0.52625
1210 2 0.277542 0.192913 0.549543
1211 4 0.286465 0.191197 0.572837
267 4 0.342498 0.208443 0.526842
265 2 0.362099 0.208426 0.542366
888 4 0.397231 0.204459 0.571549
266 4 0.3817 0.20841 0.55789
886 2 0.415371 0.188168 0.577088
516 4 0.491194 0.176525 0.565855
1026 4 0.49026 0.186806 0.584232
791 4 0.223466 0.309374 0.511332
1191 4 0.22039 0.327198 0.52014
651 4 0.281671 0.28881 0.521408
649 2 0.29782 0.299006 0.537544
488 4 0.289645 0.273555 0.511529
650 4 0.31397 0.309203 0.553681
812 4 0.327451 0.315561 0.54017
811 2 0.351922 0.310526 0.541191
871 2 0.405325 0.278144 0.532064
872 4 0.39181 0.299177 0.531675
813 4 0.376392 0.305491 0.542212
905 4 0.471464 0.253339 0.566576
904 2 0.450791 0.248175 0.553494
1010 4 0.489429 0.251761 0.558956
906 4 0.430118 0.243012 0.540412
873 4 0.418839 0.257111 0.532452
1009 2 0.503156 0.249152 0.579691
1189 2 0.214281 0.339403 0.54109
1190 4 0.208171 0.351609 0.562039
804 4 0.220448 0.343888 0.575395
1173 4 0.27346 0.409562 0.579729
930 4 0.401054 0.370081 0.538298
928 2 0.377756 0.372398 0.529521
929 4 0.354459 0.374715 0.520744
774 4 0.354223 0.377007 0.501483
1238 4 0.419869 0.370315 0.544147
1237 2 0.42344 0.360648 0.566928
1937 4 0.985029 0.47969 0.509748
384 4 0.999055 0.474993 0.497403
1936 2 0.987086 0.460179 0.525248
896 4 0.150668 0.488183 0.53396
895 2 0.132788 0.489493 0.551389
897 4 0.114908 0.490803 0.568818
891 4 0.367446 0.464231 0.546193
889 2 0.363697 0.45115 0.567169
1911 4 0.368341 0.48442 0.54593
1909 2 0.381465 0.481778 0.524812
1910 4 0.394588 0.479137 0.503694
1082 4 0.0381746 0.0303455 0.638466
1081 2 0.0466591 0.0297954 0.66198
2429 4 0.140537 0.0307082 0.58226
1091 4 0.3057 0.0360788 0.657232
1090 2 0.313461 0.0129109 0.651922
43 3 0.416501 0.0528006 0.646098
4227 4 0.399141 0.0628578 0.64376
44 3 0.426116 0.0161525 0.643118
4225 2 0.407657 0.0784944 0.626206
810 4 0.476046 0.060919 0.599029
2283 4 0.445834 0.0139315 0.642351
1163 4 0.455325 0.0266489 0.653853
41 1 0.424135 0.0341604 0.657616
1162 2 0.478673 0.0294807 0.66234
808 2 0.455728 0.0754438 0.600206
42 3 0.444825 0.0388665 0.6665
2281 2 0.451868 0.00330551 0.620537
2318 4 0.0691211 0.101103 0.655064
938 4 0.0837326 0.109599 0.666485
908 4 0.22406 0.122814 0.613612
907 2 0.212501 0.134512 0.594778
909 4 0.200943 0.146211 0.575944
1284 4 0.242906 0.127754 0.612637
1282 2 0.264068 0.139209 0.619432
1283 4 0.285229 0.150664 0.626227
1004 4 0.304171 0.156174 0.626129
1003 2 0.312474 0.156515 0.649712
809 4 0.43541 0.0899687 0.601383
4226 4 0.416173 0.094131 0.608652
899 4 0.436905 0.170654 0.651251
900 4 0.437116 0.164517 0.601622
898 2 0.43701 0.167586 0.626436
1153 2 0.0436292 0.240405 0.625244
1154 4 0.0396891 0.245423 0.601068
1271 4 0.0442728 0.238426 0.583571
1155 4 0.0475692 0.235388 0.64942
1227 4 0.204562 0.165307 0.577737
1225 2 0.209657 0.188687 0.584989
1276 2 0.207938 0.244487 0.602902
1278 4 0.216165 0.231217 0.583372
887 4 0.433512 0.171876 0.582627
694 2 0.141336 0.328701 0.61334
695 4 0.163922 0.32292 0.604305
696 4 0.118749 0.334483 0.622374
797 4 0.174635 0.315197 0.590021
1277 4 0.19971 0.257757 0.622431
798 4 0.193785 0.275124 0.613002
796 2 0.18421 0.295161 0.601511
918 4 0.272275 0.275604 0.633521
916 2 0.264376 0.261439 0.65255
1165 2 0.30833 0.285193 0.614245
1166 4 0.329967 0.28281 0.601943
1167 4 0.286693 0.287575 0.626547
3372 4 0.506126 0.279136 0.659644
1243 2 0.0124884 0.413926 0.6522
1260 4 0.0889331 0.34694 0.673645
1259 4 0.0997272 0.328391 0.628477
1258 2 0.0943302 0.337666 0.651061
803 4 0.212353 0.363718 0.620583
1136 4 0.212068 0.368608 0.640906
802 2 0.216401 0.353803 0.597989
1135 2 0.236091 0.366961 0.647641
1137 4 0.260114 0.365313 0.654376
1067 4 0.259816 0.38327 0.663538
806 4 0.332236 0.346987 0.673579
1029 4 0.4098 0.347689 0.595531
1028 4 0.366992 0.353293 0.620765
1027 2 0.388396 0.350491 0.608148
807 4 0.355283 0.365613 0.633297
805 2 0.343759 0.3563 0.653438
1239 4 0.427012 0.350981 0.589709
1245 4 0.0262927 0.422827 0.633348
2172 4 0.0103588 0.489661 0.629108
2170 2 0.0178142 0.466164 0.633287
2171 4 0.0252696 0.442667 0.637467
2015 4 0.123444 0.490824 0.587272
2014 2 0.136939 0.497659 0.607181
2152 2 0.241981 0.494915 0.642643
1172 4 0.304967 0.446886 0.59045
2154 4 0.265646 0.487556 0.639326
1161 4 0.308788 0.45095 0.610197
1171 2 0.289214 0.428224 0.58509
1159 2 0.296871 0.467677 0.624458
1160 4 0.284954 0.484404 0.63872
1001 4 0.395281 0.419165 0.645006
1002 4 0.371688 0.4335 0.603309
890 4 0.359949 0.438069 0.588145
1000 2 0.383485 0.426332 0.624157
1951 2 0.411882 0.488938 0.669486
1230 4 0.388625 0.421402 0.664265
1267 2 0.493765 0.431535 0.654007
2167 2 0.488257 0.504546 0.663873
2319 4 0.0340831 0.0737616 0.677988
851 4 0.0182818 0.0636833 0.680873
943 2 0.0627905 0.0482511 0.715966
944 4 0.0578947 0.0258725 0.705945
945 4 0.0676863 0.0706298 0.725986
1083 4 0.0551435 0.0292454 0.685493
863 4 0.0504403 0.0775971 0.732485
2399 4 0.282655 0.0321873 0.71421
1049 4 0.293644 0.0486932 0.71985
1048 2 0.303363 0.0477595 0.696831
1050 4 0.313081 0.0468258 0.673812
2398 2 0.270048 0.0181376 0.730606
2321 4 0.421694 0.0298689 0.691201
45 3 0.409725 0.0290083 0.674482
2320 2 0.413715 0.0380217 0.713451
2322 4 0.405737 0.0461744 0.7357
1164 4 0.502021 0.0323125 0.670827
3400 2 0.481139 0.0322928 0.726485
980 4 0.406187 0.0619105 0.748527
3402 4 0.474309 0.0207424 0.705387
3401 4 0.487969 0.0438433 0.747583
2317 2 0.0516021 0.0874321 0.666526
862 2 0.062452 0.0994661 0.734112
2286 4 0.070638 0.135315 0.748685
2284 2 0.0786684 0.15881 0.75163
864 4 0.0744637 0.121335 0.735739
937 2 0.108668 0.109668 0.668333
939 4 0.133603 0.109736 0.670182
32 3 0.131081 0.17746 0.740605
1005 4 0.320777 0.156856 0.673294
831 4 0.324545 0.143216 0.68599
829 2 0.347366 0.149638 0.693936
830 4 0.370187 0.156059 0.701882
978 4 0.369065 0.15079 0.721947
976 2 0.37025 0.157581 0.745981
1193 4 0.436289 0.135544 0.699367
1192 2 0.437506 0.15605 0.685113
3387 4 0.00945549 0.237662 0.687893
33 3 0.128821 0.213599 0.730528
31 1 0.12151 0.197725 0.745791
1242 4 0.256662 0.227944 0.673995
1241 4 0.248421 0.181717 0.691195
1240 2 0.252542 0.204831 0.682595
1194 4 0.438722 0.176557 0.670859
1297 2 0.46749 0.243115 0.742049
917 4 0.256477 0.247274 0.67158
1007 4 0.317718 0.301381 0.707889
1006 2 0.316876 0.318284 0.689484
1008 4 0.316033 0.335187 0.671078
1298 4 0.468482 0.258015 0.721994
952 2 0.489592 0.273346 0.699079
953 4 0.4677 0.275735 0.710921
1208 4 0.0737121 0.343348 0.684312
1207 2 0.0716587 0.354682 0.706505
1209 4 0.0696054 0.366015 0.728698
993 4 0.0721825 0.383849 0.71987
991 2 0.0763101 0.39952 0.738911
948 4 0.157135 0.397476 0.736717
946 2 0.151792 0.377537 0.750827
1066 2 0.259907 0.403961 0.677577
1205 4 0.384214 0.354086 0.732962
1204 2 0.397801 0.361978 0.713513
1019 4 0.389708 0.345371 0.750862
1101 4 0.46101 0.399332 0.672963
997 2 0.509616 0.343858 0.73731
998 4 0.493369 0.35694 0.723524
1206 4 0.411388 0.36987 0.694063
1100 4 0.421612 0.368853 0.677386
1099 2 0.441311 0.384092 0.675174
1175 4 0.257626 0.445404 0.742963
1174 2 0.258422 0.44504 0.717974
1068 4 0.259998 0.424651 0.691615
1176 4 0.259219 0.444676 0.692986
1228 2 0.373775 0.435958 0.67815
1139 4 0.371062 0.455156 0.708479
1138 2 0.387389 0.465522 0.724327
1229 4 0.358926 0.450513 0.692035
1140 4 0.403715 0.475888 0.740175
2120 4 0.414402 0.490129 0.731143
1269 4 0.485573 0.440014 0.676057
3183 4 0.476335 0.430985 0.690291
1953 4 0.419082 0.471587 0.685988
912 4 0.0063844 0.0387063 0.779559
1295 4 0.999541 0.0301782 0.762562
910 2 0.0297679 0.0450655 0.773399
911 4 0.0531514 0.0514247 0.767238
1202 4 0.0677306 0.038528 0.770035
1201 2 0.0881779 0.0508053 0.777542
1203 4 0.108625 0.0630826 0.785049
1287 4 0.126552 0.0685234 0.792639
1285 2 0.127188 0.0693998 0.817619
840 4 0.213331 0.0847801 0.817941
2049 4 0.19996 0.0700911 0.821704
1021 2 0.323372 0.0539164 0.815366
1022 4 0.331382 0.0321146 0.824623
1023 4 0.315361 0.0757182 0.806109
1143 4 0.361925 0.0380412 0.754246
1141 2 0.3655 0.0135628 0.75788
1112 4 0.40665 0.0628319 0.810223
1111 2 0.390837 0.0545799 0.827746
981 4 0.419681 0.0684523 0.796233
979 2 0.412934 0.0651814 0.77238
3132 4 0.00780708 0.140497 0.76961
2989 2 0.0336289 0.150051 0.781793
2990 4 0.041933 0.15851 0.803808
834 4 0.0374928 0.148804 0.819896
2991 4 0.0253248 0.141591 0.759779