ITEM: TIMESTEP
5680000
ITEM: NUMBER OF ATOMS
4590
ITEM: BOX BOUNDS pp pp pp
-9.9985700000000008e+00 9.9985700000000008e+00
-9.9985700000000008e+00 9.9985700000000008e+00
-9.9985700000000008e+00 9.9985700000000008e+00
ITEM: ATOMS id type xs ys zs
3753 4 0.0622887 0.0602559 0.0247058
702 4 0.0445995 0.0683626 0.0166158
3751 2 0.0618396 0.0491349 0.00231603
700 2 0.0263922 0.0816891 0.0273897
1634 4 0.113672 0.0251137 0.0362014
1633 2 0.114099 0.00912813 0.0554227
422 4 0.116544 0.0320456 0.0173281
566 4 0.252381 0.0551867 0.0813009
567 4 0.283791 0.0752428 0.0479566
565 2 0.268086 0.0652148 0.0646287
653 4 0.300606 0.0751906 0.037044
985 2 0.396339 0.0214422 0.0181248
986 4 0.40933 0.0426948 0.0159488
462 4 0.374833 0.0822313 0.082454
2975 4 0.423529 0.0513676 0.0261058
2974 2 0.44158 0.051802 0.0434015
2976 4 0.459632 0.0522365 0.0606972
297 4 0.465444 0.999886 0.00126162
553 2 0.0773003 0.122152 0.0168555
555 4 0.0552139 0.131393 0.00964575
701 4 0.00818492 0.0950156 0.0381636
837 4 0.154237 0.0999037 0.0109854
835 2 0.13181 0.110757 0.00887735
554 4 0.0993866 0.112912 0.0240652
836 4 0.109384 0.121611 0.00676929
1134 4 0.165866 0.0840925 0.00715745
1132 2 0.190713 0.0849163 0.00982332
1133 4 0.215561 0.0857401 0.0124892
933 4 0.230519 0.0981736 0.0144161
652 2 0.300628 0.0942713 0.0208853
491 4 0.28517 0.129514 0.00325068
490 2 0.288279 0.147539 0.0202973
654 4 0.30065 0.113352 0.00472655
1086 4 0.359427 0.098968 0.0306363
460 2 0.371424 0.0976244 0.0630475
461 4 0.368016 0.113017 0.043641
1084 2 0.363914 0.101727 0.0061939
771 4 0.485936 0.172239 0.00900345
2640 4 0.485988 0.158165 0.993949
769 2 0.470062 0.178412 0.027309
2624 4 0.0248319 0.239951 0.0722473
2521 2 0.999745 0.252556 0.0117325
492 4 0.291388 0.165565 0.037344
360 4 0.264941 0.226926 0.0356529
358 2 0.273182 0.203751 0.0311591
359 4 0.281423 0.180576 0.0266653
354 4 0.247027 0.230441 0.0268597
322 2 0.368876 0.213179 0.0542493
254 4 0.331044 0.209708 0.0776409
323 4 0.349526 0.211969 0.0700377
324 4 0.388227 0.21439 0.038461
519 4 0.396898 0.20685 0.0236824
517 2 0.419439 0.203411 0.0339416
518 4 0.44198 0.199971 0.0442008
770 4 0.454189 0.184585 0.0456146
620 4 0.0216289 0.316958 0.012714
2625 4 0.0424751 0.274333 0.0405087
2623 2 0.0336535 0.257142 0.056378
292 2 0.0605583 0.306658 0.00351533
294 4 0.0405358 0.315935 0.015272
456 4 0.153947 0.303378 0.0622928
482 4 0.173002 0.304424 0.0540681
293 4 0.0805807 0.297381 0.991759
353 4 0.245671 0.277013 0.00869661
483 4 0.173709 0.275539 0.0132531
481 2 0.173356 0.289982 0.0336606
287 4 0.190132 0.266145 0.00577458
352 2 0.246349 0.253727 0.0177782
1304 4 0.379431 0.328527 0.0117552
671 4 0.386467 0.314554 0.0780881
357 4 0.355717 0.322768 0.0597197
355 2 0.359655 0.331453 0.0366062
356 4 0.363592 0.340139 0.0134927
655 2 0.00275466 0.364485 0.0527836
2874 4 0.00332387 0.375845 0.0195624
657 4 0.0104962 0.359722 0.0294907
2872 2 0.0145905 0.394943 0.00800863
656 4 0.995013 0.369248 0.0760765
625 2 0.128808 0.413341 0.012917
626 4 0.105549 0.404183 0.0123328
1290 4 0.17188 0.420783 0.00814417
345 4 0.220175 0.380274 0.0678109
343 2 0.243897 0.386047 0.0624163
498 4 0.283975 0.384714 0.0660408
344 4 0.26762 0.391819 0.0570217
496 2 0.292564 0.399009 0.0474118
608 4 0.379154 0.374877 0.0917933
1674 4 0.376401 0.388626 0.0766841
607 2 0.385542 0.350704 0.091853
524 4 0.459415 0.382568 0.00509803
543 4 0.481043 0.378453 0.0486229
552 4 0.0222602 0.459948 0.0206699
550 2 0.00255322 0.452514 0.0341438
627 4 0.152067 0.4225 0.0135011
1223 4 0.135246 0.487316 0.00980072
1288 2 0.196712 0.421163 0.0110466
252 4 0.21677 0.433456 0.0308489
1289 4 0.221543 0.421543 0.0139491
250 2 0.235088 0.447167 0.0409298
497 4 0.301154 0.413305 0.0287828
251 4 0.253407 0.460879 0.0510107
955 2 0.292103 0.434526 0.00441702
957 4 0.28923 0.411371 0.0134044
793 2 0.263812 0.488631 0.0710668
795 4 0.261693 0.463841 0.0685841
1672 2 0.367856 0.407 0.062037
1673 4 0.35931 0.425374 0.0473898
17 3 0.0477838 0.0588722 0.129455
381 4 0.0375626 0.045628 0.115495
379 2 0.0217839 0.0499243 0.096581
18 3 0.0693366 0.0872807 0.141333
464 4 0.0970727 0.0881957 0.11183
463 2 0.104196 0.0643142 0.109802
450 4 0.107017 0.0367942 0.126592
465 4 0.111319 0.0404327 0.107775
448 2 0.104139 0.0134746 0.135142
1475 4 0.25377 0.0426038 0.0960622
1474 2 0.262097 0.0280528 0.114612
1476 4 0.270424 0.0135018 0.133163
1769 4 0.289667 0.0193051 0.136311
1768 2 0.300215 0.00328128 0.152347
312 4 0.415914 0.0458617 0.111799
310 2 0.397511 0.0618563 0.106259
629 4 0.42894 0.985847 0.162951
630 4 0.449097 0.0262504 0.141458
628 2 0.439018 0.0060486 0.152205
2723 4 0.467183 0.0297569 0.150169
2722 2 0.486558 0.0401061 0.138223
16 1 0.0495434 0.0817822 0.130544
20 3 0.0318009 0.0901258 0.14213
2480 4 0.0109069 0.14622 0.0913418
234 4 0.0257944 0.0817704 0.158521
19 3 0.0496402 0.0903319 0.108973
2481 4 0.0378918 0.106023 0.103863
2479 2 0.0243993 0.126122 0.0976025
578 4 0.0865142 0.0938261 0.131135
577 2 0.0999267 0.103153 0.150064
2469 4 0.334684 0.153406 0.16506
311 4 0.379108 0.0778508 0.100719
2467 2 0.340005 0.170689 0.147793
756 4 0.343623 0.232762 0.166619
572 4 0.35709 0.241089 0.150856
2468 4 0.345327 0.187972 0.130526
255 4 0.335221 0.175707 0.114071
253 2 0.333133 0.192707 0.0958562
21 1 0.37753 0.209247 0.151195
24 3 0.362138 0.198302 0.137715
25 3 0.390264 0.223318 0.138606
759 4 0.392476 0.236381 0.15258
309 4 0.378632 0.242028 0.165354
22 3 0.366177 0.221445 0.167053
361 2 0.0559858 0.262641 0.152442
362 4 0.031883 0.26125 0.145938
647 4 0.0131656 0.260164 0.13993
363 4 0.0800887 0.264031 0.158945
454 2 0.139343 0.310776 0.0811918
535 2 0.117668 0.315448 0.142169
455 4 0.124739 0.318174 0.100091
536 4 0.128773 0.315605 0.119767
277 2 0.122739 0.25178 0.156169
278 4 0.0989307 0.256286 0.162338
757 2 0.40586 0.255588 0.143797
571 2 0.3526 0.25495 0.130536
573 4 0.34811 0.268811 0.110216
609 4 0.39193 0.32653 0.0919127
672 4 0.352674 0.282599 0.0964638
670 2 0.36957 0.298576 0.0872759
528 4 0.4369 0.264233 0.137675
526 2 0.461768 0.26333 0.135239
527 4 0.486636 0.262426 0.132803
597 4 0.486918 0.303137 0.0947612
758 4 0.419243 0.274795 0.135013
595 2 0.4904 0.324932 0.10651
705 4 0.0119079 0.37776 0.0830504
748 2 0.0484763 0.417455 0.130189
749 4 0.0322303 0.405407 0.144888
366 4 0.0389709 0.398157 0.162399
622 2 0.467121 0.352249 0.15038
624 4 0.479416 0.357117 0.12916
109 3 0.48852 0.375516 0.12675
596 4 0.493883 0.346727 0.118258
623 4 0.454825 0.347382 0.171601
2794 2 0.0219001 0.496626 0.0928127
750 4 0.0647223 0.429504 0.115489
603 4 0.0744717 0.447348 0.10966
601 2 0.0838154 0.47054 0.109604
602 4 0.093159 0.493732 0.109548
1583 4 0.389103 0.497393 0.0973289
1584 4 0.372827 0.469708 0.135661
1575 4 0.37542 0.450228 0.132398
1582 2 0.380965 0.48355 0.116495
1573 2 0.375418 0.445165 0.156883
1578 4 0.482005 0.493497 0.160701
232 2 0.0126831 0.0664013 0.173254
1464 4 0.0514941 0.0436145 0.213851
1462 2 0.0730241 0.054955 0.208103
1463 4 0.094554 0.0662955 0.202356
732 4 0.106748 0.0618146 0.217919
730 2 0.128903 0.0730198 0.214955
731 4 0.151058 0.0842251 0.211991
1607 4 0.340179 0.99066 0.237458
579 4 0.113339 0.112479 0.168993
235 2 0.145301 0.123857 0.185502
237 4 0.12304 0.112516 0.18651
236 4 0.167562 0.135197 0.184493
722 4 0.181521 0.149909 0.188591
721 2 0.202826 0.138214 0.182716
723 4 0.22413 0.126519 0.176841
473 4 0.261177 0.0930857 0.234311
693 4 0.241318 0.118733 0.182297
691 2 0.255728 0.108148 0.199775
692 4 0.270138 0.0975629 0.217253
764 4 0.353146 0.146654 0.165917
763 2 0.367414 0.130169 0.178158
765 4 0.381683 0.113685 0.190399
744 4 0.385055 0.110828 0.209211
742 2 0.4065 0.109552 0.222004
743 4 0.427945 0.108276 0.234797
333 4 0.439425 0.124316 0.231715
331 2 0.453256 0.12823 0.252174
754 2 0.321111 0.222048 0.168523
755 4 0.2986 0.211334 0.170427
23 3 0.391082 0.193767 0.161924
760 2 0.500325 0.222535 0.203128
762 4 0.475709 0.226024 0.205782
522 4 0.45873 0.223002 0.218414
520 2 0.450742 0.228758 0.241397
537 4 0.106562 0.315291 0.16457
279 4 0.146546 0.247274 0.149999
511 2 0.119777 0.259946 0.228938
299 4 0.104473 0.314243 0.18387
300 4 0.0868123 0.270925 0.201544
513 4 0.0986853 0.264046 0.216152
298 2 0.0956428 0.292584 0.192707
307 2 0.367687 0.253623 0.184614
610 2 0.336346 0.251621 0.240523
612 4 0.351138 0.261648 0.223035
308 4 0.356742 0.265219 0.203873
708 4 0.396245 0.320176 0.216249
706 2 0.382317 0.307701 0.232849
741 4 0.414317 0.327453 0.216398
739 2 0.424737 0.335215 0.195036
364 2 0.0166064 0.389465 0.169433
365 4 0.994242 0.380774 0.176466
2537 4 0.386015 0.375981 0.229456
2536 2 0.365766 0.376552 0.244113
386 4 0.403359 0.3674 0.225759
385 2 0.413873 0.388197 0.216696
15 3 0.45186 0.397081 0.161845
740 4 0.435157 0.342978 0.173673
14 3 0.440481 0.401314 0.197485
11 1 0.451705 0.411176 0.179732
387 4 0.424387 0.408994 0.207633
3800 4 0.493054 0.409074 0.192512
659 4 0.299317 0.483167 0.191183
658 2 0.317049 0.479921 0.20851
660 4 0.334781 0.476674 0.225837
639 4 0.352079 0.465684 0.229063
638 4 0.384954 0.443437 0.19865
637 2 0.368517 0.454561 0.213856
1574 4 0.375416 0.440102 0.181369
13 3 0.473462 0.416286 0.185973
12 3 0.440862 0.430624 0.17396
645 4 0.489612 0.430021 0.183847
644 4 0.482074 0.477979 0.17185
643 2 0.485843 0.454 0.177849
689 4 0.0437263 0.0481495 0.231679
688 2 0.0382803 0.0255802 0.24096
316 2 0.0561384 0.0447411 0.31381
317 4 0.0523188 0.0682739 0.321346
318 4 0.0599581 0.0212083 0.306273
399 4 0.0482526 0.0850173 0.31116
1469 4 0.0679499 0.0103794 0.321189
1406 4 0.180784 0.00735603 0.275713
1701 4 0.197701 0.0158381 0.27803
1699 2 0.220815 0.0190373 0.269046
1505 4 0.250955 0.0186468 0.242585
1700 4 0.243928 0.0222365 0.260063
1496 4 0.321022 0.0361637 0.284016
1828 2 0.292466 0.0529275 0.28983
1829 4 0.315952 0.0492562 0.297582
1830 4 0.26898 0.0565988 0.282078
474 4 0.261035 0.0525212 0.263555
1495 2 0.33147 0.0203329 0.267725
472 2 0.261106 0.0728034 0.248933
397 2 0.0550526 0.10901 0.309342
398 4 0.0618526 0.133002 0.307524
531 4 0.0522684 0.150644 0.305493
529 2 0.0352753 0.168986 0.305497
580 2 0.24255 0.160283 0.313754
351 4 0.460881 0.117455 0.283562
332 4 0.467086 0.132143 0.272634
349 2 0.480965 0.115855 0.298369
392 4 0.991055 0.255072 0.285546
530 4 0.0182823 0.187327 0.305501
2655 4 0.0286361 0.207381 0.336445
2653 2 0.0468543 0.224269 0.333603
512 4 0.140869 0.255845 0.241725
737 4 0.1384 0.241955 0.256783
736 2 0.157968 0.229544 0.266175
581 4 0.233213 0.174456 0.295394
738 4 0.177537 0.217132 0.275566
284 4 0.192124 0.208151 0.266432
283 2 0.207352 0.18921 0.27231
285 4 0.222579 0.17027 0.278189
611 4 0.321554 0.241594 0.258011
521 4 0.442754 0.234514 0.264381
389 4 0.0507204 0.255624 0.306344
388 2 0.0693716 0.271195 0.312248
390 4 0.0880228 0.286766 0.318153
372 4 0.107038 0.288594 0.323285
370 2 0.115847 0.306759 0.308534
767 4 0.327732 0.317223 0.294553
303 4 0.319189 0.306367 0.309156
301 2 0.307878 0.326665 0.318388
615 4 0.243983 0.296691 0.344558
707 4 0.368389 0.295226 0.249449
768 4 0.353007 0.308557 0.252283
766 2 0.340369 0.31289 0.273418
632 4 0.42967 0.243055 0.278857
631 2 0.436695 0.267036 0.279723
633 4 0.44372 0.291017 0.280589
419 4 0.463574 0.296846 0.28565
418 2 0.474341 0.305965 0.306292
420 4 0.485107 0.315084 0.326934
1791 4 0.00365563 0.413838 0.245207
616 2 0.0806981 0.376212 0.322397
618 4 0.0704495 0.353427 0.323391
617 4 0.0909467 0.398997 0.321402
2693 4 0.0571979 0.35195 0.339079
371 4 0.124656 0.324925 0.293782
402 4 0.139955 0.337245 0.290776
400 2 0.142214 0.361939 0.28757
401 4 0.144472 0.386633 0.284364
510 4 0.152621 0.387779 0.302341
678 4 0.0962914 0.399206 0.301411
676 2 0.112153 0.416589 0.292959
508 2 0.165904 0.405169 0.314438
509 4 0.179187 0.422559 0.326535
302 4 0.296566 0.346963 0.327619
446 4 0.328137 0.387361 0.324315
2538 4 0.345516 0.377124 0.25877
447 4 0.346478 0.379133 0.278526
445 2 0.337308 0.383247 0.30142
120 3 0.339739 0.388738 0.339999
2742 4 0.497246 0.394533 0.331108
2740 2 0.47686 0.407705 0.325098
2741 4 0.456475 0.420877 0.319089
1756 2 0.00263337 0.453318 0.324739
3717 4 0.00430723 0.49138 0.342523
1757 4 0.00982432 0.471666 0.340129
734 4 0.139136 0.475603 0.243785
417 4 0.15528 0.476194 0.256961
735 4 0.117188 0.438858 0.269645
677 4 0.128014 0.433972 0.284507
733 2 0.128162 0.457231 0.256715
415 2 0.178048 0.483945 0.263796
416 4 0.200816 0.491696 0.270631
291 4 0.216699 0.479295 0.273112
289 2 0.235864 0.475781 0.257442
290 4 0.255029 0.472267 0.241773
1801 2 0.311296 0.475682 0.301059
593 4 0.282145 0.465896 0.328886
592 2 0.272476 0.44306 0.33208
1803 4 0.300871 0.465746 0.321499
1802 4 0.321721 0.485618 0.28062
712 2 0.395392 0.494352 0.286785
713 4 0.402867 0.47426 0.299653
3990 4 0.418737 0.467913 0.290967
3988 2 0.431393 0.447172 0.296867
3989 4 0.444049 0.426431 0.302768
2238 4 0.0443769 0.997903 0.421359
1682 4 0.118224 0.999029 0.409374
276 4 0.137637 0.0624771 0.376408
1468 2 0.0816357 0.00170239 0.34023
1443 4 0.103458 0.00627979 0.421255
1816 2 0.237929 0.0419631 0.394128
1817 4 0.218503 0.0566276 0.399851
439 2 0.266228 0.00616904 0.353165
378 4 0.306161 0.0441467 0.33304
376 2 0.296273 0.0592491 0.350341
1818 4 0.257355 0.0272986 0.388404
440 4 0.270293 0.021332 0.372627
377 4 0.286384 0.0743514 0.367641
640 2 0.491162 0.021998 0.411808
257 4 0.456992 0.0341777 0.393844
641 4 0.468238 0.0315274 0.408835
256 2 0.450773 0.0580075 0.389528
258 4 0.444553 0.0818373 0.385211
428 4 0.0576563 0.116253 0.405442
274 2 0.13277 0.0866964 0.380271
275 4 0.127903 0.110916 0.384133
368 4 0.135059 0.127106 0.372093
367 2 0.141647 0.151198 0.37093
582 4 0.251888 0.14611 0.332114
27 3 0.254831 0.128384 0.340304
26 1 0.273233 0.117952 0.349343
30 3 0.273403 0.0961149 0.342882
28 3 0.292388 0.128609 0.341735
29 3 0.272043 0.119356 0.372474
683 4 0.299624 0.0829228 0.380892
682 2 0.313798 0.0975052 0.395439
684 4 0.327973 0.112088 0.409986
725 4 0.339215 0.128446 0.403221
724 2 0.363186 0.133065 0.397815
726 4 0.387157 0.137684 0.392408
425 4 0.395432 0.123535 0.378425
426 4 0.437913 0.100095 0.390536
424 2 0.416673 0.111815 0.38448
2493 4 0.00873024 0.191506 0.408676
2654 4 0.0650725 0.241156 0.330761
2846 4 0.0538106 0.255929 0.400494
248 4 0.0779612 0.244652 0.345709
545 4 0.0841441 0.221196 0.388992
470 4 0.0282169 0.191744 0.414595
369 4 0.148235 0.17529 0.369767
600 4 0.15731 0.193496 0.370681
598 2 0.170484 0.20495 0.388581
599 4 0.183659 0.216405 0.406481
686 4 0.202561 0.22439 0.403435
2845 2 0.0313683 0.259145 0.411038
1033 2 0.0726515 0.294965 0.404941
247 2 0.0861256 0.257628 0.365461
249 4 0.0942899 0.270604 0.385213
1035 4 0.0877367 0.289021 0.385907
614 4 0.247577 0.25191 0.366522
403 2 0.241706 0.245836 0.401349
613 2 0.24578 0.274301 0.35554
405 4 0.239722 0.23791 0.377718
717 4 0.391732 0.300713 0.385887
715 2 0.368335 0.302879 0.394435
584 4 0.407746 0.311181 0.381721
716 4 0.344938 0.305044 0.402984
270 4 0.484946 0.305717 0.391058
585 4 0.436208 0.275119 0.401474
583 2 0.421977 0.29315 0.391598
269 4 0.496151 0.317022 0.343652
268 2 0.490549 0.31137 0.367355
588 4 0.488791 0.312684 0.409278
2694 4 0.00804102 0.344292 0.344146
2692 2 0.0326194 0.348121 0.341612
406 2 0.200038 0.336904 0.414366
408 4 0.20531 0.352709 0.395721
503 4 0.218168 0.36749 0.397068
502 2 0.234114 0.374184 0.37901
635 4 0.195621 0.414221 0.333763
634 2 0.219886 0.418489 0.338027
504 4 0.250061 0.380877 0.360953
728 4 0.30802 0.360951 0.336888
727 2 0.288897 0.37142 0.349131
729 4 0.269774 0.381888 0.361374
667 2 0.333968 0.397186 0.400791
2 3 0.298123 0.410475 0.417286
668 4 0.31458 0.394407 0.416332
119 3 0.373042 0.387869 0.357543
751 2 0.38854 0.378908 0.390957
753 4 0.370884 0.390701 0.377753
752 4 0.406197 0.367115 0.404161
669 4 0.353357 0.399966 0.38525
116 1 0.354934 0.401107 0.351608
117 3 0.345068 0.409221 0.370739
776 4 0.0705967 0.46748 0.343038
414 4 0.158143 0.492455 0.430863
775 2 0.0941336 0.475203 0.346436
777 4 0.117671 0.482926 0.349834
1320 4 0.126232 0.499453 0.356488
570 4 0.13268 0.433763 0.424194
1318 2 0.136229 0.508141 0.335281
636 4 0.244151 0.422757 0.342291
594 4 0.262806 0.420225 0.335274
412 2 0.182939 0.49495 0.42884
435 4 0.301414 0.491193 0.386117
5 3 0.267533 0.429921 0.408397
433 2 0.296861 0.475978 0.405429
118 3 0.362099 0.419003 0.338694
3641 4 0.499146 0.488037 0.378454
1442 4 0.0549234 0.00986704 0.432756
718 2 0.0520318 0.0671512 0.477872
720 4 0.0483441 0.0519399 0.49737
1441 2 0.0791905 0.00807341 0.427005
606 4 0.22046 0.0746172 0.406666
576 4 0.357598 0.0460953 0.483777
574 2 0.38229 0.0448566 0.487511
719 4 0.0557195 0.0823624 0.458373
429 4 0.0420042 0.0891725 0.444459
427 2 0.0498303 0.102713 0.42495
604 2 0.233872 0.0915627 0.419242
468 4 0.247823 0.119038 0.449765
605 4 0.247283 0.108508 0.431818
466 2 0.246359 0.113667 0.474141
319 2 0.309479 0.159412 0.437126
320 4 0.313078 0.135106 0.432493
544 2 0.0736376 0.215127 0.410855
471 4 0.0175845 0.205472 0.461491
469 2 0.0229007 0.198608 0.438043
261 4 0.0678081 0.206018 0.452048
259 2 0.0630968 0.223715 0.469071
546 4 0.0631312 0.209058 0.432717
260 4 0.0583856 0.241412 0.486094
7 3 0.157814 0.222018 0.487358
685 2 0.1985 0.228841 0.427702
687 4 0.194439 0.233291 0.451969
488 4 0.204832 0.229547 0.470291
487 2 0.228567 0.222791 0.474315
9 3 0.194214 0.231384 0.4873
6 1 0.173406 0.236289 0.47828
10 3 0.173877 0.23349 0.455684
489 4 0.252302 0.216034 0.478339
321 4 0.305879 0.183718 0.441758
411 4 0.299743 0.190174 0.46009
410 4 0.262244 0.223102 0.463304
409 2 0.280993 0.206638 0.461697
1026 4 0.45779 0.163644 0.504688
2850 4 0.0425674 0.31131 0.418397
2847 4 0.00892595 0.26236 0.421583
2915 4 0.990407 0.258856 0.418321
348 4 0.0530323 0.260649 0.486797
1034 4 0.0575664 0.300908 0.423975
2848 2 0.0249234 0.316163 0.435436
346 2 0.0704386 0.278072 0.482481
326 4 0.148798 0.266684 0.493239
325 2 0.126371 0.277316 0.490214
375 4 0.159952 0.279197 0.48084
327 4 0.103943 0.287948 0.487189
347 4 0.0878449 0.295496 0.478164
8 3 0.167486 0.258125 0.483431
407 4 0.194766 0.3211 0.43301
710 4 0.197682 0.302012 0.436281
711 4 0.23589 0.26999 0.432352
709 2 0.216786 0.286001 0.434317
373 2 0.18148 0.290471 0.486725
559 2 0.226336 0.32567 0.472811
560 4 0.207485 0.32042 0.488375
374 4 0.203008 0.301745 0.492609
561 4 0.245187 0.330919 0.457246
336 4 0.243893 0.316045 0.444508
404 4 0.24369 0.253763 0.42498
812 4 0.344132 0.305165 0.488329
811 2 0.327848 0.323049 0.494668
334 2 0.263715 0.321157 0.43015
335 4 0.283537 0.326269 0.415792
650 4 0.344566 0.299502 0.468519
649 2 0.341545 0.297245 0.443801
651 4 0.338524 0.294989 0.419084
239 4 0.414268 0.301438 0.442822
238 2 0.420972 0.293139 0.465436
240 4 0.427675 0.284841 0.48805
926 4 0.411616 0.313547 0.42765
1009 2 0.447179 0.252018 0.506658
1011 4 0.439549 0.275084 0.500746
2849 4 0.00727932 0.321016 0.452475
444 4 0.0442494 0.361629 0.447756
538 2 0.02582 0.395638 0.435002
539 4 0.0323792 0.371516 0.435519
442 2 0.0672674 0.366716 0.456091
681 4 0.119366 0.41965 0.421254
443 4 0.0902854 0.371802 0.464427
680 4 0.097369 0.386636 0.4517
679 2 0.108368 0.403143 0.436477
773 4 0.281527 0.34563 0.41114
772 2 0.287767 0.36848 0.419147
774 4 0.294006 0.39133 0.427155
3 3 0.26711 0.406946 0.438224
927 4 0.398361 0.361358 0.421392
925 2 0.404988 0.337452 0.424521
2813 4 0.0134266 0.424904 0.452157
540 4 0.0192607 0.41976 0.434485
569 4 0.156192 0.477292 0.416904
568 2 0.144436 0.455528 0.420549
436 2 0.247013 0.493867 0.437009
438 4 0.22335 0.48656 0.433566
434 4 0.292308 0.460762 0.42474
1401 4 0.320854 0.487361 0.475195
4 3 0.287316 0.439124 0.439083
1399 2 0.308478 0.472093 0.459739
1400 4 0.296102 0.456825 0.444283
1 1 0.279884 0.421704 0.425677
1910 4 0.420686 0.458645 0.490125
882 4 0.43645 0.453176 0.477613
880 2 0.448378 0.452655 0.455644
881 4 0.460306 0.452134 0.433675
661 2 0.496121 0.457106 0.424073
663 4 0.47519 0.443611 0.421846
340 2 0.0687359 0.041949 0.529188
341 4 0.0873192 0.0307362 0.541602
2428 2 0.0784283 0.000817481 0.563582
3475 2 0.00498409 0.0772507 0.557252
342 4 0.0501527 0.0531618 0.516774
2430 4 0.0943063 0.0178361 0.554448
857 4 0.133482 0.0427509 0.515535
1151 4 0.139535 0.0241085 0.510292
856 2 0.1189 0.0630538 0.514973
1150 2 0.153098 0.0112456 0.526898
858 4 0.104317 0.0833568 0.514411
1646 4 0.181297 0.00684202 0.555219
1645 2 0.192346 0.00701974 0.577648
1182 4 0.254221 0.0556565 0.541314
1032 4 0.270035 0.0654653 0.532179
1180 2 0.259897 0.0321287 0.547592
1181 4 0.265573 0.00860102 0.55387
962 4 0.281313 0.00487933 0.564494
575 4 0.406982 0.0436179 0.491245
4466 4 0.41394 0.0331839 0.507511
4465 2 0.414773 0.0145459 0.524158
3009 4 0.471334 0.0238706 0.545198
88 3 0.464357 0.00687014 0.554117
3007 2 0.469379 0.0149982 0.521903
3477 4 0.02781 0.0764104 0.567423
1219 2 0.120264 0.122245 0.528797
1220 4 0.109852 0.102182 0.518108
1221 4 0.130677 0.142307 0.539487
1212 4 0.147159 0.156528 0.53526
1225 2 0.250945 0.146722 0.547979
1226 4 0.256836 0.122811 0.552305
1031 4 0.263738 0.114998 0.534931
1030 2 0.266887 0.0902317 0.533555
467 4 0.244894 0.108296 0.498517
306 4 0.424775 0.0942121 0.578924
514 2 0.467712 0.151442 0.545973
305 4 0.453506 0.135135 0.578139
515 4 0.470311 0.144073 0.569725
304 2 0.43914 0.114673 0.578532
1210 2 0.145111 0.177705 0.548395
1211 4 0.143064 0.198882 0.561531
1190 4 0.245844 0.24395 0.572899
909 4 0.242646 0.18173 0.55988
1227 4 0.245054 0.170634 0.543653
907 2 0.260838 0.198832 0.561186
908 4 0.279031 0.215935 0.562493
516 4 0.465113 0.15881 0.522222
1010 4 0.454808 0.228953 0.512569
1024 2 0.452846 0.188154 0.504781
1025 4 0.447903 0.212664 0.504874
1272 4 0.994253 0.249648 0.526253
1189 2 0.258016 0.26559 0.575855
791 4 0.253743 0.29642 0.572145
1191 4 0.270187 0.28723 0.578811
790 2 0.247094 0.317437 0.560345
265 2 0.404142 0.258238 0.56651
266 4 0.379767 0.256179 0.571685
872 4 0.435318 0.279077 0.561075
267 4 0.428517 0.260297 0.561335
871 2 0.458796 0.283987 0.568134
906 4 0.485003 0.269216 0.574205
1178 4 0.000609692 0.387376 0.566784
897 4 0.127411 0.379589 0.577986
1165 2 0.158713 0.366459 0.561725
1166 4 0.140587 0.383679 0.561373
1167 4 0.176839 0.34924 0.562077
918 4 0.183583 0.33658 0.577606
792 4 0.240444 0.338454 0.548544
1237 2 0.334246 0.366254 0.529567
1238 4 0.32332 0.355006 0.510091
813 4 0.311564 0.340932 0.501008
1239 4 0.345172 0.377501 0.549043
1029 4 0.341315 0.366999 0.564959
1436 4 0.155817 0.48982 0.535527
1909 2 0.413626 0.465605 0.513079
1911 4 0.406567 0.472566 0.536033
1268 4 0.420402 0.461663 0.546694
1267 2 0.432192 0.45889 0.568569
2285 4 0.0694124 0.0664156 0.646079
34 3 0.05991 0.0824736 0.637541
939 4 0.119505 0.998759 0.626318
949 2 0.220546 0.997927 0.623002
1092 4 0.237968 0.0234008 0.645522
951 4 0.227606 0.00570511 0.645692
1647 4 0.203396 0.00719745 0.600077
45 3 0.318812 0.0382911 0.657634
4225 2 0.378952 0.0712115 0.619736
4226 4 0.389759 0.0522586 0.607523
809 4 0.40121 0.0571383 0.591072
90 3 0.443075 0.01108 0.58489
810 4 0.424078 0.0126665 0.590894
808 2 0.412644 0.0349024 0.590983
33 3 0.081737 0.085644 0.60659
31 1 0.0723134 0.0970741 0.624449
35 3 0.0589791 0.113861 0.616765
852 4 0.042982 0.121604 0.625076
850 2 0.0259111 0.127404 0.607752
944 4 0.0422203 0.117015 0.644708
851 4 0.00884018 0.133205 0.590428
943 2 0.0273141 0.123922 0.663557
32 3 0.0891764 0.106054 0.637261
4227 4 0.368145 0.0901643 0.63195
1193 4 0.356682 0.0992785 0.646728
1194 4 0.353139 0.14875 0.640347
1192 2 0.35491 0.124014 0.643537
899 4 0.370648 0.157253 0.642618
3385 2 0.0137879 0.246699 0.654341
2990 4 0.0170417 0.20449 0.651998
798 4 0.161314 0.167282 0.651854
796 2 0.145756 0.182899 0.663653
1241 4 0.184505 0.226436 0.595742
1278 4 0.184442 0.207125 0.599607
1276 2 0.177384 0.193842 0.61958
1277 4 0.170326 0.180558 0.639553
1284 4 0.286415 0.225147 0.579559
1283 4 0.305195 0.206702 0.622077
1282 2 0.295805 0.215924 0.600818
1004 4 0.298237 0.199382 0.639815
898 2 0.382582 0.172906 0.627198
886 2 0.383312 0.221844 0.600667
900 4 0.394517 0.188558 0.611779
887 4 0.382034 0.204101 0.618239
888 4 0.384591 0.239586 0.583096
3387 4 0.0086943 0.270493 0.648589
1155 4 0.998223 0.272061 0.630829
1242 4 0.151391 0.263527 0.601077
1240 2 0.167948 0.244982 0.598409
804 4 0.281996 0.292087 0.646678
802 2 0.267524 0.298827 0.66592
806 4 0.286175 0.306432 0.634092
805 2 0.298833 0.319707 0.617099
807 4 0.311491 0.332981 0.600107
873 4 0.482275 0.288897 0.575192
3023 4 0.486176 0.308527 0.648109
1139 4 0.464926 0.3067 0.648611
1138 2 0.452769 0.325981 0.658888
895 2 0.122255 0.384646 0.601924
896 4 0.117099 0.389702 0.625862
916 2 0.200508 0.336233 0.596007
1136 4 0.216223 0.337622 0.634677
917 4 0.217433 0.335886 0.614409
1135 2 0.206538 0.356106 0.64845
1172 4 0.280106 0.39644 0.6325
1171 2 0.296107 0.401216 0.613889
1161 4 0.284404 0.414749 0.641784
1173 4 0.312108 0.405991 0.595279
1027 2 0.33427 0.355121 0.585803
1028 4 0.327225 0.343243 0.606647
1279 2 0.0534496 0.499815 0.620248
1281 4 0.0771978 0.493022 0.616366
2015 4 0.0890765 0.418928 0.665659
1041 4 0.0958846 0.493072 0.621595
1160 4 0.245972 0.435048 0.666516
2153 4 0.216465 0.488014 0.662524
2352 4 0.206942 0.503989 0.667409
2152 2 0.223256 0.464891 0.669188
1159 2 0.265188 0.424898 0.65415
890 4 0.324659 0.422273 0.597525
889 2 0.332248 0.446088 0.598202
1001 4 0.343876 0.481643 0.612837
891 4 0.339838 0.469902 0.598879
1000 2 0.363634 0.49203 0.624103
1002 4 0.383391 0.502418 0.635368
1269 4 0.443981 0.456118 0.590444
2284 2 0.0677462 0.0682858 0.670957
2286 4 0.0660799 0.070156 0.695835
862 2 0.0527312 0.0604177 0.728444
864 4 0.060119 0.0791296 0.713596
863 4 0.0453434 0.0417058 0.743292
1149 4 0.140576 0.0127573 0.751599
1090 2 0.254514 0.0365143 0.658918
1049 4 0.267054 0.0871111 0.729497
1048 2 0.265162 0.0735495 0.708576
42 3 0.305702 0.00905252 0.676768
1091 4 0.27106 0.0496278 0.672314
1050 4 0.263271 0.0599879 0.687655
43 3 0.287749 0.042023 0.678582
41 1 0.308552 0.0318781 0.676927
44 3 0.321665 0.0376734 0.695172
2321 4 0.319796 0.0197636 0.746788
980 4 0.335344 0.0421459 0.708971
979 2 0.350986 0.0498902 0.726874
981 4 0.366629 0.0576345 0.744777
1111 2 0.397363 0.0780267 0.740021
1112 4 0.374518 0.075344 0.749825
1113 4 0.420207 0.0807093 0.730217
3402 4 0.481994 0.00214824 0.744785
945 4 0.012408 0.130829 0.682406
3131 4 0.0144804 0.150974 0.739751
1022 4 0.259235 0.102031 0.73751
1021 2 0.254498 0.123897 0.726347
1023 4 0.249762 0.145763 0.715185
3386 4 0.0188814 0.222905 0.660093
2989 2 0.00568023 0.18858 0.667585
3245 4 0.016016 0.246064 0.741716
797 4 0.130199 0.198517 0.675452
695 4 0.137514 0.198868 0.693616
694 2 0.132148 0.220938 0.704069
696 4 0.126782 0.243009 0.714522
1256 4 0.262249 0.15867 0.722241
1003 2 0.293031 0.204258 0.66378
1255 2 0.278799 0.173575 0.733603
1005 4 0.287825 0.209133 0.687745
1257 4 0.29535 0.18848 0.744965
831 4 0.314136 0.206294 0.733329
1131 4 0.277209 0.211968 0.730045
1129 2 0.281863 0.233241 0.742331
829 2 0.333996 0.21101 0.74777
830 4 0.353856 0.215725 0.76221
953 4 0.475113 0.23052 0.733514
952 2 0.491596 0.221943 0.716783
1298 4 0.460639 0.243324 0.737893
833 4 0.032948 0.25261 0.749912
832 2 0.0557341 0.262537 0.752636
1105 2 0.0634795 0.315145 0.739465
834 4 0.0785203 0.272464 0.75536
1106 4 0.0445117 0.302091 0.749211
1259 4 0.127932 0.260759 0.723396
1258 2 0.134681 0.282614 0.713297
1260 4 0.14143 0.304469 0.703198
1208 4 0.124059 0.31034 0.694772
920 4 0.0909677 0.257844 0.757182
803 4 0.253051 0.305568 0.685163
1008 4 0.267656 0.320988 0.70619
1297 2 0.472077 0.256521 0.755787
1107 4 0.0824474 0.328198 0.729718
993 4 0.100609 0.406967 0.653561
1214 4 0.100497 0.335228 0.733852
1213 2 0.0968963 0.358236 0.742955
1215 4 0.0932961 0.381243 0.752059
1207 2 0.125944 0.335244 0.695959
821 4 0.0959904 0.396922 0.738275
991 2 0.112319 0.391017 0.668847
992 4 0.124029 0.375067 0.684133
1209 4 0.127829 0.360148 0.697146
1137 4 0.196853 0.374591 0.662224
948 4 0.211851 0.374174 0.676839
946 2 0.216049 0.386696 0.698069
947 4 0.220248 0.399219 0.7193
1006 2 0.275617 0.344646 0.707644
1007 4 0.283579 0.368303 0.709098
1067 4 0.285081 0.366858 0.728321
1066 2 0.291761 0.382831 0.74636
1101 4 0.407484 0.384217 0.720569
1099 2 0.388286 0.39363 0.733532
1100 4 0.369088 0.403042 0.746494
1204 2 0.473184 0.37403 0.678716
1206 4 0.450701 0.364131 0.674059
1140 4 0.440611 0.345262 0.669165
1019 4 0.421658 0.380114 0.733577
1018 2 0.440518 0.364283 0.737918
1020 4 0.459379 0.348451 0.742258
788 4 0.476084 0.340027 0.734127
787 2 0.494021 0.344484 0.750966
3430 2 0.0628806 0.487626 0.706343
2016 4 0.0721632 0.46287 0.682504
3432 4 0.0811489 0.47418 0.695824
822 4 0.0633923 0.434841 0.737809
2014 2 0.0806198 0.440899 0.674081
820 2 0.0796913 0.415882 0.738042
2154 4 0.230047 0.441769 0.675851
1230 4 0.270427 0.450859 0.744726
1229 4 0.269508 0.418951 0.706232
1228 2 0.269967 0.434905 0.725479
1249 2 0.493375 0.46135 0.738621
1251 4 0.473807 0.445786 0.738797
911 4 0.0391759 0.00674172 0.789537
912 4 0.0401947 0.0484729 0.762002
910 2 0.0396853 0.0276073 0.775769
2277 4 0.0471691 0.00227171 0.807352
1147 2 0.163708 0.0222396 0.752028
1196 4 0.205794 0.0103756 0.805956
1148 4 0.18684 0.0317219 0.752457
1895 4 0.210153 0.00304525 0.824818
1894 2 0.216844 0.0250748 0.83457
2047 2 0.251004 0.070448 0.835565
3254 4 0.501475 0.0440365 0.786626
3400 2 0.483117 0.0192118 0.763027
3401 4 0.48424 0.0362754 0.781268
3391 2 0.000852324 0.132172 0.776188
3392 4 0.00713296 0.147817 0.757722
2049 4 0.259764 0.0902716 0.823096
840 4 0.267842 0.108115 0.818515
838 2 0.266726 0.125966 0.835988
839 4 0.265609 0.143817 0.85346
3244 2 0.999481 0.234651 0.756599
1291 2 0.223919 0.227587 0.822105
1292 4 0.20572 0.242414 0.813496
1265 4 0.198584 0.255471 0.79997
1264 2 0.179142 0.258541 0.784551
978 4 0.360884 0.196637 0.769879
976 2 0.37385 0.19886 0.791141
977 4 0.386817 0.201082 0.812404
1146 4 0.372505 0.201387 0.825765
921 4 0.140352 0.259409 0.764895
919 2 0.11566 0.258626 0.761039
1072 2 0.150907 0.308342 0.77819
1073 4 0.146494 0.297537 0.800302
815 4 0.140702 0.311128 0.813265
1266 4 0.1597 0.261611 0.769131
1074 4 0.155319 0.319148 0.756078
800 4 0.268539 0.317834 0.762361