ITEM: TIMESTEP
200000
ITEM: NUMBER OF ATOMS
4590
ITEM: BOX BOUNDS pp pp pp
-9.9985700000000008e+00 9.9985700000000008e+00
-9.9985700000000008e+00 9.9985700000000008e+00
-9.9985700000000008e+00 9.9985700000000008e+00
ITEM: ATOMS id type xs ys zs
464 4 0.0648324 0.0551911 0.0163493
1668 4 0.0478856 0.0182349 0.0717592
532 2 0.156721 0.0168124 0.0120729
534 4 0.166028 0.0184929 0.0352187
490 2 0.283342 0.0459254 0.0319236
491 4 0.270117 0.0249084 0.029
492 4 0.296568 0.0669423 0.0348473
486 4 0.33501 0.0195264 0.0695651
295 2 0.420641 0.0401556 0.0763595
484 2 0.355813 0.0153211 0.0563463
985 2 0.417898 0.061492 0.998457
297 4 0.43133 0.0459021 0.0544985
745 2 0.463885 0.0413675 0.0255964
746 4 0.448027 0.0461703 0.0443218
747 4 0.479743 0.0365646 0.00687104
986 4 0.43314 0.0638532 0.018137
589 2 0.0468265 0.147126 0.0662502
591 4 0.0700076 0.156383 0.067708
3233 4 0.00601594 0.128722 0.0116555
590 4 0.0236455 0.137869 0.0647924
702 4 0.107874 0.0833482 0.0666705
700 2 0.13179 0.0904566 0.0683002
701 4 0.155706 0.0975649 0.0699298
421 2 0.1557 0.132404 0.0392859
476 4 0.148844 0.151837 0.0719684
423 4 0.141003 0.14637 0.0539205
422 4 0.170396 0.118439 0.0246513
565 2 0.212226 0.118815 0.0348382
567 4 0.1874 0.116459 0.0366529
566 4 0.237052 0.121172 0.0330235
359 4 0.253333 0.12243 0.0212865
358 2 0.271332 0.13156 0.0360465
360 4 0.289331 0.140691 0.0508065
462 4 0.302409 0.130721 0.0648269
460 2 0.320618 0.14765 0.0674726
253 2 0.407571 0.15074 0.0714113
254 4 0.385472 0.158149 0.0623603
255 4 0.429669 0.14333 0.0804624
553 2 0.0528541 0.198556 0.999624
554 4 0.0728672 0.21352 0.000484851
836 4 0.0873285 0.201218 0.00842208
352 2 0.243624 0.210031 0.0752935
1134 4 0.195075 0.197855 0.994619
1132 2 0.170098 0.198992 0.994751
353 4 0.268383 0.209331 0.0718766
571 2 0.318646 0.243323 0.0376545
573 4 0.309142 0.25427 0.0172825
461 4 0.338828 0.16458 0.0701183
357 4 0.300183 0.236608 0.0130294
558 4 0.341265 0.1755 0.0533557
572 4 0.32815 0.232377 0.0580265
556 2 0.35174 0.187475 0.0340664
666 4 0.37639 0.213927 0.00813893
557 4 0.362215 0.199449 0.0147771
1071 4 0.410551 0.216479 0.0246223
770 4 0.476343 0.195561 0.0763866
769 2 0.468952 0.19658 0.0525222
771 4 0.461561 0.197599 0.0286577
1013 4 0.467701 0.211466 0.0165002
1069 2 0.425943 0.211775 0.00548716
293 4 0.120647 0.296526 0.0288409
506 4 0.156475 0.329505 0.074393
292 2 0.115197 0.308568 0.00761699
483 4 0.198764 0.316592 0.0220188
505 2 0.171288 0.32692 0.0544162
507 4 0.186101 0.324335 0.0344394
481 2 0.219144 0.311505 0.0355807
482 4 0.239525 0.306417 0.0491426
914 4 0.162282 0.302879 0.999722
740 4 0.35798 0.321665 0.0788643
323 4 0.411527 0.309349 0.0727883
672 4 0.430884 0.305367 0.0696877
670 2 0.44724 0.322848 0.0624709
329 4 0.0240985 0.399565 0.00633067
454 2 0.113395 0.391971 0.0324502
455 4 0.12579 0.407279 0.0478519
456 4 0.101 0.376663 0.0170486
287 4 0.216646 0.354203 0.0151254
286 2 0.19369 0.351866 0.00549492
250 2 0.265696 0.410412 0.0293115
251 4 0.285909 0.397634 0.0220093
957 4 0.320008 0.370161 0.0216596
608 4 0.359065 0.416399 0.0316447
671 4 0.463596 0.340329 0.0552541
550 2 0.0641642 0.473421 0.0555879
551 4 0.0512902 0.466717 0.075947
552 4 0.0770381 0.480125 0.0352288
243 4 0.15884 0.465162 0.0430261
241 2 0.173431 0.484789 0.0482282
246 4 0.228746 0.436258 0.0361473
244 2 0.236773 0.459926 0.036878
245 4 0.244801 0.483595 0.0376087
252 4 0.245482 0.42319 0.0366137
1778 4 0.260202 0.490106 0.0252767
271 2 0.296418 0.458257 0.00584983
272 4 0.295937 0.48 0.0181862
525 4 0.334816 0.496693 0.0478532
607 2 0.356447 0.422887 0.0556496
226 2 0.478286 0.421898 0.0697098
564 4 0.465599 0.496826 0.0389442
562 2 0.472583 0.472912 0.0410808
227 4 0.4863 0.443962 0.0610987
563 4 0.479566 0.448999 0.0432174
1666 2 0.0687506 0.0171637 0.0854954
1667 4 0.0896156 0.0160924 0.0992316
1806 4 0.0948506 0.0315346 0.110705
1805 4 0.124839 0.0200681 0.149045
448 2 0.165499 0.0257536 0.130577
449 4 0.142234 0.0209338 0.138368
1804 2 0.109845 0.0258014 0.129875
1539 4 0.130296 0.00710673 0.16338
450 4 0.188764 0.0305734 0.122786
1505 4 0.249229 0.998009 0.144219
1504 2 0.241161 0.00962609 0.164838
1475 4 0.247457 0.00674766 0.126084
653 4 0.326889 0.026889 0.0865837
654 4 0.323132 0.00467504 0.131228
1476 4 0.292298 0.0080541 0.103988
1474 2 0.269878 0.00740088 0.115036
652 2 0.32501 0.015782 0.108906
296 4 0.409952 0.0344091 0.0982205
20 3 0.0581119 0.0894024 0.154125
381 4 0.0334845 0.138676 0.157957
379 2 0.0166811 0.143621 0.140114
17 3 0.0485939 0.125471 0.155293
380 4 0.999878 0.148566 0.122271
475 2 0.148676 0.162065 0.0947841
236 4 0.194905 0.150623 0.137085
235 2 0.191404 0.130039 0.150841
237 4 0.187904 0.109456 0.164598
581 4 0.252477 0.149214 0.161735
580 2 0.263136 0.12662 0.160705
582 4 0.273795 0.104025 0.159675
285 4 0.267679 0.157584 0.151847
628 2 0.387059 0.131895 0.144861
629 4 0.380677 0.151151 0.130243
363 4 0.05344 0.225098 0.138248
361 2 0.0698672 0.223463 0.157027
477 4 0.148509 0.172292 0.1176
337 2 0.136357 0.21072 0.117612
338 4 0.146594 0.190471 0.107106
339 4 0.12612 0.230969 0.128117
354 4 0.218865 0.210731 0.0787104
738 4 0.191993 0.202602 0.140841
736 2 0.201507 0.209467 0.11876
737 4 0.211021 0.216332 0.0966801
284 4 0.258096 0.20642 0.15673
283 2 0.262887 0.182002 0.154288
624 4 0.351321 0.239429 0.14865
518 4 0.463615 0.201554 0.0917501
517 2 0.468431 0.189534 0.11314
519 4 0.473248 0.177515 0.134529
621 4 0.994312 0.323847 0.0971127
754 2 0.31977 0.284122 0.11753
756 4 0.312547 0.262076 0.108203
755 4 0.326993 0.306168 0.126857
611 4 0.270219 0.321127 0.168269
322 2 0.4018 0.304196 0.0952386
324 4 0.392073 0.299044 0.117689
619 2 0.00130055 0.345942 0.0877232
620 4 0.0082892 0.368037 0.0783338
626 4 0.244404 0.390836 0.101942
535 2 0.179008 0.360883 0.154449
625 2 0.221584 0.400908 0.103668
536 4 0.191408 0.369765 0.134636
12 3 0.388411 0.344401 0.132733
739 2 0.350116 0.340831 0.0928645
741 4 0.342251 0.359996 0.106865
387 4 0.353311 0.374858 0.113014
385 2 0.354791 0.39873 0.105725
14 3 0.361167 0.370284 0.132035
11 1 0.373929 0.35662 0.145776
13 3 0.386259 0.369563 0.16057
302 4 0.338074 0.403171 0.175659
228 4 0.470272 0.399835 0.078321
314 4 0.0126157 0.498499 0.0994119
627 4 0.198764 0.41098 0.105393
1438 2 0.240279 0.511872 0.0963739
1439 4 0.221545 0.495325 0.0970372
638 4 0.268792 0.496204 0.162553
639 4 0.281367 0.457693 0.133237
637 2 0.275079 0.476948 0.147895
609 4 0.35383 0.429375 0.0796545
386 4 0.356271 0.422601 0.098435
658 2 0.414102 0.451039 0.164026
660 4 0.396245 0.467403 0.170236
597 4 0.451731 0.434929 0.153968
495 4 0.458858 0.453925 0.149775
493 2 0.456009 0.466136 0.128143
494 4 0.453161 0.478347 0.106511
659 4 0.431958 0.434675 0.157816
2480 4 0.0242133 0.0589414 0.178915
1422 4 0.0248847 0.0418086 0.190475
2479 2 0.0242255 0.0728639 0.199684
1420 2 0.0299742 0.0184288 0.183218
2481 4 0.0242378 0.0867864 0.220453
1403 4 0.0805228 0.00395512 0.254134
690 4 0.161826 0.998627 0.244143
579 4 0.0989446 0.0967157 0.242361
673 2 0.0973004 0.0103685 0.21795
674 4 0.0929779 0.0137625 0.242342
675 4 0.101623 0.00697453 0.193558
1506 4 0.233092 0.0212432 0.185456
688 2 0.175376 0.0166511 0.23334
691 2 0.233808 0.0751592 0.227626
689 4 0.188926 0.0346754 0.222537
692 4 0.252845 0.0589716 0.22849
1660 2 0.306807 0.00012821 0.162187
1661 4 0.294967 0.0121153 0.180662
27 3 0.302372 0.0797734 0.216169
21 1 0.360507 0.0708872 0.2341
23 3 0.378657 0.0606154 0.244271
24 3 0.342095 0.0567757 0.234633
744 4 0.391041 0.0761934 0.240471
25 3 0.365634 0.0761585 0.212546
742 2 0.415829 0.0759107 0.243738
743 4 0.440617 0.0756281 0.247005
19 3 0.0331802 0.101375 0.179674
16 1 0.052477 0.106633 0.16791
18 3 0.0698358 0.11095 0.182689
578 4 0.0700791 0.106457 0.202705
577 2 0.0845118 0.101586 0.222533
723 4 0.215949 0.111876 0.22471
693 4 0.214771 0.0913468 0.226763
721 2 0.198987 0.130069 0.227261
722 4 0.182026 0.148261 0.229812
26 1 0.308786 0.0981141 0.228483
30 3 0.327493 0.107207 0.219208
28 3 0.291541 0.113637 0.228358
22 3 0.355449 0.0901491 0.245613
759 4 0.370748 0.0735976 0.193616
630 4 0.39344 0.11264 0.159479
757 2 0.391948 0.0864948 0.190554
758 4 0.413149 0.099392 0.187491
312 4 0.423389 0.100926 0.206633
310 2 0.437902 0.118252 0.195938
311 4 0.452414 0.135577 0.185243
511 2 0.0510869 0.173662 0.245182
513 4 0.0634311 0.191119 0.232218
393 4 0.0740459 0.208671 0.233713
391 2 0.0815104 0.206955 0.209911
392 4 0.0889748 0.205239 0.18611
396 4 0.00696778 0.247918 0.197914
362 4 0.0862944 0.221828 0.175807
279 4 0.250622 0.224256 0.16202
277 2 0.254963 0.24838 0.166957
622 2 0.357707 0.230187 0.170988
764 4 0.362632 0.231853 0.209678
763 2 0.373971 0.213125 0.221755
623 4 0.364094 0.220945 0.193326
765 4 0.385311 0.194397 0.233832
520 2 0.48665 0.183165 0.239086
521 4 0.473676 0.186857 0.218033
704 4 0.00130899 0.324683 0.177825
394 2 0.0249497 0.265263 0.198905
648 4 0.0206157 0.327969 0.172588
395 4 0.0429315 0.282608 0.199895
370 2 0.153563 0.270181 0.234653
371 4 0.132441 0.264012 0.222782
372 4 0.174686 0.276351 0.246525
278 4 0.259305 0.272504 0.171893
612 4 0.287822 0.322002 0.215068
610 2 0.279021 0.321564 0.191669
307 2 0.304107 0.284942 0.253867
308 4 0.288046 0.266971 0.247213
542 4 0.402126 0.320854 0.253251
526 2 0.46836 0.288676 0.202921
528 4 0.46006 0.267245 0.193071
527 4 0.47666 0.310107 0.21277
2538 4 0.486198 0.324958 0.222417
646 2 0.0309359 0.345262 0.187407
647 4 0.0412561 0.362556 0.202226
262 2 0.0302573 0.403553 0.206939
263 4 0.0311078 0.379997 0.198598
299 4 0.157388 0.364416 0.186663
298 2 0.146006 0.349587 0.203268
300 4 0.134624 0.334757 0.219874
537 4 0.166608 0.352 0.174261
290 4 0.210992 0.402458 0.217704
15 3 0.360399 0.342391 0.157314
645 4 0.427778 0.351392 0.184982
643 2 0.436057 0.374912 0.186836
644 4 0.444336 0.398432 0.188691
2618 4 0.015602 0.471486 0.218984
264 4 0.0294067 0.427109 0.215279
415 2 0.164612 0.469332 0.234742
416 4 0.156288 0.492696 0.237907
417 4 0.172936 0.445968 0.231578
291 4 0.193454 0.446948 0.232325
289 2 0.202223 0.424703 0.225014
768 4 0.29174 0.475562 0.231181
767 4 0.317632 0.449425 0.197311
766 2 0.304686 0.462494 0.214246
303 4 0.332448 0.452327 0.182923
1574 4 0.395669 0.482634 0.184045
301 2 0.335261 0.427749 0.179291
1573 2 0.385775 0.505407 0.186989
230 4 0.377972 0.494822 0.244342
595 2 0.471258 0.430538 0.168954
596 4 0.490786 0.426147 0.18394
712 2 0.437544 0.48223 0.242098
1404 4 0.0645114 0.0385712 0.286477
234 4 0.0733113 0.0334705 0.305157
232 2 0.0644504 0.0391683 0.327832
1402 2 0.0725171 0.0212632 0.270306
731 4 0.143065 0.0537934 0.300844
732 4 0.18474 0.0446316 0.32692
730 2 0.163902 0.0492125 0.313882
333 4 0.448429 0.078408 0.265423
512 4 0.0387426 0.156206 0.258146
529 2 0.0240283 0.138048 0.28068
531 4 0.0230788 0.142227 0.256046
530 4 0.0249777 0.133869 0.305313
397 2 0.0683363 0.126587 0.315878
398 4 0.044266 0.127268 0.309145
399 4 0.0924065 0.125905 0.322612
403 2 0.216163 0.154843 0.286855
404 4 0.194302 0.166536 0.290105
405 4 0.238023 0.143149 0.283606
248 4 0.251731 0.0866068 0.277788
247 2 0.249181 0.110901 0.272454
249 4 0.246631 0.135196 0.26712
29 3 0.313214 0.0913675 0.250238
632 4 0.371328 0.0994576 0.251537
631 2 0.363911 0.120779 0.262286
633 4 0.356494 0.142101 0.273036
761 4 0.435359 0.151603 0.309812
351 4 0.487256 0.0843932 0.319833
349 2 0.483299 0.103543 0.335414
331 2 0.462255 0.0761225 0.286131
332 4 0.476081 0.073837 0.306838
760 2 0.459537 0.157299 0.312665
762 4 0.483716 0.162995 0.315518
600 4 0.169391 0.220507 0.312461
545 4 0.152981 0.212427 0.253272
544 2 0.162894 0.209482 0.276037
546 4 0.172807 0.206537 0.298802
402 4 0.216557 0.2507 0.301146
707 4 0.28432 0.199975 0.290476
706 2 0.293242 0.2178 0.30557
708 4 0.302165 0.235626 0.320663
419 4 0.477911 0.222285 0.333204
750 4 0.0622549 0.307461 0.30808
444 4 0.0394907 0.292631 0.291978
748 2 0.0675091 0.327192 0.293649
442 2 0.0291203 0.284458 0.313211
443 4 0.0187499 0.276285 0.334443
676 2 0.161114 0.319349 0.31341
678 4 0.162376 0.294585 0.31662
400 2 0.221145 0.274192 0.308376
401 4 0.225733 0.297684 0.315605
510 4 0.212988 0.309178 0.327379
309 4 0.320167 0.302913 0.26052
343 2 0.262416 0.306224 0.284988
344 4 0.256569 0.307937 0.309238
345 4 0.268263 0.30451 0.260738
498 4 0.272908 0.298583 0.31543
729 4 0.337004 0.312785 0.258258
614 4 0.362381 0.295732 0.313868
749 4 0.0727633 0.346923 0.279218
364 2 0.0375694 0.370894 0.273351
365 4 0.0185641 0.387141 0.27344
366 4 0.0565747 0.354646 0.273261
602 4 0.0717997 0.410138 0.283955
601 2 0.0887325 0.391741 0.283819
603 4 0.105665 0.373345 0.283682
735 4 0.168736 0.352456 0.294527
733 2 0.177853 0.372369 0.306591
677 4 0.159851 0.344114 0.310199
734 4 0.18697 0.392281 0.318656
728 4 0.330673 0.357548 0.279633
727 2 0.333839 0.335167 0.268946
541 2 0.393275 0.341982 0.263275
447 4 0.397703 0.377949 0.268391
543 4 0.384423 0.363109 0.273298
445 2 0.41274 0.396748 0.27515
119 3 0.487876 0.41125 0.315364
446 4 0.427777 0.415547 0.281909
116 1 0.477468 0.392489 0.324201
118 3 0.470891 0.378276 0.30708
2691 4 0.0137909 0.437587 0.248461
775 2 0.1162 0.495235 0.30746
413 4 0.153958 0.4776 0.321885
414 4 0.150285 0.431077 0.303916
412 2 0.152122 0.454338 0.3129
1757 4 0.0951633 0.493274 0.279345
777 4 0.135425 0.484765 0.319542
1435 2 0.276775 0.498611 0.332846
1436 4 0.284302 0.481319 0.316429
436 2 0.300374 0.458519 0.308615
437 4 0.316169 0.442442 0.319442
438 4 0.28458 0.474596 0.297787
229 2 0.370183 0.507601 0.264371
435 4 0.335364 0.441543 0.316773
713 4 0.45142 0.469649 0.258662
1771 2 0.00877506 0.00387117 0.395995
233 4 0.0555894 0.0448661 0.350508
428 4 0.0934753 0.0221886 0.363278
427 2 0.112706 0.0112554 0.351624
606 4 0.152766 0.0441085 0.368093
604 2 0.163772 0.0434956 0.390536
605 4 0.174777 0.0428827 0.412978
1818 4 0.261946 0.991638 0.394548
1816 2 0.283699 0.999379 0.404144
1817 4 0.305452 0.00711888 0.41374
698 4 0.379895 0.046666 0.365658
697 2 0.375917 0.0226221 0.360068
726 4 0.340154 0.0672273 0.38857
258 4 0.387986 0.0590392 0.379499
256 2 0.410262 0.0702736 0.381147
425 4 0.356224 0.0599507 0.398514
424 2 0.360209 0.0525319 0.422056
257 4 0.432539 0.0815081 0.382795
316 2 0.0196579 0.085722 0.343292
318 4 0.0433744 0.093579 0.34428
473 4 0.241173 0.145668 0.340953
472 2 0.25947 0.161359 0.334305
320 4 0.240477 0.138252 0.395268
725 4 0.331385 0.115979 0.381708
684 4 0.323501 0.133528 0.385393
682 2 0.303161 0.140878 0.372846
683 4 0.282821 0.148228 0.360298
724 2 0.33577 0.0916033 0.385139
467 4 0.413065 0.117175 0.407591
350 4 0.479342 0.122694 0.350996
453 4 0.493401 0.118539 0.365511
2655 4 0.0204019 0.200684 0.346913
2653 2 0.0212866 0.211816 0.369284
2654 4 0.0221712 0.222948 0.391656
687 4 0.212844 0.178585 0.392296
598 2 0.169986 0.22129 0.337445
685 2 0.197492 0.196518 0.384056
686 4 0.182139 0.214451 0.375817
599 4 0.170581 0.222072 0.362429
474 4 0.277768 0.177049 0.327657
717 4 0.325324 0.231589 0.387488
418 2 0.455737 0.215186 0.342321
420 4 0.433563 0.208088 0.351438
269 4 0.481004 0.240166 0.378993
618 4 0.0714165 0.304879 0.325241
616 2 0.0901752 0.295568 0.338901
390 4 0.162985 0.282406 0.333257
388 2 0.142121 0.276066 0.345492
617 4 0.108934 0.286258 0.352562
389 4 0.121258 0.269726 0.357727
275 4 0.187756 0.260259 0.3806
274 2 0.2037 0.266615 0.398782
508 2 0.209572 0.332178 0.336572
496 2 0.282298 0.282133 0.331752
497 4 0.291688 0.265684 0.348075
376 2 0.277619 0.263219 0.383099
377 4 0.273521 0.261938 0.358467
613 2 0.361843 0.277836 0.331322
615 4 0.361304 0.25994 0.348775
715 2 0.343435 0.246484 0.37881
716 4 0.361546 0.261379 0.370132
560 4 0.400896 0.278978 0.386041
559 2 0.422043 0.292082 0.388537
268 2 0.47328 0.260796 0.390822
561 4 0.443191 0.305187 0.391033
549 4 0.051262 0.392549 0.388201
547 2 0.065825 0.41273 0.390615
407 4 0.132025 0.391338 0.3854
406 2 0.126453 0.404895 0.405656
509 4 0.206157 0.355178 0.345766
502 2 0.205121 0.378536 0.366475
503 4 0.197376 0.354825 0.364743
504 4 0.212865 0.402247 0.368206
336 4 0.355781 0.359861 0.401964
334 2 0.346282 0.380429 0.412544
117 3 0.458822 0.399151 0.335911
120 3 0.491687 0.381625 0.338289
548 4 0.0803879 0.432911 0.393029
501 4 0.0797867 0.446031 0.378356
499 2 0.103341 0.454419 0.378312
500 4 0.126896 0.462807 0.378269
569 4 0.192252 0.46211 0.380716
568 2 0.177688 0.458447 0.400707
668 4 0.344233 0.452795 0.410946
5 3 0.339817 0.464158 0.355375
433 2 0.349816 0.432413 0.33502
752 4 0.413421 0.414014 0.356455
434 4 0.364268 0.423282 0.353266
2 3 0.328256 0.485767 0.383523
751 2 0.404886 0.412964 0.379933
753 4 0.396351 0.411913 0.403411
4 3 0.338491 0.45025 0.390339
1 1 0.342812 0.469033 0.377418
3 3 0.364547 0.476307 0.381036
594 4 0.37259 0.49322 0.374188
1772 4 0.0237274 0.0189659 0.409177
718 2 0.0699386 0.073385 0.447974
720 4 0.0538489 0.0716619 0.467035
342 4 0.163204 0.00281213 0.490276
368 4 0.108374 0.0900488 0.444255
340 2 0.166439 0.0273087 0.494101
719 4 0.0860283 0.0751082 0.428912
1152 4 0.180967 0.0583046 0.481629
1150 2 0.202291 0.0682341 0.490108
426 4 0.364193 0.0451131 0.445599
1061 4 0.491837 0.00986641 0.491055
459 4 0.0103733 0.155619 0.468368
369 4 0.152647 0.102592 0.463831
367 2 0.13051 0.0963206 0.454043
1034 4 0.0931409 0.142753 0.465989
321 4 0.27851 0.152754 0.424318
319 2 0.259494 0.145503 0.409793
466 2 0.403795 0.126674 0.428781
468 4 0.394525 0.136173 0.449971
576 4 0.383357 0.152419 0.444523
640 2 0.439502 0.118969 0.47847
641 4 0.446039 0.1343 0.459831
642 4 0.432965 0.103638 0.497109
470 4 0.0114819 0.169509 0.452876
471 4 0.0298878 0.206953 0.480442
469 2 0.0206848 0.188231 0.466659
260 4 0.0705709 0.231116 0.425434
261 4 0.097813 0.209491 0.461364
259 2 0.0841919 0.220303 0.443399
1033 2 0.0920698 0.167075 0.46029
1035 4 0.0909987 0.191397 0.454591
411 4 0.281296 0.202761 0.497763
409 2 0.288239 0.2001 0.473891
410 4 0.295183 0.197439 0.450018
487 2 0.305676 0.237141 0.436924
489 4 0.300524 0.212679 0.437429
574 2 0.378224 0.172794 0.458075
575 4 0.373091 0.193169 0.471628
267 4 0.369842 0.219126 0.438665
265 2 0.36432 0.237807 0.45434
515 4 0.463204 0.184449 0.44121
304 2 0.482598 0.221819 0.448326
516 4 0.417844 0.18084 0.46195
514 2 0.440524 0.182644 0.45158
305 4 0.47342 0.202626 0.435188
347 4 0.056829 0.296862 0.436064
346 2 0.0608219 0.273153 0.429199
348 4 0.0648148 0.249445 0.422334
10 3 0.164039 0.312589 0.47865
326 4 0.117268 0.32393 0.484041
276 4 0.219643 0.272971 0.416963
373 2 0.230601 0.321665 0.451274
378 4 0.281717 0.2645 0.407731
374 4 0.254985 0.316134 0.451174
488 4 0.310827 0.261603 0.436419
651 4 0.308864 0.282001 0.441665
649 2 0.325434 0.284827 0.460175
650 4 0.342004 0.287652 0.478685
813 4 0.334816 0.286069 0.496992
266 4 0.358798 0.256489 0.470014
270 4 0.465555 0.281425 0.402651
583 2 0.450325 0.290642 0.438826
584 4 0.439229 0.284443 0.417294
585 4 0.461422 0.296842 0.460357
327 4 0.0835621 0.360727 0.487298
8 3 0.16109 0.348482 0.489633
325 2 0.100415 0.342328 0.485669
636 4 0.180447 0.406502 0.460241
375 4 0.206218 0.327197 0.451374
709 2 0.201218 0.369606 0.457738
710 4 0.194338 0.392685 0.464462
711 4 0.208098 0.346527 0.451014
773 4 0.322443 0.410056 0.498205
335 4 0.336783 0.400997 0.423124
239 4 0.405928 0.393054 0.487865
925 2 0.446879 0.384678 0.476603
927 4 0.471825 0.384231 0.47496
926 4 0.421933 0.385125 0.478245
538 2 0.0852636 0.482621 0.462472
539 4 0.0683067 0.46494 0.457472
681 4 0.0677087 0.444292 0.453424
679 2 0.0842017 0.42965 0.441644
408 4 0.120881 0.418452 0.425913
680 4 0.100695 0.415009 0.429863
635 4 0.177909 0.442719 0.425852
634 2 0.179178 0.42461 0.443047
570 4 0.163124 0.454784 0.420698
667 2 0.327118 0.449437 0.428863
669 4 0.310004 0.446079 0.446779
586 2 0.378934 0.43856 0.430062
587 4 0.394665 0.422427 0.440899
588 4 0.363202 0.454692 0.419225
1126 2 0.065555 0.0462624 0.557089
1127 4 0.0589743 0.0231816 0.550078
2237 4 0.0589906 0.00364989 0.551224
1128 4 0.0721357 0.0693433 0.564099
1059 4 0.151264 0.0371394 0.573475
341 4 0.169674 0.0518053 0.497926
962 4 0.225324 0.0294094 0.549193
2430 4 0.211336 0.0156577 0.543233
961 2 0.245907 0.0400842 0.539836
963 4 0.26649 0.0507591 0.530479
430 2 0.302959 0.0634068 0.539205
432 4 0.278337 0.0663974 0.536036
431 4 0.32758 0.0604162 0.542373
841 2 0.360985 0.0585052 0.520266
842 4 0.373469 0.0557419 0.498779
843 4 0.3485 0.0612684 0.541752
2196 4 0.39014 0.00861515 0.554942
1218 4 0.410653 0.00720771 0.548804
1216 2 0.423673 0.022191 0.564007
1217 4 0.436694 0.0371742 0.579211
4467 4 0.459253 0.00989029 0.568697
4465 2 0.470959 0.999442 0.588164
939 4 0.072745 0.129529 0.553161
937 2 0.0539037 0.143389 0.544324
938 4 0.0350625 0.157249 0.535487
1154 4 0.120772 0.128381 0.573541
1180 2 0.248652 0.104013 0.523019
1181 4 0.233474 0.0869381 0.512857
1151 4 0.223614 0.0781636 0.498587
1182 4 0.26383 0.121087 0.533181
1030 2 0.283192 0.123561 0.566726
1032 4 0.267564 0.1317 0.548987
900 4 0.348451 0.119295 0.574023
877 2 0.0678135 0.201463 0.568858
879 4 0.0834742 0.192895 0.55135
1270 2 0.124883 0.185778 0.549313
1272 4 0.101863 0.194784 0.545548
1271 4 0.147903 0.176773 0.553078
1221 4 0.155191 0.182581 0.571094
858 4 0.197943 0.17299 0.569729
856 2 0.198401 0.168347 0.545164
857 4 0.19886 0.163703 0.5206
694 2 0.090193 0.291582 0.545013
695 4 0.0887706 0.266619 0.545186
696 4 0.0916155 0.316544 0.544839
1259 4 0.133637 0.276126 0.555916
7 3 0.13348 0.324002 0.496782
6 1 0.156286 0.326423 0.494994
9 3 0.16603 0.320908 0.515317
792 4 0.267672 0.286103 0.578239
790 2 0.286503 0.284392 0.561879
791 4 0.305334 0.282681 0.54552
811 2 0.344583 0.281239 0.519497
812 4 0.35435 0.276409 0.542001
872 4 0.435199 0.248326 0.509117
871 2 0.422585 0.26683 0.520239
873 4 0.409971 0.285334 0.53136
905 4 0.467121 0.289686 0.555388
1010 4 0.487393 0.287753 0.557126
904 2 0.453507 0.283009 0.575269
803 4 0.274017 0.357191 0.557169
802 2 0.270561 0.344771 0.578592
772 2 0.308841 0.397916 0.515315
774 4 0.295239 0.385776 0.532426
238 2 0.40854 0.399524 0.511875
1938 4 0.0273827 0.461267 0.538691
1936 2 0.0467477 0.469528 0.525203
1937 4 0.0661127 0.477789 0.511714
935 4 0.0261364 0.46071 0.559518
384 4 0.150648 0.49822 0.516711
382 2 0.13398 0.497735 0.49808
1161 4 0.148321 0.454555 0.581528
896 4 0.168153 0.454201 0.583823
895 2 0.191908 0.446398 0.583679
1172 4 0.269134 0.43454 0.535547
1171 2 0.274398 0.438655 0.559641
882 4 0.345611 0.457987 0.501677
240 4 0.411152 0.405993 0.535885
880 2 0.341781 0.481661 0.494602
1002 4 0.389413 0.416509 0.569369
1000 2 0.407633 0.432645 0.563637
1001 4 0.425852 0.448781 0.557904
663 4 0.477354 0.438526 0.493143
661 2 0.481998 0.462665 0.497715
662 4 0.486641 0.486805 0.502288
1057 2 0.142638 0.0378193 0.596933
1058 4 0.134013 0.0384992 0.620392
2317 2 0.123293 0.00781162 0.656574
945 4 0.117766 0.0503066 0.653797
2318 4 0.126602 0.03243 0.653718
824 4 0.226619 0.035416 0.608728
823 2 0.214452 0.0286817 0.629508
1283 4 0.221854 0.0789948 0.643528
825 4 0.202286 0.0219473 0.650288
949 2 0.264218 0.0246406 0.594249
951 4 0.272268 0.0405507 0.611777
808 2 0.470425 0.0682797 0.635434
3009 4 0.488437 0.0709748 0.595511
810 4 0.474752 0.0670518 0.610839
809 4 0.466098 0.0695075 0.66003
1081 2 0.0324069 0.123689 0.65753
1083 4 0.0537457 0.135237 0.663571
852 4 0.0457738 0.150493 0.674572
1082 4 0.011068 0.112142 0.651489
1077 4 0.993175 0.108946 0.643812
1153 2 0.142268 0.136201 0.583637
1155 4 0.163765 0.144021 0.593732
1282 2 0.21954 0.103857 0.644824
1284 4 0.217226 0.12872 0.646121
908 4 0.231095 0.143334 0.643886
907 2 0.215201 0.155532 0.658845
1031 4 0.29882 0.115421 0.584466
1004 4 0.323362 0.107511 0.650456
887 4 0.274638 0.157083 0.602901
898 2 0.345205 0.139191 0.588815
899 4 0.341958 0.159087 0.603607
878 4 0.0521529 0.21003 0.586366
1199 4 0.98321 0.22353 0.600798
1220 4 0.18667 0.19391 0.608262
1219 2 0.17093 0.188245 0.589678
886 2 0.275574 0.167896 0.625426
888 4 0.276509 0.178709 0.647951
1194 4 0.33329 0.209349 0.6205
1192 2 0.355861 0.210011 0.631237
1193 4 0.378432 0.210673 0.641975
1025 4 0.46287 0.195809 0.621754
1024 2 0.465738 0.20578 0.644504
1243 2 0.0556204 0.327951 0.629431
1245 4 0.0506222 0.315228 0.650368
1244 4 0.0606185 0.340673 0.608495
1258 2 0.142735 0.279841 0.578908
947 4 0.11344 0.288916 0.649663
946 2 0.135058 0.30148 0.649667
1260 4 0.151832 0.283556 0.6019
948 4 0.156675 0.314044 0.649672
798 4 0.215329 0.278433 0.636569
796 2 0.227445 0.279538 0.658413
1189 2 0.227186 0.333446 0.616986
1190 4 0.205951 0.329342 0.629533
1239 4 0.329922 0.328618 0.641342
1237 2 0.333593 0.333773 0.617152
954 4 0.407534 0.292879 0.642721
906 4 0.439892 0.276333 0.59515
952 2 0.424388 0.280599 0.628924
953 4 0.441241 0.268318 0.615128
3122 4 0.476586 0.273213 0.661495
1137 4 0.152328 0.392889 0.646795
1135 2 0.138662 0.372007 0.648341
1136 4 0.124997 0.351125 0.649886
1191 4 0.24842 0.337551 0.604439
929 4 0.330468 0.406966 0.586374
804 4 0.267104 0.33235 0.600015
928 2 0.334286 0.382873 0.591862
1029 4 0.322178 0.361914 0.65249
1238 4 0.337264 0.338928 0.592963
930 4 0.338104 0.35878 0.597351
1041 4 0.00953036 0.456874 0.60804
1039 2 0.0339637 0.45908 0.61287
1040 4 0.0583971 0.461286 0.617699
992 4 0.0886187 0.447888 0.658751
2171 4 0.105283 0.459737 0.655901
1159 2 0.141574 0.473146 0.596826
2170 2 0.0970236 0.481595 0.647004
1160 4 0.134828 0.491738 0.612124
897 4 0.215662 0.438595 0.583534
1173 4 0.279662 0.442771 0.583735
891 4 0.298675 0.437265 0.589493
889 2 0.312965 0.450667 0.605028
890 4 0.327254 0.46407 0.620564
1953 4 0.35656 0.489478 0.595192
1267 2 0.463933 0.4647 0.643277
1268 4 0.465755 0.447652 0.661476
1269 4 0.462112 0.481748 0.625077
863 4 0.0833031 0.0705378 0.70708
2989 2 0.998627 0.0657455 0.691783
864 4 0.0897907 0.0729687 0.756605
862 2 0.0865469 0.0717533 0.731842
943 2 0.108841 0.0574826 0.676024
944 4 0.0999153 0.0646587 0.69825
1149 4 0.21659 0.0421685 0.718679
1147 2 0.236893 0.0344076 0.731037
1148 4 0.257196 0.0266467 0.743395
2399 4 0.307263 0.00160683 0.74715
44 3 0.429026 0.0283488 0.667686
2320 2 0.476931 0.00776332 0.720536
2321 4 0.475329 0.0162863 0.697084
43 3 0.430963 0.0480674 0.700118
1163 4 0.472659 0.0611538 0.681238
42 3 0.454295 0.0558803 0.671706
41 1 0.443231 0.0389474 0.682662
45 3 0.458445 0.0240787 0.690794
1162 2 0.496376 0.0576241 0.688328
2322 4 0.478533 0.99924 0.743987
2990 4 0.998808 0.0803414 0.712084
850 2 0.0625136 0.165698 0.685239
832 2 0.999491 0.122619 0.749043
833 4 0.0227609 0.115808 0.742938
1225 2 0.222748 0.157838 0.722459
1226 4 0.222613 0.152499 0.746886
1003 2 0.320365 0.116083 0.673753
1005 4 0.317368 0.124654 0.697049
831 4 0.311515 0.14345 0.691696
1141 2 0.382154 0.115648 0.746938
1143 4 0.359548 0.126214 0.745349
1142 4 0.404759 0.105082 0.748527
851 4 0.0792534 0.180903 0.695905
1214 4 0.081779 0.206981 0.735171
1213 2 0.0605982 0.214051 0.746421
1178 4 0.994585 0.265151 0.710519
1215 4 0.0394175 0.221121 0.757672
1107 4 0.100798 0.206083 0.732745
1105 2 0.118671 0.199046 0.748751
909 4 0.199308 0.167731 0.673803
1227 4 0.222883 0.163177 0.698033
1212 4 0.255773 0.217412 0.676105
1211 4 0.237179 0.177442 0.699714
1210 2 0.246476 0.197427 0.687909
1276 2 0.200529 0.228437 0.727328
1278 4 0.198756 0.203527 0.726097
829 2 0.306681 0.167691 0.687924
830 4 0.301848 0.191931 0.684152
976 2 0.300675 0.220596 0.715017
977 4 0.300917 0.230458 0.737992
978 4 0.300434 0.210735 0.692041
918 4 0.287244 0.245293 0.738458
1026 4 0.468606 0.215751 0.667253
1261 2 0.469346 0.223575 0.707426
1263 4 0.459002 0.219042 0.685118
1262 4 0.479689 0.228107 0.729734
1209 4 0.0688439 0.319334 0.658147
1177 2 0.994713 0.275347 0.687688
1179 4 0.99484 0.285542 0.664858
1207 2 0.0799036 0.317263 0.680476
1208 4 0.0909633 0.315191 0.702805
821 4 0.11937 0.308192 0.736522
820 2 0.137073 0.324263 0.743835
797 4 0.23956 0.280643 0.680258
1065 4 0.198302 0.326809 0.695912
1277 4 0.202301 0.253347 0.728559
807 4 0.328377 0.311209 0.699708
1165 2 0.415191 0.2911 0.741802
1166 4 0.392441 0.28355 0.748914
1007 4 0.357848 0.28547 0.731253
805 2 0.338834 0.333178 0.705468
1006 2 0.344563 0.286084 0.752427
3121 2 0.484611 0.290418 0.677767
3123 4 0.492636 0.307623 0.694039
1167 4 0.437942 0.29865 0.73469
885 4 0.0476097 0.405774 0.751219
894 4 0.0920392 0.371362 0.70572
892 2 0.108267 0.377404 0.723757
893 4 0.124495 0.383445 0.741794
941 4 0.141403 0.392813 0.734403
940 2 0.165235 0.385319 0.735423
1063 2 0.200075 0.34472 0.713268
1064 4 0.201847 0.36263 0.730624
942 4 0.189068 0.377825 0.736442
1236 4 0.203838 0.390718 0.733284
1234 2 0.224977 0.388723 0.746488
1027 2 0.303576 0.367096 0.668373
1028 4 0.284973 0.372278 0.684256
1204 2 0.424305 0.364295 0.688253
806 4 0.349292 0.355146 0.711229
1206 4 0.406542 0.346953 0.691239
1019 4 0.404913 0.370949 0.747892
1018 2 0.416537 0.393061 0.748954
1205 4 0.442067 0.381638 0.685267
3432 4 0.0163722 0.494778 0.672626
991 2 0.0936887 0.43252 0.677811
993 4 0.0987588 0.417152 0.696871
1067 4 0.207641 0.417667 0.689741
1068 4 0.230882 0.449408 0.720612
1066 2 0.219261 0.433538 0.705176
1174 2 0.222517 0.492224 0.726772
1176 4 0.230406 0.469699 0.719319
1138 2 0.319119 0.463261 0.704007
1140 4 0.296978 0.452667 0.699244
1089 4 0.321668 0.486046 0.738089
1139 4 0.341261 0.473856 0.70877
1228 2 0.376271 0.469582 0.706595
1229 4 0.357386 0.481246 0.718105
1230 4 0.395156 0.457917 0.695085
1101 4 0.412724 0.453815 0.706361
1989 4 0.334657 0.499746 0.728694
1249 2 0.444492 0.492667 0.743919
1100 4 0.451769 0.444736 0.676465
1099 2 0.432246 0.449275 0.691413
1250 4 0.447791 0.468292 0.748407
1295 4 0.0253248 0.0406494 0.816591
1294 2 0.0114629 0.0237334 0.82871
910 2 0.0597649 0.0569365 0.806904
912 4 0.0449721 0.0373294 0.811585
911 4 0.0745577 0.0765436 0.802223
1202 4 0.0945798 0.0721784 0.808951
1049 4 0.32295 0.99705 0.760374
1257 4 0.251912 0.0321224 0.801282
1255 2 0.258505 0.0562018 0.799904
1086 4 0.350749 0.039573 0.806081
1084 2 0.351079 0.0618088 0.817511
1085 4 0.35141 0.0840446 0.828941
1048 2 0.346636 0.00341101 0.755506
1050 4 0.370322 0.00977239 0.750638
1111 2 0.43075 0.0745996 0.765906
2442 4 0.484153 0.99691 0.762399
846 4 0.466326 0.0347967 0.779884
1112 4 0.441005 0.0560164 0.779122
844 2 0.488028 0.0457735 0.774075