ITEM: TIMESTEP
4340000
ITEM: NUMBER OF ATOMS
4590
ITEM: BOX BOUNDS pp pp pp
-9.9985700000000008e+00 9.9985700000000008e+00
-9.9985700000000008e+00 9.9985700000000008e+00
-9.9985700000000008e+00 9.9985700000000008e+00
ITEM: ATOMS id type xs ys zs
702 4 0.0794533 0.0202997 0.0183993
700 2 0.0601241 0.0316631 0.0294643
701 4 0.0407949 0.0430265 0.0405293
3234 4 0.0217313 0.0390491 0.0355171
3753 4 0.0828728 0.0052927 0.00476998
1605 4 0.13537 0.998992 0.0445108
1633 2 0.133248 0.0313555 0.0185403
1635 4 0.129891 0.0179898 0.0394033
465 4 0.108698 0.0356806 0.0705018
566 4 0.300668 0.0135647 0.0869571
985 2 0.361688 0.00465871 0.0164488
2975 4 0.387412 0.0583662 0.0268878
2974 2 0.389726 0.065923 0.0506094
987 4 0.344917 0.0107346 0.998927
986 4 0.378459 0.998583 0.0339702
2976 4 0.392041 0.0734799 0.074331
1661 4 0.374103 0.991338 0.0524958
295 2 0.489371 0.999412 0.010126
553 2 0.0759954 0.167132 0.032651
836 4 0.0943906 0.145406 0.0620407
837 4 0.144382 0.145897 0.0631764
1134 4 0.157078 0.13265 0.0720475
835 2 0.119387 0.145652 0.0626085
554 4 0.0837385 0.147243 0.0456763
1132 2 0.174319 0.146106 0.0599271
1133 4 0.191559 0.159561 0.0478067
933 4 0.210288 0.156915 0.0435132
931 2 0.209848 0.153896 0.0186964
652 2 0.3207 0.0891641 0.071899
490 2 0.325571 0.125118 0.0217954
654 4 0.335795 0.0981375 0.0540995
491 4 0.335604 0.112859 0.0411408
358 2 0.28526 0.166118 0.989603
359 4 0.299882 0.146037 0.992451
2467 2 0.401466 0.153662 0.0498083
2468 4 0.380508 0.167059 0.0523489
462 4 0.413759 0.125038 0.996624
2469 4 0.422425 0.140266 0.0472676
770 4 0.441478 0.142446 0.0515935
769 2 0.452189 0.135669 0.0300407
771 4 0.4629 0.128892 0.008488
555 4 0.0682523 0.187021 0.0196256
2624 4 0.0432286 0.196336 0.0510653
2623 2 0.0254464 0.195056 0.0685962
2625 4 0.00766412 0.193776 0.086127
2808 4 0.055238 0.184315 0.00490671
915 4 0.214053 0.246338 0.00456367
254 4 0.369407 0.222563 0.0530141
253 2 0.366225 0.198047 0.0492733
255 4 0.363042 0.17353 0.0455325
558 4 0.423139 0.250067 0.999411
323 4 0.364949 0.241679 0.0532668
556 2 0.426579 0.226322 0.00644858
557 4 0.430019 0.202577 0.0134857
666 4 0.445775 0.189624 0.00876763
476 4 0.0606426 0.320166 0.00835524
337 2 0.0650515 0.308709 0.07901
338 4 0.0791699 0.301131 0.0598152
475 2 0.0707465 0.305274 0.0257141
477 4 0.0808503 0.290383 0.043073
287 4 0.150632 0.3203 0.0082371
483 4 0.138324 0.321073 0.0242508
357 4 0.310144 0.281695 0.0648376
573 4 0.291325 0.277253 0.0639911
324 4 0.403177 0.265403 0.031438
355 2 0.328018 0.277869 0.0477774
356 4 0.345892 0.274042 0.0307172
1304 4 0.357954 0.290017 0.031402
1303 2 0.36554 0.307021 0.0147135
322 2 0.384063 0.253541 0.0423524
519 4 0.42954 0.30992 0.0414534
517 2 0.428291 0.322136 0.063234
1095 4 0.439521 0.304451 0.0258802
1093 2 0.464201 0.304975 0.0219063
1094 4 0.488882 0.305498 0.0179324
293 4 0.0480709 0.335632 0.0105604
292 2 0.026341 0.336661 0.0228865
294 4 0.00461102 0.337689 0.0352125
482 4 0.124991 0.338327 0.0692531
481 2 0.131658 0.3297 0.0467519
456 4 0.126224 0.35745 0.0732026
1289 4 0.196165 0.385883 0.0288806
1288 2 0.188923 0.371926 0.00944038
252 4 0.182598 0.398424 0.0369554
956 4 0.321607 0.409915 0.0493655
903 4 0.314967 0.393341 0.042285
901 2 0.308453 0.403516 0.0203939
955 2 0.339949 0.405332 0.0657289
957 4 0.35829 0.400749 0.0820924
37 3 0.390859 0.334074 0.996315
518 4 0.427041 0.334351 0.0850146
597 4 0.469194 0.338844 0.0687191
495 4 0.468569 0.346022 0.0507268
493 2 0.48513 0.363385 0.043695
494 4 0.50169 0.380748 0.0366632
793 2 0.169237 0.479021 0.0122633
795 4 0.181493 0.460602 0.0239121
251 4 0.168779 0.445899 0.0294815
250 2 0.175688 0.422161 0.0332184
1673 4 0.385995 0.454224 0.0245896
1672 2 0.36688 0.459211 0.0399156
1674 4 0.347764 0.464198 0.0552416
524 4 0.397412 0.43849 0.0255585
4277 4 0.397438 0.457246 0.0788693
4276 2 0.413878 0.475949 0.0766178
4278 4 0.430319 0.494652 0.0743663
523 2 0.413358 0.441289 0.00650485
17 3 0.0389099 0.035997 0.119636
16 1 0.0448499 0.0526727 0.134326
18 3 0.0631894 0.0640245 0.125769
19 3 0.0269541 0.0672381 0.136773
2481 4 0.0179786 0.0847806 0.144547
381 4 0.0451133 0.0175746 0.118642
379 2 0.0239449 0.00673836 0.110919
578 4 0.0849859 0.0651785 0.124456
464 4 0.100913 0.0531591 0.116704
463 2 0.104806 0.0444198 0.0936028
1475 4 0.22084 0.0564689 0.115539
1474 2 0.242162 0.0434229 0.114973
653 4 0.305606 0.0801907 0.0896985
567 4 0.309939 0.0624463 0.0819218
1476 4 0.263485 0.0303769 0.114407
565 2 0.305303 0.0380055 0.0844395
1769 4 0.27628 0.0287231 0.130417
1768 2 0.278515 0.0154558 0.151492
1606 2 0.37052 0.0192973 0.167118
628 2 0.404862 0.0697978 0.106376
1607 4 0.354197 0.000656925 0.16376
629 4 0.42575 0.0688945 0.120089
630 4 0.383974 0.0707011 0.0926624
484 2 0.417589 0.05062 0.157727
486 4 0.429002 0.0621691 0.138713
577 2 0.094078 0.0818486 0.140723
579 4 0.10317 0.0985186 0.15699
237 4 0.104505 0.118569 0.158575
235 2 0.128225 0.123639 0.164643
236 4 0.151946 0.128709 0.170712
311 4 0.399281 0.109815 0.108508
310 2 0.39738 0.122517 0.12996
312 4 0.39548 0.13522 0.151413
2523 4 0.00285099 0.212408 0.0890138
361 2 0.0542453 0.217268 0.153282
362 4 0.0300788 0.220979 0.158515
363 4 0.0784118 0.213556 0.148049
647 4 0.0177399 0.235889 0.163883
756 4 0.245073 0.245549 0.0968187
755 4 0.265962 0.208007 0.122412
754 2 0.255518 0.226778 0.109615
24 3 0.371502 0.181491 0.141795
25 3 0.407705 0.17362 0.148502
21 1 0.386784 0.173853 0.157496
759 4 0.417442 0.187959 0.138739
757 2 0.437446 0.179699 0.126217
758 4 0.45745 0.17144 0.113695
528 4 0.470745 0.183894 0.105716
526 2 0.485508 0.204057 0.106547
646 2 0.0078548 0.25542 0.1518
339 4 0.0509332 0.316286 0.0982047
571 2 0.272668 0.270044 0.0789953
572 4 0.254011 0.262835 0.0939995
672 4 0.360685 0.292898 0.100527
670 2 0.35795 0.313596 0.114285
739 2 0.399209 0.308071 0.163076
741 4 0.377708 0.319372 0.169005
387 4 0.361743 0.307982 0.165291
622 2 0.453273 0.326348 0.146426
623 4 0.434819 0.311982 0.155274
740 4 0.42071 0.29677 0.157146
536 4 0.0760835 0.365668 0.11932
454 2 0.110673 0.360051 0.0926082
537 4 0.0942357 0.366959 0.165898
535 2 0.0851596 0.366314 0.142609
455 4 0.0951215 0.362651 0.112014
498 4 0.262539 0.362122 0.152852
497 4 0.290991 0.335798 0.184447
496 2 0.276765 0.34896 0.16865
671 4 0.355215 0.334295 0.128043
608 4 0.371733 0.394937 0.09559
607 2 0.366789 0.373855 0.108092
609 4 0.361844 0.352773 0.120594
624 4 0.471726 0.340713 0.137578
107 3 0.484036 0.358988 0.133781
596 4 0.470603 0.350664 0.117289
595 2 0.469898 0.344754 0.093004
108 3 0.495631 0.391348 0.148982
542 4 0.483282 0.40651 0.150782
541 2 0.458718 0.408197 0.146431
602 4 0.0911935 0.498506 0.135161
601 2 0.0848682 0.478619 0.148933
264 4 0.0699051 0.497538 0.129015
603 4 0.078543 0.458732 0.162706
1430 4 0.238706 0.492488 0.166108
1583 4 0.378017 0.452773 0.076983
1582 2 0.36919 0.443812 0.0985925
1584 4 0.360364 0.43485 0.120202
1575 4 0.370127 0.444583 0.134491
1573 2 0.373847 0.455528 0.156663
563 4 0.485895 0.486084 0.10868
543 4 0.434154 0.409884 0.142079
20 3 0.0501391 0.0434107 0.154447
234 4 0.0353442 0.0273646 0.161603
1538 4 0.0362082 0.0491959 0.170017
1537 2 0.0444777 0.0579497 0.19193
1539 4 0.0527472 0.0667035 0.213842
232 2 0.0128727 0.0171586 0.165609
1462 2 0.128583 0.0139375 0.239702
1463 4 0.1138 0.0341006 0.240006
730 2 0.0962724 0.0710216 0.253708
1505 4 0.165687 0.0682126 0.228882
1504 2 0.177334 0.0542468 0.246042
1621 2 0.292807 0.00155878 0.210493
1622 4 0.308499 0.00622384 0.229392
485 4 0.406177 0.0390709 0.176741
1608 4 0.386843 0.0379376 0.170476
722 4 0.160952 0.115436 0.182673
731 4 0.0892775 0.0950203 0.254266
721 2 0.171472 0.106863 0.203674
723 4 0.181992 0.0982904 0.224674
693 4 0.196629 0.108753 0.233525
691 2 0.217584 0.113738 0.246221
23 3 0.380943 0.15252 0.16451
764 4 0.389569 0.133548 0.173831
763 2 0.3969 0.129365 0.197367
765 4 0.40423 0.125182 0.220903
744 4 0.424491 0.128094 0.22084
761 4 0.480996 0.167512 0.161453
742 2 0.428599 0.128877 0.245491
391 2 0.00809947 0.210784 0.217458
392 4 0.0325197 0.208464 0.212615
278 4 0.0862583 0.20417 0.164327
277 2 0.104989 0.216358 0.175544
279 4 0.123719 0.228546 0.18676
737 4 0.139593 0.221845 0.198056
736 2 0.164497 0.221209 0.195916
580 2 0.234405 0.168623 0.246557
738 4 0.189401 0.220573 0.193776
284 4 0.206472 0.218873 0.183536
283 2 0.220438 0.20871 0.201615
285 4 0.234404 0.198547 0.219693
581 4 0.224966 0.184163 0.229394
22 3 0.386495 0.187987 0.175642
309 4 0.367675 0.194633 0.179821
307 2 0.35728 0.192459 0.202458
308 4 0.346885 0.190285 0.225094
612 4 0.363445 0.194008 0.234652
760 2 0.475462 0.18832 0.174163
762 4 0.469929 0.209129 0.186874
520 2 0.44286 0.219627 0.210803
522 4 0.456325 0.20171 0.199719
521 4 0.429395 0.237544 0.221888
512 4 0.080397 0.258518 0.205307
511 2 0.0910538 0.28108 0.20692
300 4 0.0879862 0.310841 0.195171
513 4 0.101711 0.303641 0.208533
298 2 0.0961389 0.33254 0.185796
766 2 0.320058 0.320135 0.234499
386 4 0.324884 0.328121 0.19243
768 4 0.320884 0.330204 0.211627
385 2 0.343313 0.318051 0.178861
749 4 0.0220559 0.407711 0.204603
366 4 0.0382459 0.404768 0.217169
364 2 0.0275522 0.384556 0.227283
299 4 0.104292 0.354238 0.176421
344 4 0.251256 0.373303 0.165359
343 2 0.228814 0.383001 0.160117
345 4 0.206371 0.392699 0.154875
416 4 0.234715 0.406708 0.255603
415 2 0.210491 0.41055 0.260459
2537 4 0.377782 0.352932 0.232473
15 3 0.419832 0.400079 0.233621
12 3 0.44894 0.415035 0.251563
748 2 0.0198001 0.420751 0.183389
1665 4 0.0565226 0.494352 0.228018
1309 2 0.135924 0.495161 0.228409
1310 4 0.154553 0.480753 0.220011
289 2 0.256277 0.43078 0.22569
1429 2 0.259346 0.501767 0.176741
290 4 0.267882 0.444403 0.208228
659 4 0.28433 0.453695 0.201893
658 2 0.305088 0.464964 0.210098
660 4 0.325845 0.476232 0.218304
639 4 0.344463 0.481673 0.224465
638 4 0.382541 0.481008 0.192056
637 2 0.363502 0.48134 0.20826
1574 4 0.377566 0.466472 0.178834
645 4 0.426252 0.451292 0.223487
13 3 0.42245 0.437473 0.23716
643 2 0.432499 0.47507 0.218932
11 1 0.434228 0.417719 0.234084
14 3 0.446236 0.418662 0.214251
2757 4 0.0363664 0.0546702 0.278168
2755 2 0.0477933 0.0379572 0.29284
2756 4 0.0592201 0.0212441 0.307512
1772 4 0.0613047 0.00224893 0.299708
732 4 0.103267 0.0470229 0.25315
1701 4 0.176857 0.00995499 0.312187
1699 2 0.175956 0.0277245 0.29462
1506 4 0.188982 0.040281 0.263203
1700 4 0.175054 0.0454939 0.277053
1830 4 0.289778 0.0589938 0.246718
1829 4 0.333428 0.0419005 0.264131
474 4 0.281719 0.0688403 0.26436
441 4 0.266278 0.0118912 0.31622
1828 2 0.311603 0.0504472 0.255425
439 2 0.277427 0.032246 0.325522
1496 4 0.354276 0.0444515 0.261126
1495 2 0.35922 0.031171 0.281726
1517 4 0.363341 0.02342 0.321158
1497 4 0.364164 0.0178905 0.302326
397 2 0.0668697 0.145311 0.332724
399 4 0.0828884 0.139639 0.314382
317 4 0.0949703 0.141833 0.298948
316 2 0.0965547 0.126822 0.279014
318 4 0.098139 0.11181 0.259081
692 4 0.23854 0.118724 0.258917
29 3 0.24956 0.12377 0.277524
472 2 0.26362 0.0854605 0.268984
473 4 0.245522 0.102081 0.273608
582 4 0.243844 0.153083 0.263721
27 3 0.262299 0.158422 0.270479
28 3 0.263255 0.145303 0.305687
30 3 0.286388 0.131364 0.279453
26 1 0.265508 0.1396 0.283309
683 4 0.291401 0.127541 0.299094
682 2 0.307929 0.108934 0.301505
377 4 0.280899 0.138805 0.310946
684 4 0.324457 0.090328 0.303916
724 2 0.356767 0.0787179 0.312916
725 4 0.343397 0.0952927 0.299812
743 4 0.432706 0.12966 0.270143
332 4 0.489027 0.118594 0.292958
331 2 0.464662 0.123795 0.290834
333 4 0.440298 0.128997 0.28871
707 4 0.343274 0.23336 0.285911
611 4 0.348392 0.216119 0.276903
610 2 0.355918 0.205063 0.255777
389 4 0.0862489 0.312713 0.277375
388 2 0.096012 0.311746 0.300373
390 4 0.105775 0.310778 0.323372
372 4 0.123871 0.311713 0.330197
767 4 0.319233 0.310066 0.257371
303 4 0.337531 0.313993 0.267347
301 2 0.335092 0.32585 0.289225
706 2 0.355337 0.255261 0.285883
708 4 0.3674 0.277162 0.285854
632 4 0.376224 0.281056 0.268551
631 2 0.400779 0.282344 0.273089
633 4 0.425333 0.283631 0.277628
419 4 0.423674 0.295724 0.293158
418 2 0.434011 0.290575 0.315335
2717 4 0.025384 0.356387 0.254944
365 4 0.0168586 0.364343 0.237397
2716 2 0.00319176 0.345567 0.258893
616 2 0.0633385 0.368542 0.307888
2693 4 0.022588 0.374976 0.316464
618 4 0.0388741 0.373427 0.306214
617 4 0.087803 0.363656 0.309561
678 4 0.101219 0.375133 0.29899
676 2 0.11523 0.394192 0.307092
677 4 0.129241 0.41325 0.315194
417 4 0.186266 0.414391 0.265314
728 4 0.332942 0.346301 0.33141
302 4 0.332654 0.337707 0.311103
2536 2 0.372054 0.350955 0.256732
2538 4 0.366327 0.348978 0.28099
445 2 0.353619 0.383355 0.304582
446 4 0.352633 0.403832 0.318897
447 4 0.354606 0.362878 0.290267
3716 4 0.00937806 0.49193 0.304572
1791 4 0.997804 0.470349 0.267996
1790 4 0.0457114 0.463929 0.280815
1758 4 0.0659203 0.463262 0.276149
1756 2 0.0754357 0.460998 0.29916
1789 2 0.0217576 0.467139 0.274406
1757 4 0.084951 0.458734 0.322171
733 2 0.161659 0.42263 0.300569
735 4 0.143324 0.427217 0.316939
776 4 0.0980406 0.447438 0.332649
775 2 0.119731 0.459644 0.335044
1320 4 0.157058 0.466595 0.326236
1318 2 0.162703 0.484203 0.309405
777 4 0.141421 0.47185 0.337439
291 4 0.244672 0.417158 0.243152
734 4 0.179994 0.418043 0.2842
1801 2 0.321997 0.478888 0.276969
1803 4 0.314823 0.460345 0.29213
593 4 0.298827 0.466241 0.303018
592 2 0.292089 0.456375 0.324983
1802 4 0.329172 0.497431 0.261808
712 2 0.41513 0.480809 0.329026
3078 4 0.0062851 0.0408492 0.42101
718 2 0.0906703 0.0190882 0.409221
440 4 0.288577 0.0526008 0.334825
1818 4 0.282987 0.0710181 0.344045
1816 2 0.286682 0.0742102 0.368567
1817 4 0.290377 0.0774022 0.39309
726 4 0.370136 0.0621432 0.32602
425 4 0.377626 0.0594186 0.344634
1516 2 0.355527 0.0164277 0.343857
699 4 0.33275 0.999152 0.375009
1518 4 0.347712 0.00943542 0.366555
424 2 0.400231 0.0696565 0.347697
640 2 0.489811 0.0146905 0.409303
256 2 0.44509 0.0505922 0.373319
257 4 0.456847 0.0377362 0.391254
641 4 0.473982 0.0307919 0.398562
258 4 0.433332 0.0634481 0.355385
426 4 0.422835 0.0798944 0.35076
398 4 0.050851 0.150983 0.351065
531 4 0.0409127 0.152724 0.368186
368 4 0.153607 0.125684 0.381551
367 2 0.161376 0.146422 0.369942
369 4 0.169145 0.167159 0.358333
606 4 0.275174 0.083677 0.403192
376 2 0.286923 0.150253 0.332344
378 4 0.292947 0.1617 0.353741
2653 2 0.00676337 0.22455 0.365941
2655 4 0.0266387 0.211257 0.373252
529 2 0.0426308 0.177623 0.369683
530 4 0.0443489 0.202523 0.371181
248 4 0.147372 0.253649 0.411049
600 4 0.177254 0.183961 0.361281
598 2 0.201043 0.191045 0.364298
599 4 0.224831 0.19813 0.367314
686 4 0.232478 0.201589 0.384587
685 2 0.240025 0.225339 0.382544
615 4 0.331347 0.246487 0.341645
443 4 0.0724805 0.314724 0.376587
2850 4 0.0418479 0.29809 0.404724
2848 2 0.0213953 0.30867 0.414466
1034 4 0.0512237 0.292399 0.388757
1033 2 0.0733298 0.281795 0.393662
370 2 0.142956 0.327842 0.331083
247 2 0.127774 0.260319 0.397027
1035 4 0.0954358 0.271191 0.398567
249 4 0.108176 0.266989 0.383004
687 4 0.247571 0.249089 0.3805
710 4 0.210256 0.286642 0.388685
407 4 0.216387 0.294367 0.370924
406 2 0.221144 0.317202 0.361918
709 2 0.201822 0.289972 0.411987
408 4 0.2259 0.340038 0.352913
613 2 0.32433 0.257032 0.363203
404 4 0.250012 0.267298 0.388698
614 4 0.317313 0.267577 0.384761
405 4 0.299057 0.275721 0.383759
403 2 0.274534 0.271509 0.386229
583 2 0.401699 0.281353 0.394037
585 4 0.413767 0.282622 0.372175
584 4 0.38963 0.280084 0.415898
420 4 0.444349 0.285427 0.337511
270 4 0.482385 0.261636 0.39166
268 2 0.467993 0.267211 0.371988
269 4 0.453601 0.272786 0.352317
239 4 0.450916 0.30592 0.421151
926 4 0.442729 0.314839 0.405621
442 2 0.0556314 0.333181 0.377369
444 4 0.0387824 0.351639 0.378151
539 4 0.0295148 0.368026 0.373042
538 2 0.0200486 0.386771 0.386614
2692 2 0.00746908 0.384827 0.333772
681 4 0.078827 0.405857 0.379707
540 4 0.0105824 0.405516 0.400185
371 4 0.162042 0.343971 0.331969
402 4 0.172165 0.361453 0.336757
679 2 0.0992069 0.401631 0.393563
570 4 0.13298 0.396141 0.39164
680 4 0.119587 0.397405 0.407418
400 2 0.174247 0.386272 0.338969
568 2 0.156028 0.405365 0.388653
503 4 0.241258 0.349141 0.361772
401 4 0.176329 0.41109 0.341181
569 4 0.179075 0.414589 0.385666
727 2 0.317741 0.363702 0.340964
504 4 0.287348 0.367739 0.356241
502 2 0.264303 0.35844 0.359007
729 4 0.30254 0.381104 0.350519
120 3 0.358414 0.392376 0.333944
116 1 0.363774 0.397077 0.355573
118 3 0.386714 0.395349 0.3586
751 2 0.395413 0.385798 0.411985
2741 4 0.4066 0.393343 0.361864
753 4 0.379486 0.403108 0.403506
119 3 0.352778 0.382429 0.369819
2742 4 0.440194 0.360061 0.345602
2740 2 0.423397 0.376702 0.353733
925 2 0.425469 0.33198 0.411406
438 4 0.200744 0.494843 0.390969
510 4 0.189188 0.424515 0.335007
508 2 0.206698 0.436828 0.347929
412 2 0.187906 0.455697 0.398087
509 4 0.224207 0.449141 0.360851
635 4 0.237224 0.444372 0.375479
414 4 0.178211 0.432942 0.39443
413 4 0.197601 0.478453 0.401744
634 2 0.261927 0.445381 0.37175
636 4 0.286631 0.446389 0.368021
5 3 0.289219 0.460981 0.383133
1 1 0.306582 0.472259 0.392618
4 3 0.302129 0.476245 0.415039
594 4 0.285351 0.446509 0.346947
774 4 0.320746 0.440537 0.402026
3 3 0.32613 0.45994 0.390493
668 4 0.340232 0.451461 0.405154
117 3 0.357221 0.41857 0.360503
669 4 0.369948 0.430051 0.371106
667 2 0.35509 0.440756 0.38813
3989 4 0.415485 0.411215 0.36611
3988 2 0.412035 0.434878 0.358806
3990 4 0.408585 0.458541 0.351501
713 4 0.416133 0.456091 0.332658
1126 2 0.0159565 0.0684658 0.453363
1127 4 0.0132742 0.0512012 0.435477
1128 4 0.0186387 0.0857304 0.471249
342 4 0.0812674 0.0440615 0.442128
720 4 0.0864499 0.0393603 0.423236
341 4 0.113384 0.0284096 0.477118
340 2 0.0973257 0.0362355 0.459623
2430 4 0.125111 0.0117756 0.478555
275 4 0.18468 0.0255613 0.442049
274 2 0.199245 0.0447107 0.448854
276 4 0.213811 0.0638601 0.45566
605 4 0.234754 0.0938725 0.430815
3489 4 0.417907 0.0120381 0.490176
459 4 0.00898269 0.102472 0.469702
470 4 0.0585731 0.142374 0.471975
469 2 0.0564672 0.164887 0.461303
468 4 0.229516 0.1032 0.447886
466 2 0.23724 0.0942997 0.469938
467 4 0.244964 0.0853995 0.491991
604 2 0.254964 0.0887747 0.417003
320 4 0.32517 0.132921 0.426193
319 2 0.308996 0.139827 0.443966
411 4 0.283039 0.161855 0.471392
321 4 0.292822 0.146733 0.461739
1031 4 0.263617 0.0892433 0.499436
515 4 0.48265 0.13055 0.527651
471 4 0.0543612 0.187401 0.450631
261 4 0.0509651 0.206576 0.447715
259 2 0.0566195 0.224141 0.464587
260 4 0.0622739 0.241706 0.481459
544 2 0.146282 0.226652 0.436913
546 4 0.133753 0.207145 0.446277
545 4 0.158812 0.246158 0.427549
1210 2 0.229921 0.168023 0.489
1211 4 0.240828 0.1741 0.467337
7 3 0.194902 0.249984 0.470182
489 4 0.279781 0.228866 0.462353
410 4 0.285075 0.210332 0.459287
409 2 0.284057 0.186093 0.465339
487 2 0.287992 0.242654 0.443179
930 4 0.493128 0.232224 0.454064
4434 4 0.992684 0.335738 0.424818
348 4 0.072887 0.258008 0.486947
346 2 0.0865455 0.278925 0.485897
326 4 0.167933 0.301044 0.474774
325 2 0.143171 0.302538 0.4779
327 4 0.118408 0.304033 0.481025
347 4 0.100204 0.299842 0.484846
10 3 0.170212 0.252812 0.442337
375 4 0.189707 0.292527 0.479162
8 3 0.171943 0.279702 0.468635
711 4 0.193389 0.293302 0.435289
9 3 0.20003 0.275781 0.443333
6 1 0.184153 0.264553 0.455992
373 2 0.196743 0.311648 0.493656
560 4 0.229966 0.333546 0.43659
488 4 0.296203 0.256441 0.424004
559 2 0.253554 0.340261 0.431721
651 4 0.333614 0.27785 0.478671
716 4 0.340465 0.282942 0.460301
717 4 0.383072 0.282827 0.434121
715 2 0.361768 0.282885 0.447211
238 2 0.475757 0.303071 0.421124
240 4 0.500598 0.300221 0.421097
4433 4 0.00375743 0.356968 0.468721
2813 4 0.0252723 0.415535 0.411119
4432 2 0.998221 0.346353 0.44677
561 4 0.277142 0.346976 0.426852
336 4 0.293505 0.348837 0.414485
334 2 0.306088 0.362129 0.431519
335 4 0.318671 0.375421 0.448553
773 4 0.308591 0.41432 0.442838
752 4 0.41134 0.368489 0.420463
927 4 0.408209 0.349121 0.417191
588 4 0.373753 0.354011 0.469831
586 2 0.353907 0.368233 0.464441
587 4 0.334061 0.382455 0.45905
2814 4 0.00195062 0.435496 0.450595
384 4 0.0231521 0.474395 0.476594
2812 2 0.0136115 0.425515 0.430857
1436 4 0.109224 0.457305 0.438348
1435 2 0.127637 0.471631 0.447342
1437 4 0.146051 0.485956 0.456336
1399 2 0.326305 0.484233 0.452872
772 2 0.314668 0.427428 0.422432
434 4 0.300569 0.492952 0.430839
1400 4 0.318904 0.485075 0.429003
1401 4 0.333706 0.483391 0.47674
1587 4 0.336889 0.492137 0.494506
882 4 0.407868 0.469591 0.4679
1910 4 0.396441 0.469557 0.485878
881 4 0.453915 0.471132 0.448457
880 2 0.430891 0.470361 0.458178
661 2 0.491799 0.458392 0.462361
663 4 0.472536 0.467896 0.449563
2317 2 0.0133259 0.0711088 0.538974
2318 4 0.0219583 0.0485257 0.532597
2319 4 0.00469362 0.0936919 0.545351
1077 4 0.0272968 0.0313186 0.521912
1075 2 0.0331037 0.00992889 0.510339
857 4 0.166549 0.0465308 0.506444
1151 4 0.182682 0.0358478 0.504732
1152 4 0.22134 0.00650225 0.516778
1150 2 0.202011 0.021175 0.510755
856 2 0.164598 0.0714541 0.505993
1646 4 0.240393 0.00380303 0.511827
1182 4 0.294732 0.0650827 0.548434
1030 2 0.278117 0.0859955 0.519545
1032 4 0.292616 0.0827477 0.539654
1180 2 0.301445 0.0470177 0.564364
574 2 0.401418 0.0621877 0.527929
576 4 0.378418 0.0712048 0.52407
575 4 0.424417 0.0531706 0.531788
4466 4 0.425656 0.0507591 0.55234
4465 2 0.423726 0.0314935 0.56816
1219 2 0.193458 0.125372 0.515289
1221 4 0.208755 0.14515 0.515178
1227 4 0.242459 0.139425 0.570901
1220 4 0.17816 0.105595 0.515399
1225 2 0.242125 0.141046 0.545953
909 4 0.236624 0.127362 0.586937
858 4 0.162647 0.0963774 0.505542
1226 4 0.241791 0.142667 0.521004
514 2 0.485924 0.154209 0.520254
879 4 0.0245373 0.253196 0.548581
1212 4 0.219015 0.161945 0.510663
1242 4 0.170259 0.199486 0.529181
1240 2 0.183778 0.206208 0.549113
1241 4 0.197296 0.212929 0.569044
1278 4 0.206086 0.199831 0.581905
265 2 0.38167 0.240959 0.575047
516 4 0.489199 0.177868 0.512858
1026 4 0.506297 0.187041 0.517597
1272 4 0.025533 0.26075 0.566588
877 2 0.0093879 0.261849 0.53067
1166 4 0.20505 0.304324 0.582677
374 4 0.203779 0.330768 0.50815
812 4 0.338875 0.320829 0.520239
267 4 0.385803 0.261008 0.560689
872 4 0.382502 0.273165 0.54592
650 4 0.331064 0.301521 0.522647
871 2 0.401596 0.288667 0.550423
649 2 0.332339 0.289686 0.500659
873 4 0.42069 0.30417 0.554926
906 4 0.438126 0.305106 0.564078
792 4 0.195543 0.345368 0.517045
790 2 0.20518 0.353915 0.538474
1191 4 0.234249 0.353041 0.558013
791 4 0.214818 0.362462 0.559904
1189 2 0.245084 0.34939 0.580249
811 2 0.353586 0.340321 0.525603
1238 4 0.380891 0.366116 0.545438
1237 2 0.401464 0.368685 0.559414
813 4 0.368298 0.359814 0.530968
1239 4 0.422036 0.371254 0.573391
1937 4 0.013327 0.472621 0.494182
1171 2 0.327692 0.476342 0.555038
1172 4 0.318629 0.470569 0.577615
1173 4 0.336755 0.482115 0.532461
1911 4 0.394932 0.473016 0.535743
890 4 0.348076 0.422538 0.548245
889 2 0.368377 0.430962 0.560166
891 4 0.388677 0.439386 0.572087
1909 2 0.395686 0.471286 0.51081
1893 4 0.173411 0.0489727 0.66214
1090 2 0.229167 0.0483241 0.639494
1091 4 0.240803 0.0670241 0.65133
1092 4 0.217531 0.0296241 0.627657
1181 4 0.308158 0.0289527 0.580295
962 4 0.304351 0.0131281 0.592237
1193 4 0.40887 0.0574343 0.655437
1192 2 0.399426 0.0802872 0.65173
4467 4 0.421796 0.0122279 0.583981
810 4 0.484396 0.0200435 0.61986
90 3 0.47706 0.0139873 0.603006
809 4 0.481653 0.0538861 0.656573
808 2 0.483025 0.0369648 0.638216
4226 4 0.473212 0.0659814 0.669605
89 3 0.440807 0.00382184 0.602748
908 4 0.279199 0.13725 0.611233
907 2 0.257912 0.132306 0.599085
1284 4 0.280455 0.149537 0.626483
1282 2 0.286227 0.150377 0.650797
898 2 0.374776 0.134652 0.639534
899 4 0.379791 0.117748 0.657262
900 4 0.36976 0.151556 0.621806
1194 4 0.389983 0.10314 0.648022
887 4 0.363488 0.17042 0.623716
1270 2 0.027008 0.249726 0.588982
1271 4 0.0284829 0.238703 0.611376
1153 2 0.0279692 0.242034 0.644697
1154 4 0.0259159 0.254756 0.62327
1155 4 0.0300225 0.229312 0.666124
3387 4 0.00982246 0.230537 0.667555
797 4 0.143799 0.222893 0.667082
796 2 0.164052 0.220191 0.65267
798 4 0.184304 0.217489 0.638259
1277 4 0.200481 0.207268 0.631038
1276 2 0.203284 0.20355 0.606472
266 4 0.377537 0.22091 0.589405
888 4 0.384357 0.21161 0.604518
886 2 0.373923 0.191015 0.614117
1165 2 0.225438 0.29749 0.595437
1167 4 0.245826 0.290656 0.608196
918 4 0.24178 0.285597 0.627282
1190 4 0.255919 0.345739 0.602485
916 2 0.259858 0.277855 0.642722
917 4 0.277937 0.270113 0.658163
904 2 0.453011 0.316947 0.580308
905 4 0.467896 0.328788 0.596537
954 4 0.468303 0.280566 0.649479
952 2 0.485592 0.274942 0.666644
896 4 0.101792 0.368834 0.642559
895 2 0.0951948 0.392936 0.641695
803 4 0.239806 0.331776 0.666172
802 2 0.241927 0.337645 0.64196
804 4 0.244047 0.343515 0.617747
1067 4 0.286046 0.386834 0.656589
1007 4 0.3054 0.387771 0.657735
1006 2 0.328991 0.37978 0.659915
805 2 0.378456 0.354893 0.650378
807 4 0.390232 0.350163 0.628834
1028 4 0.41113 0.355504 0.633718
1008 4 0.352583 0.371788 0.662095
1027 2 0.421333 0.361971 0.611826
3121 2 0.500586 0.340981 0.609228
1029 4 0.431536 0.368438 0.589935
3123 4 0.484589 0.360192 0.609692
3022 2 0.479619 0.392459 0.610674
3024 4 0.468339 0.370194 0.612147
3023 4 0.4909 0.414725 0.609201
897 4 0.0885975 0.417038 0.640831
2016 4 0.130055 0.448813 0.623763
2014 2 0.134741 0.447319 0.648278
2154 4 0.236138 0.445689 0.590071
2152 2 0.225796 0.460677 0.607205
2153 4 0.215454 0.475665 0.624339
2352 4 0.21214 0.484579 0.641566
1161 4 0.305242 0.454819 0.581369
1160 4 0.256411 0.451355 0.591575
1159 2 0.280826 0.453087 0.586472
1269 4 0.397635 0.433668 0.589319
1230 4 0.36425 0.447787 0.630371
1228 2 0.377907 0.432627 0.644822
1001 4 0.352575 0.464198 0.623756
1000 2 0.37007 0.480913 0.617456
1229 4 0.391565 0.417467 0.659272
1268 4 0.444646 0.422981 0.602605
1267 2 0.42114 0.428324 0.595962
2168 4 0.498155 0.486291 0.653833
2167 2 0.47718 0.497458 0.661613
863 4 0.0194466 0.0761116 0.713716
945 4 0.00166785 0.0699103 0.707339
1892 4 0.127287 0.0437634 0.680745
1891 2 0.150349 0.0463681 0.671443
939 4 0.114407 0.0302048 0.675761
937 2 0.111927 0.00916795 0.689046
1147 2 0.24727 0.0355528 0.725313
1148 4 0.230857 0.0205987 0.713816
1050 4 0.245974 0.0842749 0.663062
2400 4 0.26018 0.0654607 0.748192
1149 4 0.263682 0.050507 0.73681
45 3 0.397321 0.00888247 0.662215
44 3 0.416093 0.0411387 0.667199
2321 4 0.383406 0.00824266 0.70294
980 4 0.39384 0.0210009 0.718945
43 3 0.399042 0.0241287 0.696599
41 1 0.410373 0.0207279 0.676637
979 2 0.402612 0.0370831 0.735963
4227 4 0.423534 0.0610745 0.672562
4225 2 0.448373 0.0635279 0.671084
42 3 0.42961 0.00886936 0.680933
33 3 0.0678476 0.133434 0.676996
862 2 0.0399215 0.0793921 0.727687
864 4 0.0603964 0.0826727 0.741658
31 1 0.0851521 0.147589 0.683207
2286 4 0.0785878 0.0911641 0.740404
32 3 0.0934214 0.157925 0.664393
2284 2 0.0890073 0.104145 0.721746
2285 4 0.0994268 0.117126 0.703089
34 3 0.102189 0.13538 0.69316
1048 2 0.25119 0.0989326 0.682636
1021 2 0.246148 0.136853 0.727049
1049 4 0.256406 0.11359 0.70221
1022 4 0.251979 0.133636 0.702948
1283 4 0.291998 0.151218 0.675111
1004 4 0.279426 0.153612 0.691016
3114 4 0.486036 0.143138 0.659957
35 3 0.0774462 0.163398 0.697676
695 4 0.131452 0.232089 0.68016
831 4 0.305423 0.202369 0.729968
1003 2 0.286199 0.174425 0.703106
1005 4 0.292971 0.195237 0.715195
829 2 0.322255 0.191377 0.744835
694 2 0.122671 0.25367 0.689234
696 4 0.113889 0.275251 0.698307
1259 4 0.1296 0.286555 0.690972
1258 2 0.128562 0.311443 0.688806
1205 4 0.407831 0.321166 0.717438
1019 4 0.418642 0.319107 0.734824
953 4 0.50288 0.269317 0.68381
1298 4 0.504722 0.249361 0.689722
1260 4 0.127524 0.336331 0.686639
821 4 0.0901579 0.367621 0.756199
1209 4 0.127261 0.391455 0.703695
1207 2 0.122576 0.371002 0.690097
1208 4 0.117891 0.350549 0.6765
992 4 0.139474 0.405614 0.710732
1136 4 0.22349 0.322471 0.673562
946 2 0.193372 0.363689 0.742386
1135 2 0.220478 0.335614 0.694618
1137 4 0.217466 0.348757 0.715675
948 4 0.198393 0.353964 0.719905
1176 4 0.248988 0.385661 0.712052
1068 4 0.250528 0.385 0.691744
1066 2 0.268287 0.385917 0.674166
1174 2 0.251629 0.406529 0.725569
806 4 0.36668 0.359623 0.671922
1204 2 0.416961 0.336868 0.700255
1138 2 0.413289 0.391905 0.669987
1206 4 0.426091 0.352571 0.683072
1140 4 0.416654 0.367413 0.673729
3183 4 0.482782 0.398337 0.747668
1101 4 0.462597 0.401839 0.750009
2015 4 0.139427 0.445825 0.672793
993 4 0.142834 0.451604 0.691384
991 2 0.141154 0.428609 0.701058
1175 4 0.25427 0.427397 0.739087
1139 4 0.409924 0.416397 0.666246
1099 2 0.448813 0.417852 0.73664
1100 4 0.435028 0.433865 0.72327
1988 4 0.41906 0.443457 0.731011
2048 4 0.237221 0.0381556 0.817908
2047 2 0.244946 0.0617592 0.815013
1896 4 0.217026 0.0420239 0.816172
1894 2 0.201328 0.0243905 0.824406
1111 2 0.413342 0.0492657 0.788931
974 4 0.39698 0.0474631 0.828646
1113 4 0.402377 0.0435947 0.810675
1112 4 0.424308 0.0549368 0.767187
981 4 0.411384 0.0531652 0.75298
3253 2 0.459023 0.00923583 0.835441
3099 4 0.433512 0.0775453 0.819657
3038 4 0.011233 0.140126 0.803416
3245 4 0.0751334 0.143136 0.781477
3246 4 0.0278567 0.133135 0.794346
3244 2 0.051495 0.138136 0.787911
833 4 0.0886286 0.150574 0.794652
2398 2 0.248574 0.086295 0.755703
2399 4 0.236967 0.107129 0.763213
1023 4 0.240317 0.14007 0.751149
1256 4 0.238552 0.156517 0.76447
2049 4 0.25267 0.0853628 0.812118
838 2 0.257629 0.121069 0.8255
840 4 0.253339 0.104444 0.807323
919 2 0.107636 0.225492 0.81854
832 2 0.0924668 0.175121 0.791845
920 4 0.109912 0.212132 0.797528
834 4 0.096305 0.199668 0.789037
1255 2 0.255856 0.169507 0.776999
1257 4 0.27316 0.182498 0.789528
1131 4 0.274315 0.202196 0.792185
1129 2 0.260855 0.222239 0.798687
1130 4 0.247395 0.242283 0.805189
830 4 0.339088 0.180386 0.759702
978 4 0.35287 0.186638 0.773837
976 2 0.374551 0.194865 0.764488
977 4 0.396233 0.203092 0.755139
1146 4 0.404168 0.21133 0.771762
1144 2 0.425015 0.210493 0.785541
1308 4 0.449057 0.21713 0.818046
1145 4 0.445862 0.209655 0.799321
1105 2 0.0516126 0.32382 0.815523
1106 4 0.0521036 0.304187 0.830999
816 4 0.0994708 0.32527 0.815163
814 2 0.110595 0.308672 0.800132