ITEM: TIMESTEP
330000
ITEM: NUMBER OF ATOMS
4590
ITEM: BOX BOUNDS pp pp pp
-9.9985700000000008e+00 9.9985700000000008e+00
-9.9985700000000008e+00 9.9985700000000008e+00
-9.9985700000000008e+00 9.9985700000000008e+00
ITEM: ATOMS id type xs ys zs
463 2 0.0298348 0.0500245 0.042776
465 4 0.0492801 0.0657065 0.0438415
464 4 0.0103895 0.0343425 0.0417105
1667 4 0.0702552 0.0239299 0.0711788
534 4 0.197239 0.0563583 0.00750535
1474 2 0.232875 0.00244795 0.073318
490 2 0.283907 0.031781 0.0441988
491 4 0.282261 0.0543749 0.0547812
492 4 0.285553 0.00918719 0.0336165
296 4 0.374206 0.0557273 0.0583919
557 4 0.381733 0.0735438 0.0550434
295 2 0.382542 0.0512138 0.0815288
745 2 0.464623 0.0750932 0.0394599
747 4 0.455488 0.0645379 0.0187156
2975 4 0.463156 0.0592172 0.999586
701 4 0.0470628 0.0849703 0.0546715
700 2 0.0714461 0.0879707 0.0500205
591 4 0.0333316 0.0940093 0.0693981
421 2 0.0774692 0.15419 0.000742801
702 4 0.0958293 0.0909711 0.0453695
565 2 0.190534 0.112707 0.0485253
566 4 0.169249 0.114595 0.0355423
567 4 0.211819 0.110819 0.0615083
358 2 0.288126 0.121649 0.0341614
359 4 0.297502 0.116617 0.0115355
360 4 0.27875 0.126682 0.0567874
556 2 0.374912 0.0973583 0.0516488
558 4 0.368091 0.121173 0.0482541
746 4 0.473757 0.0856484 0.0602042
770 4 0.493278 0.159034 0.0643729
769 2 0.471644 0.163785 0.0527716
553 2 0.0246255 0.223994 0.0188288
555 4 0.0405622 0.22103 0.999792
554 4 0.0086889 0.226958 0.0378659
422 4 0.0976704 0.168864 0.0020687
666 4 0.313407 0.23179 0.00698336
664 2 0.330217 0.213343 0.0054568
324 4 0.406258 0.239177 0.0576379
665 4 0.347026 0.194896 0.00393024
1071 4 0.370595 0.247346 0.0162649
771 4 0.450011 0.168537 0.0411704
1014 4 0.474515 0.19986 0.00408599
828 4 0.423788 0.189541 0.0130784
1012 2 0.498482 0.206035 0.00053497
292 2 0.132924 0.321446 0.0410422
293 4 0.153109 0.309318 0.049449
507 4 0.160416 0.29133 0.0458233
506 4 0.197509 0.261859 0.0298154
483 4 0.235452 0.283503 0.0624265
505 2 0.178963 0.276595 0.0378193
481 2 0.240825 0.307276 0.056846
482 4 0.246198 0.331049 0.0512655
357 4 0.254841 0.280194 0.00133589
571 2 0.316438 0.258815 0.0462193
573 4 0.301356 0.25903 0.0262774
572 4 0.331519 0.2586 0.0661612
322 2 0.415339 0.256109 0.0736385
1069 2 0.388678 0.264569 0.0150177
956 4 0.368011 0.316034 0.00711607
1070 4 0.40676 0.281792 0.0137705
955 2 0.345906 0.325842 0.000766528
280 2 0.458574 0.330461 0.0243297
281 4 0.451725 0.325276 0.0478114
330 4 0.0444852 0.418409 0.0409844
328 2 0.0336014 0.398118 0.0312394
329 4 0.0227176 0.377826 0.0214943
621 4 0.0102932 0.373849 0.0809417
294 4 0.11274 0.333575 0.0326355
455 4 0.102263 0.375691 0.0715238
252 4 0.3081 0.374246 0.0509706
250 2 0.29427 0.39229 0.0405614
251 4 0.280441 0.410333 0.0301523
608 4 0.313072 0.374806 0.070431
671 4 0.460132 0.338581 0.0607671
670 2 0.448095 0.339824 0.0826473
282 4 0.465422 0.335646 0.000848053
550 2 0.0829535 0.426248 0.0548884
551 4 0.0650717 0.42532 0.0723399
552 4 0.100835 0.427177 0.0374368
242 4 0.149622 0.497548 0.0615126
245 4 0.211608 0.475571 0.0316459
244 2 0.235917 0.469798 0.0306823
246 4 0.260226 0.464024 0.0297188
272 4 0.272329 0.47323 0.0433969
271 2 0.284379 0.495118 0.0443521
227 4 0.491147 0.430824 0.0494814
562 2 0.444196 0.48094 0.0308124
226 2 0.498381 0.453227 0.0410598
564 4 0.446483 0.474726 0.0549234
563 4 0.44191 0.487153 0.0067013
1666 2 0.0688506 0.0231367 0.0961303
19 3 0.0374413 0.0409984 0.153737
20 3 0.051882 0.0686781 0.132691
1422 4 0.0309398 0.0205239 0.156529
1668 4 0.0674461 0.0223434 0.121082
16 1 0.0540668 0.0571101 0.152186
18 3 0.0749564 0.047053 0.153126
2480 4 0.017815 0.0391224 0.16183
450 4 0.17581 0.0618144 0.150485
1506 4 0.233016 0.0122659 0.151864
1475 4 0.226563 0.0102559 0.0962172
652 2 0.296452 0.0465612 0.156108
653 4 0.321121 0.0502523 0.157837
654 4 0.271783 0.04287 0.154378
297 4 0.390878 0.0467002 0.104666
485 4 0.353819 0.999915 0.12642
758 4 0.428186 0.063796 0.155048
2723 4 0.50156 0.0793513 0.126263
589 2 0.0374167 0.11245 0.0857822
590 4 0.0415019 0.13089 0.102166
380 4 0.000782735 0.122466 0.168952
448 2 0.174027 0.0866425 0.152844
237 4 0.198934 0.162452 0.15358
449 4 0.172244 0.111471 0.155204
235 2 0.193787 0.138784 0.159786
236 4 0.188641 0.115116 0.165991
582 4 0.301055 0.1008 0.157343
254 4 0.393118 0.156645 0.113164
630 4 0.404972 0.168593 0.123586
337 2 0.0782691 0.248072 0.152928
475 2 0.119101 0.172931 0.127452
477 4 0.0962008 0.173966 0.137438
476 4 0.142001 0.171897 0.117467
338 4 0.0931351 0.229393 0.160361
737 4 0.191626 0.200966 0.11772
736 2 0.21038 0.212733 0.1061
738 4 0.229133 0.2245 0.0944797
354 4 0.239899 0.224498 0.11197
352 2 0.264499 0.220952 0.11469
460 2 0.321723 0.198819 0.102679
461 4 0.30044 0.211742 0.100408
353 4 0.2891 0.217405 0.11741
255 4 0.348596 0.178045 0.120949
462 4 0.343007 0.185895 0.104951
253 2 0.370857 0.167345 0.117056
624 4 0.395772 0.250002 0.16339
629 4 0.449984 0.18603 0.110524
628 2 0.427478 0.177311 0.117055
518 4 0.491773 0.219981 0.132642
339 4 0.0634031 0.266752 0.145495
620 4 0.0198418 0.334119 0.109771
704 4 0.00474418 0.261483 0.15853
277 2 0.240038 0.266865 0.155848
279 4 0.220183 0.254624 0.164855
754 2 0.283044 0.2883 0.118286
755 4 0.271595 0.271881 0.13327
756 4 0.294492 0.304719 0.103302
278 4 0.259892 0.279107 0.146842
611 4 0.276149 0.323347 0.153888
741 4 0.351858 0.307926 0.088782
622 2 0.371127 0.25399 0.164772
739 2 0.353676 0.32795 0.103646
623 4 0.346482 0.257978 0.166154
323 4 0.42442 0.273041 0.089639
619 2 0.0150675 0.353984 0.0953561
647 4 0.0746653 0.380094 0.152916
537 4 0.148424 0.342184 0.146733
454 2 0.113752 0.358955 0.0861215
456 4 0.12524 0.342219 0.100719
535 2 0.160907 0.362195 0.138431
626 4 0.213197 0.394784 0.121559
536 4 0.173391 0.382205 0.130129
625 2 0.216805 0.416451 0.109613
609 4 0.299145 0.34849 0.110608
607 2 0.306109 0.361648 0.0905198
612 4 0.300431 0.358145 0.127427
610 2 0.28829 0.340746 0.140657
740 4 0.355495 0.347974 0.118509
387 4 0.352911 0.385033 0.158996
15 3 0.401236 0.375753 0.129675
385 2 0.347265 0.37357 0.137503
386 4 0.34162 0.362108 0.116011
11 1 0.423564 0.371403 0.130769
672 4 0.436058 0.341067 0.104527
13 3 0.430275 0.36998 0.152935
12 3 0.42789 0.351337 0.120387
14 3 0.435433 0.388155 0.119958
495 4 0.433205 0.404706 0.132809
595 2 0.474066 0.393117 0.153514
596 4 0.492974 0.402255 0.139943
627 4 0.220412 0.438118 0.0976675
637 2 0.24482 0.484382 0.150419
1439 4 0.235734 0.494753 0.11009
639 4 0.243601 0.498385 0.129741
525 4 0.360433 0.478279 0.100808
523 2 0.340926 0.492132 0.0935434
658 2 0.366878 0.466286 0.15841
659 4 0.348725 0.449865 0.163508
660 4 0.385031 0.482708 0.153312
493 2 0.435809 0.429407 0.129934
494 4 0.438414 0.454108 0.127058
17 3 0.0520093 0.0716479 0.169894
2479 2 0.00551325 0.0463466 0.182364
673 2 0.11256 0.0494833 0.226925
674 4 0.120435 0.0424172 0.24958
675 4 0.104685 0.0565494 0.20427
1505 4 0.219473 0.0262304 0.197932
1504 2 0.226245 0.0192482 0.174898
689 4 0.204539 0.0198157 0.210028
688 2 0.207337 0.0171714 0.234733
691 2 0.248182 0.0741964 0.200961
693 4 0.256388 0.0532051 0.190134
21 1 0.389776 0.0513021 0.222312
23 3 0.401567 0.0336175 0.231619
24 3 0.367685 0.0506888 0.229385
25 3 0.390693 0.0501486 0.199586
759 4 0.4064 0.0614657 0.199999
22 3 0.399271 0.0710599 0.229285
757 2 0.417293 0.0626308 0.177524
1760 4 0.490267 0.0025138 0.186528
742 2 0.453091 0.0537725 0.227527
743 4 0.462323 0.0628821 0.248904
744 4 0.443859 0.0446629 0.20615
379 2 0.0128246 0.142103 0.178676
381 4 0.0248665 0.161741 0.188399
511 2 0.0393723 0.153203 0.227619
513 4 0.0512423 0.154727 0.249572
512 4 0.0275023 0.15168 0.205665
579 4 0.102658 0.0921844 0.210066
577 2 0.101549 0.116076 0.217357
578 4 0.10044 0.139967 0.224648
692 4 0.239977 0.0951876 0.211787
723 4 0.224549 0.105855 0.245124
580 2 0.294559 0.116657 0.175551
581 4 0.288064 0.132514 0.19376
30 3 0.289478 0.122286 0.210613
26 1 0.295484 0.118684 0.232283
28 3 0.277328 0.110664 0.244302
27 3 0.312349 0.103055 0.232974
29 3 0.303159 0.138426 0.241757
312 4 0.426363 0.0948135 0.188204
310 2 0.438842 0.115644 0.182241
311 4 0.45132 0.136474 0.176277
395 4 0.0298677 0.251795 0.194706
363 4 0.101193 0.235915 0.178289
361 2 0.115885 0.245415 0.196152
284 4 0.253354 0.223093 0.187114
283 2 0.275036 0.212308 0.180888
285 4 0.296717 0.201522 0.174661
764 4 0.366295 0.216212 0.218152
763 2 0.388324 0.218508 0.206548
765 4 0.410353 0.220804 0.194944
520 2 0.467645 0.225447 0.237751
521 4 0.451231 0.218613 0.220171
394 2 0.0207311 0.249812 0.217896
396 4 0.0115945 0.247829 0.241086
750 4 0.0915763 0.311646 0.226791
362 4 0.130576 0.254914 0.214016
372 4 0.139432 0.267765 0.228764
300 4 0.121682 0.332613 0.219107
748 2 0.0892158 0.290639 0.240144
370 2 0.162746 0.271873 0.23681
371 4 0.186061 0.275982 0.244855
345 4 0.241943 0.302061 0.238913
343 2 0.258203 0.289991 0.224248
344 4 0.274464 0.27792 0.209583
307 2 0.320422 0.29048 0.21024
309 4 0.305021 0.309795 0.214104
308 4 0.335823 0.271166 0.206375
527 4 0.470348 0.282252 0.166741
528 4 0.457006 0.25284 0.20492
526 2 0.463677 0.267546 0.185831
646 2 0.0830018 0.364624 0.170703
648 4 0.0913383 0.349155 0.188489
298 2 0.128742 0.349626 0.236016
303 4 0.292149 0.405007 0.177486
301 2 0.315251 0.395714 0.175217
729 4 0.313751 0.393838 0.240503
302 4 0.338352 0.386421 0.172949
597 4 0.455158 0.38398 0.167085
643 2 0.458366 0.370802 0.203783
644 4 0.461441 0.374491 0.228321
645 4 0.455292 0.367113 0.179245
447 4 0.465907 0.383739 0.245579
263 4 0.061725 0.451777 0.198296
262 2 0.043268 0.453514 0.215074
264 4 0.0248109 0.455252 0.231852
417 4 0.138756 0.436316 0.210938
415 2 0.163508 0.438655 0.208281
638 4 0.246039 0.470378 0.171097
416 4 0.18826 0.440994 0.205623
291 4 0.196649 0.436903 0.189094
289 2 0.217523 0.426834 0.198479
290 4 0.238397 0.416765 0.207864
768 4 0.234066 0.482807 0.22398
766 2 0.247081 0.473338 0.204845
414 4 0.183351 0.473358 0.247639
767 4 0.260096 0.46387 0.18571
437 4 0.290988 0.471812 0.247044
231 4 0.391014 0.495416 0.200524
232 2 0.0350259 0.0493399 0.298489
233 4 0.044701 0.0269085 0.303819
1402 2 0.0759528 0.000311591 0.287973
1403 4 0.0549935 0.0132789 0.292185
234 4 0.0253507 0.0717712 0.29316
1464 4 0.1388 0.00461968 0.284432
731 4 0.151645 0.0716639 0.325527
690 4 0.210135 0.014527 0.259438
1701 4 0.247451 0.0366623 0.293246
1699 2 0.267284 0.0214856 0.292019
1700 4 0.287117 0.00630898 0.290792
1518 4 0.352119 0.011182 0.316029
257 4 0.412674 0.0450163 0.323943
698 4 0.394427 0.0494534 0.329519
697 2 0.371865 0.0388085 0.327848
699 4 0.349302 0.0281636 0.326176
1748 4 0.488248 0.99808 0.261471
478 2 0.482855 0.0459898 0.329788
480 4 0.474219 0.0283313 0.314336
351 4 0.459316 0.0672281 0.268343
349 2 0.444162 0.0723605 0.287557
350 4 0.429007 0.0774929 0.306771
530 4 0.0304157 0.135662 0.290374
398 4 0.0801475 0.093588 0.312421
529 2 0.00788107 0.138309 0.279868
397 2 0.0915846 0.115609 0.315491
399 4 0.103022 0.137631 0.318561
721 2 0.204859 0.11953 0.252227
546 4 0.175132 0.152858 0.267288
722 4 0.185168 0.133204 0.25933
248 4 0.237775 0.0867456 0.302291
249 4 0.242014 0.136219 0.296362
247 2 0.239894 0.111482 0.299326
404 4 0.233901 0.148141 0.282046
403 2 0.216755 0.165555 0.276761
632 4 0.357437 0.109411 0.306954
631 2 0.378939 0.122041 0.305131
633 4 0.400441 0.134671 0.303307
333 4 0.418043 0.116308 0.252606
331 2 0.434146 0.131779 0.263856
332 4 0.450248 0.147249 0.275106
762 4 0.45666 0.164692 0.26795
444 4 0.0174434 0.247922 0.303593
544 2 0.157229 0.170082 0.270116
392 4 0.120684 0.193188 0.271947
391 2 0.107901 0.188161 0.292839
393 4 0.0951178 0.183135 0.313732
545 4 0.139326 0.187306 0.272944
388 2 0.0987264 0.246741 0.33238
405 4 0.199609 0.18297 0.271476
401 4 0.182934 0.242796 0.302
599 4 0.185241 0.175098 0.326413
706 2 0.307207 0.190972 0.316307
707 4 0.297456 0.203174 0.296782
420 4 0.398966 0.202961 0.307391
418 2 0.414034 0.206243 0.327072
522 4 0.484059 0.23228 0.255331
761 4 0.487283 0.170457 0.307061
760 2 0.471971 0.167575 0.287506
443 4 0.00419504 0.258811 0.256618
442 2 0.0108192 0.253366 0.280105
390 4 0.0800099 0.259417 0.321694
749 4 0.0868554 0.269631 0.253497
400 2 0.204774 0.254968 0.301962
402 4 0.226615 0.267141 0.301923
678 4 0.192031 0.324274 0.327535
509 4 0.250165 0.329062 0.321945
496 2 0.316016 0.295272 0.29759
497 4 0.323741 0.276251 0.283317
498 4 0.308292 0.314293 0.311863
615 4 0.406814 0.32371 0.318521
543 4 0.42391 0.331179 0.327075
541 2 0.441621 0.317685 0.315699
542 4 0.459332 0.304191 0.304323
366 4 0.00528745 0.363504 0.260612
364 2 0.0155324 0.352143 0.28039
365 4 0.0257773 0.340781 0.300167
603 4 0.0826908 0.370722 0.305967
299 4 0.135802 0.366639 0.252924
601 2 0.0852685 0.394689 0.299325
734 4 0.150195 0.379958 0.256959
733 2 0.162422 0.372385 0.277412
735 4 0.174648 0.364812 0.297866
677 4 0.186397 0.371832 0.31314
676 2 0.189214 0.348053 0.320337
433 2 0.323614 0.393671 0.320777
727 2 0.32739 0.388514 0.260772
434 4 0.335297 0.386387 0.299905
613 2 0.387328 0.336166 0.328024
728 4 0.341029 0.383191 0.28104
445 2 0.452842 0.384539 0.266883
446 4 0.439777 0.385339 0.288186
119 3 0.484458 0.410757 0.323275
549 4 0.0572965 0.466722 0.331874
602 4 0.0878462 0.418656 0.292683
777 4 0.0995277 0.433077 0.283716
775 2 0.0942383 0.456551 0.290514
776 4 0.088949 0.480024 0.297311
412 2 0.175889 0.466015 0.270346
413 4 0.168427 0.458673 0.293052
436 2 0.30034 0.461007 0.267562
438 4 0.309692 0.450202 0.288079
713 4 0.422067 0.462243 0.26976
712 2 0.430375 0.454875 0.292162
714 4 0.438684 0.447508 0.314565
593 4 0.418694 0.488491 0.32513
316 2 0.0463056 0.0784977 0.352569
317 4 0.0463773 0.055611 0.362637
428 4 0.0519483 0.0374181 0.361052
427 2 0.0691466 0.022657 0.350493
1780 2 0.125247 0.000131836 0.374635
429 4 0.086345 0.00789589 0.339933
1782 4 0.112994 0.0207667 0.381653
606 4 0.17532 0.0433556 0.37787
604 2 0.197987 0.0502164 0.369851
605 4 0.220655 0.0570772 0.361832
683 4 0.303348 0.0603796 0.390788
682 2 0.281288 0.0718358 0.393489
684 4 0.259228 0.083292 0.396191
424 2 0.402996 0.0224977 0.393209
425 4 0.389974 0.0134697 0.412551
426 4 0.416018 0.0315258 0.373867
256 2 0.419392 0.0466761 0.34797
479 4 0.491492 0.0636484 0.34524
258 4 0.426111 0.0483358 0.371997
2586 4 0.018311 0.082825 0.3927
318 4 0.046234 0.101384 0.3425
732 4 0.12476 0.104661 0.351777
730 2 0.138203 0.0881626 0.338652
687 4 0.168082 0.138445 0.390865
685 2 0.177731 0.154778 0.407153
600 4 0.200118 0.130154 0.34252
598 2 0.192679 0.152626 0.334466
320 4 0.251363 0.100623 0.403733
451 2 0.482456 0.167278 0.375202
453 4 0.459527 0.157308 0.374998
514 2 0.430143 0.158133 0.404598
515 4 0.440877 0.156746 0.382058
2653 2 0.01262 0.223188 0.376982
2654 4 0.037579 0.22244 0.378273
260 4 0.114637 0.216254 0.41562
389 4 0.117443 0.234065 0.343067
474 4 0.240745 0.200899 0.350929
275 4 0.173587 0.251032 0.393881
708 4 0.316958 0.17877 0.335831
472 2 0.265513 0.203246 0.353429
473 4 0.29028 0.205592 0.35593
488 4 0.296195 0.209331 0.406266
487 2 0.298747 0.233821 0.410614
468 4 0.330506 0.178256 0.407322
715 2 0.377068 0.240474 0.37217
716 4 0.360114 0.224337 0.363376
419 4 0.429103 0.209525 0.346753
304 2 0.491524 0.212104 0.410544
306 4 0.475651 0.230635 0.416005
616 2 0.0758239 0.321168 0.371834
618 4 0.0581849 0.306213 0.381342
347 4 0.0445538 0.298677 0.39414
346 2 0.0521321 0.293276 0.417348
617 4 0.093463 0.336122 0.362327
274 2 0.198588 0.251345 0.393872
276 4 0.22359 0.251659 0.393863
508 2 0.240879 0.316921 0.341733
510 4 0.231593 0.304781 0.361521
373 2 0.206598 0.316785 0.395005
374 4 0.221448 0.298941 0.404292
376 2 0.317464 0.297225 0.35658
377 4 0.333234 0.278491 0.361632
378 4 0.301694 0.315959 0.351528
717 4 0.394022 0.256611 0.380964
269 4 0.494268 0.282407 0.376045
268 2 0.486324 0.265634 0.3928
270 4 0.478381 0.24886 0.409555
406 2 0.0703657 0.414035 0.388631
407 4 0.0636557 0.406946 0.365611
375 4 0.191748 0.334629 0.385717
435 4 0.311932 0.400955 0.341649
614 4 0.367842 0.348622 0.337528
336 4 0.366426 0.376161 0.396356
561 4 0.461846 0.386645 0.386063
752 4 0.449689 0.399358 0.377704
559 2 0.465882 0.378229 0.409259
751 2 0.456523 0.411031 0.356675
2461 2 0.00957184 0.491585 0.349045
2463 4 0.0277295 0.477911 0.338629
547 2 0.0628104 0.446181 0.34502
408 4 0.0770758 0.421125 0.41165
548 4 0.0683242 0.425639 0.358166
499 2 0.123362 0.477661 0.372382
501 4 0.12681 0.455141 0.362078
503 4 0.24412 0.421863 0.403718
668 4 0.314377 0.444997 0.4084
5 3 0.287696 0.467539 0.369114
1 1 0.30991 0.46287 0.367278
2 3 0.321906 0.478136 0.379616
4 3 0.314227 0.441582 0.375437
3 3 0.316499 0.464333 0.345078
592 2 0.397412 0.496715 0.335358
753 4 0.463357 0.422704 0.335646
718 2 0.0498965 0.0668966 0.476154
720 4 0.0308583 0.0727525 0.491268
719 4 0.0689347 0.0610407 0.46104
2237 4 0.0071602 0.0269995 0.492823
367 2 0.122289 0.0398855 0.447107
369 4 0.113671 0.0564066 0.463779
368 4 0.130907 0.0233643 0.430435
1181 4 0.230049 0.0544259 0.482633
1180 2 0.239604 0.0763807 0.489835
341 4 0.183426 0.0270705 0.489804
342 4 0.188944 0.0755316 0.500839
340 2 0.186185 0.0513011 0.495322
441 4 0.257627 0.0161989 0.442658
439 2 0.275774 0.00368582 0.430856
726 4 0.318222 0.0601847 0.460242
724 2 0.331179 0.0790138 0.450105
2879 4 0.501341 0.0573719 0.434979
2878 2 0.486689 0.073139 0.447703
458 4 0.0412325 0.154148 0.433844
457 2 0.0173882 0.160076 0.438479
1182 4 0.249159 0.0983355 0.497037
321 4 0.252645 0.140222 0.434245
319 2 0.252004 0.120422 0.418989
725 4 0.344136 0.0978429 0.439968
574 2 0.390028 0.157577 0.455935
576 4 0.372599 0.147219 0.470568
516 4 0.419409 0.159519 0.427137
642 4 0.482512 0.108016 0.463798
2880 4 0.472037 0.0889061 0.460426
640 2 0.481318 0.127599 0.479298
641 4 0.480124 0.147183 0.494797
471 4 0.060088 0.180263 0.470643
469 2 0.0464001 0.199172 0.479603
470 4 0.0327121 0.218081 0.488562
261 4 0.10868 0.21881 0.465205
259 2 0.111658 0.217532 0.440413
1035 4 0.103574 0.207602 0.481176
695 4 0.118802 0.235834 0.46784
1033 2 0.102338 0.184433 0.490494
686 4 0.18738 0.171112 0.423441
411 4 0.259053 0.2169 0.460482
409 2 0.283259 0.2164 0.466727
410 4 0.307465 0.2159 0.472972
575 4 0.407456 0.167935 0.441301
467 4 0.365867 0.208154 0.426201
466 2 0.348186 0.193205 0.416762
348 4 0.0597105 0.287874 0.440555
694 2 0.122068 0.252854 0.485862
10 3 0.159463 0.324572 0.472862
489 4 0.301298 0.258311 0.414962
651 4 0.289148 0.257033 0.431316
649 2 0.277684 0.275969 0.442944
650 4 0.266219 0.294904 0.454571
266 4 0.320495 0.302767 0.435792
812 4 0.313713 0.293098 0.486954
265 2 0.341215 0.29115 0.443596
267 4 0.361935 0.279533 0.451401
583 2 0.468058 0.279207 0.453174
584 4 0.488253 0.287968 0.441316
585 4 0.447863 0.270447 0.465031
681 4 0.0437602 0.401072 0.425961
326 4 0.0805595 0.357586 0.436178
7 3 0.133019 0.341442 0.493087
327 4 0.105515 0.339493 0.475556
325 2 0.0930371 0.348539 0.455867
6 1 0.155234 0.341813 0.487128
8 3 0.159871 0.362024 0.476716
711 4 0.174509 0.37561 0.47585
504 4 0.244053 0.385842 0.438405
709 2 0.187929 0.385357 0.457138
710 4 0.201348 0.395103 0.438427
772 2 0.232334 0.406499 0.487984
502 2 0.244087 0.403853 0.421061
334 2 0.370395 0.373275 0.420874
238 2 0.391307 0.37275 0.483611
240 4 0.37405 0.375025 0.465661
335 4 0.374364 0.37039 0.445391
560 4 0.469918 0.369813 0.432455
383 4 0.07176 0.440018 0.465279
934 2 0.0171055 0.44691 0.494775
680 4 0.0287921 0.446887 0.43929
1381 2 0.0261467 0.488973 0.436574
1383 4 0.0273286 0.464556 0.431321
679 2 0.0362762 0.423979 0.432625
935 4 0.00042598 0.42903 0.499998
936 4 0.0337851 0.46479 0.489553
570 4 0.14805 0.48436 0.426923
538 2 0.0944865 0.493543 0.498435
540 4 0.118839 0.491141 0.493302
568 2 0.137412 0.470193 0.444568
569 4 0.126774 0.456027 0.462212
382 2 0.0965152 0.439785 0.468787
384 4 0.12127 0.439553 0.472295
635 4 0.220197 0.442216 0.476709
634 2 0.233237 0.454752 0.459447
636 4 0.246278 0.467288 0.442185
774 4 0.220028 0.422902 0.473678
669 4 0.301735 0.439255 0.456441
667 2 0.308056 0.442126 0.43242
1401 4 0.363263 0.499559 0.448711
586 2 0.398967 0.444243 0.42655
588 4 0.374742 0.438089 0.427241
587 4 0.423191 0.450397 0.425859
1126 2 0.0342471 0.0587789 0.527796
1127 4 0.0263825 0.0574476 0.504099
1128 4 0.0421117 0.0601102 0.551493
2236 2 0.00712453 0.0066795 0.507392
1058 4 0.129692 0.0809786 0.541706
1057 2 0.134487 0.0829769 0.566164
2430 4 0.185765 0.0165103 0.506717
1152 4 0.182814 0.0819464 0.5183
1030 2 0.253339 0.0783104 0.583235
961 2 0.288173 0.0318035 0.521124
962 4 0.283947 0.00949681 0.5316
432 4 0.287394 0.072539 0.506807
963 4 0.2924 0.0541102 0.510649
1217 4 0.399844 0.0473091 0.543441
841 2 0.368388 0.078735 0.534553
842 4 0.387478 0.063529 0.539987
1216 2 0.417123 0.0337809 0.555425
1218 4 0.434401 0.0202527 0.567409
937 2 0.104929 0.150951 0.566755
939 4 0.113822 0.133658 0.551036
1151 4 0.140587 0.10854 0.521529
1150 2 0.1617 0.0952431 0.519914
1034 4 0.101103 0.161264 0.499813
430 2 0.307834 0.0829127 0.516797
1032 4 0.259165 0.0989753 0.570421
899 4 0.31185 0.128894 0.578205
898 2 0.326665 0.142558 0.563407
431 4 0.328273 0.0932864 0.526787
843 4 0.349298 0.093941 0.529119
900 4 0.34148 0.156222 0.548608
877 2 0.0656711 0.195935 0.580052
878 4 0.0447001 0.193775 0.566609
1199 4 0.0129985 0.191006 0.56485
938 4 0.0960362 0.168243 0.582473
857 4 0.243004 0.199167 0.528284
856 2 0.253137 0.220795 0.535681
858 4 0.263271 0.242423 0.543079
791 4 0.331406 0.237248 0.566958
872 4 0.41269 0.235236 0.525875
3159 4 0.484616 0.177351 0.531928
1258 2 0.153087 0.275607 0.534904
1260 4 0.134541 0.28045 0.518849
696 4 0.125334 0.269875 0.503885
1259 4 0.171633 0.270764 0.550959
811 2 0.328855 0.289578 0.506538
790 2 0.319588 0.254793 0.580289
813 4 0.343997 0.286058 0.526121
871 2 0.399879 0.254968 0.517405
873 4 0.387068 0.274699 0.508935
953 4 0.45914 0.311001 0.567627
983 4 0.0296065 0.33658 0.573599
1137 4 0.121607 0.36898 0.566459
1135 2 0.116103 0.348552 0.579784
9 3 0.168171 0.33961 0.506264
1189 2 0.235203 0.354581 0.569703
773 4 0.24464 0.390095 0.502291
896 4 0.197262 0.357495 0.56582
1191 4 0.211936 0.352981 0.578717
895 2 0.17592 0.363119 0.577571
1190 4 0.258471 0.35618 0.56069
802 2 0.267012 0.377148 0.5283
803 4 0.27103 0.360066 0.546111
804 4 0.262993 0.394229 0.510488
928 2 0.359063 0.387756 0.571353
929 4 0.351856 0.387798 0.547411
239 4 0.408564 0.370476 0.501561
925 2 0.475137 0.383804 0.523615
927 4 0.466447 0.406102 0.530857
926 4 0.483826 0.361506 0.516373
539 4 0.0701335 0.495945 0.503567
1161 4 0.169021 0.435507 0.579296
1171 2 0.231028 0.450888 0.552124
1173 4 0.227182 0.475173 0.556665
1172 4 0.234873 0.426602 0.547583
882 4 0.319343 0.447316 0.513569
880 2 0.325822 0.467375 0.527017
881 4 0.332301 0.487434 0.540464
1952 4 0.351431 0.487946 0.548145
1951 2 0.348724 0.48666 0.572969
1002 4 0.419882 0.460766 0.57395
1000 2 0.425578 0.445014 0.555387
1001 4 0.431275 0.429262 0.536823
662 4 0.490221 0.492597 0.523855
661 2 0.470368 0.477418 0.523048
663 4 0.450515 0.46224 0.522241
945 4 0.0690405 0.015091 0.649049
944 4 0.0512543 0.0610168 0.65772
943 2 0.0601474 0.0380539 0.653385
1185 4 0.00922672 0.0546225 0.616789
1183 2 0.0012075 0.04633 0.638972
825 4 0.149189 0.0270121 0.630297
823 2 0.145114 0.00308241 0.624302
1031 4 0.247514 0.0576454 0.596049
951 4 0.24332 0.039669 0.602866
1283 4 0.199161 0.0785559 0.648772
949 2 0.25853 0.0213344 0.595271
950 4 0.27374 0.00299987 0.587677
4467 4 0.470834 0.00377162 0.597656
2283 4 0.431674 0.00596513 0.649798
808 2 0.475646 0.0819794 0.637219
810 4 0.46195 0.07861 0.657865
45 3 0.441838 0.0792834 0.657792
1083 4 0.0644986 0.115359 0.606423
1082 4 0.0570376 0.0895728 0.648615
1081 2 0.0607681 0.102466 0.627519
1059 4 0.139282 0.0849752 0.590622
1153 2 0.162034 0.120094 0.594477
1155 4 0.15121 0.0985248 0.601019
1284 4 0.162538 0.089133 0.616406
1154 4 0.172857 0.141663 0.587934
1282 2 0.18085 0.0838444 0.632589
1005 4 0.327838 0.0859711 0.661764
809 4 0.489341 0.0853487 0.616573
1244 4 0.0447398 0.239311 0.635501
909 4 0.16031 0.168956 0.652711
879 4 0.0866422 0.198094 0.593496
1272 4 0.098781 0.207838 0.605671
1270 2 0.116931 0.201403 0.621619
1271 4 0.135081 0.194968 0.637568
1207 2 0.105531 0.247145 0.661937
1221 4 0.180177 0.189873 0.60242
797 4 0.213487 0.243194 0.587178
1212 4 0.200884 0.172515 0.660417
1210 2 0.224103 0.179232 0.666814
1219 2 0.19292 0.179012 0.62099
1220 4 0.205663 0.168152 0.63956
796 2 0.232229 0.235799 0.601985
798 4 0.250971 0.228405 0.616792
904 2 0.491263 0.219794 0.606068
906 4 0.468357 0.2297 0.607607
1024 2 0.434794 0.211163 0.650876
1025 4 0.438187 0.235918 0.649931
1026 4 0.4314 0.186409 0.651822
982 2 0.0201475 0.323535 0.592718
1243 2 0.0426059 0.262376 0.644917
1245 4 0.040472 0.28544 0.654333
984 4 0.0106886 0.31049 0.611837
3263 4 0.00352763 0.321986 0.626912
1209 4 0.12325 0.262569 0.653373
948 4 0.16462 0.285611 0.620152
1136 4 0.110598 0.328123 0.593109
946 2 0.186525 0.274123 0.623808
947 4 0.20843 0.262634 0.627463
792 4 0.307771 0.272337 0.59362
1238 4 0.307199 0.29364 0.592863
1237 2 0.28829 0.306848 0.602515
1239 4 0.26938 0.320056 0.612167
954 4 0.428179 0.290249 0.600966
952 2 0.44366 0.300625 0.584297
3123 4 0.485026 0.291492 0.649887
3121 2 0.491373 0.269254 0.659392
1039 2 0.0628303 0.404456 0.611207
1041 4 0.0409815 0.412522 0.602111
1040 4 0.084679 0.396389 0.620303
897 4 0.154578 0.368743 0.589321
992 4 0.13519 0.408767 0.640752
991 2 0.110546 0.404659 0.639764
993 4 0.0859023 0.40055 0.638777
806 4 0.353426 0.339295 0.668504
930 4 0.366271 0.387715 0.595296
1204 2 0.3828 0.394443 0.624657
1206 4 0.374109 0.404118 0.603303
1205 4 0.391492 0.384768 0.646012
2129 4 0.0174923 0.495768 0.645056
1159 2 0.15685 0.451668 0.593989
1160 4 0.14468 0.46783 0.608681
2172 4 0.0984781 0.486928 0.657137
889 2 0.325253 0.443822 0.617245
891 4 0.30459 0.452373 0.628431
890 4 0.345915 0.435271 0.606059
1953 4 0.346017 0.485374 0.597792
1269 4 0.428357 0.494317 0.628527
1267 2 0.431546 0.49332 0.653306
1147 2 0.207111 0.0811971 0.749197
1163 4 0.479541 0.0498406 0.700495
42 3 0.43884 0.0660539 0.692561
2321 4 0.487652 0.0150545 0.728431
1076 4 0.060929 0.0882888 0.667633
862 2 0.0341917 0.0955819 0.738966
864 4 0.0351395 0.103179 0.715164
1075 2 0.0445178 0.0994679 0.682828
1077 4 0.0281066 0.110647 0.698022
907 2 0.163949 0.15046 0.669139
908 4 0.167588 0.131964 0.685566
1227 4 0.168464 0.118525 0.700661
1148 4 0.206939 0.101992 0.735314
1225 2 0.188942 0.119571 0.71497
1226 4 0.20942 0.120617 0.729278
829 2 0.323311 0.158347 0.71402
43 3 0.413379 0.0905402 0.679724
1004 4 0.36133 0.113064 0.687159
1003 2 0.344584 0.0995175 0.674462
831 4 0.338661 0.140493 0.722435
41 1 0.435765 0.084467 0.67912
44 3 0.448906 0.101851 0.68709
3425 4 0.499619 0.119274 0.681755
851 4 0.0604002 0.182767 0.71523
852 4 0.0222227 0.213431 0.705083
850 2 0.0413114 0.198099 0.710156
1107 4 0.0631191 0.187289 0.733491
1178 4 0.0188441 0.22979 0.714819
1215 4 0.0048221 0.225452 0.727617
1177 2 0.00538557 0.248727 0.705576
1105 2 0.0815096 0.176785 0.746782
1208 4 0.0878129 0.231721 0.670501
1211 4 0.247322 0.18595 0.67321
830 4 0.307962 0.176201 0.705605
886 2 0.276058 0.195504 0.687012
888 4 0.259349 0.202874 0.669934
887 4 0.292768 0.188134 0.70409
916 2 0.301506 0.247189 0.747294
1142 4 0.411518 0.165802 0.721593
1193 4 0.348599 0.222428 0.671881
1192 2 0.358892 0.214486 0.693239
1194 4 0.369185 0.206544 0.714597
1262 4 0.399442 0.231337 0.725622
3122 4 0.49772 0.247015 0.668897
3356 4 0.483634 0.224918 0.723675
3355 2 0.492741 0.239222 0.705299
1141 2 0.425925 0.186004 0.71851
1143 4 0.440333 0.206205 0.715426
1261 2 0.419335 0.244799 0.718678
1145 4 0.497198 0.221983 0.736993
821 4 0.154219 0.256946 0.722051
820 2 0.165416 0.255478 0.744359
1065 4 0.218629 0.275847 0.718031
1063 2 0.242467 0.273323 0.710919
1064 4 0.266304 0.2708 0.703807
917 4 0.288898 0.268122 0.742001
1263 4 0.439227 0.258262 0.711734
3274 2 0.0182623 0.385118 0.733054
892 2 0.0627058 0.397441 0.691056
893 4 0.0697721 0.411869 0.671897
894 4 0.0556395 0.383013 0.710216
3276 4 0.0356152 0.384816 0.715055
940 2 0.140279 0.404211 0.732508
941 4 0.163792 0.410627 0.73809
942 4 0.116766 0.397795 0.726926
815 4 0.110489 0.388456 0.74273
1067 4 0.171086 0.40555 0.72076
1028 4 0.217564 0.377975 0.680523
1066 2 0.185219 0.395486 0.702756
1068 4 0.199353 0.385423 0.684752
1027 2 0.239495 0.389846 0.678711
1236 4 0.212051 0.358059 0.750511
1029 4 0.261427 0.401717 0.676899
807 4 0.354029 0.345581 0.718111
805 2 0.353727 0.342438 0.693307
1019 4 0.391722 0.386044 0.729291
1018 2 0.376132 0.372055 0.742945
1281 4 0.021664 0.459368 0.728433
1280 4 0.0211233 0.427521 0.689881
1279 2 0.0213937 0.443445 0.709157
1983 4 0.0151987 0.474549 0.740394
1981 2 0.0333201 0.491758 0.741212
2016 4 0.130317 0.491289 0.734427
1079 4 0.144042 0.487884 0.749061
1176 4 0.185815 0.494503 0.723971
1174 2 0.204163 0.485824 0.709369
1175 4 0.22251 0.477144 0.694767
1987 2 0.330154 0.497222 0.743344
1139 4 0.289469 0.41787 0.696268
1138 2 0.293529 0.437304 0.711467
1140 4 0.29759 0.456739 0.726666
1228 2 0.357765 0.449494 0.713687
1229 4 0.353192 0.474066 0.714387
1230 4 0.362338 0.424922 0.712986
1989 4 0.346567 0.482645 0.731372
1250 4 0.478748 0.487882 0.744237
3329 4 0.496431 0.47756 0.741825
1100 4 0.478072 0.444846 0.722227
1099 2 0.466129 0.463399 0.710466
1101 4 0.454186 0.481952 0.698704
1268 4 0.434735 0.492322 0.678086
2168 4 0.452527 0.498328 0.686911
911 4 0.0947825 0.038816 0.824781
1202 4 0.0883477 0.031678 0.766393
910 2 0.0996941 0.0630675 0.828376
1203 4 0.0954497 0.0811738 0.765729
1201 2 0.0918987 0.0564259 0.766061
2049 4 0.100239 0.016467 0.771979
1149 4 0.207284 0.0604024 0.76308
1257 4 0.2661 0.0765185 0.810221
1255 2 0.279636 0.0606634 0.824026
1048 2 0.322596 0.000528577 0.752169
975 4 0.360301 0.01592 0.830309
1050 4 0.342546 0.0125972 0.7612
846 4 0.47433 0.0500377 0.768178
1113 4 0.429145 0.0488051 0.80558
844 2 0.468267 0.0298895 0.781686
1111 2 0.436796 0.0647229 0.823279
845 4 0.462203 0.00974132 0.795194
834 4 0.000606338 0.0991093 0.814409
863 4 0.033244 0.0879844 0.762769
832 2 0.00827568 0.0986729 0.790614
833 4 0.015945 0.0982365 0.76682
34 3 0.0888211 0.162873 0.812258