ITEM: TIMESTEP
1780000
ITEM: NUMBER OF ATOMS
4590
ITEM: BOX BOUNDS pp pp pp
-9.9985700000000008e+00 9.9985700000000008e+00
-9.9985700000000008e+00 9.9985700000000008e+00
-9.9985700000000008e+00 9.9985700000000008e+00
ITEM: ATOMS id type xs ys zs
463 2 0.0529955 0.0752993 0.00627039
464 4 0.0611563 0.0528714 0.998816
1666 2 0.0726844 0.00322755 0.0771684
3290 4 0.0689748 0.0339553 0.999223
1668 4 0.0884582 0.0124036 0.0600755
566 4 0.186212 0.046369 0.0406068
1474 2 0.238703 0.0180513 0.0778034
565 2 0.201508 0.0625071 0.0520416
1475 4 0.2388 0.0348932 0.0593232
492 4 0.256502 0.0446944 0.0599956
567 4 0.216805 0.0786451 0.0634764
490 2 0.264904 0.0431817 0.0364944
491 4 0.273305 0.041669 0.0129933
745 2 0.461499 0.0688829 0.0133364
2724 4 0.486546 0.0378982 0.0754797
747 4 0.485412 0.0708727 0.0203647
2722 2 0.463477 0.0475202 0.074841
1826 4 0.506191 0.042529 0.0780023
746 4 0.437586 0.0668931 0.00630822
589 2 0.996007 0.0918391 0.0889845
465 4 0.0448348 0.0977273 0.0137248
701 4 0.0476709 0.117285 0.0103051
700 2 0.0528638 0.141648 0.0124633
702 4 0.0580567 0.166011 0.0146215
423 4 0.0753748 0.177328 0.0138641
1133 4 0.18528 0.149782 0.00101188
360 4 0.198207 0.155514 0.0154323
358 2 0.219411 0.143201 0.0203274
359 4 0.240615 0.130888 0.0252224
828 4 0.436498 0.15458 0.00444973
555 4 0.0401694 0.173418 0.016164
553 2 0.0399293 0.197518 0.00950997
554 4 0.0396892 0.221619 0.00285599
422 4 0.111129 0.206976 0.0323939
421 2 0.0932519 0.192152 0.023129
3234 4 0.0874711 0.167201 0.00195043
737 4 0.207953 0.227497 0.0478338
736 2 0.216805 0.204425 0.0516378
354 4 0.246255 0.18229 0.0563637
738 4 0.225658 0.181353 0.0554419
506 4 0.217514 0.244551 0.0482729
353 4 0.275751 0.184424 0.0966895
352 2 0.261003 0.183357 0.0765266
1069 2 0.391108 0.232141 0.995917
1071 4 0.378222 0.249883 0.00793161
1170 4 0.0871902 0.339149 0.000658055
2807 4 0.00978063 0.284077 0.0465396
294 4 0.149394 0.328839 0.0388487
507 4 0.197023 0.287796 0.03376
293 4 0.176452 0.287183 0.0330739
292 2 0.162923 0.308011 0.0359613
505 2 0.207269 0.266174 0.0410164
481 2 0.294913 0.289553 0.00468054
482 4 0.309195 0.293934 0.0247307
573 4 0.37729 0.262108 0.02254
571 2 0.366282 0.277839 0.0385571
572 4 0.355273 0.293569 0.0545742
741 4 0.36779 0.298148 0.0695431
739 2 0.357859 0.317762 0.0814534
324 4 0.455685 0.286548 0.0464113
323 4 0.427151 0.270764 0.0084978
322 2 0.441418 0.278656 0.0274545
1168 2 0.0670344 0.353937 0.000159915
1169 4 0.0468787 0.368724 0.999662
456 4 0.140585 0.32981 0.0570179
454 2 0.142901 0.350578 0.0707476
455 4 0.145217 0.371346 0.0844773
608 4 0.232152 0.371202 0.0685999
252 4 0.250715 0.37699 0.0662227
250 2 0.272586 0.386536 0.0587586
251 4 0.294458 0.396081 0.0512945
226 2 0.391865 0.39313 0.0330228
228 4 0.380931 0.396122 0.055309
671 4 0.410282 0.350515 0.0577672
227 4 0.402798 0.390137 0.0107365
670 2 0.399961 0.358176 0.0792136
281 4 0.428604 0.34954 0.0632734
280 2 0.45303 0.346447 0.0589165
282 4 0.477456 0.343354 0.0545597
104 3 0.483909 0.350701 0.0715367
1045 2 0.49371 0.352086 0.0177471
1047 4 0.492761 0.341044 0.0401603
552 4 0.00240743 0.431266 0.039053
314 4 0.0210229 0.430136 0.0481636
313 2 0.0310177 0.421605 0.069436
795 4 0.169843 0.459152 0.00287812
244 2 0.228645 0.47434 0.00816961
243 4 0.228402 0.478994 0.0558652
793 2 0.163121 0.483231 0.00241609
245 4 0.207688 0.462816 0.000877128
241 2 0.217722 0.501349 0.0592364
246 4 0.249601 0.485865 0.0154621
272 4 0.257746 0.482177 0.0611521
1440 4 0.241147 0.471025 0.0716415
524 4 0.3114 0.406342 0.0461652
523 2 0.328384 0.422922 0.0540275
271 2 0.274546 0.499832 0.0555633
40 3 0.366006 0.442909 0.00691973
525 4 0.345368 0.439502 0.0618899
19 3 0.033721 0.991797 0.139859
1422 4 0.0298069 0.00813144 0.148799
16 1 0.0505456 0.99003 0.123978
17 3 0.0411934 0.98384 0.103894
2480 4 0.0215252 0.0241943 0.138726
18 3 0.0611226 0.0105125 0.121331
652 2 0.222983 0.0532038 0.144415
654 4 0.22288 0.0637736 0.121756
1476 4 0.238606 0.0012094 0.0962837
484 2 0.356416 0.997987 0.132137
297 4 0.373002 0.021369 0.118257
485 4 0.37375 0.000453681 0.114287
295 2 0.384387 0.0424233 0.111025
296 4 0.395771 0.0634775 0.103793
557 4 0.414311 0.0634536 0.0971551
2723 4 0.440408 0.0571421 0.0742023
1759 2 0.455201 0.00694815 0.13229
1760 4 0.478922 0.0143855 0.134969
2744 4 0.495924 0.0221215 0.14191
1761 4 0.43148 0.999511 0.129611
590 4 0.0108254 0.0846473 0.107796
237 4 0.125704 0.165812 0.13295
235 2 0.124808 0.149586 0.151952
556 2 0.421483 0.0873862 0.0961725
771 4 0.445674 0.1227 0.0914214
558 4 0.428655 0.111319 0.0951898
769 2 0.445208 0.146077 0.10028
476 4 0.184602 0.220821 0.159591
477 4 0.175963 0.231907 0.1116
475 2 0.180283 0.226364 0.135595
461 4 0.283512 0.172808 0.111098
460 2 0.306993 0.181299 0.112407
279 4 0.305712 0.238963 0.167688
254 4 0.393404 0.231141 0.0945865
630 4 0.401472 0.213536 0.0983587
462 4 0.330474 0.189791 0.113715
253 2 0.377614 0.248867 0.0867355
770 4 0.444741 0.169454 0.109139
628 2 0.423408 0.219278 0.108896
624 4 0.452484 0.242341 0.130206
629 4 0.445344 0.225019 0.119433
622 2 0.440778 0.252683 0.14973
338 4 0.0461552 0.257085 0.13484
337 2 0.0676523 0.265634 0.144325
339 4 0.0891494 0.274183 0.153809
363 4 0.111988 0.2862 0.176799
612 4 0.239035 0.32684 0.116116
611 4 0.258614 0.288278 0.141223
754 2 0.324085 0.266442 0.101401
610 2 0.248824 0.307559 0.12867
755 4 0.300273 0.268755 0.108669
278 4 0.291232 0.259726 0.124562
277 2 0.298472 0.249345 0.146125
756 4 0.347897 0.264128 0.0941334
255 4 0.361823 0.266592 0.0788844
595 2 0.405938 0.327458 0.151649
596 4 0.404636 0.302723 0.148229
740 4 0.347928 0.337376 0.0933638
623 4 0.429072 0.263025 0.169254
619 2 0.067749 0.392221 0.110052
620 4 0.0783015 0.384952 0.131523
621 4 0.0571965 0.39949 0.0885819
315 4 0.0410125 0.413075 0.0907085
647 4 0.0878993 0.396818 0.143425
537 4 0.121823 0.353709 0.121767
535 2 0.13973 0.368841 0.13046
536 4 0.157636 0.383972 0.139154
607 2 0.233036 0.358387 0.0900511
609 4 0.23392 0.345571 0.111502
386 4 0.330421 0.346091 0.100457
387 4 0.344778 0.385958 0.127014
385 2 0.3376 0.366024 0.113736
302 4 0.348782 0.398416 0.143359
12 3 0.392119 0.379276 0.115696
11 1 0.385536 0.38505 0.136968
15 3 0.36346 0.380108 0.139588
672 4 0.389639 0.365837 0.10066
14 3 0.388966 0.407802 0.139966
495 4 0.404484 0.417246 0.13136
13 3 0.398205 0.373046 0.152259
626 4 0.182913 0.430326 0.14466
1438 2 0.241342 0.469161 0.0965748
625 2 0.201711 0.437539 0.159486
637 2 0.232978 0.485721 0.168506
1439 4 0.241537 0.467297 0.121508
638 4 0.218718 0.465299 0.166317
1559 4 0.295589 0.482283 0.104608
639 4 0.247237 0.506143 0.170695
1574 4 0.262409 0.499286 0.160445
301 2 0.341533 0.417899 0.157253
493 2 0.423111 0.420612 0.115023
494 4 0.441738 0.423978 0.098686
1583 4 0.470317 0.468937 0.113234
1582 2 0.450023 0.482592 0.108052
1420 2 0.0201381 0.998164 0.169592
674 4 0.147431 0.00920302 0.230182
690 4 0.161338 0.0105739 0.216305
673 2 0.122576 0.00817936 0.227656
688 2 0.174984 0.00120655 0.197565
653 4 0.223086 0.0426341 0.167075
693 4 0.234402 0.03995 0.183157
691 2 0.252155 0.0443996 0.200192
692 4 0.269908 0.0488492 0.217228
1700 4 0.325353 0.0591982 0.241384
1699 2 0.303066 0.0492695 0.235916
1701 4 0.280779 0.0393407 0.230447
23 3 0.332062 0.0771882 0.235518
21 1 0.353646 0.069178 0.232625
25 3 0.359115 0.0693899 0.210518
22 3 0.354678 0.0475816 0.240478
759 4 0.352242 0.0769629 0.194774
757 2 0.37222 0.0865167 0.183166
24 3 0.368617 0.0822417 0.244609
698 4 0.372957 0.0499103 0.250189
511 2 0.0163183 0.120902 0.209608
578 4 0.0531501 0.13476 0.21987
513 4 0.039929 0.119972 0.217784
577 2 0.0578449 0.159296 0.220929
449 4 0.117248 0.116285 0.175932
448 2 0.135299 0.0990494 0.177437
236 4 0.123912 0.13336 0.170955
450 4 0.15335 0.0818137 0.178943
28 3 0.237376 0.131234 0.1859
580 2 0.2965 0.10756 0.197112
581 4 0.274139 0.118255 0.193832
30 3 0.265096 0.125965 0.21083
26 1 0.25 0.140982 0.202752
27 3 0.235942 0.147488 0.219758
582 4 0.318862 0.0968651 0.200392
758 4 0.392199 0.0960705 0.171557
311 4 0.450164 0.136366 0.202698
761 4 0.453138 0.12992 0.270332
529 2 0.0202182 0.198389 0.233136
530 4 0.0432459 0.18985 0.228446
579 4 0.0625398 0.183832 0.221987
372 4 0.155308 0.237854 0.17572
370 2 0.172249 0.239122 0.194066
371 4 0.18919 0.24039 0.212412
29 3 0.261036 0.159683 0.194574
284 4 0.300234 0.241332 0.226789
283 2 0.303629 0.232689 0.203573
285 4 0.307023 0.224046 0.180358
310 2 0.444173 0.159214 0.194497
312 4 0.438183 0.182062 0.186296
520 2 0.496417 0.18029 0.236733
396 4 0.0789829 0.305953 0.21918
443 4 0.0658616 0.302888 0.233789
394 2 0.0878489 0.302826 0.196011
395 4 0.0967148 0.2997 0.172842
362 4 0.136715 0.242945 0.18108
361 2 0.124351 0.264572 0.17894
527 4 0.440057 0.27571 0.179333
526 2 0.458971 0.280525 0.194962
528 4 0.477885 0.28534 0.21059
264 4 0.0192645 0.391292 0.220281
262 2 0.0328373 0.412096 0.22313
646 2 0.100212 0.393807 0.164978
648 4 0.112524 0.390796 0.186531
300 4 0.117418 0.372113 0.192438
298 2 0.117031 0.360734 0.214699
299 4 0.116644 0.349356 0.23696
345 4 0.264089 0.358716 0.22393
343 2 0.286518 0.352195 0.232853
344 4 0.308946 0.345675 0.241777
309 4 0.312957 0.334942 0.258288
597 4 0.40724 0.352192 0.155069
645 4 0.416276 0.370699 0.16581
643 2 0.417516 0.376136 0.190184
644 4 0.418756 0.381573 0.214557
447 4 0.407602 0.383191 0.232292
445 2 0.41925 0.404685 0.237535
263 4 0.0464101 0.432901 0.225979
627 4 0.220508 0.444752 0.174312
1430 4 0.197373 0.507407 0.203252
417 4 0.19723 0.488083 0.211439
290 4 0.212963 0.422902 0.22219
416 4 0.208508 0.439437 0.214098
415 2 0.202869 0.46376 0.212768
289 2 0.220309 0.411199 0.243029
303 4 0.334284 0.437382 0.171148
659 4 0.341911 0.453752 0.180798
658 2 0.353779 0.474984 0.186589
660 4 0.365647 0.496216 0.19238
2861 4 0.476477 0.437195 0.247078
446 4 0.430899 0.426179 0.242778
232 2 0.0476343 0.0422453 0.295714
234 4 0.0473292 0.0670534 0.292608
317 4 0.0367766 0.0826791 0.285224
233 4 0.0479394 0.0174372 0.298819
675 4 0.0977214 0.00715569 0.225131
723 4 0.220565 0.0721161 0.259191
721 2 0.207366 0.093351 0.2594
249 4 0.336179 0.0514237 0.33011
697 2 0.379412 0.0279797 0.260316
699 4 0.385867 0.00604905 0.270443
333 4 0.378214 0.0684308 0.256224
331 2 0.398029 0.0805799 0.26544
743 4 0.458349 0.0303403 0.291053
742 2 0.462127 0.0112675 0.275333
351 4 0.463315 0.0476259 0.280419
349 2 0.449458 0.0683967 0.281739
350 4 0.435601 0.0891675 0.28306
480 4 0.481493 0.00336388 0.319208
316 2 0.0359921 0.101249 0.268499
318 4 0.0352075 0.119819 0.251774
393 4 0.116943 0.133648 0.314292
399 4 0.130536 0.127018 0.326935
391 2 0.135189 0.14588 0.302348
392 4 0.153434 0.158111 0.290403
545 4 0.156755 0.140086 0.282521
722 4 0.194167 0.114586 0.259609
546 4 0.183509 0.124628 0.243202
544 2 0.170132 0.132357 0.262861
599 4 0.210443 0.132148 0.316624
404 4 0.226846 0.14168 0.320928
598 2 0.18967 0.124403 0.328186
403 2 0.238405 0.157248 0.305143
600 4 0.168897 0.116658 0.339748
762 4 0.403972 0.134349 0.278317
332 4 0.417845 0.092729 0.274655
760 2 0.428555 0.132135 0.274325
401 4 0.24165 0.18199 0.272965
400 2 0.230654 0.19825 0.257477
402 4 0.219657 0.21451 0.241989
405 4 0.249964 0.172817 0.289358
765 4 0.41418 0.203333 0.25392
763 2 0.434759 0.190823 0.2472
764 4 0.455338 0.178312 0.24048
521 4 0.47453 0.173947 0.247024
442 2 0.0659206 0.287873 0.253783
444 4 0.0659796 0.272858 0.273776
735 4 0.146117 0.337285 0.29877
496 2 0.317932 0.291813 0.332438
497 4 0.331252 0.297422 0.312034
541 2 0.469507 0.291276 0.307583
542 4 0.478595 0.268197 0.304427
615 4 0.452077 0.31859 0.327652
613 2 0.429891 0.328579 0.321893
543 4 0.46042 0.314355 0.310739
749 4 0.058405 0.371405 0.263503
365 4 0.0241865 0.356421 0.313668
364 2 0.0314672 0.364071 0.291004
366 4 0.0387478 0.371722 0.268341
603 4 0.0880122 0.377099 0.34947
601 2 0.094764 0.385407 0.326874
734 4 0.121307 0.349277 0.257041
750 4 0.106448 0.358251 0.267929
748 2 0.0824263 0.364828 0.265716
733 2 0.133712 0.343281 0.277905
602 4 0.101516 0.393715 0.304279
677 4 0.155519 0.352506 0.307779
777 4 0.108815 0.409917 0.294422
676 2 0.170051 0.36308 0.325162
414 4 0.226367 0.396932 0.284129
291 4 0.227655 0.399497 0.263868
307 2 0.317695 0.339006 0.282499
727 2 0.320106 0.382737 0.316439
308 4 0.322433 0.343069 0.306711
728 4 0.320602 0.407487 0.312924
729 4 0.31961 0.357986 0.319954
614 4 0.407705 0.338568 0.316133
1757 4 0.110118 0.470048 0.297637
776 4 0.125342 0.456254 0.303391
775 2 0.117078 0.433086 0.298906
1756 2 0.11345 0.49364 0.290056
413 4 0.225114 0.430157 0.321482
412 2 0.225741 0.413545 0.302805
1436 4 0.226084 0.476059 0.322562
1435 2 0.248886 0.468769 0.315346
768 4 0.207874 0.492641 0.259413
3 3 0.277584 0.411328 0.324377
438 4 0.303411 0.452805 0.259665
437 4 0.280294 0.476487 0.297155
436 2 0.291852 0.464646 0.27841
1437 4 0.271689 0.461479 0.30813
5 3 0.281549 0.448263 0.318231
2 3 0.311781 0.426557 0.321017
434 4 0.331187 0.427452 0.308774
712 2 0.42025 0.448498 0.274319
713 4 0.416947 0.454807 0.298287
433 2 0.351459 0.435459 0.321025
435 4 0.371732 0.443466 0.333277
714 4 0.423553 0.442189 0.250351
2860 2 0.492694 0.430703 0.264968
368 4 0.0832862 0.0489584 0.407815
428 4 0.0704527 0.0360781 0.344595
427 2 0.0735268 0.015488 0.358444
731 4 0.0980397 0.0579022 0.39844
606 4 0.137048 0.0573214 0.394645
730 2 0.109308 0.0760041 0.385382
604 2 0.149781 0.0358076 0.39421
605 4 0.162515 0.0142938 0.393774
682 2 0.241733 0.0387778 0.359346
683 4 0.231406 0.0612659 0.362924
684 4 0.252061 0.0162896 0.355767
1406 4 0.22786 0.0123723 0.316033
247 2 0.337028 0.0729241 0.342846
2879 4 0.477284 0.0416625 0.395041
1749 4 0.479672 0.992516 0.336145
424 2 0.431244 0.0516306 0.383754
426 4 0.428689 0.0752645 0.376002
425 4 0.433799 0.0279967 0.391505
732 4 0.120577 0.0941061 0.372324
397 2 0.127286 0.106116 0.340266
398 4 0.124035 0.0852143 0.353598
686 4 0.168605 0.130604 0.408517
685 2 0.168674 0.123289 0.384607
687 4 0.168744 0.115974 0.360698
410 4 0.229936 0.148417 0.407011
321 4 0.232675 0.120904 0.373781
319 2 0.244872 0.10863 0.391829
248 4 0.337877 0.0944244 0.355581
633 4 0.351559 0.106111 0.364786
632 4 0.392758 0.133515 0.372025
631 2 0.372159 0.119813 0.368405
420 4 0.398965 0.152293 0.376898
258 4 0.442503 0.0886493 0.369339
257 4 0.476673 0.124247 0.361223
256 2 0.459588 0.106448 0.365281
515 4 0.432233 0.157756 0.371789
514 2 0.439806 0.164112 0.394755
2654 4 0.00204282 0.222667 0.376927
618 4 0.00862505 0.240352 0.369575
274 2 0.159353 0.240528 0.356953
275 4 0.172597 0.219537 0.353922
474 4 0.177799 0.203743 0.365715
472 2 0.198246 0.193924 0.355195
473 4 0.218694 0.184105 0.344675
708 4 0.231852 0.193901 0.355894
706 2 0.256257 0.190273 0.359948
707 4 0.280661 0.186645 0.364002
717 4 0.321651 0.23712 0.381022
377 4 0.312857 0.249833 0.393545
418 2 0.387117 0.17409 0.373784
419 4 0.375268 0.195887 0.370669
716 4 0.357964 0.202794 0.379055
715 2 0.339807 0.219957 0.380039
306 4 0.5089 0.25427 0.397607
390 4 0.0855631 0.268181 0.336986
616 2 0.0307344 0.250537 0.375288
617 4 0.0528437 0.260721 0.381001
276 4 0.14611 0.261519 0.359985
389 4 0.127222 0.269669 0.364608
388 2 0.106393 0.268925 0.350797
374 4 0.238696 0.335428 0.340283
510 4 0.252894 0.323165 0.349615
508 2 0.263157 0.307314 0.366004
509 4 0.273419 0.291463 0.382394
376 2 0.302305 0.268661 0.380921
488 4 0.253523 0.289516 0.391193
487 2 0.249046 0.272844 0.40928
378 4 0.291753 0.287488 0.368297
498 4 0.304612 0.286205 0.352841
267 4 0.351534 0.313216 0.3509
265 2 0.356175 0.301926 0.372722
266 4 0.360816 0.290637 0.394544
269 4 0.448458 0.256787 0.373089
268 2 0.469965 0.260495 0.385291
2493 4 0.0166693 0.358763 0.332197
2491 2 0.995977 0.365514 0.344503
549 4 0.0715953 0.388164 0.35327
547 2 0.0608863 0.406642 0.366272
678 4 0.184584 0.373655 0.342545
502 2 0.190087 0.392117 0.375654
504 4 0.198069 0.383338 0.353645
373 2 0.227832 0.356125 0.349159
375 4 0.216968 0.376822 0.358035
503 4 0.182105 0.400896 0.397663
334 2 0.35297 0.397722 0.410007
669 4 0.330133 0.423543 0.396071
336 4 0.345139 0.411383 0.390584
2925 4 0.491654 0.357428 0.357453
548 4 0.0501772 0.42512 0.379274
407 4 0.0571974 0.440872 0.388727
406 2 0.04963 0.464458 0.392135
408 4 0.0420626 0.488044 0.395543
1543 2 0.191779 0.496689 0.343784
1545 4 0.20862 0.484233 0.330131
636 4 0.189253 0.419853 0.396466
634 2 0.192204 0.441746 0.408178
1 1 0.290429 0.430142 0.328787
668 4 0.288028 0.426688 0.369276
4 3 0.29131 0.433948 0.35166
667 2 0.309081 0.425116 0.382674
593 4 0.491235 0.498863 0.347429
119 3 0.499662 0.438767 0.325757
561 4 0.484283 0.420733 0.406685
752 4 0.483732 0.433179 0.390614
753 4 0.493941 0.446471 0.343499
751 2 0.488837 0.439825 0.367057
718 2 0.0495663 0.0481018 0.483708
719 4 0.0632551 0.0304525 0.47247
369 4 0.0714349 0.0322488 0.453434
367 2 0.0773606 0.0406036 0.430624
720 4 0.0358776 0.065751 0.494947
2430 4 0.233814 0.0649369 0.460029
2428 2 0.239607 0.0415585 0.453315
2429 4 0.245399 0.0181801 0.446601
1182 4 0.24278 0.088783 0.50363
441 4 0.244439 0.0134327 0.42769
726 4 0.305144 0.0781463 0.455542
432 4 0.310773 0.0830762 0.474695
724 2 0.28541 0.0826179 0.440854
725 4 0.265676 0.0870895 0.426166
2878 2 0.482255 0.0583449 0.41299
2880 4 0.487226 0.0750272 0.430939
341 4 0.216852 0.0725443 0.453093
340 2 0.206202 0.0899061 0.467596
1152 4 0.182475 0.108368 0.498362
342 4 0.195552 0.107268 0.482099
320 4 0.25707 0.0963549 0.409877
467 4 0.372047 0.100268 0.431025
466 2 0.368804 0.124931 0.433554
468 4 0.365561 0.149594 0.436083
576 4 0.417269 0.146569 0.468736
642 4 0.479573 0.0790299 0.449878
641 4 0.488508 0.11906 0.478487
640 2 0.48404 0.0990448 0.464183
3158 4 0.497275 0.137008 0.476215
574 2 0.432382 0.15132 0.449392
516 4 0.447378 0.170467 0.417722
469 2 0.0689937 0.246902 0.456462
471 4 0.0720777 0.222205 0.458855
260 4 0.0815891 0.219475 0.475672
259 2 0.0940968 0.204634 0.491435
261 4 0.106605 0.189792 0.507197
409 2 0.225714 0.168041 0.421918
650 4 0.225404 0.206477 0.442538
649 2 0.224397 0.230706 0.436448
411 4 0.221492 0.187666 0.436826
575 4 0.447494 0.15607 0.430047
348 4 0.988153 0.310559 0.446667
470 4 0.0659098 0.271599 0.45407
2812 2 0.00371752 0.325214 0.481266
695 4 0.0950185 0.310098 0.444294
694 2 0.108659 0.29163 0.454195
696 4 0.122299 0.273161 0.464095
1260 4 0.137673 0.277389 0.474811
1258 2 0.162122 0.282473 0.476069
651 4 0.223391 0.254936 0.430357
1259 4 0.186571 0.287556 0.477328
489 4 0.244569 0.256171 0.427368
585 4 0.37002 0.28034 0.40902
583 2 0.390087 0.274765 0.422856
584 4 0.410153 0.269191 0.436691
2456 4 0.427299 0.279098 0.430865
2457 4 0.460165 0.31667 0.433855
2455 2 0.443732 0.297884 0.43236
10 3 0.140845 0.343045 0.456999
7 3 0.120605 0.369374 0.474029
327 4 0.108936 0.3838 0.464941
325 2 0.0891417 0.398707 0.461602
6 1 0.140519 0.364892 0.463421
8 3 0.14237 0.37864 0.444822
711 4 0.151189 0.389984 0.430668
9 3 0.157965 0.369079 0.478135
709 2 0.142972 0.410451 0.418887
239 4 0.383012 0.362702 0.475972
335 4 0.3608 0.384062 0.42943
238 2 0.365611 0.369885 0.459517
240 4 0.348209 0.377067 0.443061
2712 4 0.486346 0.402621 0.485523
559 2 0.497661 0.405584 0.421406
680 4 0.0146596 0.484811 0.445969
679 2 0.0112799 0.490797 0.421929
1383 4 0.00930755 0.465723 0.445539
1381 2 0.0158441 0.457055 0.468062
326 4 0.0693476 0.413614 0.458263
1382 4 0.0223806 0.448387 0.490586
773 4 0.164947 0.471852 0.475016
568 2 0.12693 0.458643 0.442558
569 4 0.124944 0.471222 0.464076
384 4 0.144726 0.473821 0.47653
710 4 0.134755 0.430917 0.407107
570 4 0.128916 0.446065 0.42104
772 2 0.178529 0.474552 0.454197
635 4 0.195155 0.463639 0.419891
774 4 0.192111 0.477252 0.433379
1401 4 0.30327 0.46172 0.498074
1400 4 0.335886 0.47761 0.463659
1399 2 0.319578 0.469665 0.480866
588 4 0.34638 0.493388 0.468467
586 2 0.350485 0.508211 0.448755
1126 2 0.0242728 0.0633466 0.534231
1127 4 0.0245974 0.0706986 0.510335
1128 4 0.0239482 0.0559945 0.558127
4509 4 0.00944423 0.0510385 0.570883
1059 4 0.090905 0.0666265 0.585951
951 4 0.195696 0.055533 0.54236
1031 4 0.199918 0.0370417 0.543862
1030 2 0.187574 0.0293574 0.564203
949 2 0.213695 0.0647116 0.52763
1032 4 0.17523 0.0216731 0.584543
961 2 0.287238 0.0408168 0.538618
1180 2 0.265527 0.0796264 0.508518
430 2 0.324281 0.0746524 0.493976
963 4 0.300492 0.0553806 0.52321
1181 4 0.288274 0.0704698 0.513407
962 4 0.273985 0.0262531 0.554027
2195 4 0.274952 0.0197367 0.573431
431 4 0.33779 0.0662287 0.513257
841 2 0.379504 0.0522182 0.519859
843 4 0.356221 0.0607701 0.516706
842 4 0.402787 0.0436663 0.523013
1217 4 0.409022 0.0354722 0.540243
1218 4 0.437908 0.0661908 0.567126
1216 2 0.423465 0.0508315 0.553684
1033 2 0.074385 0.164423 0.532351
1034 4 0.090424 0.145249 0.53289
950 4 0.231694 0.0738902 0.5129
939 4 0.161552 0.162735 0.527229
1151 4 0.175914 0.150462 0.524549
1150 2 0.179194 0.129415 0.511455
857 4 0.305417 0.136935 0.566355
899 4 0.32365 0.130164 0.56181
856 2 0.284386 0.149281 0.571872
858 4 0.263355 0.161626 0.57739
898 2 0.343447 0.14328 0.553984
900 4 0.363244 0.156395 0.546158
1035 4 0.058346 0.183597 0.531812
1082 4 0.0509275 0.201869 0.538512
1081 2 0.0399872 0.198811 0.560787
937 2 0.139121 0.167426 0.517229
938 4 0.11669 0.172118 0.507229
878 4 0.0999572 0.248335 0.548447
877 2 0.090455 0.247925 0.571571
797 4 0.262418 0.181647 0.5751
813 4 0.330546 0.234144 0.533051
811 2 0.308828 0.237881 0.544863
812 4 0.28711 0.241619 0.556675
796 2 0.268492 0.204246 0.566294
798 4 0.274566 0.226846 0.557489
873 4 0.337455 0.215287 0.531447
871 2 0.351421 0.194739 0.534255
872 4 0.365387 0.17419 0.537063
906 4 0.480869 0.229323 0.577198
2813 4 0.0177725 0.324888 0.501943
896 4 0.207606 0.328899 0.539646
904 2 0.465852 0.247523 0.568928
905 4 0.450835 0.265724 0.560657
952 2 0.42038 0.283153 0.576854
953 4 0.431148 0.267589 0.560514
1137 4 0.150482 0.361668 0.536702
897 4 0.164766 0.352958 0.548952
1135 2 0.131122 0.376851 0.541161
1136 4 0.111763 0.392034 0.54562
895 2 0.186186 0.340928 0.544299
1189 2 0.241593 0.344191 0.531308
1191 4 0.225864 0.324754 0.531254
1190 4 0.257321 0.363628 0.531362
803 4 0.276835 0.369623 0.530822
802 2 0.299194 0.375422 0.540394
804 4 0.321553 0.381221 0.549967
928 2 0.369245 0.382304 0.559913
929 4 0.370409 0.386435 0.53528
930 4 0.368081 0.378174 0.584545
925 2 0.445155 0.390555 0.531683
927 4 0.434596 0.39671 0.50987
1001 4 0.461592 0.398095 0.566648
926 4 0.455713 0.3844 0.553496
936 4 0.00531401 0.451389 0.547464
538 2 0.0392979 0.470345 0.514958
540 4 0.0300983 0.447763 0.509428
539 4 0.0484975 0.492928 0.520488
383 4 0.141436 0.436199 0.509309
382 2 0.143081 0.45501 0.49292
2242 2 0.155143 0.461186 0.575568
2244 4 0.144627 0.470252 0.554774
1173 4 0.222741 0.433727 0.546583
1171 2 0.243023 0.448325 0.547435
1172 4 0.263304 0.462924 0.548286
882 4 0.283119 0.455478 0.551005
880 2 0.292649 0.478162 0.546555
881 4 0.302179 0.500846 0.542105
1000 2 0.461622 0.420828 0.577058
1910 4 0.455999 0.45193 0.605679
663 4 0.499839 0.437656 0.53285
1185 4 0.0181059 0.0373882 0.640001
945 4 0.0285975 0.0504479 0.651189
825 4 0.074111 0.0129072 0.616222
1057 2 0.0815425 0.0442479 0.592011
1058 4 0.0721799 0.0218693 0.598071
823 2 0.083339 0.996404 0.632582
1005 4 0.321742 0.0234421 0.646912
1003 2 0.332127 0.0461319 0.648491
1004 4 0.342513 0.0688217 0.65007
4467 4 0.426026 0.000972712 0.59286
2283 4 0.432336 0.00628104 0.610786
2282 4 0.465858 0.0235551 0.643628
2281 2 0.449097 0.0149181 0.627207
43 3 0.461887 0.0361697 0.657484
45 3 0.494322 0.0542555 0.651278
41 1 0.477492 0.0509314 0.666257
1198 2 0.0116829 0.154363 0.587526
1155 4 0.0791382 0.0816137 0.581258
1153 2 0.096826 0.0972097 0.58957
1154 4 0.114514 0.112806 0.597881
1221 4 0.12187 0.100372 0.610913
1219 2 0.134157 0.109445 0.630709
1220 4 0.146445 0.118518 0.650505
1210 2 0.259339 0.15406 0.643576
1211 4 0.281979 0.152939 0.654128
888 4 0.275855 0.146174 0.672536
1083 4 0.0290468 0.195754 0.583061
1199 4 0.0217579 0.177121 0.589922
1272 4 0.087663 0.237144 0.610933
1270 2 0.103112 0.224603 0.626074
1271 4 0.11856 0.212061 0.641215
909 4 0.135241 0.20909 0.631645
907 2 0.158333 0.215255 0.638988
879 4 0.0809528 0.247514 0.594695
1212 4 0.236699 0.155181 0.633024
908 4 0.181425 0.221421 0.64633
947 4 0.179189 0.241331 0.643956
1025 4 0.398343 0.180339 0.646885
1024 2 0.41692 0.188402 0.63222
1143 4 0.388186 0.180315 0.665727
1141 2 0.365414 0.190077 0.669095
1142 4 0.342643 0.199839 0.672463
1026 4 0.435498 0.196464 0.617555
3123 4 0.457787 0.243264 0.655022
3121 2 0.479743 0.23382 0.662365
946 2 0.17824 0.265832 0.639061
948 4 0.177291 0.290333 0.634166
1237 2 0.234014 0.320144 0.591731
1238 4 0.250666 0.309585 0.607106
792 4 0.261611 0.293891 0.60624
791 4 0.311447 0.291957 0.602583
790 2 0.286529 0.292924 0.604412
1205 4 0.397284 0.315662 0.590745
954 4 0.409611 0.298718 0.593193
982 2 0.00769542 0.389582 0.603254
983 4 0.0265681 0.397589 0.617568
1041 4 0.0381957 0.394987 0.63279
992 4 0.13713 0.409442 0.617625
1239 4 0.217362 0.330704 0.576356
1204 2 0.388175 0.338743 0.58767
1206 4 0.379066 0.361825 0.584594
1039 2 0.0551217 0.412787 0.628115
1040 4 0.0720477 0.430587 0.623439
993 4 0.0903745 0.427133 0.616322
991 2 0.113752 0.418287 0.616974
2170 2 0.1465 0.492508 0.649164
2172 4 0.170065 0.484542 0.64664
2243 4 0.165658 0.452121 0.596363
2171 4 0.122934 0.500475 0.651689
1161 4 0.174913 0.446323 0.612938
1160 4 0.221683 0.463961 0.61439
1159 2 0.198298 0.455142 0.613664
890 4 0.325644 0.431218 0.634346
889 2 0.321475 0.452193 0.621391
891 4 0.317305 0.473169 0.608436
1176 4 0.269152 0.498816 0.660213
1174 2 0.246419 0.509113 0.661744
1187 4 0.312688 0.485761 0.623872
1186 2 0.299744 0.498364 0.641157
1952 4 0.34033 0.482189 0.618008
1002 4 0.461653 0.443561 0.587469
1909 2 0.444758 0.473373 0.599432
1268 4 0.430351 0.472324 0.661865
1911 4 0.433518 0.494816 0.593185
943 2 0.0454484 0.0613366 0.666111
944 4 0.0622992 0.0722253 0.681033
1075 2 0.0594028 0.0674163 0.725743
1076 4 0.061015 0.0673933 0.700791
2319 4 0.0282579 0.00837534 0.721367
2317 2 0.00714865 0.0173147 0.73135
2285 4 0.0472762 0.0132935 0.721124
1077 4 0.0577907 0.0674394 0.750695
2284 2 0.0604865 0.992204 0.723549
44 3 0.467296 0.0711493 0.671325
1163 4 0.504181 0.0507208 0.689185
42 3 0.486195 0.0419465 0.685562
32 3 0.0910208 0.142539 0.755297
1283 4 0.163247 0.111779 0.658672
1282 2 0.181225 0.126686 0.667601
1284 4 0.199204 0.141593 0.67653
1227 4 0.214004 0.153897 0.680856
1225 2 0.224179 0.160913 0.702591
886 2 0.283614 0.139893 0.69546
887 4 0.291373 0.133613 0.718385
830 4 0.307147 0.133697 0.730683
829 2 0.321845 0.113532 0.729096
978 4 0.302255 0.147852 0.744388
831 4 0.336543 0.0933667 0.727509
1146 4 0.487624 0.152256 0.754367
1144 2 0.479263 0.167281 0.736214
1107 4 0.019909 0.190011 0.733998
1105 2 0.0352884 0.176175 0.748041
851 4 0.00769277 0.202721 0.724751
822 4 0.133982 0.223356 0.715629
1278 4 0.154135 0.227958 0.716375
820 2 0.115035 0.23966 0.715038
821 4 0.0960881 0.255965 0.714448
1226 4 0.234355 0.167929 0.724326
1276 2 0.173561 0.21919 0.729449
1130 4 0.239559 0.183541 0.736092
916 2 0.299096 0.230949 0.725061
918 4 0.299684 0.205952 0.7251
977 4 0.312503 0.191443 0.722128
976 2 0.307379 0.169647 0.733258
1192 2 0.393381 0.224206 0.748211
1194 4 0.403089 0.206905 0.732993
1145 4 0.470901 0.182306 0.718061
1262 4 0.42032 0.211703 0.740407
1261 2 0.442054 0.207031 0.728963
1263 4 0.463788 0.202359 0.717518
1209 4 0.0445333 0.249543 0.683651
1207 2 0.068027 0.255593 0.689703
1208 4 0.0915207 0.261643 0.695754
1065 4 0.201704 0.25697 0.701984
1064 4 0.230322 0.295891 0.714904
1063 2 0.216013 0.27643 0.708444
917 4 0.298508 0.255945 0.725023
1097 4 0.299899 0.270452 0.738887
1008 4 0.325463 0.253579 0.741181
806 4 0.437234 0.296059 0.742466
805 2 0.422819 0.316412 0.740687
893 4 0.0766873 0.372541 0.664101
1244 4 0.0321616 0.326528 0.69932
892 2 0.0739537 0.388746 0.682945
894 4 0.0712201 0.40495 0.70179
1028 4 0.236493 0.412258 0.696539
1066 2 0.198203 0.412007 0.714022
1067 4 0.173747 0.41397 0.718841
1027 2 0.255413 0.418029 0.681245
1029 4 0.274333 0.4238 0.665952
807 4 0.408404 0.336765 0.738909
1230 4 0.370413 0.407754 0.745601
1020 4 0.404381 0.355357 0.744826
1281 4 0.0661037 0.421234 0.712281
1279 2 0.0642333 0.432722 0.73441
2020 2 0.0584514 0.501287 0.733678
1983 4 0.0261471 0.47805 0.753012
942 4 0.114303 0.411538 0.739991
940 2 0.138978 0.408823 0.736998
941 4 0.163653 0.406109 0.734006
1068 4 0.222659 0.410043 0.709202
1139 4 0.294612 0.42415 0.669665
1138 2 0.310341 0.424551 0.689098
1140 4 0.326069 0.424952 0.708531
1228 2 0.352628 0.425329 0.745525
1269 4 0.434807 0.49328 0.70705
3328 2 0.468687 0.436899 0.672327
3329 4 0.449094 0.449888 0.680848
1267 2 0.432579 0.482802 0.684457
3330 4 0.488279 0.42391 0.663807
1203 4 0.0630371 0.0490479 0.755262
1201 2 0.0774391 0.0299144 0.762451
1202 4 0.091841 0.0107808 0.769639
2049 4 0.109635 0.00887354 0.778197
1148 4 0.196847 0.0464124 0.766258
1147 2 0.220078 0.0556339 0.766955
1149 4 0.243308 0.0648553 0.767651
1049 4 0.255053 0.0635313 0.784092
1257 4 0.270279 0.0253452 0.758179
1255 2 0.29415 0.0180605 0.75667
1256 4 0.318022 0.0107759 0.75516
1048 2 0.264836 0.052552 0.804314
1050 4 0.274618 0.0415727 0.824536
819 4 0.349692 0.0787224 0.811696
846 4 0.463021 0.0360992 0.804221
1113 4 0.452784 0.0185995 0.802709
844 2 0.481429 0.0527934 0.801459
845 4 0.499837 0.0694876 0.798698
862 2 0.0392387 0.0855015 0.82419
832 2 0.0360761 0.130673 0.788149
863 4 0.0329727 0.0964205 0.802587
833 4 0.0215716 0.112995 0.798263
33 3 0.0672291 0.141496 0.784375
834 4 0.0505805 0.148351 0.778035
31 1 0.0808327 0.155237 0.771548
840 4 0.208111 0.130302 0.80715
838 2 0.228344 0.115718 0.808903
839 4 0.248578 0.101133 0.810656
959 4 0.266992 0.0967316 0.818022
1084 2 0.365755 0.110273 0.793819
1085 4 0.347355 0.0940961 0.798811
1086 4 0.384155 0.126449 0.788827
1299 4 0.381056 0.145385 0.783375
1297 2 0.387045 0.165323 0.797225
3269 4 0.509155 0.14411 0.81148
3270 4 0.47882 0.144637 0.771728
3268 2 0.493987 0.144373 0.791604
1106 4 0.0506679 0.162339 0.762085
1214 4 0.0346665 0.227001 0.769621
35 3 0.0683268 0.171482 0.761632
780 4 0.0956948 0.221744 0.812189
778 2 0.0728806 0.231938 0.81306