ITEM: TIMESTEP
110000
ITEM: NUMBER OF ATOMS
4590
ITEM: BOX BOUNDS pp pp pp
-9.9985700000000008e+00 9.9985700000000008e+00
-9.9985700000000008e+00 9.9985700000000008e+00
-9.9985700000000008e+00 9.9985700000000008e+00
ITEM: ATOMS id type xs ys zs
463 2 0.0615468 0.0376413 0.0223623
465 4 0.0578177 0.0622772 0.0202768
1667 4 0.08194 0.0118552 0.0730116
464 4 0.0652759 0.0130055 0.0244478
702 4 0.077281 0.0761334 0.0900806
532 2 0.194199 0.0420697 0.0108049
534 4 0.180682 0.0540096 0.0281225
490 2 0.265984 0.0449058 0.0525159
491 4 0.284116 0.0440938 0.0697129
492 4 0.247851 0.0457179 0.035319
486 4 0.335597 0.999232 0.0825595
295 2 0.381785 0.0632885 0.0745982
745 2 0.450213 0.0505484 0.037556
746 4 0.440016 0.0302816 0.0480659
747 4 0.460411 0.0708151 0.0270461
2975 4 0.478354 0.067287 0.000447247
589 2 0.0392799 0.115589 0.0552776
590 4 0.0168363 0.105272 0.0514038
591 4 0.0617235 0.125907 0.0591513
3233 4 0.0201204 0.139251 0.0100156
421 2 0.117311 0.139399 0.00568482
423 4 0.0942297 0.142334 0.014841
701 4 0.10245 0.106434 0.0592728
700 2 0.0898655 0.0912835 0.0746767
565 2 0.216711 0.129953 0.0511834
566 4 0.233101 0.119564 0.0354159
567 4 0.200322 0.140342 0.066951
358 2 0.290637 0.126012 0.0256345
359 4 0.283166 0.113353 0.00540843
360 4 0.298109 0.138672 0.0458606
296 4 0.381891 0.0757355 0.0529132
556 2 0.362113 0.114679 0.0435635
557 4 0.356151 0.100198 0.0240719
558 4 0.368076 0.12916 0.0630551
553 2 0.0499944 0.212073 0.0202689
555 4 0.034788 0.19314 0.0143113
554 4 0.0652009 0.231006 0.0262264
571 2 0.319585 0.238461 0.0549178
573 4 0.295248 0.239634 0.0493053
572 4 0.343923 0.237289 0.0605304
665 4 0.369178 0.177981 0.995053
324 4 0.415907 0.233955 0.0740281
1071 4 0.400397 0.243253 0.0288666
771 4 0.455237 0.189493 0.045199
770 4 0.493709 0.171551 0.0716316
769 2 0.474473 0.180522 0.0584153
1014 4 0.487154 0.200183 0.0091855
292 2 0.128014 0.308426 0.00736834
294 4 0.105376 0.318988 0.00843113
293 4 0.150653 0.297864 0.00630555
914 4 0.183038 0.254293 0.00472894
483 4 0.223525 0.298776 0.0587309
505 2 0.187858 0.281704 0.0552098
507 4 0.176008 0.303437 0.0516903
506 4 0.199709 0.25997 0.0587293
481 2 0.243339 0.309793 0.0481859
355 2 0.257563 0.259037 0.00251755
357 4 0.262626 0.259439 0.0269998
482 4 0.263153 0.320811 0.037641
1069 2 0.415933 0.256837 0.0147489
280 2 0.466808 0.315739 0.0151795
281 4 0.481404 0.306055 0.0330216
322 2 0.424817 0.257279 0.0726927
323 4 0.433728 0.280603 0.0713572
1070 4 0.431469 0.27042 0.000631225
672 4 0.438946 0.31678 0.0836125
328 2 0.0114294 0.404323 0.0154785
330 4 0.0184133 0.395671 0.0378737
552 4 0.0434802 0.414683 0.0556449
315 4 0.996168 0.408964 0.0883464
454 2 0.125162 0.360481 0.0794184
455 4 0.141398 0.371633 0.064018
287 4 0.164764 0.34386 0.0178658
288 4 0.170336 0.392863 0.00959768
286 2 0.16755 0.368362 0.0137317
252 4 0.265852 0.371153 0.0461708
250 2 0.274658 0.394552 0.0458417
670 2 0.446902 0.338664 0.0745023
671 4 0.454857 0.360547 0.0653922
550 2 0.0551102 0.435266 0.0475055
551 4 0.0667401 0.455849 0.0393661
1788 4 0.0568064 0.497742 0.0758809
244 2 0.24563 0.458217 0.0240213
245 4 0.233334 0.461066 0.00243743
251 4 0.283464 0.417952 0.0455126
246 4 0.257926 0.455368 0.0456053
271 2 0.290284 0.487281 0.999585
272 4 0.306842 0.485835 0.0182648
524 4 0.355175 0.499154 0.0764752
564 4 0.41648 0.479755 0.0479315
227 4 0.480998 0.436768 0.0567711
562 2 0.435566 0.472939 0.0332881
563 4 0.454653 0.466123 0.0186446
226 2 0.485881 0.458201 0.0448559
228 4 0.490765 0.479633 0.0329406
16 1 0.0638569 0.0591061 0.15531
19 3 0.0641966 0.0542866 0.132615
2576 4 0.00307836 0.0140261 0.117306
18 3 0.0667539 0.0396313 0.167587
20 3 0.0803448 0.0739886 0.16034
17 3 0.0434603 0.0683018 0.160654
1666 2 0.067161 0.997263 0.0869337
450 4 0.158822 0.0487166 0.138478
448 2 0.160659 0.0733664 0.142245
1505 4 0.232189 0.0138284 0.15654
652 2 0.316715 0.0474049 0.143678
654 4 0.293962 0.0519989 0.134383
653 4 0.339467 0.0428109 0.152973
297 4 0.38168 0.0508416 0.0962832
758 4 0.418083 0.0462433 0.166951
1760 4 0.476488 0.0178545 0.128803
476 4 0.132823 0.158944 0.0845395
449 4 0.162497 0.0980161 0.146013
235 2 0.154146 0.132439 0.149403
237 4 0.146218 0.150432 0.164849
236 4 0.162074 0.114446 0.133957
693 4 0.21885 0.0996639 0.171794
582 4 0.27385 0.0945918 0.128023
580 2 0.273448 0.0964368 0.152955
628 2 0.413265 0.158604 0.144518
462 4 0.333419 0.162232 0.097291
630 4 0.390807 0.168539 0.139815
629 4 0.435723 0.148669 0.149221
379 2 0.0287424 0.17622 0.167083
380 4 0.0206179 0.191497 0.149033
656 4 0.00923367 0.239531 0.0884753
475 2 0.130701 0.16939 0.107157
477 4 0.128579 0.179836 0.129775
338 4 0.0947382 0.239266 0.157545
737 4 0.166013 0.194299 0.107883
736 2 0.179143 0.187672 0.128102
738 4 0.192274 0.181044 0.148322
354 4 0.232342 0.23674 0.090807
284 4 0.242198 0.221259 0.162321
352 2 0.253598 0.241267 0.103172
353 4 0.274853 0.245794 0.115536
460 2 0.32921 0.179632 0.114747
461 4 0.325001 0.197032 0.132203
255 4 0.364642 0.186978 0.0952863
254 4 0.414191 0.183807 0.101249
253 2 0.389416 0.185392 0.0982675
517 2 0.48408 0.236589 0.0954851
518 4 0.479502 0.212481 0.100282
705 4 0.0156561 0.316847 0.142189
337 2 0.0934463 0.253985 0.137374
339 4 0.0921544 0.268705 0.117204
754 2 0.27842 0.307159 0.117236
755 4 0.283655 0.290534 0.135164
756 4 0.273184 0.323783 0.099309
741 4 0.316994 0.305811 0.099823
622 2 0.384525 0.269377 0.151938
624 4 0.361776 0.260037 0.156458
739 2 0.33738 0.320275 0.100452
623 4 0.407274 0.278717 0.147418
519 4 0.488658 0.260697 0.0906882
619 2 0.0146643 0.356678 0.104758
620 4 0.0340299 0.371902 0.109045
456 4 0.108925 0.349329 0.0948187
537 4 0.155675 0.365276 0.142728
535 2 0.16715 0.348994 0.15784
626 4 0.224746 0.396771 0.112323
608 4 0.332769 0.41097 0.0898393
607 2 0.309288 0.403971 0.0948215
609 4 0.285807 0.396971 0.0998038
612 4 0.287719 0.364738 0.155854
740 4 0.357766 0.334739 0.101081
387 4 0.351249 0.39589 0.146643
15 3 0.396696 0.356304 0.125209
385 2 0.361737 0.38907 0.124995
386 4 0.372225 0.38225 0.103346
11 1 0.406298 0.356055 0.145858
12 3 0.409918 0.334261 0.152268
13 3 0.3922 0.366163 0.161268
14 3 0.426654 0.367177 0.145259
495 4 0.427806 0.399225 0.12506
595 2 0.498207 0.395046 0.166739
313 2 0.00185906 0.432733 0.0936199
314 4 0.0075504 0.456503 0.0988935
241 2 0.164984 0.497872 0.0789652
416 4 0.161224 0.447714 0.159365
243 4 0.184533 0.483976 0.0860309
625 2 0.211616 0.417871 0.11507
627 4 0.198486 0.438972 0.117816
637 2 0.258696 0.485058 0.144655
638 4 0.265122 0.467977 0.161747
523 2 0.348044 0.491584 0.0992133
525 4 0.340913 0.484014 0.121951
658 2 0.389915 0.474626 0.149913
659 4 0.383207 0.492952 0.134282
493 2 0.439055 0.41904 0.114764
494 4 0.450304 0.438854 0.104468
2480 4 0.998324 0.0342255 0.195527
673 2 0.120713 0.0375965 0.225104
674 4 0.145422 0.0338165 0.224525
675 4 0.0960032 0.0413766 0.225683
689 4 0.213873 0.015268 0.241458
1504 2 0.247033 0.0108565 0.17644
21 1 0.368381 0.052879 0.23399
23 3 0.371595 0.0299285 0.235151
24 3 0.347684 0.0575129 0.224579
25 3 0.384891 0.0624178 0.221537
759 4 0.403407 0.0626376 0.211857
757 2 0.410745 0.0544405 0.189404
742 2 0.449188 0.0540699 0.243996
743 4 0.460713 0.071894 0.23078
381 4 0.0368669 0.160944 0.185133
511 2 0.0236548 0.156924 0.224266
513 4 0.0407637 0.139909 0.23082
577 2 0.0977048 0.109798 0.224174
578 4 0.104696 0.129665 0.210697
579 4 0.0907137 0.0899315 0.23765
723 4 0.187096 0.0962258 0.215781
691 2 0.223646 0.0944133 0.195765
721 2 0.178296 0.110253 0.234516
692 4 0.228441 0.0891628 0.219736
581 4 0.273047 0.0982817 0.177887
30 3 0.29631 0.143364 0.21958
26 1 0.315483 0.132339 0.225014
28 3 0.317332 0.11297 0.212372
27 3 0.333534 0.145882 0.220554
312 4 0.411823 0.121146 0.174031
310 2 0.431674 0.122633 0.18916
311 4 0.451525 0.12412 0.20429
512 4 0.00654604 0.173939 0.217711
394 2 0.014618 0.247414 0.210222
363 4 0.097297 0.239111 0.176748
392 4 0.118666 0.172629 0.245586
371 4 0.171072 0.231313 0.227299
283 2 0.258233 0.209373 0.17738
285 4 0.274268 0.197488 0.19244
764 4 0.379708 0.226374 0.188513
763 2 0.38903 0.23773 0.208745
520 2 0.469497 0.206466 0.237739
521 4 0.455035 0.200983 0.218093
528 4 0.458993 0.245075 0.174879
395 4 0.0376792 0.256997 0.208985
370 2 0.159531 0.253446 0.228755
361 2 0.102534 0.25631 0.194124
362 4 0.10777 0.273509 0.211501
372 4 0.147991 0.27558 0.230211
300 4 0.130262 0.310858 0.239476
536 4 0.178625 0.332711 0.172953
279 4 0.224573 0.249896 0.164216
343 2 0.246844 0.294315 0.243582
344 4 0.252206 0.270895 0.250505
345 4 0.241481 0.317734 0.236659
277 2 0.245318 0.262444 0.17033
278 4 0.266063 0.274992 0.176445
307 2 0.312363 0.276877 0.228954
309 4 0.311154 0.287206 0.206216
765 4 0.398352 0.249086 0.228977
527 4 0.495194 0.276535 0.189037
526 2 0.477094 0.260805 0.181958
262 2 0.0368899 0.412626 0.21345
264 4 0.0222278 0.399232 0.228643
648 4 0.107382 0.336997 0.172775
646 2 0.098905 0.36052 0.172714
298 2 0.126391 0.335362 0.236359
299 4 0.12252 0.359867 0.233242
647 4 0.090428 0.384043 0.172652
417 4 0.148614 0.41435 0.194415
610 2 0.274598 0.351442 0.172474
611 4 0.261476 0.338145 0.189094
303 4 0.311494 0.403696 0.18119
301 2 0.333417 0.413205 0.188549
729 4 0.352574 0.367982 0.24359
597 4 0.474884 0.395841 0.175717
643 2 0.451123 0.372894 0.200938
644 4 0.439819 0.365746 0.222064
645 4 0.462426 0.380041 0.179812
447 4 0.434673 0.369833 0.240551
263 4 0.0515521 0.426019 0.198258
415 2 0.154919 0.431032 0.17689
291 4 0.193115 0.451645 0.172678
289 2 0.210076 0.448065 0.190698
290 4 0.227036 0.444485 0.208718
768 4 0.227651 0.492379 0.228219
766 2 0.24656 0.480489 0.216981
767 4 0.265468 0.4686 0.205744
660 4 0.396623 0.4563 0.165544
302 4 0.355339 0.422714 0.195908
229 2 0.390589 0.491162 0.243085
231 4 0.375076 0.471801 0.246196
232 2 0.00184511 0.0505282 0.273628
233 4 0.0204638 0.0343152 0.277586
1402 2 0.071749 0.00387468 0.280037
1464 4 0.124972 0.00975728 0.293476
1403 4 0.0920005 0.0155772 0.2712
688 2 0.228344 0.00992145 0.261135
690 4 0.242816 0.00457488 0.280811
248 4 0.239248 0.0830187 0.273595
1699 2 0.256088 0.999942 0.324866
22 3 0.368978 0.0615577 0.255285
744 4 0.437663 0.0362459 0.257212
478 2 0.474805 0.0304284 0.305698
480 4 0.471268 0.0113967 0.289873
351 4 0.440316 0.0628127 0.301735
479 4 0.478343 0.0494602 0.321524
529 2 0.0337772 0.140792 0.27728
530 4 0.0574563 0.148567 0.279287
531 4 0.0100982 0.133017 0.275274
398 4 0.0732165 0.131533 0.327802
730 2 0.153199 0.0893713 0.318874
731 4 0.158147 0.0917316 0.294478
722 4 0.169496 0.12428 0.25325
546 4 0.168899 0.140338 0.264226
249 4 0.222321 0.118138 0.304913
247 2 0.230784 0.100578 0.289254
403 2 0.223093 0.157984 0.296171
404 4 0.213879 0.134762 0.29719
544 2 0.16959 0.165001 0.260169
600 4 0.173636 0.159314 0.33051
29 3 0.315455 0.127076 0.247612
631 2 0.350277 0.0967576 0.291789
632 4 0.331198 0.0978608 0.275666
633 4 0.369356 0.0956544 0.307912
331 2 0.449968 0.13519 0.257596
332 4 0.469468 0.15036 0.253751
333 4 0.430467 0.12002 0.26144
349 2 0.44747 0.0848681 0.311092
350 4 0.454624 0.106923 0.32045
444 4 0.0172284 0.228648 0.276864
391 2 0.104757 0.186467 0.261086
393 4 0.0908487 0.200305 0.276585
545 4 0.170282 0.189663 0.256112
405 4 0.232307 0.181206 0.295152
706 2 0.318139 0.199325 0.306995
708 4 0.309882 0.182459 0.323504
707 4 0.326395 0.216191 0.290486
420 4 0.424903 0.242856 0.273625
418 2 0.437787 0.243337 0.295048
419 4 0.450671 0.243819 0.316471
522 4 0.483959 0.211949 0.257385
762 4 0.451478 0.179646 0.269779
761 4 0.463514 0.191327 0.31689
760 2 0.457496 0.185486 0.293335
748 2 0.0834855 0.27987 0.262234
750 4 0.0646614 0.264374 0.267776
442 2 0.00512452 0.249526 0.283403
366 4 0.0243322 0.333467 0.265565
749 4 0.10231 0.295366 0.256691
389 4 0.130625 0.274892 0.336641
677 4 0.153609 0.32307 0.315312
400 2 0.201571 0.269518 0.313981
402 4 0.225911 0.274664 0.311482
401 4 0.177231 0.264371 0.31648
308 4 0.313571 0.266547 0.251691
496 2 0.29913 0.29673 0.288891
497 4 0.311998 0.291804 0.309756
498 4 0.286263 0.301655 0.268026
543 4 0.398877 0.313911 0.293658
615 4 0.368452 0.296004 0.323069
613 2 0.370986 0.320642 0.319643
541 2 0.422212 0.31383 0.302637
542 4 0.445548 0.313749 0.311616
364 2 0.0186834 0.346398 0.286206
365 4 0.0130346 0.359328 0.306848
601 2 0.0736921 0.381995 0.299411
602 4 0.0519019 0.393748 0.295915
603 4 0.0954823 0.370241 0.302908
734 4 0.149177 0.366192 0.255987
735 4 0.180516 0.354097 0.293031
733 2 0.164847 0.360144 0.274509
509 4 0.260275 0.346249 0.333137
727 2 0.343062 0.383336 0.260881
728 4 0.333551 0.398689 0.278172
614 4 0.373519 0.34528 0.316217
445 2 0.442191 0.374582 0.26392
446 4 0.449709 0.379331 0.287288
777 4 0.0621022 0.45719 0.298623
775 2 0.0827969 0.466026 0.309524
549 4 0.0285424 0.43928 0.332878
776 4 0.103492 0.474862 0.320425
414 4 0.154425 0.461488 0.276145
412 2 0.164062 0.466591 0.298645
413 4 0.173698 0.471693 0.321146
436 2 0.305556 0.430964 0.282053
437 4 0.319878 0.431439 0.261563
438 4 0.291235 0.430489 0.302542
713 4 0.403116 0.472869 0.30462
712 2 0.425831 0.474023 0.294235
714 4 0.448546 0.475177 0.283849
119 3 0.498581 0.438615 0.316728
316 2 0.0338438 0.0728335 0.353367
317 4 0.0166107 0.0700573 0.37127
318 4 0.051077 0.0756098 0.335465
428 4 0.0789213 0.0331453 0.384336
732 4 0.148252 0.087011 0.343269
427 2 0.0862179 0.0193997 0.364765
429 4 0.0935145 0.00565411 0.345195
1701 4 0.236578 0.00482327 0.339722
606 4 0.167596 0.0374013 0.380987
441 4 0.240779 0.0355316 0.409402
604 2 0.186888 0.0473312 0.368562
605 4 0.206181 0.0572612 0.356136
439 2 0.262126 0.0227091 0.411651
440 4 0.283473 0.00988649 0.413901
698 4 0.366892 0.048343 0.340049
697 2 0.357558 0.0288659 0.352646
699 4 0.348223 0.00938883 0.365243
256 2 0.423644 0.0455213 0.361113
258 4 0.431493 0.0276771 0.376771
257 4 0.415796 0.0633655 0.345456
397 2 0.0928846 0.121556 0.339583
399 4 0.112553 0.111579 0.351365
598 2 0.184059 0.15717 0.353136
599 4 0.194482 0.155026 0.375762
474 4 0.243924 0.162864 0.363528
682 2 0.289589 0.0848368 0.385553
683 4 0.302903 0.079405 0.365098
684 4 0.276275 0.0902687 0.406008
466 2 0.348999 0.140975 0.412291
467 4 0.359543 0.143157 0.389725
451 2 0.472497 0.139322 0.367529
452 4 0.496844 0.140116 0.361893
453 4 0.448149 0.138528 0.373164
514 2 0.434886 0.153044 0.411689
515 4 0.437574 0.146808 0.387625
2654 4 0.0203689 0.192058 0.351326
274 2 0.214696 0.245493 0.392528
276 4 0.232941 0.228969 0.396914
472 2 0.264158 0.174956 0.355189
473 4 0.284393 0.187047 0.34685
488 4 0.297626 0.216005 0.385951
487 2 0.294716 0.231233 0.405568
715 2 0.360555 0.232714 0.354201
716 4 0.354339 0.208975 0.349405
616 2 0.0697863 0.323014 0.369145
618 4 0.0521814 0.316728 0.385751
347 4 0.0606419 0.305387 0.400045
390 4 0.0834306 0.259107 0.331718
388 2 0.107028 0.266999 0.334179
617 4 0.0873912 0.3293 0.35254
676 2 0.144051 0.325716 0.338265
678 4 0.134493 0.328362 0.361217
275 4 0.196451 0.262017 0.388142
375 4 0.185736 0.314533 0.384887
373 2 0.196178 0.314036 0.4076
376 2 0.288757 0.296366 0.357003
377 4 0.303838 0.27673 0.353512
378 4 0.273676 0.316001 0.360494
267 4 0.343104 0.250255 0.421955
717 4 0.36677 0.256453 0.358998
268 2 0.4823 0.282148 0.397224
269 4 0.490304 0.26068 0.387209
270 4 0.474297 0.303615 0.407238
2927 4 0.0121708 0.360849 0.365337
408 4 0.0804367 0.402407 0.403535
406 2 0.0772201 0.399388 0.378924
407 4 0.0740034 0.396369 0.354313
510 4 0.223693 0.320997 0.356048
508 2 0.241984 0.333623 0.344592
502 2 0.225789 0.401779 0.397304
504 4 0.222724 0.378437 0.405728
435 4 0.297335 0.395749 0.349109
433 2 0.321117 0.389632 0.344399
434 4 0.3449 0.383516 0.33969
336 4 0.369458 0.373751 0.405932
2923 2 0.497349 0.35334 0.370674
561 4 0.434892 0.374811 0.397873
751 2 0.433866 0.405828 0.382457
752 4 0.449196 0.388213 0.391395
2925 4 0.480309 0.351306 0.388858
559 2 0.45349 0.362519 0.409196
548 4 0.0658936 0.415115 0.355719
547 2 0.047218 0.427198 0.344298
499 2 0.118156 0.470529 0.374053
500 4 0.13958 0.463809 0.385055
501 4 0.0967331 0.477249 0.36305
503 4 0.228853 0.42512 0.38888
570 4 0.193427 0.450173 0.408537
1436 4 0.256052 0.492785 0.333061
5 3 0.318699 0.44495 0.355849
1 1 0.329761 0.463177 0.363854
2 3 0.314854 0.476917 0.374723
4 3 0.346153 0.456526 0.378869
3 3 0.339383 0.474932 0.346314
594 4 0.388335 0.474469 0.346292
588 4 0.396565 0.448983 0.410327
592 2 0.41196 0.481636 0.350251
117 3 0.499648 0.426058 0.352137
753 4 0.418537 0.423443 0.373518
593 4 0.435585 0.488802 0.354209
718 2 0.045641 0.0695054 0.461633
719 4 0.0371025 0.085806 0.478561
720 4 0.0541795 0.0532048 0.444705
367 2 0.119888 0.0673327 0.463091
369 4 0.124362 0.0653509 0.487611
368 4 0.115415 0.0693144 0.43857
342 4 0.173794 0.0665177 0.467296
340 2 0.178565 0.0480001 0.483406
341 4 0.183336 0.0294826 0.499515
724 2 0.328017 0.0677312 0.440143
726 4 0.308171 0.06479 0.425221
424 2 0.382975 0.0295135 0.426978
425 4 0.366475 0.0107834 0.428428
426 4 0.399476 0.0482437 0.425528
725 4 0.347863 0.0706725 0.455065
457 2 0.0106706 0.151368 0.431599
458 4 0.0190593 0.134783 0.448324
687 4 0.149961 0.147838 0.43973
1152 4 0.180913 0.0848892 0.470501
321 4 0.251562 0.147457 0.426555
1150 2 0.183218 0.104549 0.485777
685 2 0.171732 0.158268 0.433219
319 2 0.265471 0.127231 0.421801
320 4 0.27938 0.107004 0.417047
468 4 0.338454 0.138792 0.434857
574 2 0.376665 0.16792 0.460922
576 4 0.373565 0.154643 0.481882
642 4 0.486373 0.113961 0.486789
516 4 0.432197 0.15928 0.435753
2880 4 0.493016 0.0946244 0.483014
459 4 0.00228197 0.167953 0.414873
469 2 0.0132458 0.185201 0.48975
470 4 0.027573 0.204761 0.49586
260 4 0.0800698 0.212057 0.43091
261 4 0.111946 0.205023 0.468794
259 2 0.0960077 0.20854 0.449852
1035 4 0.126809 0.193956 0.473302
1033 2 0.127881 0.189835 0.49794
686 4 0.193504 0.168698 0.426708
411 4 0.264144 0.187483 0.476868
409 2 0.285634 0.199641 0.480815
410 4 0.307123 0.211798 0.484762
489 4 0.291807 0.246462 0.425185
575 4 0.379766 0.181197 0.439963
306 4 0.487478 0.233839 0.439357
872 4 0.429477 0.241018 0.494639
304 2 0.484838 0.209957 0.432438
305 4 0.482198 0.186075 0.425519
346 2 0.0549248 0.292903 0.420941
348 4 0.0492077 0.280419 0.441837
327 4 0.098388 0.300811 0.464188
694 2 0.111307 0.247899 0.495319
696 4 0.111323 0.267448 0.47973
6 1 0.157176 0.332477 0.490409
9 3 0.137981 0.319957 0.494043
325 2 0.103367 0.316534 0.445395
326 4 0.108346 0.332257 0.426602
374 4 0.20662 0.31354 0.430314
10 3 0.166095 0.327309 0.470101
651 4 0.252864 0.2559 0.481369
649 2 0.257713 0.278288 0.471347
650 4 0.262563 0.300676 0.461326
265 2 0.355484 0.27125 0.427532
266 4 0.367865 0.292246 0.433108
583 2 0.469073 0.313756 0.478287
584 4 0.477687 0.304972 0.456519
585 4 0.460459 0.32254 0.500054
681 4 0.0338048 0.412559 0.451054
7 3 0.151674 0.354809 0.490807
773 4 0.213713 0.380797 0.500953
709 2 0.185162 0.390326 0.455396
710 4 0.195225 0.413165 0.453878
711 4 0.175099 0.367488 0.456914
334 2 0.357067 0.372446 0.427611
238 2 0.369106 0.37302 0.482525
240 4 0.356898 0.380834 0.462152
335 4 0.344677 0.371141 0.449289
560 4 0.472088 0.350227 0.420519
926 4 0.450535 0.39709 0.494501
1383 4 0.0332178 0.489273 0.449698
680 4 0.0447753 0.44793 0.417449
679 2 0.0392901 0.430244 0.434252
384 4 0.0902705 0.418322 0.489798
382 2 0.0890491 0.428306 0.466906
383 4 0.0878277 0.43829 0.444015
538 2 0.0824142 0.495175 0.494677
569 4 0.146764 0.459704 0.423784
636 4 0.231324 0.45006 0.442603
634 2 0.241152 0.460785 0.462939
635 4 0.25098 0.471509 0.483276
568 2 0.170095 0.454939 0.41616
668 4 0.313003 0.412252 0.42541
667 2 0.303494 0.42884 0.441522
669 4 0.293984 0.445428 0.457634
586 2 0.413966 0.447 0.428173
663 4 0.444734 0.504545 0.487565
1332 4 0.501029 0.496096 0.480327
587 4 0.431367 0.445016 0.446018
1126 2 0.0468069 0.0579407 0.524375
1127 4 0.0423076 0.0334758 0.521844
1128 4 0.0513062 0.0824055 0.526906
1058 4 0.166297 0.0796654 0.569455
1181 4 0.216921 0.0662207 0.495949
2430 4 0.199592 0.0173486 0.500325
1180 2 0.235201 0.0813201 0.503888
961 2 0.291773 0.0327634 0.521092
963 4 0.30749 0.0521146 0.523011
962 4 0.276056 0.0134123 0.519174
432 4 0.303956 0.065031 0.507817
430 2 0.319729 0.0844303 0.508022
841 2 0.370425 0.0784669 0.529432
843 4 0.346707 0.0711438 0.526436
1217 4 0.406969 0.0443998 0.559783
1216 2 0.403004 0.0257819 0.575995
3008 4 0.494012 0.0611815 0.569979
1060 2 0.490591 0.0145348 0.533523
1062 4 0.484387 0.0360972 0.522489
4467 4 0.48346 0.0096799 0.584745
938 4 0.0788193 0.12903 0.508684
937 2 0.0988285 0.124511 0.52298
939 4 0.118838 0.119992 0.537277
1154 4 0.14074 0.134972 0.578067
1151 4 0.185523 0.124209 0.501053
1032 4 0.259176 0.106031 0.577151
1182 4 0.253481 0.0964195 0.511827
842 4 0.394144 0.0857901 0.532428
899 4 0.358461 0.142991 0.537534
898 2 0.351084 0.16573 0.530206
431 4 0.335503 0.10383 0.508227
641 4 0.455732 0.126074 0.524408
640 2 0.471052 0.120017 0.505599
877 2 0.0678525 0.221444 0.583593
878 4 0.0524959 0.237921 0.572736
1034 4 0.128953 0.185715 0.522578
695 4 0.111291 0.228351 0.510908
856 2 0.219138 0.220447 0.533514
858 4 0.217215 0.216902 0.55819
1221 4 0.176166 0.172483 0.57704
857 4 0.221061 0.223993 0.508838
900 4 0.343707 0.188469 0.522877
983 4 0.0304933 0.308304 0.562123
982 2 0.0207226 0.328414 0.573316
1258 2 0.158657 0.270226 0.568316
1260 4 0.134189 0.265629 0.566003
8 3 0.172668 0.328268 0.507162
1259 4 0.183125 0.274823 0.57063
792 4 0.309508 0.285247 0.576866
813 4 0.324396 0.315654 0.545377
871 2 0.413413 0.252457 0.510011
873 4 0.39735 0.263896 0.525383
811 2 0.340723 0.304944 0.529761
812 4 0.35705 0.294233 0.514144
1137 4 0.107334 0.373975 0.583787
897 4 0.172553 0.407196 0.578353
1189 2 0.247623 0.377374 0.575355
1191 4 0.230664 0.359011 0.575979
772 2 0.236542 0.3875 0.50864
802 2 0.292351 0.35305 0.548434
803 4 0.303738 0.365371 0.566972
804 4 0.280963 0.340728 0.529896
1190 4 0.264581 0.395737 0.574732
774 4 0.25937 0.394204 0.516328
928 2 0.360139 0.380497 0.570118
929 4 0.347284 0.389537 0.55067
239 4 0.381315 0.365207 0.502899
925 2 0.46125 0.39928 0.516986
927 4 0.471965 0.40147 0.539471
934 2 0.00037163 0.442778 0.522352
935 4 0.0102593 0.426091 0.506574
1938 4 0.0559858 0.492299 0.543557
539 4 0.0614903 0.48505 0.503888
1159 2 0.17483 0.448734 0.571269
1161 4 0.174774 0.457287 0.547774
1171 2 0.226435 0.463192 0.564749
1173 4 0.201515 0.464964 0.563754
1172 4 0.251356 0.46142 0.565744
882 4 0.332248 0.478786 0.522822
880 2 0.353114 0.467897 0.531261
881 4 0.37398 0.457008 0.5397
1952 4 0.352871 0.472862 0.571218
1000 2 0.422797 0.441536 0.575674
1001 4 0.443193 0.447011 0.562288
662 4 0.473451 0.471989 0.512388
661 2 0.459093 0.488267 0.499976
1185 4 0.00050361 0.0362174 0.64472
1057 2 0.151331 0.0704673 0.587248
1059 4 0.136366 0.0612691 0.605042
825 4 0.139064 0.0356081 0.644197
823 2 0.153772 0.0192348 0.632333
1284 4 0.171762 0.0777566 0.621908
1031 4 0.228894 0.0689473 0.591589
1030 2 0.244035 0.0874893 0.58437
949 2 0.263106 0.0308308 0.623241
951 4 0.255988 0.0356865 0.599769
950 4 0.270224 0.0259751 0.646713
1092 4 0.340166 0.0184178 0.659125
1005 4 0.330762 0.0695426 0.659467
1218 4 0.399039 0.00716406 0.592207
809 4 0.46476 0.0674676 0.611555
1082 4 0.0377036 0.0888274 0.648225
1076 4 0.0252396 0.0964242 0.662109
1081 2 0.0520993 0.0929545 0.628202
1083 4 0.066495 0.0970816 0.608179
1153 2 0.138642 0.125418 0.601078
1155 4 0.136545 0.115864 0.624089
1283 4 0.210142 0.108538 0.612954
1282 2 0.190952 0.0931473 0.617431
808 2 0.459833 0.0917196 0.615126
810 4 0.454907 0.115972 0.618696
879 4 0.0832092 0.204967 0.594449
1272 4 0.0957568 0.190046 0.597488
1270 2 0.117927 0.197391 0.606417
1271 4 0.140097 0.204735 0.615346
1210 2 0.231068 0.18346 0.646916
1212 4 0.211352 0.178428 0.632385
1219 2 0.19239 0.177736 0.595326
1220 4 0.208613 0.18299 0.613612
796 2 0.23161 0.242529 0.611218
797 4 0.206746 0.240809 0.609228
1211 4 0.250783 0.188492 0.661447
798 4 0.256475 0.244249 0.613207
791 4 0.31946 0.237312 0.587058
1026 4 0.405615 0.201456 0.654066
1193 4 0.341551 0.185968 0.658648
904 2 0.479629 0.239401 0.590044
906 4 0.465439 0.219734 0.59613
1024 2 0.429773 0.195066 0.653207
1025 4 0.453931 0.188676 0.652347
1243 2 0.0308132 0.273554 0.632116
1244 4 0.016951 0.260681 0.615766
1245 4 0.0446755 0.286426 0.648466
946 2 0.17539 0.288418 0.636545
947 4 0.165524 0.265445 0.636796
948 4 0.185257 0.311392 0.636293
790 2 0.314484 0.261279 0.581962
1239 4 0.293009 0.332114 0.619473
1237 2 0.304322 0.316212 0.603842
1238 4 0.315635 0.300311 0.588211
954 4 0.457842 0.292627 0.581378
905 4 0.493819 0.259068 0.583958
952 2 0.449209 0.296631 0.604499
953 4 0.440576 0.300635 0.627621
984 4 0.010952 0.348524 0.584509
1040 4 0.0739449 0.399382 0.63503
1039 2 0.0593776 0.408991 0.617124
1136 4 0.133385 0.335806 0.602897
1135 2 0.120359 0.354891 0.593342
896 4 0.160024 0.365081 0.602229
993 4 0.0941337 0.405119 0.637086
895 2 0.166289 0.386139 0.590291
806 4 0.339915 0.359649 0.666901
930 4 0.372994 0.371457 0.589565
1204 2 0.404165 0.409195 0.639482
1205 4 0.41537 0.39609 0.621374
1041 4 0.0448102 0.418601 0.599218
992 4 0.133183 0.43509 0.628274
991 2 0.113658 0.420104 0.63268
1160 4 0.174885 0.440181 0.594764
889 2 0.323792 0.446215 0.60213
891 4 0.299761 0.451496 0.606579
1002 4 0.4024 0.436062 0.58906
890 4 0.347823 0.440933 0.59768
1206 4 0.39296 0.4223 0.65759
1268 4 0.47121 0.488735 0.662665
1267 2 0.446668 0.48561 0.659044
1269 4 0.422126 0.482486 0.655423
2990 4 0.00554739 0.0874454 0.708462
944 4 0.0594927 0.0660725 0.693027
943 2 0.0809728 0.0555465 0.685748
945 4 0.102453 0.0450206 0.678469
1147 2 0.212949 0.0724086 0.722258
1149 4 0.220444 0.0508055 0.732373
1090 2 0.353177 0.00310616 0.674006
1003 2 0.336871 0.0833796 0.679376
1050 4 0.369353 0.0200146 0.746636
1048 2 0.348022 0.00748447 0.743009
1163 4 0.461459 0.0374787 0.674393
41 1 0.437896 0.0826083 0.687533
43 3 0.421133 0.0705391 0.698104
45 3 0.445122 0.0713618 0.669095
1162 2 0.48205 0.0419276 0.687861
852 4 0.0221525 0.162881 0.682048
862 2 0.0628781 0.123725 0.727009
864 4 0.0433169 0.132412 0.714083
1075 2 0.0370501 0.106953 0.68147
863 4 0.0824393 0.115038 0.739934
1077 4 0.0488606 0.117481 0.700831
850 2 0.0449528 0.164364 0.692203
907 2 0.157097 0.144587 0.684735
909 4 0.138196 0.145324 0.668383
1148 4 0.205454 0.0940118 0.712144
1225 2 0.200371 0.125199 0.717782
1226 4 0.204786 0.103886 0.730089
1227 4 0.195957 0.146512 0.705476
908 4 0.175998 0.143851 0.701088
829 2 0.318828 0.153346 0.716389
831 4 0.316049 0.136898 0.735015
1004 4 0.342981 0.0972166 0.699286
1141 2 0.400027 0.150647 0.713017
1142 4 0.416216 0.144615 0.694942
1143 4 0.383837 0.156679 0.731092
44 3 0.429945 0.103536 0.681431
42 3 0.455464 0.0852963 0.702137
851 4 0.067753 0.165847 0.702359
1213 2 0.0180132 0.231368 0.744054
1214 4 0.042202 0.237633 0.744968
1105 2 0.100666 0.199784 0.73396
1106 4 0.0934648 0.22367 0.735614
1107 4 0.107868 0.175897 0.732307
1208 4 0.103603 0.235988 0.680282
1277 4 0.218223 0.24023 0.738121
830 4 0.321607 0.169794 0.697763
886 2 0.295641 0.186325 0.678015
888 4 0.284275 0.207404 0.670824
887 4 0.307006 0.165247 0.685205
976 2 0.292761 0.210696 0.731624
977 4 0.30845 0.227991 0.740565
978 4 0.277073 0.193402 0.722682
1192 2 0.34789 0.204583 0.67409
1194 4 0.35423 0.223199 0.689532
1261 2 0.447878 0.222989 0.725682
1263 4 0.43845 0.217474 0.70319
1262 4 0.457305 0.228504 0.748174
1177 2 0.0156518 0.268305 0.701492
1178 4 0.0374928 0.268206 0.713663
1209 4 0.0776459 0.278723 0.681081
1207 2 0.0906246 0.257355 0.680681
820 2 0.153309 0.295633 0.734469
821 4 0.151821 0.275524 0.719685
822 4 0.154796 0.315743 0.749253
1065 4 0.235049 0.287627 0.681335
1063 2 0.253281 0.28895 0.698394
1064 4 0.271513 0.290273 0.715454
807 4 0.319176 0.314283 0.670434
3123 4 0.483801 0.281979 0.681687
892 2 0.0471755 0.370201 0.704139
893 4 0.0631109 0.369957 0.723405
894 4 0.0312401 0.370445 0.684873
940 2 0.141441 0.389798 0.737297
1067 4 0.162195 0.395929 0.706117
941 4 0.15524 0.382708 0.717688
1028 4 0.225391 0.40341 0.686843
1066 2 0.186323 0.401996 0.703624
1068 4 0.210451 0.408064 0.70113
1027 2 0.24594 0.390789 0.680241
805 2 0.329545 0.336966 0.668667
1029 4 0.26649 0.378167 0.673638
1139 4 0.277055 0.418524 0.738654
1281 4 0.0144085 0.469373 0.697254
1280 4 0.0574493 0.450027 0.713806
1279 2 0.0359289 0.4597 0.70553
1983 4 0.0315648 0.481955 0.740077
1174 2 0.228215 0.501269 0.689929
1175 4 0.250003 0.489871 0.685399
1138 2 0.289233 0.433948 0.723194
1140 4 0.301411 0.449371 0.707735
1228 2 0.368493 0.466723 0.719193
1229 4 0.365133 0.489791 0.728236
1230 4 0.371853 0.443656 0.71015
1100 4 0.45859 0.436178 0.677396
1099 2 0.448467 0.441653 0.699593
1101 4 0.438343 0.447128 0.72179
1249 2 0.46681 0.488484 0.749367
1296 4 0.996603 0.0241757 0.825494
1295 4 0.0233037 0.0434738 0.787872
1294 2 0.00995354 0.0338247 0.806683
1203 4 0.0839272 0.062414 0.77997
1201 2 0.108272 0.0569839 0.778229
1202 4 0.132616 0.0515539 0.776488
2049 4 0.103475 0.0083417 0.751313
875 4 0.215916 0.0281254 0.821935
1255 2 0.275904 0.0610412 0.795464
1256 4 0.291138 0.0695017 0.813396
1257 4 0.260671 0.0525807 0.777532
1113 4 0.410916 0.022374 0.784239
973 2 0.362757 0.00262095 0.833569
844 2 0.491246 0.0614257 0.772131
1111 2 0.424175 0.0409318 0.794486
1112 4 0.437433 0.0594897 0.804732
845 4 0.472154 0.0496016 0.783124
832 2 0.0122637 0.142221 0.785432
833 4 0.035431 0.148271 0.778231
34 3 0.111825 0.142638 0.818622
31 1 0.12701 0.157949 0.810055
35 3 0.125715 0.158289 0.787321
33 3 0.148525 0.152319 0.816676
839 4 0.268564 0.115202 0.785335
838 2 0.262051 0.131212 0.803403
840 4 0.255538 0.147223 0.82147
960 4 0.31891 0.144882 0.827925
1084 2 0.349252 0.116391 0.785703
1085 4 0.345334 0.10767 0.808807
1086 4 0.353171 0.125111 0.762599
819 4 0.363858 0.107215 0.819423
32 3 0.121935 0.178836 0.818247
1072 2 0.0917105 0.245943 0.7924
1074 4 0.101216 0.222844 0.793524
1129 2 0.202463 0.200674 0.770033
1130 4 0.199705 0.178776 0.758283
1131 4 0.20522 0.222572 0.781783
918 4 0.305412 0.238739 0.757168
1298 4 0.369676 0.213894 0.74898
47 3 0.401035 0.182793 0.807757
1299 4 0.347586 0.174748 0.770897
1297 2 0.358631 0.194321 0.759939
1043 4 0.404822 0.229636 0.781316