ITEM: TIMESTEP
1940000
ITEM: NUMBER OF ATOMS
4590
ITEM: BOX BOUNDS pp pp pp
-9.9985700000000008e+00 9.9985700000000008e+00
-9.9985700000000008e+00 9.9985700000000008e+00
-9.9985700000000008e+00 9.9985700000000008e+00
ITEM: ATOMS id type xs ys zs
1668 4 0.0679031 0.0396065 0.0436747
1666 2 0.0683985 0.0309096 0.0671118
1667 4 0.0688939 0.0222127 0.0905489
566 4 0.167839 0.0256024 0.0570446
565 2 0.183524 0.0425771 0.0475043
567 4 0.199209 0.0595518 0.037964
492 4 0.273443 0.0306675 0.0539039
1475 4 0.279292 0.0153713 0.0662812
490 2 0.266794 0.0315701 0.0298175
491 4 0.260146 0.0324728 0.00573111
2264 4 0.303192 0.0619713 0.00144028
2144 4 0.36668 0.011373 0.998044
745 2 0.47311 0.0427261 0.0261247
2724 4 0.497637 0.0548299 0.0597175
747 4 0.495696 0.0523159 0.0309328
2722 2 0.482516 0.0659876 0.0762115
746 4 0.450525 0.0331363 0.0213166
463 2 0.0778473 0.0832269 0.993397
465 4 0.0684407 0.10636 0.992157
701 4 0.0632097 0.11827 0.00909936
700 2 0.0539946 0.141276 0.0124151
702 4 0.0447796 0.164281 0.0157308
358 2 0.219173 0.157765 0.022123
359 4 0.243425 0.153757 0.0266991
665 4 0.357911 0.162664 0.0130251
555 4 0.0329737 0.18053 0.0191883
553 2 0.0310625 0.201793 0.00617216
554 4 0.0291514 0.223055 0.993156
422 4 0.100683 0.206272 0.0176273
421 2 0.0975098 0.183401 0.00803272
360 4 0.19492 0.161774 0.0175469
1133 4 0.195765 0.174659 0.0038162
737 4 0.225963 0.24363 0.0613124
736 2 0.228453 0.219329 0.066649
354 4 0.23652 0.17829 0.0799667
738 4 0.230942 0.195029 0.0719855
1069 2 0.397703 0.249445 0.00278315
664 2 0.344406 0.181847 0.00437478
254 4 0.399023 0.239403 0.082158
323 4 0.448796 0.238806 0.0508095
2807 4 0.0153662 0.285228 0.0204386
2806 2 0.00323936 0.303599 0.0322983
292 2 0.159745 0.31565 0.054436
506 4 0.229902 0.252548 0.0442517
507 4 0.193562 0.286754 0.0474269
293 4 0.176663 0.299256 0.0460579
505 2 0.211732 0.269651 0.0458393
481 2 0.296899 0.294557 0.00700915
482 4 0.309981 0.314264 0.0151123
1071 4 0.386251 0.26287 0.0204972
573 4 0.367901 0.26113 0.0274302
571 2 0.359094 0.284265 0.0309482
572 4 0.350287 0.3074 0.0344663
741 4 0.342817 0.281029 0.0836335
324 4 0.450476 0.287781 0.0408452
322 2 0.449636 0.263294 0.0458273
315 4 0.0671904 0.408435 0.0820473
313 2 0.0555868 0.421372 0.064071
294 4 0.142827 0.332045 0.0628142
456 4 0.127317 0.344293 0.0652049
454 2 0.124638 0.368915 0.0617732
455 4 0.121958 0.393537 0.0583414
608 4 0.235623 0.376439 0.0601325
607 2 0.232743 0.354984 0.0726447
252 4 0.252284 0.384744 0.0538536
250 2 0.27164 0.398417 0.0458811
251 4 0.290996 0.412091 0.0379086
524 4 0.303925 0.40645 0.0524453
226 2 0.400693 0.390764 0.0266667
228 4 0.392062 0.414227 0.0271433
227 4 0.409323 0.367302 0.0261902
670 2 0.412084 0.359135 0.079359
1305 4 0.402914 0.356971 0.00969208
671 4 0.425272 0.3671 0.0596659
281 4 0.433734 0.350738 0.054421
280 2 0.457478 0.343299 0.0519627
282 4 0.481223 0.335861 0.0495045
104 3 0.486428 0.341704 0.0680075
1045 2 0.497187 0.335801 0.011231
1047 4 0.496611 0.336584 0.0362156
552 4 0.0268039 0.444633 0.0511668
314 4 0.0439831 0.43431 0.0460946
793 2 0.157818 0.484767 0.998145
795 4 0.155606 0.460049 0.00119054
244 2 0.242001 0.475504 0.00891996
243 4 0.220979 0.483379 0.0503886
245 4 0.227484 0.455219 0.00720273
1440 4 0.257173 0.477191 0.0746443
1290 4 0.226892 0.436021 0.000337885
241 2 0.200964 0.498197 0.0481522
523 2 0.322351 0.422229 0.0585021
271 2 0.273325 0.498656 0.0599608
272 4 0.266481 0.492933 0.0833188
37 3 0.342618 0.464434 0.0146396
525 4 0.340777 0.438008 0.0645588
494 4 0.43054 0.422952 0.0769913
1422 4 0.0286282 0.00237598 0.153116
2480 4 0.0129128 0.00948729 0.141286
18 3 0.0653973 0.0153584 0.144508
16 1 0.0554986 0.00416146 0.126758
19 3 0.0324599 0.00377938 0.129493
590 4 7.83822e-05 0.0634198 0.0891396
17 3 0.0604881 0.0152734 0.107245
652 2 0.233227 0.0442646 0.14818
654 4 0.229362 0.036115 0.12486
1474 2 0.273034 0.0149098 0.0904846
1476 4 0.266776 0.0144483 0.114688
296 4 0.391988 0.0678378 0.0988982
297 4 0.360227 0.0292125 0.0990105
295 2 0.376107 0.0485251 0.0989544
557 4 0.387442 0.0865171 0.106654
484 2 0.350624 0.997918 0.121277
485 4 0.361746 0.00896714 0.101799
2723 4 0.467396 0.0771453 0.0927054
1759 2 0.458829 0.00387427 0.140523
1760 4 0.472998 0.0242144 0.143794
2744 4 0.489784 0.0249033 0.156593
235 2 0.118132 0.159189 0.145022
236 4 0.135206 0.146137 0.1578
758 4 0.339643 0.103132 0.156769
556 2 0.408863 0.0987324 0.102519
771 4 0.449224 0.114631 0.103925
558 4 0.430284 0.110948 0.0983836
769 2 0.459804 0.136941 0.107858
338 4 0.0603083 0.237085 0.13523
237 4 0.101057 0.172242 0.132244
476 4 0.20838 0.185219 0.15522
477 4 0.204327 0.21774 0.117448
475 2 0.206353 0.20148 0.136334
352 2 0.249581 0.180797 0.10114
353 4 0.262641 0.183304 0.122313
461 4 0.280743 0.189908 0.121013
460 2 0.300651 0.201848 0.111722
462 4 0.320558 0.213788 0.102432
755 4 0.296466 0.262267 0.110678
279 4 0.26925 0.249455 0.16559
630 4 0.407029 0.237823 0.101463
770 4 0.470384 0.159252 0.111792
628 2 0.421281 0.235559 0.121881
624 4 0.431367 0.234017 0.163522
629 4 0.435534 0.233295 0.142299
337 2 0.0514255 0.258532 0.14452
339 4 0.0425428 0.279979 0.153809
612 4 0.230639 0.331626 0.105505
610 2 0.23523 0.307049 0.105755
611 4 0.23982 0.282471 0.106005
278 4 0.283947 0.271614 0.123238
277 2 0.276599 0.260535 0.144414
754 2 0.32057 0.259426 0.104669
739 2 0.339272 0.305586 0.0805399
740 4 0.335727 0.330143 0.0774463
253 2 0.378694 0.253694 0.0849269
255 4 0.358365 0.267985 0.0876958
756 4 0.344674 0.256584 0.0986607
596 4 0.391952 0.308619 0.18822
595 2 0.38815 0.329508 0.175015
619 2 0.0707206 0.394426 0.115798
621 4 0.0570123 0.406943 0.0990474
647 4 0.0724976 0.376122 0.147572
620 4 0.0844288 0.381909 0.132548
537 4 0.103885 0.3825 0.132043
535 2 0.126829 0.382612 0.122107
536 4 0.149774 0.382724 0.11217
609 4 0.229862 0.333529 0.0851568
386 4 0.329419 0.342608 0.0924758
387 4 0.341314 0.378319 0.125399
385 2 0.335366 0.360464 0.108938
302 4 0.348516 0.390333 0.143839
12 3 0.390727 0.365776 0.111103
11 1 0.384631 0.378241 0.12945
15 3 0.362021 0.380971 0.129488
672 4 0.398896 0.35117 0.0990521
14 3 0.3951 0.398916 0.128286
495 4 0.39997 0.413953 0.11553
13 3 0.391289 0.367062 0.148662
597 4 0.384348 0.350397 0.161811
301 2 0.349501 0.410504 0.158582
626 4 0.181041 0.442312 0.120823
1438 2 0.239323 0.467506 0.0892304
625 2 0.193169 0.447327 0.142106
1439 4 0.221473 0.457821 0.103817
638 4 0.218667 0.465646 0.158681
637 2 0.234966 0.484542 0.160246
627 4 0.205297 0.452343 0.163388
1559 4 0.312354 0.484663 0.101497
493 2 0.415255 0.418453 0.0962608
1583 4 0.481305 0.476634 0.106761
1582 2 0.463934 0.493802 0.101403
1420 2 0.0213821 0.00395682 0.176995
1421 4 0.0141361 0.00553766 0.200873
690 4 0.158863 0.0132083 0.228249
688 2 0.17804 0.000937551 0.217912
653 4 0.237091 0.0524142 0.171501
693 4 0.241029 0.0544573 0.191014
691 2 0.264058 0.0460609 0.195949
692 4 0.287087 0.0376645 0.200883
1699 2 0.311966 0.06019 0.225196
1701 4 0.292092 0.0544385 0.211155
1700 4 0.331839 0.0659415 0.239237
21 1 0.367169 0.0719678 0.23274
25 3 0.369213 0.0733613 0.210101
511 2 0.0178276 0.121395 0.222179
578 4 0.0507517 0.13988 0.230039
513 4 0.0386751 0.12499 0.235507
318 4 0.074958 0.100273 0.257486
449 4 0.141127 0.126841 0.158468
448 2 0.147936 0.107444 0.172701
450 4 0.154746 0.0880478 0.186934
28 3 0.23226 0.141578 0.173836
27 3 0.229302 0.135316 0.210778
26 1 0.24414 0.139108 0.193614
580 2 0.292044 0.110992 0.185073
581 4 0.269324 0.104826 0.193498
30 3 0.258383 0.121414 0.191965
582 4 0.314763 0.117158 0.176648
29 3 0.256074 0.158481 0.198158
23 3 0.346577 0.0803663 0.239362
759 4 0.359639 0.0885484 0.200222
24 3 0.384246 0.0838808 0.242979
757 2 0.349641 0.0958403 0.178495
311 4 0.462782 0.146601 0.218176
310 2 0.439323 0.154606 0.214892
577 2 0.0515777 0.164749 0.227592
529 2 0.0189767 0.217899 0.230524
530 4 0.040052 0.204446 0.23071
579 4 0.0524038 0.189619 0.225145
372 4 0.150623 0.241559 0.187624
362 4 0.130844 0.242244 0.183244
370 2 0.167033 0.227193 0.199852
371 4 0.183442 0.212827 0.212081
402 4 0.247658 0.222337 0.261632
284 4 0.296765 0.223621 0.21184
283 2 0.288107 0.227957 0.188788
285 4 0.279448 0.232294 0.165736
765 4 0.416834 0.19246 0.254955
312 4 0.415864 0.16261 0.211608
763 2 0.441738 0.190802 0.256435
521 4 0.478042 0.180771 0.242424
520 2 0.498955 0.175522 0.229765
396 4 0.0564488 0.291503 0.22
443 4 0.0707094 0.29913 0.233019
394 2 0.068264 0.289983 0.198016
395 4 0.0800791 0.288462 0.176033
363 4 0.0947752 0.276869 0.182314
361 2 0.11281 0.259556 0.182779
345 4 0.290163 0.346158 0.212971
622 2 0.443453 0.253083 0.174273
623 4 0.455539 0.272149 0.185025
527 4 0.449458 0.288793 0.176036
526 2 0.467527 0.305405 0.180803
528 4 0.485595 0.322018 0.185571
264 4 0.0422932 0.411311 0.214651
646 2 0.0883287 0.381497 0.166164
648 4 0.10416 0.386872 0.184756
300 4 0.0937386 0.375491 0.196795
298 2 0.103714 0.366241 0.217774
299 4 0.11369 0.356991 0.238752
343 2 0.293577 0.339238 0.236754
645 4 0.402066 0.36446 0.166988
447 4 0.415533 0.387991 0.218159
445 2 0.416138 0.403853 0.237478
643 2 0.406258 0.382122 0.184183
644 4 0.41045 0.399783 0.201379
2861 4 0.492037 0.412331 0.232794
108 3 0.497778 0.394301 0.226784
262 2 0.0425613 0.432479 0.227956
263 4 0.0428295 0.453647 0.24126
289 2 0.213281 0.434945 0.239407
417 4 0.184636 0.495091 0.192012
290 4 0.200333 0.436551 0.218077
416 4 0.204332 0.451404 0.206301
415 2 0.194484 0.473248 0.199156
303 4 0.350486 0.430674 0.173325
659 4 0.352123 0.445648 0.184686
658 2 0.356674 0.468897 0.192683
660 4 0.361226 0.492145 0.200679
231 4 0.363325 0.492093 0.22069
1403 4 0.042924 0.997765 0.287665
232 2 0.0391196 0.0311553 0.28858
234 4 0.0510567 0.0529308 0.291498
317 4 0.0453093 0.0656465 0.278045
233 4 0.0271826 0.00937973 0.285663
674 4 0.148124 0.0143993 0.245669
673 2 0.136817 0.0331996 0.257665
675 4 0.125511 0.0519999 0.26966
723 4 0.223811 0.0925308 0.250599
1406 4 0.209163 0.00737406 0.292456
684 4 0.251495 0.0367934 0.332506
22 3 0.368612 0.0499185 0.239135
698 4 0.385402 0.0490977 0.250571
697 2 0.381132 0.0358037 0.271313
699 4 0.376862 0.0225096 0.292055
333 4 0.393489 0.0674872 0.251134
331 2 0.415283 0.077467 0.258248
743 4 0.482463 0.026377 0.263406
742 2 0.477805 0.00424997 0.274077
351 4 0.48628 0.0436511 0.25417
349 2 0.468006 0.0585061 0.26257
350 4 0.449731 0.073361 0.27097
316 2 0.0601336 0.0829596 0.267765
393 4 0.139176 0.138433 0.334407
399 4 0.122193 0.129649 0.337724
391 2 0.140113 0.145109 0.31033
392 4 0.14105 0.151784 0.286252
545 4 0.144786 0.152419 0.266279
546 4 0.184803 0.1249 0.254365
721 2 0.216138 0.0989378 0.273518
722 4 0.208465 0.105345 0.296436
544 2 0.164795 0.138659 0.260322
599 4 0.197495 0.122434 0.295523
404 4 0.206873 0.140702 0.294668
598 2 0.188135 0.121172 0.318675
403 2 0.225534 0.151005 0.281601
405 4 0.244196 0.161308 0.268533
762 4 0.41372 0.125832 0.306524
332 4 0.437077 0.0874469 0.265361
761 4 0.461502 0.140345 0.309159
760 2 0.437611 0.133089 0.307841
401 4 0.238747 0.173959 0.252636
400 2 0.243203 0.198148 0.257134
764 4 0.466643 0.189145 0.257915
442 2 0.0678582 0.297926 0.25783
444 4 0.0650071 0.296722 0.282642
496 2 0.334045 0.296783 0.316403
309 4 0.28703 0.326732 0.277056
307 2 0.30465 0.335826 0.292288
498 4 0.328167 0.281732 0.335484
497 4 0.339924 0.311834 0.297322
613 2 0.405809 0.329736 0.319037
541 2 0.450226 0.288785 0.302221
542 4 0.468033 0.281919 0.286067
615 4 0.422614 0.311777 0.314541
543 4 0.43242 0.295651 0.318375
749 4 0.0620378 0.353537 0.279199
365 4 0.017513 0.358396 0.314001
364 2 0.0328687 0.348336 0.297026
366 4 0.0482245 0.338275 0.28005
748 2 0.0857529 0.349618 0.272314
735 4 0.15725 0.36375 0.28685
734 4 0.124801 0.347091 0.252641
750 4 0.109468 0.345699 0.265428
733 2 0.141026 0.35542 0.269745
602 4 0.116033 0.395407 0.316164
777 4 0.110353 0.411733 0.307621
676 2 0.160927 0.380993 0.324774
677 4 0.16543 0.365132 0.305976
414 4 0.234921 0.420983 0.271973
291 4 0.226228 0.433338 0.260737
412 2 0.240911 0.411119 0.294155
413 4 0.2469 0.401256 0.316336
344 4 0.296992 0.332318 0.260537
727 2 0.328173 0.381523 0.317307
728 4 0.320408 0.404916 0.321505
308 4 0.322269 0.344921 0.30752
729 4 0.335937 0.358129 0.313108
434 4 0.333249 0.423328 0.31858
614 4 0.389004 0.347696 0.323534
2924 4 0.493074 0.386545 0.314172
446 4 0.416742 0.419715 0.256797
1757 4 0.123606 0.458883 0.291026
776 4 0.102339 0.458353 0.291402
775 2 0.106346 0.435043 0.299511
1756 2 0.133301 0.481055 0.284732
1436 4 0.233056 0.474088 0.322627
768 4 0.189846 0.47426 0.246104
1545 4 0.223103 0.48253 0.338953
2 3 0.314016 0.42178 0.306706
1435 2 0.255723 0.467828 0.314131
438 4 0.306539 0.4781 0.258314
437 4 0.298271 0.451431 0.2998
436 2 0.302405 0.464765 0.279057
1437 4 0.27839 0.461568 0.305636
5 3 0.285114 0.443607 0.315711
1 1 0.300248 0.42864 0.323809
433 2 0.356813 0.431347 0.320942
435 4 0.380378 0.439367 0.323303
714 4 0.425452 0.427727 0.273225
713 4 0.438077 0.431975 0.321425
712 2 0.431764 0.429851 0.297325
429 4 0.0771942 0.0108182 0.370199
428 4 0.0396996 0.0402567 0.385307
427 2 0.0584469 0.0255374 0.377753
731 4 0.0986666 0.0515293 0.416528
606 4 0.143244 0.014656 0.370727
730 2 0.100441 0.0713576 0.4014
604 2 0.161848 0.0305096 0.36546
605 4 0.180452 0.0463632 0.360194
683 4 0.233957 0.0365782 0.379337
682 2 0.242726 0.0366858 0.355922
1749 4 0.489288 0.00267986 0.353474
1747 2 0.464765 0.998717 0.350626
424 2 0.436531 0.0470397 0.380344
426 4 0.457523 0.0604672 0.378291
425 4 0.415539 0.0336121 0.382397
258 4 0.454689 0.0753555 0.364538
732 4 0.102216 0.091186 0.386272
398 4 0.11748 0.105705 0.381373
397 2 0.119836 0.117677 0.359549
686 4 0.180291 0.142063 0.398492
600 4 0.178775 0.11991 0.341826
685 2 0.184903 0.12779 0.378488
687 4 0.189515 0.113517 0.358483
321 4 0.240328 0.0717568 0.390757
249 4 0.314574 0.0647063 0.362
410 4 0.263683 0.135656 0.384766
409 2 0.254878 0.155031 0.397891
319 2 0.244661 0.0882038 0.409085
707 4 0.271723 0.144846 0.33494
247 2 0.333514 0.0804533 0.357698
248 4 0.352453 0.0962002 0.353396
633 4 0.371809 0.100044 0.358713
632 4 0.401644 0.140067 0.361676
631 2 0.386727 0.120055 0.360195
420 4 0.393898 0.159307 0.361176
257 4 0.48033 0.111059 0.340694
256 2 0.46751 0.0932073 0.352616
616 2 0.0269475 0.250949 0.39707
274 2 0.161896 0.232692 0.350252
390 4 0.088189 0.239577 0.388951
389 4 0.130912 0.256912 0.369589
388 2 0.109551 0.248244 0.37927
473 4 0.238024 0.190016 0.343994
275 4 0.177147 0.215005 0.341323
474 4 0.193871 0.212346 0.351244
472 2 0.215947 0.201181 0.347619
411 4 0.246074 0.174406 0.411017
708 4 0.255343 0.187697 0.354846
489 4 0.252299 0.250608 0.401661
706 2 0.263533 0.166271 0.344893
717 4 0.318933 0.231159 0.377392
418 2 0.378187 0.17488 0.372829
419 4 0.362475 0.190454 0.384482
716 4 0.359189 0.202664 0.369131
715 2 0.339061 0.216912 0.373262
515 4 0.459344 0.176807 0.373291
514 2 0.448483 0.173027 0.395493
617 4 0.0510122 0.246447 0.402149
276 4 0.146644 0.250379 0.359182
695 4 0.105257 0.285448 0.413329
488 4 0.25941 0.288805 0.370178
377 4 0.312996 0.249317 0.385381
487 2 0.255854 0.269707 0.38592
510 4 0.262849 0.333751 0.342403
508 2 0.265644 0.309606 0.348267
509 4 0.268439 0.285461 0.354131
376 2 0.312349 0.264469 0.365502
378 4 0.311701 0.279622 0.345623
267 4 0.352941 0.326125 0.356177
265 2 0.360793 0.305806 0.36845
266 4 0.368646 0.285486 0.380723
585 4 0.361575 0.273403 0.393796
583 2 0.378929 0.27687 0.41146
2456 4 0.413305 0.276305 0.416302
270 4 0.497904 0.27104 0.393536
306 4 0.499228 0.264066 0.411867
269 4 0.463062 0.28579 0.360837
268 2 0.480483 0.278415 0.377187
2493 4 0.0123872 0.352629 0.332528
2491 2 0.00240931 0.373249 0.34255
547 2 0.0670237 0.402804 0.376956
549 4 0.0798807 0.384309 0.366102
601 2 0.104031 0.384536 0.335214
603 4 0.0920286 0.373664 0.354265
678 4 0.156424 0.396854 0.343571
710 4 0.144183 0.416324 0.410652
374 4 0.254398 0.352052 0.339593
502 2 0.188761 0.398584 0.372032
504 4 0.193718 0.376939 0.360539
373 2 0.231025 0.359145 0.344938
375 4 0.207652 0.366239 0.350283
559 2 0.491289 0.416392 0.417656
548 4 0.0541666 0.421299 0.38781
407 4 0.039246 0.432179 0.395637
406 2 0.0381748 0.457142 0.394698
408 4 0.0371036 0.482105 0.39376
503 4 0.183803 0.42023 0.383524
636 4 0.191665 0.420641 0.401713
634 2 0.189655 0.443941 0.410561
3 3 0.289235 0.410136 0.332455
668 4 0.321244 0.446895 0.35721
4 3 0.313173 0.438591 0.340311
667 2 0.33091 0.436695 0.377892
669 4 0.340576 0.426496 0.398573
753 4 0.486484 0.437957 0.335685
561 4 0.484741 0.436427 0.404206
752 4 0.492035 0.434858 0.385286
751 2 0.48926 0.436407 0.360485
718 2 0.04115 0.0532147 0.492447
719 4 0.062758 0.0550581 0.480002
369 4 0.0820799 0.0582413 0.472865
367 2 0.0920288 0.0475359 0.452577
368 4 0.101978 0.0368304 0.432289
2430 4 0.212216 0.0695171 0.447976
2428 2 0.216606 0.0481141 0.435818
2429 4 0.220996 0.026711 0.42366
441 4 0.232666 0.0174979 0.436959
950 4 0.23466 0.0533712 0.497583
726 4 0.296297 0.0835036 0.467008
432 4 0.298594 0.0706765 0.482673
430 2 0.322868 0.0721637 0.488478
2879 4 0.466714 0.0458355 0.413712
2878 2 0.460606 0.0632641 0.430567
2880 4 0.454498 0.0806927 0.447423
642 4 0.471593 0.0913266 0.445086
2584 2 0.0100119 0.0874738 0.43214
2586 4 0.0295157 0.0993431 0.442334
341 4 0.214389 0.0829218 0.462154
340 2 0.205979 0.106457 0.462876
1152 4 0.184015 0.124794 0.47847
342 4 0.197568 0.129993 0.463597
320 4 0.248994 0.104651 0.427412
724 2 0.279034 0.0973156 0.455329
725 4 0.261772 0.111128 0.443649
467 4 0.339342 0.0962226 0.433525
466 2 0.359296 0.100403 0.419049
468 4 0.379249 0.104584 0.404572
641 4 0.50446 0.110317 0.47764
576 4 0.421274 0.133115 0.45993
640 2 0.488027 0.100822 0.461363
574 2 0.429705 0.140941 0.43773
575 4 0.438136 0.148767 0.415529
469 2 0.0738226 0.228703 0.456362
470 4 0.0650626 0.252116 0.456848
471 4 0.0825826 0.205289 0.455875
260 4 0.0970664 0.189584 0.450005
259 2 0.10239 0.183171 0.473578
650 4 0.255375 0.18762 0.423854
651 4 0.246281 0.236129 0.4158
649 2 0.250828 0.211874 0.419827
516 4 0.437622 0.169246 0.417694
348 4 0.00255608 0.320397 0.45748
2814 4 0.0101577 0.315456 0.474359
2812 2 0.00998352 0.336341 0.488105
694 2 0.124227 0.294482 0.426884
696 4 0.143196 0.303516 0.440439
1260 4 0.153998 0.308219 0.457313
1258 2 0.175729 0.296552 0.461421
1259 4 0.197459 0.284886 0.465528
584 4 0.396282 0.280338 0.429124
2457 4 0.454308 0.304905 0.417561
2455 2 0.433806 0.290605 0.416931
326 4 0.0694036 0.378866 0.443612
2813 4 0.00980932 0.357227 0.501851
10 3 0.128019 0.337689 0.458453
709 2 0.153013 0.395162 0.420621
325 2 0.0932669 0.376176 0.450574
7 3 0.131121 0.372507 0.471527
327 4 0.11713 0.373486 0.457537
6 1 0.14264 0.354588 0.462846
8 3 0.153187 0.361221 0.443271
9 3 0.158409 0.347581 0.478358
711 4 0.161843 0.374 0.430589
334 2 0.347668 0.40837 0.430502
335 4 0.359787 0.390644 0.443312
238 2 0.359708 0.380023 0.475728
240 4 0.366978 0.37414 0.452539
1382 4 0.0369284 0.465638 0.473169
1381 2 0.0151876 0.465786 0.46082
1383 4 0.993447 0.465935 0.448471
540 4 0.0504352 0.453449 0.481237
538 2 0.0499613 0.464186 0.503813
570 4 0.126194 0.423218 0.411247
384 4 0.13191 0.479242 0.466718
772 2 0.152538 0.475837 0.439562
382 2 0.126916 0.473436 0.49052
773 4 0.128754 0.475555 0.44727
568 2 0.105334 0.433998 0.419838
569 4 0.0844727 0.444777 0.42843
635 4 0.187645 0.46724 0.419408
774 4 0.176322 0.476119 0.431853
1401 4 0.303637 0.453239 0.476957
1399 2 0.323012 0.463329 0.464791
588 4 0.33827 0.492446 0.447957
1400 4 0.342386 0.473419 0.452624
336 4 0.335549 0.426097 0.417692
1126 2 0.00322746 0.0506853 0.535769
1127 4 0.0019991 0.0580178 0.511896
720 4 0.019542 0.0513713 0.504892
951 4 0.19848 0.0271613 0.52005
1031 4 0.17813 0.0307626 0.518328
1030 2 0.174878 0.0292767 0.543075
949 2 0.21657 0.0402662 0.508816
1032 4 0.171626 0.0277908 0.567821
1182 4 0.243611 0.0581548 0.514266
961 2 0.303135 0.0311716 0.552093
1180 2 0.268227 0.0544273 0.516581
963 4 0.306211 0.0463206 0.53244
1181 4 0.292842 0.0506998 0.518896
962 4 0.30006 0.0160226 0.571745
841 2 0.372276 0.0468951 0.507839
843 4 0.349859 0.0552328 0.500551
842 4 0.394694 0.0385573 0.515127
1217 4 0.407128 0.0349597 0.530682
431 4 0.347143 0.0736509 0.494284
1218 4 0.426493 0.0441849 0.575855
1216 2 0.41681 0.0395723 0.553269
1034 4 0.0852945 0.153737 0.510841
939 4 0.150495 0.152895 0.520587
937 2 0.130773 0.168039 0.517968
1151 4 0.162578 0.135005 0.522481
1150 2 0.173296 0.129899 0.500475
857 4 0.301473 0.147101 0.574275
899 4 0.319032 0.145598 0.584182
856 2 0.282623 0.163261 0.571326
898 2 0.336588 0.146411 0.566398
900 4 0.354145 0.147225 0.548613
872 4 0.350407 0.166482 0.540707
1033 2 0.0742446 0.174054 0.520343
1035 4 0.0631946 0.194371 0.529846
1082 4 0.0599726 0.208456 0.543729
1081 2 0.0511813 0.20176 0.566158
1083 4 0.0423899 0.195065 0.588587
938 4 0.11105 0.183183 0.515349
261 4 0.107714 0.176758 0.497152
797 4 0.254525 0.196189 0.566591
811 2 0.313431 0.234618 0.538121
812 4 0.289141 0.24009 0.540409
796 2 0.262335 0.217736 0.556595
798 4 0.270145 0.239283 0.5466
813 4 0.337721 0.229147 0.535833
873 4 0.347555 0.214345 0.526504
871 2 0.348981 0.190414 0.533605
904 2 0.452582 0.235057 0.567276
878 4 0.0782512 0.282959 0.577994
954 4 0.420078 0.308715 0.569145
905 4 0.446482 0.254169 0.552353
952 2 0.43637 0.290463 0.563986
953 4 0.452661 0.27221 0.558826
1135 2 0.159024 0.401895 0.543721
1137 4 0.177677 0.385304 0.542313
896 4 0.212701 0.341755 0.553544
1191 4 0.219417 0.345006 0.536571
897 4 0.169892 0.367095 0.548443
895 2 0.191296 0.354425 0.550994
1189 2 0.241298 0.345366 0.524478
1190 4 0.26318 0.345726 0.512384
803 4 0.2741 0.359067 0.524855
802 2 0.29632 0.36922 0.530177
804 4 0.318541 0.379373 0.535499
929 4 0.333683 0.383933 0.547268
928 2 0.346148 0.372595 0.565741
930 4 0.358612 0.361257 0.584215
239 4 0.352438 0.385905 0.498916
925 2 0.470288 0.397015 0.532339
927 4 0.469341 0.399449 0.507472
1001 4 0.476964 0.407015 0.571348
926 4 0.471235 0.394582 0.557206
2712 4 0.484288 0.402344 0.493295
539 4 0.0494875 0.474923 0.526389
936 4 0.0104608 0.459876 0.54511
1136 4 0.140371 0.418486 0.545129
383 4 0.121922 0.46763 0.514322
2244 4 0.176723 0.495301 0.54111
2242 2 0.180042 0.48512 0.563704
1173 4 0.229923 0.443347 0.585045
1171 2 0.248453 0.452515 0.570983
1172 4 0.266984 0.461683 0.556922
882 4 0.284756 0.466235 0.547715
880 2 0.290819 0.49043 0.545976
1059 4 0.0724083 0.071607 0.585309
1185 4 0.0275224 0.0519556 0.637359
945 4 0.0323236 0.0547268 0.65629
825 4 0.0702097 0.0194744 0.611951
1057 2 0.0746276 0.0470736 0.589594
1058 4 0.0768469 0.0225402 0.59388
1183 2 0.00654556 0.0654895 0.638767
2195 4 0.284957 0.00585304 0.579668
1005 4 0.301751 0.0351749 0.665372
1003 2 0.316093 0.0544022 0.658315
1004 4 0.330435 0.0736295 0.651258
2283 4 0.435279 0.00596373 0.602681
2282 4 0.447338 0.0317098 0.64382
2281 2 0.441308 0.0188368 0.623251
43 3 0.461758 0.0449385 0.653349
45 3 0.497054 0.0572699 0.648903
41 1 0.479386 0.056332 0.663241
44 3 0.472711 0.0777971 0.668994
4467 4 0.434603 0.998787 0.58343
1155 4 0.080532 0.0892716 0.586018
1198 2 0.0132457 0.163324 0.586415
1200 4 0.994912 0.147193 0.581045
1153 2 0.0999613 0.104612 0.589532
1154 4 0.119391 0.119953 0.593046
1221 4 0.127749 0.110642 0.607836
1219 2 0.137788 0.120554 0.628479
1220 4 0.147828 0.130466 0.649122
1283 4 0.156353 0.121268 0.664798
1212 4 0.240106 0.142515 0.618476
1210 2 0.246531 0.145506 0.642454
1211 4 0.252956 0.148497 0.666432
1199 4 0.0315797 0.179455 0.591785
879 4 0.0764048 0.244831 0.610299
1272 4 0.0791431 0.232273 0.625548
1270 2 0.102798 0.224216 0.62638
1271 4 0.126453 0.216158 0.627212
909 4 0.141468 0.204847 0.619728
907 2 0.159984 0.218772 0.62913
908 4 0.1785 0.232698 0.638533
858 4 0.263772 0.17942 0.568376
1025 4 0.403017 0.205734 0.65335
1143 4 0.391955 0.204208 0.671542
1024 2 0.407733 0.205857 0.628795
906 4 0.458683 0.215946 0.5822
1026 4 0.412449 0.20598 0.604241
3123 4 0.452387 0.216669 0.655128
877 2 0.077328 0.263895 0.594146
947 4 0.184296 0.251509 0.636686
946 2 0.171657 0.271921 0.643669
948 4 0.159017 0.292334 0.650651
1237 2 0.240384 0.331611 0.59307
1239 4 0.220069 0.34299 0.602179
792 4 0.273864 0.304903 0.58651
791 4 0.295588 0.295116 0.630475
790 2 0.284726 0.30001 0.608492
1205 4 0.406241 0.319842 0.578005
982 2 0.995516 0.392347 0.639969
983 4 0.0136431 0.40454 0.652131
1041 4 0.0288381 0.399257 0.63945
1039 2 0.0504596 0.407088 0.629634
992 4 0.131117 0.409939 0.633902
991 2 0.108202 0.405445 0.624963
993 4 0.0852875 0.400952 0.616024
1238 4 0.2607 0.320232 0.583961
1206 4 0.370495 0.350685 0.594488
1204 2 0.388368 0.335263 0.586246
1000 2 0.45959 0.421281 0.582293
1040 4 0.072081 0.414919 0.619817
2243 4 0.183362 0.474939 0.586299
1161 4 0.178464 0.466268 0.603005
1160 4 0.208911 0.449428 0.638923
1159 2 0.193687 0.457848 0.620964
890 4 0.308989 0.444207 0.626446
889 2 0.325325 0.462641 0.63075
891 4 0.341661 0.481074 0.635054
1187 4 0.319704 0.505695 0.639144
1952 4 0.350052 0.499249 0.634649
1911 4 0.423977 0.487864 0.581767
3330 4 0.495624 0.414567 0.669453
1910 4 0.426534 0.442651 0.602979
1002 4 0.442215 0.435547 0.593237
1909 2 0.425256 0.465257 0.592373
3328 2 0.489134 0.431065 0.651823
3329 4 0.482643 0.447564 0.634192
1268 4 0.451871 0.493398 0.649822
943 2 0.0445345 0.0516054 0.677885
944 4 0.0567454 0.0484841 0.69948
1075 2 0.0659487 0.0483042 0.733437
1076 4 0.0732243 0.0542339 0.710262
2319 4 0.0395116 0.00795001 0.737875
2317 2 0.0151972 0.0110057 0.73291
2285 4 0.0549985 0.00493976 0.72583
1148 4 0.200567 0.0488701 0.740915
42 3 0.485699 0.0451426 0.682322
1163 4 0.488526 0.0464889 0.702003
1282 2 0.178377 0.124481 0.67619
1284 4 0.200401 0.127695 0.687583
1227 4 0.200701 0.122912 0.707464
1225 2 0.21067 0.141958 0.720233
1226 4 0.220639 0.161005 0.733001
888 4 0.262296 0.150762 0.684826
886 2 0.279158 0.142874 0.701517
887 4 0.296021 0.134986 0.718209
830 4 0.312831 0.124405 0.725542
829 2 0.337702 0.124777 0.723002
831 4 0.362574 0.125149 0.720462
1144 2 0.479173 0.165614 0.750468
1107 4 0.0255395 0.190487 0.729479
851 4 0.00612705 0.197277 0.727674
1105 2 0.0419066 0.179959 0.745178
850 2 0.993051 0.214752 0.715476
1208 4 0.0734161 0.237145 0.698172
822 4 0.138389 0.233395 0.701277
1278 4 0.151902 0.221436 0.693443
820 2 0.113934 0.235666 0.70597
821 4 0.0894805 0.237938 0.710662
1276 2 0.171293 0.22139 0.709228
1130 4 0.234143 0.175412 0.731264
1277 4 0.190685 0.221343 0.725012
1129 2 0.218407 0.194357 0.735585
1131 4 0.202672 0.213302 0.739906
916 2 0.288792 0.210775 0.743
918 4 0.278683 0.188178 0.746513
977 4 0.289707 0.17142 0.742853
917 4 0.298902 0.233373 0.739486
1141 2 0.368994 0.214088 0.670972
1142 4 0.346032 0.223968 0.670401
1194 4 0.402247 0.205672 0.739253
3121 2 0.474578 0.21379 0.666283
3122 4 0.496769 0.21091 0.677439
1262 4 0.413517 0.210243 0.724076
1145 4 0.463774 0.174633 0.732954
1261 2 0.431341 0.192993 0.720922
1263 4 0.449164 0.175744 0.717768
1243 2 0.0151281 0.320212 0.706123
1209 4 0.0520673 0.268466 0.665554
1207 2 0.0627417 0.252805 0.681863
1244 4 0.0338858 0.333283 0.696
1065 4 0.193449 0.288048 0.686034
1064 4 0.222033 0.27076 0.723247
1063 2 0.207741 0.279404 0.704641
1097 4 0.290903 0.25098 0.745271
1008 4 0.334693 0.257292 0.727067
805 2 0.413281 0.323175 0.751619
806 4 0.418908 0.298821 0.752241
3113 4 0.492324 0.338015 0.722144
893 4 0.0914908 0.36606 0.687612
892 2 0.0857204 0.386536 0.700751
894 4 0.0799499 0.407012 0.713889
941 4 0.157532 0.41197 0.713152
940 2 0.148259 0.420516 0.734743
1066 2 0.185934 0.404714 0.69961
1067 4 0.163552 0.395156 0.705339
1028 4 0.228622 0.414698 0.689925
1068 4 0.208317 0.414273 0.69388
1027 2 0.252401 0.41242 0.68254
1029 4 0.27618 0.410142 0.675155
807 4 0.407655 0.347529 0.750998
1279 2 0.0934398 0.432249 0.739958
1983 4 0.0308786 0.479318 0.744006
2021 4 0.0519833 0.480623 0.73727
2020 2 0.0689221 0.487761 0.720321
1281 4 0.0897713 0.42426 0.716551
2172 4 0.16448 0.503998 0.687011
1139 4 0.295008 0.416158 0.681764
1138 2 0.304102 0.427392 0.702167
1140 4 0.313195 0.438626 0.72257
1989 4 0.309871 0.454207 0.738525
1229 4 0.333902 0.436944 0.730506
1228 2 0.357028 0.432701 0.739013
1250 4 0.491799 0.474471 0.738718
1100 4 0.487953 0.492055 0.747721
1077 4 0.0586732 0.0423745 0.756612
1203 4 0.0593641 0.0410793 0.777645
1201 2 0.0776417 0.0250388 0.78346
2049 4 0.104322 0.00212465 0.771572
1202 4 0.0959193 0.00899844 0.789275
1147 2 0.216692 0.0639992 0.752589
1149 4 0.232817 0.0791284 0.764263
1049 4 0.243998 0.0801237 0.780516
1257 4 0.297047 0.982686 0.755258
1048 2 0.260967 0.0622383 0.784678
1050 4 0.277937 0.0443529 0.788839
819 4 0.388143 0.0803973 0.816248
846 4 0.46256 0.0275292 0.7998
1113 4 0.456349 0.0203396 0.782656
844 2 0.483576 0.0409878 0.801339
832 2 0.0386768 0.143721 0.792111
863 4 0.0368632 0.120804 0.818276
833 4 0.0240373 0.127855 0.804725
33 3 0.0712445 0.153444 0.786723
834 4 0.0533163 0.159587 0.779496
1106 4 0.0582738 0.16943 0.760877
862 2 0.0424759 0.100346 0.83151
31 1 0.0868897 0.158742 0.770427
32 3 0.0974274 0.13944 0.76368
1073 4 0.116559 0.159811 0.787211
840 4 0.2073 0.121019 0.765738
838 2 0.225158 0.109553 0.77896
839 4 0.243016 0.0980873 0.792181
978 4 0.306202 0.148619 0.78419
976 2 0.297955 0.16002 0.763521
959 4 0.25979 0.106316 0.793689
958 2 0.270164 0.109788 0.816173
1084 2 0.380982 0.115715 0.795118
1085 4 0.377186 0.0930894 0.805061
1086 4 0.384779 0.13834 0.785176
1299 4 0.388678 0.154841 0.774714
3269 4 0.513798 0.133863 0.817992
1146 4 0.494572 0.156596 0.767981
3270 4 0.484202 0.158454 0.786052
3268 2 0.499 0.146158 0.802022
3468 4 0.512134 0.146203 0.832933
1214 4 0.0324605 0.237495 0.794457
35 3 0.0765379 0.168287 0.752528
778 2 0.0681247 0.229251 0.810525
1213 2 0.0113698 0.249724 0.800007
779 4 0.0460931 0.223984 0.79994
34 3 0.102739 0.173303 0.779099
780 4 0.0901563 0.234518 0.82111
1072 2 0.129901 0.172976 0.803758
1074 4 0.143244 0.186141 0.820306
1192 2 0.394424 0.227613 0.748339
1193 4 0.386601 0.249554 0.757426
1297 2 0.399491 0.17424 0.786201
1298 4 0.410304 0.193638 0.797689
47 3 0.397202 0.207134 0.806314
1043 4 0.396284 0.246124 0.810784
46 1 0.406558 0.213723 0.826268