ITEM: TIMESTEP
2840000
ITEM: NUMBER OF ATOMS
4590
ITEM: BOX BOUNDS pp pp pp
-9.9985700000000008e+00 9.9985700000000008e+00
-9.9985700000000008e+00 9.9985700000000008e+00
-9.9985700000000008e+00 9.9985700000000008e+00
ITEM: ATOMS id type xs ys zs
463 2 0.0312497 0.0405814 0.00619933
464 4 0.0327303 0.015734 0.0085648
1668 4 0.0465554 0.034998 0.0372069
1666 2 0.0379466 0.0365409 0.0606309
3290 4 0.0646641 0.0382498 0.0464173
701 4 0.0351275 0.0832786 0.00831697
3289 2 0.0801005 0.0307472 0.0282347
565 2 0.164295 0.0363049 0.020701
566 4 0.1466 0.0290539 0.00459191
3291 4 0.0955368 0.0232446 0.010052
567 4 0.181989 0.0435559 0.03681
490 2 0.297183 0.00396929 0.0551285
491 4 0.305837 0.0214908 0.0395311
985 2 0.302005 0.0392913 0.00614025
987 4 0.314983 0.0325496 0.0264211
745 2 0.458484 0.041207 0.0535486
746 4 0.438185 0.0519435 0.0436566
747 4 0.478783 0.0304704 0.0634405
1826 4 0.49614 0.022216 0.0616328
460 2 0.301226 0.153501 0.0527799
462 4 0.314895 0.133483 0.0466454
2724 4 0.482344 0.0912713 0.0786695
422 4 0.0611163 0.185441 0.0274268
421 2 0.0756481 0.176651 0.00907667
505 2 0.145078 0.242969 0.0438237
506 4 0.163596 0.226328 0.0461354
737 4 0.183146 0.224883 0.045073
736 2 0.199847 0.206673 0.0489005
738 4 0.216548 0.188463 0.0527279
354 4 0.219979 0.174761 0.0653273
352 2 0.244663 0.17168 0.0628076
461 4 0.287556 0.173518 0.0589144
353 4 0.269348 0.168599 0.0602879
665 4 0.337258 0.209999 0.0216085
1069 2 0.385082 0.24452 0.00228044
828 4 0.47719 0.231216 0.0280733
519 4 0.499616 0.239193 0.0565471
826 2 0.480728 0.216551 0.00813352
324 4 0.44273 0.25608 0.0368461
2807 4 0.00611605 0.25932 0.00271073
292 2 0.104355 0.286507 0.0681645
293 4 0.114702 0.266796 0.0567812
507 4 0.126561 0.25961 0.041512
612 4 0.276241 0.292298 0.0541068
610 2 0.274402 0.282276 0.0769397
609 4 0.272169 0.310557 0.0602566
482 4 0.301842 0.299605 0.0176543
481 2 0.28743 0.284582 0.00380558
1071 4 0.364422 0.247746 0.0159887
573 4 0.365517 0.267316 0.0196301
571 2 0.35062 0.28614 0.0126383
323 4 0.486609 0.254209 0.060761
322 2 0.464669 0.255144 0.0488036
630 4 0.420508 0.264009 0.085159
1288 2 0.193837 0.409129 0.0132419
1289 4 0.191789 0.390134 0.0293717
988 2 0.181964 0.35379 0.00872457
989 4 0.18914 0.370121 0.0262459
741 4 0.329013 0.357409 0.00365213
739 2 0.331569 0.351482 0.0278082
250 2 0.287589 0.394684 0.0513425
252 4 0.272805 0.376312 0.0430306
607 2 0.275241 0.333886 0.0518002
608 4 0.278314 0.357215 0.0433438
740 4 0.334125 0.345555 0.0519643
386 4 0.343289 0.356387 0.0666669
226 2 0.386472 0.386437 0.0228507
228 4 0.378481 0.404382 0.0383203
227 4 0.394463 0.368492 0.00738102
671 4 0.417077 0.362299 0.0637689
525 4 0.368141 0.421305 0.0392037
281 4 0.431691 0.347893 0.0612825
280 2 0.456563 0.34636 0.0633362
282 4 0.481434 0.344827 0.0653899
1047 4 0.495207 0.336744 0.0516343
104 3 0.487002 0.35038 0.0828849
552 4 0.0300641 0.462268 0.0523833
314 4 0.0290368 0.448153 0.0651581
550 2 0.0130215 0.479973 0.0477724
313 2 0.0246152 0.429381 0.0810705
1956 4 0.99462 0.498642 0.0228439
1786 2 0.159466 0.496904 0.0594575
243 4 0.230002 0.469552 0.0581872
1440 4 0.230656 0.457946 0.0751858
241 2 0.208166 0.471049 0.0460991
242 4 0.18633 0.472547 0.0340109
1787 4 0.174846 0.485873 0.0431191
1290 4 0.195884 0.428124 0.997112
251 4 0.302373 0.413056 0.0596544
524 4 0.319439 0.418857 0.0502851
271 2 0.276446 0.47963 0.0674279
272 4 0.295315 0.46338 0.0651808
523 2 0.34379 0.420081 0.0447444
1583 4 0.454001 0.446132 0.0703941
1582 2 0.450552 0.470848 0.0719343
1584 4 0.447103 0.495565 0.0734745
1667 4 0.0293378 0.0380837 0.084055
16 1 0.0336855 0.0464129 0.122004
2480 4 0.0148033 0.0603365 0.153194
18 3 0.0393298 0.0689187 0.121827
19 3 0.0192071 0.0420155 0.139595
17 3 0.0231445 0.041234 0.102225
20 3 0.0524742 0.0337055 0.124042
1422 4 0.0116113 0.0418958 0.162055
652 2 0.236039 0.0488209 0.164063
654 4 0.232608 0.0314951 0.146365
1476 4 0.24529 0.0253896 0.133793
1475 4 0.287871 0.0193288 0.10828
1474 2 0.266581 0.0223592 0.121037
297 4 0.362649 0.0512779 0.122864
295 2 0.38545 0.0614832 0.121814
296 4 0.408252 0.0716885 0.120764
484 2 0.345081 0.0190138 0.122571
485 4 0.348115 0.0419684 0.113134
557 4 0.425017 0.0763896 0.109768
556 2 0.44627 0.0830847 0.121111
450 4 0.100291 0.093392 0.0911047
236 4 0.144894 0.126244 0.128637
449 4 0.126193 0.123181 0.121803
448 2 0.113242 0.108286 0.106454
235 2 0.162323 0.138682 0.115725
237 4 0.179751 0.15112 0.102812
580 2 0.312232 0.123789 0.147715
582 4 0.327716 0.104494 0.144089
581 4 0.296749 0.143084 0.151342
30 3 0.285512 0.154465 0.161403
758 4 0.345783 0.0953773 0.151602
558 4 0.467522 0.0897799 0.132455
771 4 0.480755 0.10544 0.132751
769 2 0.482924 0.114373 0.156003
370 2 0.175325 0.214894 0.158015
371 4 0.197522 0.208355 0.148545
476 4 0.211677 0.213221 0.162368
456 4 0.0829373 0.315627 0.0934528
704 4 0.0285833 0.295436 0.162888
339 4 0.0469762 0.291153 0.166472
294 4 0.0940078 0.306219 0.0795477
611 4 0.272563 0.272253 0.0997727
279 4 0.262605 0.253203 0.150469
277 2 0.26029 0.255916 0.125721
278 4 0.257975 0.258628 0.100973
285 4 0.278076 0.266356 0.148057
254 4 0.400703 0.261762 0.0848258
754 2 0.353566 0.259338 0.157587
756 4 0.356312 0.262121 0.132891
253 2 0.380051 0.262956 0.0988709
255 4 0.359399 0.26415 0.112916
624 4 0.43895 0.261573 0.141691
629 4 0.44777 0.254632 0.12602
628 2 0.434139 0.259321 0.105589
622 2 0.433937 0.258651 0.166012
619 2 0.040344 0.384788 0.116685
620 4 0.0561899 0.379412 0.135264
621 4 0.0244981 0.390164 0.0981057
315 4 0.0201936 0.410608 0.0969829
454 2 0.0909133 0.339043 0.0898074
455 4 0.0988893 0.362458 0.0861619
537 4 0.137819 0.383189 0.161894
535 2 0.147371 0.38453 0.138826
536 4 0.156923 0.385872 0.115758
625 2 0.234604 0.403195 0.137674
627 4 0.24148 0.411629 0.115163
626 4 0.227728 0.394761 0.160185
301 2 0.33751 0.417025 0.126159
670 2 0.407378 0.363556 0.0867804
385 2 0.351083 0.367894 0.0874519
387 4 0.358877 0.379401 0.108237
12 3 0.403593 0.37535 0.127889
11 1 0.391793 0.394993 0.129901
15 3 0.372188 0.393172 0.118456
672 4 0.397679 0.364813 0.109792
302 4 0.351 0.396308 0.122417
13 3 0.387511 0.398904 0.152368
596 4 0.338159 0.35902 0.170588
1466 4 0.00548379 0.489434 0.130375
1431 4 0.16065 0.491637 0.156035
1438 2 0.228506 0.441304 0.0937222
1439 4 0.226356 0.424662 0.112259
1574 4 0.267759 0.496565 0.133206
639 4 0.261524 0.48067 0.123513
638 4 0.292357 0.460564 0.157363
637 2 0.27694 0.470617 0.140438
303 4 0.324019 0.437741 0.129901
659 4 0.332271 0.440832 0.148111
1559 4 0.360177 0.496615 0.129751
14 3 0.404503 0.412311 0.121128
494 4 0.401695 0.472407 0.0954531
495 4 0.413901 0.43078 0.120331
493 2 0.407798 0.451593 0.107892
658 2 0.337269 0.454291 0.168582
2479 2 0.0137669 0.0830026 0.163698
674 4 0.158682 0.062269 0.219658
673 2 0.159536 0.0788139 0.238385
689 4 0.196348 0.0410277 0.184555
690 4 0.160601 0.0716801 0.201387
1505 4 0.192948 0.0214296 0.185546
653 4 0.23947 0.0661468 0.181761
688 2 0.178474 0.0563539 0.192971
693 4 0.256823 0.0640963 0.1899
691 2 0.273495 0.0616914 0.208378
1699 2 0.323989 0.0736753 0.227465
692 4 0.290167 0.0592865 0.226857
1701 4 0.301239 0.0719902 0.237701
1700 4 0.34674 0.0753604 0.21723
22 3 0.39015 0.0488296 0.222046
698 4 0.404231 0.055394 0.236781
21 1 0.380969 0.0697126 0.219088
333 4 0.412409 0.0739957 0.231362
23 3 0.361224 0.0710107 0.231206
25 3 0.376729 0.0729754 0.196952
759 4 0.356353 0.0785296 0.197484
697 2 0.415719 0.038182 0.250815
351 4 0.507775 0.0705429 0.240983
2481 4 0.0127306 0.105669 0.174203
513 4 0.0277609 0.150077 0.229482
578 4 0.0435324 0.162722 0.230088
511 2 0.00470261 0.143309 0.222576
28 3 0.257315 0.136508 0.178728
27 3 0.27426 0.165764 0.195147
26 1 0.267415 0.15706 0.174984
757 2 0.351068 0.0869535 0.174543
24 3 0.396001 0.0856633 0.226705
349 2 0.48993 0.0844612 0.230352
770 4 0.485092 0.123307 0.179255
312 4 0.475074 0.127471 0.196075
310 2 0.485032 0.139841 0.215388
350 4 0.472085 0.0983796 0.219722
331 2 0.433591 0.0870734 0.229018
332 4 0.454772 0.100151 0.226674
311 4 0.494991 0.152211 0.234701
577 2 0.0366863 0.1867 0.231919
529 2 0.0231811 0.240783 0.225747
530 4 0.0342384 0.227647 0.243924
579 4 0.0298403 0.210679 0.23375
372 4 0.153127 0.221433 0.167486
362 4 0.150203 0.234622 0.183188
361 2 0.129486 0.246347 0.190837
29 3 0.252251 0.171685 0.16526
475 2 0.22422 0.192953 0.16992
477 4 0.236764 0.172685 0.177473
337 2 0.0707278 0.287201 0.173212
531 4 0.0121238 0.253918 0.207571
2483 4 0.00499746 0.255409 0.18825
703 2 0.0207682 0.308918 0.182441
705 4 0.012953 0.3224 0.201995
2615 4 0.0162821 0.338316 0.215435
338 4 0.0944794 0.28325 0.179952
395 4 0.103232 0.290234 0.19805
396 4 0.106623 0.287869 0.247886
394 2 0.104928 0.289051 0.222968
363 4 0.108768 0.258071 0.198486
283 2 0.288468 0.272996 0.169807
284 4 0.298861 0.279636 0.191558
755 4 0.35082 0.256554 0.182283
528 4 0.416152 0.317549 0.222521
623 4 0.428923 0.255728 0.190333
527 4 0.426937 0.275678 0.197397
526 2 0.421545 0.296614 0.209959
263 4 0.0547582 0.412937 0.234667
647 4 0.131858 0.396922 0.175943
300 4 0.0963509 0.34948 0.209419
646 2 0.117906 0.378084 0.184639
648 4 0.103953 0.359245 0.193335
298 2 0.0956738 0.348358 0.234388
289 2 0.220585 0.40698 0.244619
416 4 0.19921 0.407714 0.207015
290 4 0.213532 0.404592 0.22075
345 4 0.33414 0.359784 0.213856
645 4 0.389638 0.409819 0.171412
597 4 0.370455 0.39699 0.16659
595 2 0.354307 0.378005 0.168589
343 2 0.341441 0.359375 0.237767
542 4 0.425825 0.331147 0.234921
1430 4 0.162404 0.454035 0.188955
417 4 0.16715 0.446088 0.207532
1429 2 0.161527 0.472836 0.172495
415 2 0.18318 0.426901 0.207273
438 4 0.272743 0.454351 0.224757
643 2 0.39583 0.426684 0.188803
229 2 0.365931 0.497105 0.211666
644 4 0.402023 0.443548 0.206193
660 4 0.342266 0.467749 0.189054
231 4 0.356223 0.478392 0.198222
447 4 0.419253 0.446225 0.217831
445 2 0.423137 0.446839 0.242523
1403 4 0.0109992 0.00747783 0.2746
233 4 0.0085646 0.0271705 0.271046
232 2 0.0110935 0.0504446 0.279826
234 4 0.0136224 0.0737187 0.288607
317 4 0.0346243 0.0758003 0.284938
316 2 0.0587642 0.0785588 0.29084
318 4 0.0829041 0.0813174 0.296742
1407 4 0.250176 0.0034589 0.303548
722 4 0.17073 0.0661471 0.271746
1405 2 0.234528 0.0201225 0.293416
1406 4 0.21888 0.036786 0.283284
684 4 0.301953 0.0618523 0.330176
249 4 0.318072 0.0523513 0.323192
1518 4 0.422244 0.0259363 0.285128
1516 2 0.435394 0.0053147 0.290326
699 4 0.427208 0.02097 0.264849
425 4 0.483589 0.0296832 0.282146
424 2 0.471412 0.0451704 0.297542
258 4 0.469828 0.0769631 0.313287
426 4 0.459235 0.0606577 0.312939
743 4 0.493384 0.0357419 0.264886
393 4 0.0828571 0.141824 0.314224
675 4 0.16039 0.0953587 0.257113
391 2 0.0900677 0.139254 0.290421
392 4 0.0972784 0.136684 0.266618
544 2 0.134963 0.127824 0.261565
545 4 0.114822 0.142546 0.259892
546 4 0.155104 0.113103 0.263238
399 4 0.0954526 0.148033 0.329051
721 2 0.190105 0.0768893 0.28334
723 4 0.20948 0.0876315 0.294933
599 4 0.21516 0.0782163 0.313073
404 4 0.234688 0.0989316 0.286391
403 2 0.232236 0.123792 0.285317
405 4 0.229785 0.148651 0.284242
256 2 0.48685 0.094765 0.317589
401 4 0.227497 0.167389 0.280782
400 2 0.247014 0.180262 0.27192
402 4 0.266531 0.193135 0.263058
765 4 0.415699 0.177189 0.318013
763 2 0.437312 0.189172 0.31421
764 4 0.458925 0.201155 0.310407
2769 4 0.497856 0.245767 0.323813
442 2 0.0755522 0.271171 0.269392
444 4 0.0575887 0.255587 0.277113
749 4 0.0526788 0.331993 0.292424
748 2 0.0759425 0.333535 0.28339
443 4 0.0935156 0.286756 0.261671
497 4 0.320984 0.279984 0.297785
496 2 0.332287 0.272145 0.318665
615 4 0.409538 0.319872 0.296284
541 2 0.424085 0.322119 0.258173
543 4 0.422345 0.313091 0.281425
613 2 0.417431 0.333491 0.315711
366 4 0.0487137 0.348283 0.301604
365 4 0.00111051 0.362269 0.295356
364 2 0.0249121 0.355276 0.29848
601 2 0.0806692 0.382385 0.320565
299 4 0.0949968 0.347236 0.259357
750 4 0.0992062 0.335077 0.274357
602 4 0.0827961 0.383419 0.295674
777 4 0.0935225 0.397241 0.287976
735 4 0.172034 0.381528 0.30105
733 2 0.160837 0.359174 0.300728
734 4 0.149641 0.33682 0.300407
677 4 0.172346 0.39966 0.290927
291 4 0.227638 0.409367 0.268488
414 4 0.246274 0.40136 0.271514
412 2 0.256454 0.410981 0.292226
413 4 0.266635 0.420601 0.312938
5 3 0.275316 0.411972 0.331649
309 4 0.365609 0.351618 0.270523
344 4 0.348742 0.358967 0.261677
307 2 0.359168 0.363115 0.291772
729 4 0.340948 0.374773 0.329077
308 4 0.352727 0.374612 0.313021
2924 4 0.482583 0.372784 0.311245
2923 2 0.463692 0.36062 0.322216
2862 4 0.48026 0.399591 0.282971
2860 2 0.492031 0.390895 0.262698
120 3 0.485136 0.416546 0.312521
614 4 0.425323 0.347111 0.335137
262 2 0.044902 0.424597 0.254468
264 4 0.0350458 0.436257 0.274269
1757 4 0.103103 0.455339 0.280679
776 4 0.113807 0.442798 0.291687
775 2 0.103665 0.42002 0.289831
1756 2 0.103975 0.48023 0.282885
1640 4 0.231062 0.498607 0.260451
767 4 0.212981 0.490127 0.262574
676 2 0.172689 0.42304 0.282071
678 4 0.173033 0.44642 0.273214
768 4 0.191924 0.449137 0.281995
766 2 0.202452 0.469632 0.272285
504 4 0.219043 0.436781 0.309506
502 2 0.212973 0.444563 0.332479
1436 4 0.250749 0.4951 0.318262
437 4 0.282206 0.453227 0.273848
436 2 0.277474 0.453789 0.249302
1437 4 0.273349 0.459881 0.290884
1435 2 0.262049 0.477491 0.304573
433 2 0.3211 0.457216 0.330223
435 4 0.33019 0.478274 0.320268
713 4 0.476862 0.415824 0.29363
446 4 0.427021 0.447454 0.267215
712 2 0.454691 0.422483 0.284181
714 4 0.43252 0.429142 0.274732
731 4 0.0789076 0.0500498 0.401161
368 4 0.0626145 0.0584158 0.409523
730 2 0.0991426 0.0634454 0.395138
604 2 0.14135 0.0829594 0.364087
732 4 0.119378 0.0768409 0.389115
606 4 0.161802 0.0736876 0.353092
682 2 0.284336 0.069308 0.346276
321 4 0.277172 0.0807128 0.379361
683 4 0.266718 0.0767637 0.362375
247 2 0.33782 0.0531419 0.338508
248 4 0.357567 0.0539324 0.353825
633 4 0.353265 0.0655495 0.368891
631 2 0.353534 0.0725173 0.392903
2586 4 0.0120863 0.138162 0.387869
2584 2 0.00842569 0.119847 0.404492
397 2 0.117656 0.150494 0.340282
605 4 0.120897 0.0922311 0.375083
398 4 0.13986 0.152955 0.351513
598 2 0.208907 0.0919655 0.332999
600 4 0.202654 0.105715 0.352925
685 2 0.206572 0.137976 0.374811
687 4 0.207991 0.124713 0.353663
686 4 0.205154 0.15124 0.395959
410 4 0.223126 0.152864 0.406389
319 2 0.271868 0.0882816 0.402593
760 2 0.493806 0.144579 0.348149
762 4 0.483047 0.163847 0.359904
761 4 0.504565 0.125311 0.336394
390 4 0.086888 0.224143 0.401799
388 2 0.105498 0.239084 0.394342
473 4 0.230838 0.210582 0.344013
474 4 0.18337 0.225381 0.349357
472 2 0.207104 0.217982 0.346685
708 4 0.239117 0.205711 0.361095
651 4 0.254542 0.248553 0.405821
649 2 0.253183 0.226027 0.416588
275 4 0.174089 0.24311 0.351915
706 2 0.261666 0.203287 0.350566
707 4 0.284215 0.200862 0.340038
419 4 0.362654 0.167728 0.404925
716 4 0.381594 0.171221 0.402834
377 4 0.378841 0.210517 0.361831
717 4 0.395813 0.201284 0.365488
715 2 0.388704 0.186253 0.384161
376 2 0.36302 0.228957 0.35593
2654 4 0.998526 0.262955 0.404063
618 4 0.0126263 0.253938 0.414655
274 2 0.156776 0.254202 0.366142
276 4 0.139462 0.265295 0.380368
389 4 0.124109 0.254025 0.386885
1258 2 0.148963 0.313066 0.392434
1259 4 0.158749 0.312689 0.369428
508 2 0.237418 0.322901 0.364938
509 4 0.229552 0.303887 0.379143
487 2 0.2517 0.271094 0.382268
488 4 0.235046 0.286854 0.372295
489 4 0.268353 0.255335 0.392242
378 4 0.347199 0.247398 0.35003
498 4 0.343591 0.264306 0.339545
266 4 0.340016 0.300622 0.387923
585 4 0.357822 0.292605 0.389589
583 2 0.367212 0.275881 0.40563
265 2 0.337707 0.324202 0.379932
269 4 0.483217 0.246175 0.337166
268 2 0.491489 0.255698 0.358755
270 4 0.499762 0.265221 0.380343
306 4 0.482838 0.258827 0.3917
304 2 0.479326 0.263826 0.415946
603 4 0.0785424 0.38135 0.345457
547 2 0.0936851 0.406571 0.374363
549 4 0.0935297 0.388456 0.357129
510 4 0.245283 0.341915 0.350734
375 4 0.230863 0.401303 0.367805
374 4 0.230106 0.355183 0.348489
373 2 0.230485 0.378243 0.358147
3 3 0.267918 0.417081 0.368212
267 4 0.335397 0.347781 0.371941
727 2 0.33316 0.397952 0.334298
2925 4 0.444802 0.348457 0.333188
407 4 0.0712386 0.430757 0.387802
680 4 0.0479717 0.475666 0.407698
406 2 0.0618433 0.446032 0.405226
569 4 0.105158 0.415509 0.407571
548 4 0.0938405 0.424685 0.391598
635 4 0.166124 0.489046 0.397212
634 2 0.180854 0.473304 0.384547
636 4 0.195584 0.457561 0.371883
503 4 0.206903 0.452345 0.355452
434 4 0.31201 0.436158 0.340178
669 4 0.297355 0.494441 0.387541
2 3 0.301595 0.426023 0.35412
1 1 0.27904 0.425432 0.349639
668 4 0.276325 0.465231 0.352825
4 3 0.271736 0.446974 0.345055
667 2 0.28684 0.479836 0.370183
728 4 0.325373 0.421131 0.339519
1401 4 0.331327 0.46172 0.407361
336 4 0.346452 0.425001 0.400063
752 4 0.49347 0.426365 0.409143
751 2 0.501386 0.420293 0.386216
718 2 0.0405483 0.0537462 0.483591
719 4 0.0549315 0.0606242 0.464329
369 4 0.0557286 0.0781621 0.454948
367 2 0.0591715 0.068289 0.432235
341 4 0.183676 0.068824 0.481123
2430 4 0.188522 0.0589272 0.463916
2428 2 0.200103 0.0368018 0.465158
2429 4 0.211683 0.0146765 0.466401
632 4 0.353803 0.079485 0.416914
2879 4 0.423769 0.00727184 0.417954
641 4 0.493239 0.078534 0.438878
2878 2 0.448172 0.0127179 0.417957
2880 4 0.472576 0.018164 0.417959
642 4 0.480618 0.0308264 0.430789
640 2 0.486928 0.0546802 0.434833
2757 4 0.00736347 0.0824084 0.418918
2585 4 0.00476507 0.101531 0.421115
340 2 0.186884 0.092435 0.473546
1152 4 0.190376 0.126468 0.484158
342 4 0.190091 0.116046 0.465969
1150 2 0.192964 0.147299 0.497743
320 4 0.266565 0.0958503 0.425826
725 4 0.26934 0.0871686 0.442383
724 2 0.2733 0.104362 0.460099
432 4 0.292275 0.12262 0.490404
726 4 0.27726 0.121556 0.477816
418 2 0.354594 0.148448 0.418655
420 4 0.346535 0.129168 0.432385
467 4 0.374179 0.111191 0.468275
466 2 0.360643 0.0998806 0.450553
468 4 0.347108 0.0885704 0.432832
574 2 0.398586 0.141169 0.457017
576 4 0.377362 0.131368 0.465885
575 4 0.41981 0.150971 0.448149
260 4 0.0637341 0.185142 0.470458
259 2 0.0703814 0.179971 0.494001
469 2 0.0715906 0.206868 0.439322
471 4 0.0595619 0.201129 0.460478
470 4 0.0836193 0.212607 0.418167
409 2 0.235418 0.169425 0.420525
650 4 0.251824 0.203501 0.427354
411 4 0.24771 0.185986 0.434661
2455 2 0.382033 0.231339 0.443217
2457 4 0.382277 0.206409 0.445111
516 4 0.427754 0.168182 0.444419
514 2 0.45207 0.162381 0.44496
515 4 0.476385 0.15658 0.445501
616 2 0.0188678 0.270969 0.431863
617 4 0.0251094 0.288001 0.449072
695 4 0.0834531 0.273313 0.425535
1260 4 0.139176 0.313442 0.415439
694 2 0.102895 0.289023 0.424924
696 4 0.122338 0.304733 0.424314
584 4 0.376603 0.259156 0.42167
2456 4 0.38179 0.25627 0.441323
2507 4 0.490612 0.328943 0.479952
1009 2 0.495636 0.297686 0.45807
1011 4 0.490281 0.273847 0.452758
305 4 0.475815 0.268825 0.440191
326 4 0.0824466 0.385853 0.458634
325 2 0.105542 0.37712 0.462573
7 3 0.147023 0.364806 0.473905
327 4 0.128638 0.368387 0.466512
6 1 0.152933 0.368317 0.495858
8 3 0.157476 0.390869 0.498888
10 3 0.171424 0.355944 0.500719
1189 2 0.228685 0.345705 0.495039
1190 4 0.253142 0.344259 0.490047
803 4 0.262163 0.353257 0.50385
238 2 0.345194 0.374724 0.460476
240 4 0.340607 0.39639 0.44887
239 4 0.349781 0.353057 0.472082
2506 2 0.492207 0.351865 0.470091
559 2 0.500252 0.399283 0.439295
2508 4 0.493801 0.374787 0.460231
1881 4 0.00562464 0.497432 0.497411
408 4 0.0524479 0.461307 0.42265
540 4 0.0455364 0.482024 0.474246
1382 4 0.0343414 0.470677 0.462571
1381 2 0.0119708 0.463623 0.471231
773 4 0.122689 0.499421 0.487794
570 4 0.124964 0.433583 0.449782
772 2 0.118501 0.493146 0.463956
709 2 0.13482 0.422094 0.483043
774 4 0.114314 0.48687 0.440118
384 4 0.137919 0.500588 0.499673
568 2 0.115061 0.424546 0.428677
710 4 0.119016 0.434436 0.468107
1446 4 0.244054 0.481837 0.480352
1394 4 0.230856 0.494411 0.468198
334 2 0.348128 0.42004 0.424512
1400 4 0.349991 0.498392 0.435779
1399 2 0.340659 0.480056 0.42157
335 4 0.349805 0.415078 0.448961
561 4 0.491464 0.420495 0.429396
1127 4 0.01614 0.0622618 0.510511
720 4 0.0261652 0.0468681 0.502852
1031 4 0.172769 0.0752745 0.570054
949 2 0.205224 0.0488505 0.564957
950 4 0.227048 0.0379353 0.570414
1182 4 0.23991 0.0514236 0.563043
951 4 0.183401 0.0597657 0.559501
961 2 0.311034 0.0083806 0.570775
1180 2 0.263543 0.0443511 0.558964
963 4 0.298015 0.0297132 0.570005
1181 4 0.287176 0.0372785 0.554885
1216 2 0.401454 0.0756696 0.513928
1218 4 0.414722 0.0549743 0.509362
2283 4 0.443551 0.999417 0.579454
1035 4 0.0773915 0.145622 0.575689
1033 2 0.0818477 0.153891 0.552517
1034 4 0.0863039 0.16216 0.529345
1030 2 0.152109 0.0879142 0.576267
938 4 0.154119 0.158508 0.561558
937 2 0.172728 0.16428 0.545887
1151 4 0.195552 0.16813 0.511328
843 4 0.3252 0.0931003 0.53883
431 4 0.315549 0.10896 0.532504
857 4 0.320468 0.137191 0.578471
856 2 0.299643 0.148598 0.586302
430 2 0.303912 0.11579 0.511454
899 4 0.332113 0.13125 0.562716
1217 4 0.388186 0.0963648 0.518494
841 2 0.349509 0.0895116 0.534206
842 4 0.373818 0.0859229 0.529582
898 2 0.35326 0.143972 0.558698
900 4 0.374407 0.156694 0.554681
261 4 0.0770286 0.174799 0.517543
879 4 0.105949 0.237275 0.557117
877 2 0.102656 0.234919 0.532443
1272 4 0.099069 0.247204 0.573289
878 4 0.0993632 0.232564 0.507769
1270 2 0.116463 0.233597 0.585014
939 4 0.191336 0.170051 0.530216
811 2 0.327715 0.236349 0.577233
812 4 0.30331 0.237654 0.582513
872 4 0.38272 0.175338 0.560947
813 4 0.35212 0.235045 0.571953
873 4 0.352565 0.21493 0.565836
871 2 0.367642 0.195134 0.563392
1239 4 0.259031 0.301228 0.569701
1205 4 0.404988 0.308485 0.573177
1204 2 0.383023 0.313606 0.562384
954 4 0.406871 0.288688 0.576686
1206 4 0.361057 0.318726 0.551592
930 4 0.350784 0.334893 0.557511
952 2 0.426456 0.273873 0.581386
9 3 0.135295 0.361888 0.509494
711 4 0.150624 0.409752 0.497979
896 4 0.185634 0.343032 0.508514
1135 2 0.167642 0.377526 0.576301
1137 4 0.172466 0.355212 0.566102
1191 4 0.204227 0.347151 0.50003
897 4 0.177809 0.338445 0.557692
895 2 0.181722 0.340738 0.533103
802 2 0.276333 0.349304 0.524068
804 4 0.290503 0.345351 0.544286
929 4 0.307902 0.351569 0.53792
928 2 0.329343 0.343231 0.547715
1001 4 0.475147 0.378575 0.559359
926 4 0.469268 0.387887 0.542048
925 2 0.489402 0.377212 0.53176
1000 2 0.467509 0.394039 0.577461
934 2 0.0179081 0.481153 0.575385
936 4 0.0389446 0.492649 0.582491
382 2 0.136062 0.49279 0.523356
2242 2 0.136544 0.495094 0.579762
2244 4 0.124732 0.497231 0.557828
383 4 0.134204 0.484993 0.54704
882 4 0.266127 0.473972 0.574526
880 2 0.264009 0.492257 0.557603
1172 4 0.260434 0.458168 0.582822
1155 4 0.0842478 0.065191 0.594442
1185 4 0.0213528 0.0713441 0.651087
945 4 0.0344947 0.0697683 0.667216
1059 4 0.0965037 0.0572072 0.608761
825 4 0.0990369 0.0110343 0.634998
1058 4 0.106882 0.0257943 0.64626
1057 2 0.101693 0.0415008 0.627511
1005 4 0.286514 0.0735911 0.621657
1925 4 0.392485 0.992182 0.659151
2282 4 0.477788 0.0281222 0.601917
2281 2 0.46067 0.0137697 0.590686
43 3 0.480212 0.041403 0.61699
41 1 0.479606 0.0581039 0.633087
44 3 0.458596 0.0679418 0.633508
45 3 0.495457 0.0738219 0.628576
42 3 0.483852 0.048751 0.653669
1082 4 0.0598365 0.143314 0.586406
1081 2 0.0391681 0.154362 0.595121
1083 4 0.0184997 0.16541 0.603835
1199 4 0.000119679 0.165088 0.597687
1032 4 0.13145 0.100554 0.58248
1153 2 0.100185 0.0844523 0.594869
1154 4 0.116122 0.103714 0.595296
1221 4 0.171321 0.0934544 0.615673
1219 2 0.183166 0.0982886 0.637156
1220 4 0.19501 0.103123 0.658638
1212 4 0.207052 0.120593 0.662853
1283 4 0.177291 0.0973649 0.666265
1004 4 0.297945 0.11077 0.653087
1003 2 0.292229 0.0921803 0.637372
887 4 0.30332 0.128192 0.661913
1143 4 0.373925 0.148567 0.655694
1025 4 0.377335 0.149726 0.635633
1271 4 0.133858 0.21999 0.596738
909 4 0.147845 0.205243 0.595997
907 2 0.156879 0.214525 0.617384
947 4 0.149709 0.234635 0.644081
908 4 0.165912 0.223807 0.638772
946 2 0.162926 0.249238 0.659483
798 4 0.287967 0.228335 0.591757
858 4 0.278817 0.160006 0.594133
796 2 0.28354 0.203752 0.592876
797 4 0.279113 0.179169 0.593994
1024 2 0.387983 0.171695 0.630233
1026 4 0.398631 0.193663 0.624832
1237 2 0.27109 0.298299 0.591407
792 4 0.300681 0.290781 0.622674
790 2 0.322689 0.295748 0.633453
1238 4 0.28315 0.295369 0.613113
791 4 0.344696 0.300714 0.644233
905 4 0.455403 0.258401 0.602865
953 4 0.446042 0.259058 0.586086
904 2 0.478462 0.249704 0.598642
982 2 0.028461 0.393082 0.582813
984 4 0.00434654 0.399445 0.58103
983 4 0.0525754 0.386718 0.584596
1041 4 0.0681261 0.394086 0.593977
1039 2 0.0819088 0.414931 0.594826
1136 4 0.162818 0.399839 0.5865
1002 4 0.459871 0.409503 0.595563
3330 4 0.49049 0.403827 0.660797
2022 4 0.0293022 0.486869 0.656419
992 4 0.157801 0.419694 0.585206
991 2 0.135975 0.431419 0.588569
993 4 0.114149 0.443144 0.591932
1040 4 0.0956915 0.435776 0.595675
2243 4 0.148356 0.492957 0.601696
1161 4 0.166112 0.489644 0.592969
1171 2 0.238098 0.45089 0.591383
1160 4 0.20653 0.461076 0.600108
1159 2 0.186321 0.47536 0.596538
1173 4 0.215761 0.443612 0.599944
1267 2 0.414352 0.465636 0.658028
1952 4 0.343398 0.499488 0.617236
1910 4 0.463039 0.430723 0.592619
1911 4 0.433528 0.442454 0.631248
1909 2 0.448284 0.436588 0.611934
1268 4 0.430388 0.447952 0.650591
943 2 0.0488892 0.06173 0.686014
1076 4 0.0490351 0.0481796 0.721057
944 4 0.0632838 0.0536917 0.704812
1075 2 0.0677478 0.0382707 0.734355
1077 4 0.0864606 0.0283618 0.747653
831 4 0.314281 0.0803453 0.712557
1163 4 0.492097 0.0519182 0.670561
3387 4 0.0112581 0.0980378 0.741536
1106 4 0.0742382 0.155666 0.749782
32 3 0.0966064 0.11809 0.736803
35 3 0.0918825 0.154934 0.740418
1227 4 0.169589 0.104502 0.734554
31 1 0.097302 0.135783 0.751486
1284 4 0.177767 0.097879 0.716267
1282 2 0.177529 0.097622 0.691266
1210 2 0.225068 0.134635 0.673022
1211 4 0.243085 0.148678 0.68319
830 4 0.297991 0.101699 0.670374
888 4 0.262596 0.152878 0.677172
886 2 0.282958 0.140535 0.669542
829 2 0.306136 0.0910224 0.691466
1141 2 0.354019 0.140683 0.668609
1142 4 0.334113 0.132799 0.681523
1107 4 0.042285 0.190531 0.733529
851 4 0.0239853 0.181036 0.735507
850 2 0.00411319 0.195163 0.729966
1207 2 0.0616875 0.246986 0.69013
1105 2 0.0582616 0.173099 0.741655
1208 4 0.0787875 0.229128 0.686411
822 4 0.137759 0.19719 0.698954
1278 4 0.156338 0.190981 0.705148
820 2 0.11803 0.211422 0.693177
821 4 0.0983003 0.225654 0.687401
1276 2 0.153639 0.190272 0.729995
976 2 0.298076 0.194445 0.747722
977 4 0.315775 0.20076 0.731228
916 2 0.315539 0.23759 0.715853
918 4 0.306763 0.214428 0.719273
3122 4 0.493168 0.218354 0.701234
3121 2 0.474435 0.232866 0.693256
1262 4 0.440969 0.251807 0.747697
3123 4 0.455701 0.247378 0.685279
1261 2 0.447776 0.227993 0.751121
1263 4 0.454584 0.204179 0.754545
1209 4 0.0445875 0.264845 0.693849
1244 4 0.0337991 0.261619 0.675575
1243 2 0.0120293 0.268923 0.68547
3188 4 0.0108066 0.266175 0.746098
1064 4 0.218476 0.315883 0.666901
1063 2 0.203259 0.297378 0.674056
1065 4 0.188043 0.278873 0.681212
948 4 0.176144 0.263841 0.674885
1240 2 0.237253 0.306267 0.727018
1242 4 0.225104 0.316765 0.746185
917 4 0.324314 0.260751 0.712433
1097 4 0.314824 0.280056 0.710072
1241 4 0.249402 0.295769 0.707851
1096 2 0.291376 0.287599 0.705774
1098 4 0.267927 0.295142 0.701476
1008 4 0.339313 0.265355 0.725454
1006 2 0.358021 0.265512 0.742042
1194 4 0.433432 0.270127 0.742102
1279 2 0.0467212 0.368768 0.709805
3275 4 0.0390727 0.391838 0.735987
1280 4 0.0302034 0.375699 0.727249
1281 4 0.063239 0.361836 0.692361
3274 2 0.0543409 0.40848 0.746716
894 4 0.0817677 0.351714 0.690412
893 4 0.128986 0.35619 0.706258
892 2 0.105377 0.353952 0.698335
940 2 0.160991 0.388582 0.747762
942 4 0.136065 0.390156 0.74658
815 4 0.134614 0.410266 0.744122
1028 4 0.234776 0.370342 0.700139
941 4 0.185917 0.387008 0.748944
1068 4 0.21639 0.367799 0.69203
1067 4 0.187119 0.37798 0.731276
1066 2 0.201754 0.37289 0.711653
1029 4 0.271248 0.386845 0.67017
1139 4 0.269612 0.405508 0.676995
1027 2 0.253012 0.378593 0.685154
1229 4 0.338402 0.385693 0.705434
1228 2 0.350272 0.4077 0.705513
2020 2 0.0330761 0.501416 0.676402
1079 4 0.174667 0.477595 0.749926
1078 2 0.177444 0.452756 0.749213
2214 4 0.239237 0.490916 0.747485
1138 2 0.277896 0.428161 0.683583
1140 4 0.286181 0.450814 0.690171
1989 4 0.29271 0.464415 0.704679
1987 2 0.302696 0.464413 0.727601
1988 4 0.312683 0.464411 0.750524
1230 4 0.362142 0.429706 0.705592
1269 4 0.398316 0.48332 0.665465
1100 4 0.489223 0.490792 0.718599
1250 4 0.475376 0.483011 0.73021
1203 4 0.0969849 0.0359627 0.763043
1201 2 0.112177 0.0200514 0.774926
2049 4 0.146478 0.00757597 0.786939
1202 4 0.127369 0.00414016 0.78681
1148 4 0.176697 0.0814093 0.785728
1147 2 0.194717 0.0643188 0.788621
1149 4 0.212737 0.0472283 0.791514
1049 4 0.219791 0.0292751 0.795694
1048 2 0.242433 0.0266742 0.78541
1050 4 0.265075 0.0240733 0.775127
818 4 0.349214 0.0609403 0.814211
965 4 0.355046 0.0510786 0.831273
817 2 0.355619 0.083209 0.804817
975 4 0.37115 0.00712852 0.823708
846 4 0.489187 0.00980951 0.754675
832 2 0.0499922 0.132886 0.778718
863 4 0.0219742 0.108859 0.800176
833 4 0.0336727 0.123769 0.795323
33 3 0.0820907 0.131945 0.768583
834 4 0.0663117 0.142002 0.762113
862 2 0.0349704 0.0974524 0.818236
34 3 0.118744 0.137468 0.760192
1073 4 0.130383 0.150535 0.772528
1225 2 0.177974 0.115516 0.755376
1226 4 0.18636 0.12653 0.776198
840 4 0.206617 0.124214 0.776835
838 2 0.227695 0.132217 0.787643
839 4 0.248774 0.140221 0.798451
959 4 0.255151 0.150049 0.815929
819 4 0.362024 0.105478 0.795422
1084 2 0.364017 0.140252 0.794291
1085 4 0.359768 0.119217 0.781459
1086 4 0.368267 0.161287 0.807123
3268 2 0.490545 0.144609 0.811283
3270 4 0.47066 0.140043 0.79683
1146 4 0.461634 0.1437 0.779234
778 2 0.0771673 0.202074 0.805489
779 4 0.0544211 0.212389 0.80667
1214 4 0.0417474 0.224547 0.815848
1213 2 0.0218735 0.238947 0.811069
1277 4 0.15094 0.189563 0.754843
1072 2 0.123158 0.172694 0.781582
1074 4 0.115932 0.194852 0.790636
780 4 0.0999135 0.191759 0.804307
1131 4 0.163172 0.191932 0.771443
1130 4 0.209823 0.183601 0.787412
1129 2 0.186498 0.187767 0.779428
978 4 0.280378 0.18813 0.764217
958 2 0.273373 0.166692 0.819946