ITEM: TIMESTEP
770000
ITEM: NUMBER OF ATOMS
4590
ITEM: BOX BOUNDS pp pp pp
-9.9985700000000008e+00 9.9985700000000008e+00
-9.9985700000000008e+00 9.9985700000000008e+00
-9.9985700000000008e+00 9.9985700000000008e+00
ITEM: ATOMS id type xs ys zs
463 2 0.0261227 0.0634073 0.0406243
465 4 0.0235302 0.0723545 0.0638278
464 4 0.0287153 0.0544601 0.0174207
3290 4 0.0328846 0.0385544 0.00490042
1666 2 0.0762902 0.0389143 0.0769388
1667 4 0.0711667 0.063102 0.0806648
1668 4 0.0814137 0.0147266 0.0732128
3289 2 0.0503632 0.0211231 0.00887874
1476 4 0.198311 0.0221623 0.0533914
1474 2 0.221458 0.0173564 0.0452492
1475 4 0.244605 0.0125504 0.0371069
490 2 0.277107 0.0226982 0.0271853
491 4 0.290284 0.0320894 0.0081237
492 4 0.26393 0.0133069 0.0462469
296 4 0.373342 0.0656386 0.0804635
557 4 0.372258 0.0855216 0.0849806
745 2 0.45784 0.0546451 0.0242252
1826 4 0.459171 0.016633 0.0429049
746 4 0.445149 0.064259 0.0435041
747 4 0.470532 0.0450312 0.00494618
1825 2 0.473194 0.996183 0.0461231
2975 4 0.488278 0.0531843 0.999942
591 4 0.0225241 0.0926814 0.0610339
701 4 0.0701793 0.129844 0.0117511
700 2 0.0809771 0.115915 0.0294873
589 2 0.0403378 0.102966 0.0752491
423 4 0.0662842 0.148287 0.00595538
702 4 0.0917748 0.101986 0.0472236
567 4 0.186731 0.0882686 0.0571803
565 2 0.185067 0.0998506 0.079277
358 2 0.274009 0.139374 0.00882722
359 4 0.290271 0.156348 0.0173465
360 4 0.257747 0.122399 0.000307911
556 2 0.371204 0.102547 0.0666992
558 4 0.37015 0.119572 0.0484178
828 4 0.451569 0.138919 0.997287
421 2 0.0553107 0.170183 0.0109886
553 2 0.026512 0.214619 0.0471223
554 4 0.0200869 0.223049 0.069768
422 4 0.0443372 0.192079 0.0160219
555 4 0.032937 0.206188 0.0244765
506 4 0.171325 0.225926 0.0743695
1133 4 0.212343 0.182909 0.0172053
505 2 0.176086 0.247342 0.062375
737 4 0.181638 0.211438 0.0812445
354 4 0.238422 0.202537 0.0826281
353 4 0.281289 0.22665 0.0735888
352 2 0.259855 0.214593 0.0781085
665 4 0.399699 0.19167 0.00892314
1069 2 0.391339 0.246637 0.0172857
1071 4 0.372876 0.247767 0.0341092
1070 4 0.409802 0.245507 0.000462249
324 4 0.446759 0.230653 0.0768378
770 4 0.478162 0.182813 0.0783274
771 4 0.474199 0.170243 0.0300883
769 2 0.476181 0.176528 0.0542078
1170 4 0.0315764 0.304069 0.00106987
1168 2 0.0392413 0.327847 5.40314e-05
292 2 0.157865 0.292658 0.0368478
294 4 0.139543 0.309003 0.0415724
456 4 0.142562 0.324542 0.0544451
293 4 0.176186 0.276312 0.0321231
507 4 0.180846 0.268758 0.0503806
481 2 0.219615 0.288005 0.0498398
482 4 0.218137 0.29884 0.0723253
483 4 0.221093 0.277171 0.0273542
573 4 0.357815 0.261552 0.0403203
572 4 0.370322 0.297329 0.0729435
571 2 0.364069 0.27944 0.0566319
281 4 0.436671 0.329701 0.076149
322 2 0.441934 0.254652 0.0819329
323 4 0.437109 0.27865 0.087028
280 2 0.461247 0.332291 0.0723365
282 4 0.485822 0.334882 0.0685241
1169 4 0.0469062 0.351625 0.999038
330 4 0.997763 0.39968 0.00925264
454 2 0.137061 0.345533 0.0668662
455 4 0.131561 0.366525 0.0792873
287 4 0.140539 0.389176 0.00563279
252 4 0.268474 0.389845 0.0588258
250 2 0.284197 0.39946 0.0419284
251 4 0.29992 0.409074 0.025031
608 4 0.279843 0.38306 0.0740011
227 4 0.472498 0.416689 0.020019
1047 4 0.494316 0.371095 0.0154754
551 4 0.0742575 0.449063 0.0691355
313 2 0.0224399 0.433182 0.0832367
314 4 0.0209565 0.455104 0.0713027
550 2 0.0636804 0.471415 0.0654338
552 4 0.0531033 0.493766 0.0617321
244 2 0.22443 0.460613 0.0209273
246 4 0.241753 0.470204 0.0361944
245 4 0.207106 0.451022 0.00566009
272 4 0.258255 0.479804 0.034423
226 2 0.46365 0.436098 0.00697428
19 3 0.0335694 0.0324424 0.137756
20 3 0.0653726 0.0246596 0.119165
1422 4 0.0304797 0.0132991 0.15012
16 1 0.0545456 0.0402943 0.131694
17 3 0.0519984 0.0595022 0.119295
18 3 0.0669541 0.0452086 0.150675
2480 4 0.0167858 0.0318157 0.152055
652 2 0.292225 0.0597518 0.126157
654 4 0.301003 0.0531419 0.103697
653 4 0.283448 0.0663617 0.148616
582 4 0.273107 0.0832114 0.15613
295 2 0.365459 0.0469233 0.0950503
297 4 0.357577 0.0282079 0.109637
485 4 0.355598 0.0199459 0.128436
758 4 0.387452 0.0390166 0.156944
1759 2 0.465929 0.0157807 0.166178
1760 4 0.483383 0.0303391 0.155757
2744 4 0.500933 0.0374286 0.163664
1761 4 0.448475 0.00122235 0.176599
2723 4 0.485326 0.0593519 0.0921532
590 4 0.0581515 0.113251 0.0894643
477 4 0.138334 0.157433 0.140931
566 4 0.183403 0.111433 0.101374
311 4 0.451116 0.129415 0.17315
339 4 0.073826 0.234388 0.107097
337 2 0.0787996 0.242836 0.130098
476 4 0.13582 0.201311 0.164786
475 2 0.137077 0.179372 0.152858
738 4 0.225317 0.188316 0.0888774
736 2 0.203477 0.199877 0.085061
461 4 0.294885 0.2135 0.0807285
460 2 0.310856 0.212019 0.0999097
462 4 0.326826 0.210538 0.119091
255 4 0.337649 0.21425 0.135371
254 4 0.376578 0.184078 0.126717
630 4 0.396568 0.188739 0.122619
253 2 0.357114 0.199164 0.131044
628 2 0.412933 0.207641 0.122319
624 4 0.426023 0.246286 0.122534
629 4 0.429299 0.226543 0.122019
2590 2 0.495062 0.209802 0.160265
2591 4 0.490225 0.185273 0.15998
338 4 0.0837732 0.251285 0.1531
362 4 0.14084 0.271422 0.156428
363 4 0.0946613 0.259229 0.171244
361 2 0.117751 0.265325 0.163836
611 4 0.24302 0.325291 0.159357
277 2 0.253168 0.252112 0.150327
756 4 0.299254 0.291155 0.0992106
754 2 0.290047 0.274602 0.115532
755 4 0.28084 0.258048 0.131854
278 4 0.263175 0.248878 0.127642
741 4 0.363082 0.305634 0.0898912
622 2 0.406524 0.261923 0.123203
623 4 0.387025 0.27756 0.123872
739 2 0.353133 0.322545 0.10539
671 4 0.424803 0.319526 0.0883196
527 4 0.485294 0.26084 0.152454
526 2 0.462695 0.260363 0.163143
621 4 0.0316243 0.405698 0.113494
619 2 0.0459868 0.386814 0.121387
620 4 0.0603493 0.367931 0.12928
647 4 0.0776685 0.36986 0.13765
646 2 0.0880239 0.378769 0.158592
537 4 0.172781 0.395688 0.15288
535 2 0.190868 0.380381 0.144896
626 4 0.229058 0.40102 0.110055
536 4 0.208954 0.365073 0.136913
610 2 0.259011 0.33917 0.146059
609 4 0.266603 0.355706 0.113715
607 2 0.273223 0.369383 0.0938581
612 4 0.275003 0.353049 0.132761
386 4 0.328172 0.343064 0.132633
385 2 0.330508 0.366541 0.140913
740 4 0.343185 0.339456 0.120889
495 4 0.407448 0.409636 0.151503
14 3 0.413709 0.392083 0.14425
672 4 0.398832 0.347857 0.120313
11 1 0.413692 0.369989 0.151339
670 2 0.411818 0.333692 0.104316
12 3 0.410483 0.356333 0.133108
387 4 0.332843 0.390018 0.149192
15 3 0.396837 0.366636 0.166282
13 3 0.434086 0.364789 0.161109
595 2 0.476373 0.364274 0.15153
596 4 0.496863 0.35557 0.140146
315 4 0.0239232 0.411261 0.0951708
625 2 0.211112 0.418374 0.108659
627 4 0.193165 0.435728 0.107263
639 4 0.244318 0.481345 0.146197
1439 4 0.240275 0.485149 0.127747
637 2 0.235853 0.490098 0.168035
1438 2 0.232435 0.492881 0.105299
493 2 0.413738 0.425513 0.133241
524 4 0.33922 0.491644 0.113861
523 2 0.352339 0.472512 0.12319
525 4 0.365458 0.45338 0.132519
303 4 0.36964 0.440541 0.147252
494 4 0.420028 0.44139 0.114978
301 2 0.358992 0.418852 0.153681
1420 2 0.0422006 0.998858 0.166831
690 4 0.142932 0.0297435 0.244486
688 2 0.163805 0.0219004 0.233172
674 4 0.13275 0.0462671 0.241546
1504 2 0.205225 0.00240037 0.198035
450 4 0.191079 0.0783913 0.19303
1505 4 0.204553 0.0184407 0.217204
689 4 0.184677 0.0140573 0.221857
691 2 0.235165 0.0660184 0.177404
692 4 0.237011 0.0455207 0.191604
1701 4 0.305739 0.054605 0.255753
21 1 0.36427 0.0648158 0.234411
23 3 0.370923 0.0430565 0.238958
24 3 0.342061 0.0677373 0.240463
25 3 0.366934 0.0692833 0.212239
759 4 0.380509 0.0670851 0.197744
757 2 0.383981 0.0530508 0.177344
22 3 0.377285 0.0792871 0.246673
744 4 0.463431 0.998047 0.251808
578 4 0.05909 0.157048 0.247879
513 4 0.0553544 0.152185 0.227451
448 2 0.17201 0.0935399 0.187367
577 2 0.0828947 0.163768 0.244225
579 4 0.106699 0.170488 0.240571
449 4 0.152941 0.108688 0.181704
235 2 0.152903 0.142539 0.203463
237 4 0.145815 0.157095 0.222518
236 4 0.15999 0.127984 0.184409
693 4 0.233319 0.086516 0.163205
546 4 0.185935 0.142763 0.252526
580 2 0.276902 0.10125 0.173023
581 4 0.280697 0.119289 0.189916
30 3 0.291817 0.111433 0.205388
26 1 0.285181 0.121871 0.22451
29 3 0.29185 0.144092 0.224123
28 3 0.262113 0.12056 0.226649
27 3 0.294926 0.111495 0.242579
312 4 0.445312 0.0850198 0.195423
310 2 0.448214 0.107217 0.184287
511 2 0.0358173 0.163321 0.216521
512 4 0.0162802 0.174457 0.20559
285 4 0.285876 0.22484 0.222552
284 4 0.250518 0.192379 0.236581
283 2 0.268197 0.208609 0.229567
765 4 0.413298 0.252832 0.222846
764 4 0.44218 0.216753 0.241947
763 2 0.427739 0.234792 0.232396
520 2 0.483019 0.229731 0.238051
521 4 0.4586 0.226994 0.242679
394 2 0.0804493 0.27279 0.203624
396 4 0.0611226 0.273286 0.21948
443 4 0.0535418 0.286686 0.232279
704 4 0.995386 0.286164 0.20225
395 4 0.0997761 0.272295 0.187768
749 4 0.0888533 0.308813 0.212185
372 4 0.155319 0.276739 0.168855
370 2 0.162405 0.280797 0.192487
279 4 0.243161 0.255347 0.173011
371 4 0.169491 0.284855 0.21612
345 4 0.232682 0.278969 0.225127
343 2 0.255585 0.288821 0.223224
344 4 0.278487 0.298672 0.221322
309 4 0.291818 0.311519 0.232314
528 4 0.440096 0.259885 0.173832
748 2 0.0926613 0.333429 0.210014
750 4 0.0964692 0.358045 0.207844
300 4 0.100453 0.372794 0.220872
648 4 0.0983794 0.387677 0.179535
298 2 0.116404 0.385892 0.234985
299 4 0.132355 0.39899 0.249099
289 2 0.209268 0.413777 0.223197
290 4 0.231012 0.401566 0.221395
302 4 0.348343 0.397162 0.160111
597 4 0.455884 0.372979 0.162914
643 2 0.432114 0.376266 0.203837
644 4 0.422403 0.378215 0.226796
645 4 0.441824 0.374316 0.180879
447 4 0.441659 0.38661 0.230845
263 4 0.0404171 0.492265 0.218385
262 2 0.0446872 0.470213 0.229369
264 4 0.0489574 0.448161 0.240354
417 4 0.16105 0.459991 0.184026
1430 4 0.164052 0.478042 0.192401
291 4 0.187524 0.425989 0.224998
416 4 0.177901 0.419794 0.20854
415 2 0.169475 0.439892 0.196283
766 2 0.214114 0.474557 0.225245
768 4 0.205269 0.463845 0.246034
767 4 0.222959 0.485269 0.204455
1429 2 0.179678 0.4953 0.183282
638 4 0.227388 0.498852 0.189873
414 4 0.189298 0.477853 0.24921
659 4 0.382274 0.447858 0.161122
660 4 0.372548 0.486886 0.190837
658 2 0.377411 0.467372 0.175979
231 4 0.373508 0.493278 0.210089
232 2 0.0232739 0.0273364 0.300084
233 4 0.0441492 0.0213413 0.287696
1403 4 0.0545719 0.0153432 0.304463
2756 4 0.998292 0.0385592 0.329954
673 2 0.132475 0.064985 0.258121
730 2 0.104266 0.0822032 0.32179
731 4 0.0852793 0.0670393 0.327685
605 4 0.166641 0.0496399 0.323568
1699 2 0.308224 0.0297388 0.256574
1518 4 0.338396 0.0101324 0.298367
697 2 0.376175 0.0335771 0.302572
699 4 0.354284 0.0222395 0.298397
698 4 0.398066 0.0449148 0.306746
632 4 0.364749 0.0834774 0.313397
742 2 0.466842 0.0219827 0.258181
1749 4 0.477188 0.0163614 0.319772
743 4 0.470253 0.0459188 0.264553
257 4 0.434901 0.0723742 0.307661
351 4 0.482785 0.0626837 0.271114
349 2 0.461571 0.0723557 0.280148
480 4 0.474901 0.0348511 0.327689
478 2 0.496542 0.046997 0.324633
350 4 0.440357 0.0820276 0.289181
675 4 0.132199 0.083703 0.274697
399 4 0.113845 0.159516 0.322033
397 2 0.122273 0.136083 0.324284
398 4 0.1307 0.11265 0.326535
732 4 0.123252 0.0973671 0.315895
544 2 0.166906 0.156997 0.260302
722 4 0.174055 0.127564 0.247769
721 2 0.183026 0.104245 0.246815
723 4 0.191997 0.0809252 0.245861
403 2 0.232991 0.164229 0.294427
599 4 0.222808 0.127385 0.300202
404 4 0.233611 0.141537 0.304911
598 2 0.208732 0.120323 0.319623
249 4 0.272354 0.135223 0.31988
248 4 0.317171 0.114102 0.313095
247 2 0.294763 0.124662 0.316488
333 4 0.388604 0.0840374 0.262392
631 2 0.346814 0.0902139 0.329463
331 2 0.407888 0.0902223 0.277057
332 4 0.427172 0.0964071 0.291722
762 4 0.428802 0.114198 0.300483
760 2 0.441947 0.132356 0.289407
761 4 0.455092 0.150514 0.278331
529 2 0.00307293 0.174444 0.278623
530 4 0.0255885 0.174907 0.26776
393 4 0.110909 0.17141 0.305507
390 4 0.085837 0.241726 0.293668
392 4 0.134029 0.184507 0.263144
391 2 0.122469 0.177958 0.284325
545 4 0.147878 0.171232 0.268078
388 2 0.107248 0.24782 0.305053
405 4 0.23237 0.18692 0.283944
401 4 0.216849 0.197934 0.292447
400 2 0.205702 0.217947 0.302466
402 4 0.194555 0.237961 0.312485
418 2 0.396989 0.230244 0.315308
419 4 0.402606 0.248351 0.299006
420 4 0.391372 0.212137 0.331611
444 4 0.0472925 0.306413 0.277804
442 2 0.0504171 0.296549 0.255041
389 4 0.12866 0.253914 0.316437
307 2 0.305265 0.318707 0.25213
308 4 0.318712 0.325895 0.271947
497 4 0.317814 0.326223 0.292801
496 2 0.32588 0.319274 0.315425
615 4 0.405747 0.321974 0.323623
543 4 0.422204 0.310561 0.319181
541 2 0.444481 0.30116 0.312814
542 4 0.466758 0.291758 0.306446
365 4 0.00855261 0.383842 0.290629
2491 2 0.00451568 0.387298 0.325614
2493 4 0.0154923 0.395182 0.304577
364 2 0.0082607 0.364818 0.274408
366 4 0.0079688 0.345793 0.258186
603 4 0.0956002 0.345392 0.320189
601 2 0.0938579 0.370334 0.320249
734 4 0.131963 0.387169 0.265138
733 2 0.142045 0.384955 0.287911
602 4 0.0921156 0.395277 0.320309
735 4 0.152126 0.38274 0.310685
777 4 0.101938 0.411952 0.315337
677 4 0.163814 0.367435 0.308642
676 2 0.182204 0.351012 0.312797
678 4 0.200595 0.33459 0.316952
729 4 0.30275 0.354639 0.293478
727 2 0.310385 0.373839 0.307559
434 4 0.337818 0.39099 0.31981
728 4 0.318019 0.393039 0.32164
613 2 0.391158 0.342031 0.326794
614 4 0.376569 0.362088 0.329966
433 2 0.353242 0.406501 0.33192
445 2 0.441684 0.398694 0.252734
1756 2 0.085383 0.47778 0.271216
776 4 0.0874776 0.438401 0.275436
549 4 0.0369671 0.44918 0.318757
501 4 0.152538 0.500192 0.32928
1757 4 0.0933299 0.456125 0.280865
775 2 0.094708 0.425177 0.295387
499 2 0.12867 0.493991 0.333412
413 4 0.172438 0.459462 0.292548
412 2 0.180868 0.468657 0.270879
437 4 0.259403 0.4736 0.277034
436 2 0.276737 0.487604 0.288373
3 3 0.284991 0.43904 0.324779
5 3 0.272348 0.473745 0.332085
713 4 0.387944 0.45754 0.308562
712 2 0.409032 0.452703 0.29603
446 4 0.441708 0.410778 0.274624
714 4 0.43012 0.447865 0.283498
317 4 0.0701451 0.0698073 0.34128
429 4 0.103513 0.00437988 0.34641
427 2 0.0991793 0.0283615 0.340818
428 4 0.0948455 0.0523432 0.335225
606 4 0.169541 0.022209 0.36528
604 2 0.168091 0.0359245 0.344424
1407 4 0.287977 0.0137107 0.341578
683 4 0.257468 0.0429307 0.3952
682 2 0.274009 0.0591806 0.404555
725 4 0.307168 0.0667246 0.406783
2879 4 0.486432 0.0539639 0.404882
256 2 0.434803 0.064659 0.331445
424 2 0.45318 0.0487614 0.386212
426 4 0.452905 0.0557118 0.362195
258 4 0.434705 0.0569439 0.355228
425 4 0.453455 0.0418111 0.410228
316 2 0.0551603 0.0822161 0.356985
318 4 0.0401755 0.094625 0.37269
458 4 0.0127483 0.165342 0.423882
686 4 0.153957 0.148216 0.382456
685 2 0.170116 0.138139 0.366254
687 4 0.186275 0.128062 0.350052
600 4 0.194656 0.113262 0.339044
320 4 0.285128 0.0955197 0.420146
633 4 0.328878 0.0969505 0.34553
514 2 0.456898 0.166054 0.40892
453 4 0.464134 0.154047 0.372636
451 2 0.485194 0.163326 0.362862
276 4 0.155207 0.248669 0.376043
275 4 0.193002 0.221694 0.357478
474 4 0.197032 0.210472 0.373236
472 2 0.216056 0.196851 0.364419
473 4 0.235079 0.18323 0.355602
274 2 0.174105 0.235182 0.366761
708 4 0.243837 0.198844 0.346604
707 4 0.293543 0.19635 0.341726
706 2 0.26869 0.197597 0.344165
716 4 0.35408 0.220383 0.389339
715 2 0.344081 0.242797 0.394112
515 4 0.469223 0.168754 0.387333
306 4 0.462879 0.242991 0.413301
618 4 0.0474795 0.291198 0.392358
616 2 0.0517197 0.289623 0.367767
617 4 0.0559599 0.288047 0.343176
347 4 0.0438611 0.311107 0.398826
346 2 0.0231649 0.308122 0.412535
509 4 0.25698 0.298166 0.337494
510 4 0.242577 0.318661 0.380775
508 2 0.249778 0.308414 0.359135
488 4 0.316122 0.265577 0.392334
376 2 0.332843 0.297091 0.37216
377 4 0.320452 0.285554 0.390559
487 2 0.294723 0.263617 0.405117
498 4 0.333946 0.312326 0.338049
378 4 0.345235 0.308628 0.353761
717 4 0.334083 0.265212 0.398886
269 4 0.474707 0.272338 0.363397
268 2 0.471249 0.267022 0.387583
2492 4 0.993539 0.379413 0.34665
406 2 0.0783118 0.414928 0.375909
408 4 0.0929123 0.400784 0.390468
503 4 0.206493 0.410803 0.407007
502 2 0.223594 0.392562 0.406946
504 4 0.240695 0.374321 0.406884
374 4 0.256567 0.329976 0.388518
373 2 0.257472 0.350502 0.402767
435 4 0.368667 0.422011 0.344031
335 4 0.367322 0.402913 0.41262
561 4 0.461604 0.392462 0.407816
752 4 0.472738 0.399921 0.393116
559 2 0.438613 0.402015 0.410133
751 2 0.478107 0.410745 0.371226
407 4 0.0637114 0.429072 0.36135
547 2 0.0566379 0.441393 0.332084
548 4 0.0763086 0.433607 0.345411
681 4 0.0382419 0.444144 0.4058
500 4 0.104803 0.487791 0.337544
1437 4 0.253241 0.469618 0.339112
668 4 0.285701 0.453218 0.379525
1 1 0.288156 0.458241 0.337416
2 3 0.309011 0.466802 0.332842
4 3 0.286934 0.453138 0.360019
667 2 0.307954 0.453288 0.390924
334 2 0.358593 0.425562 0.406622
669 4 0.330208 0.453357 0.402324
593 4 0.386869 0.479159 0.359731
336 4 0.349864 0.448212 0.400624
592 2 0.408379 0.484133 0.347994
594 4 0.429888 0.489108 0.336257
119 3 0.484617 0.421541 0.329216
753 4 0.483476 0.42157 0.349336
718 2 0.0586486 0.0485981 0.493856
719 4 0.0787552 0.0402329 0.481571
720 4 0.0385419 0.0569634 0.506141
368 4 0.117734 0.0579472 0.426217
367 2 0.12936 0.0714269 0.443776
2429 4 0.245812 0.0137153 0.460044
2428 2 0.222019 0.0197194 0.464844
341 4 0.202107 0.044835 0.475288
340 2 0.190802 0.0661496 0.481852
2430 4 0.198226 0.0257236 0.469644
342 4 0.179498 0.0874642 0.488415
1182 4 0.231591 0.0779505 0.490649
684 4 0.290551 0.0754306 0.41391
1180 2 0.250587 0.0632888 0.497675
439 2 0.284167 0.00833168 0.45725
441 4 0.264811 0.0232829 0.462443
724 2 0.317978 0.0821072 0.423267
430 2 0.323449 0.0677245 0.47911
432 4 0.313025 0.0501809 0.464662
2878 2 0.488845 0.0732243 0.420642
1033 2 0.0932517 0.15496 0.487642
369 4 0.140987 0.0849067 0.461335
1034 4 0.092141 0.131135 0.480139
321 4 0.248579 0.129511 0.417066
319 2 0.266854 0.112515 0.418606
726 4 0.328787 0.0974898 0.439751
467 4 0.325486 0.16399 0.426845
410 4 0.297164 0.157182 0.494005
431 4 0.333873 0.0852681 0.493558
466 2 0.348038 0.159427 0.436633
468 4 0.370589 0.154864 0.44642
576 4 0.403671 0.117444 0.440849
843 4 0.35334 0.0901914 0.489153
2880 4 0.491258 0.0924848 0.436403
574 2 0.42302 0.133176 0.442665
642 4 0.483524 0.0989788 0.453973
516 4 0.444572 0.163353 0.430506
641 4 0.449233 0.118199 0.484883
640 2 0.466378 0.108589 0.469428
575 4 0.442368 0.148909 0.444481
3158 4 0.459962 0.126299 0.498502
471 4 0.00368281 0.218177 0.479159
469 2 0.0180989 0.213074 0.498941
1035 4 0.0943623 0.178786 0.495145
261 4 0.0931904 0.194474 0.482869
260 4 0.0868503 0.240341 0.463982
259 2 0.0900204 0.217407 0.473426
411 4 0.261386 0.191462 0.487254
409 2 0.279275 0.174322 0.490629
651 4 0.284661 0.257434 0.434171
305 4 0.493287 0.21691 0.443232
304 2 0.478083 0.22995 0.428266
3065 4 0.490475 0.235836 0.497001
348 4 0.00246867 0.305137 0.426244
695 4 0.101945 0.305456 0.484067
7 3 0.135336 0.334658 0.481582
694 2 0.118778 0.298495 0.501195
10 3 0.163785 0.312207 0.472665
650 4 0.254876 0.267078 0.473165
489 4 0.273325 0.261658 0.417901
649 2 0.269768 0.262256 0.453668
267 4 0.33528 0.270818 0.417775
266 4 0.356012 0.299754 0.452898
265 2 0.345646 0.285286 0.435337
2455 2 0.495338 0.312706 0.465724
270 4 0.46779 0.261705 0.411768
585 4 0.421608 0.269703 0.449338
2456 4 0.477686 0.304878 0.44984
583 2 0.44268 0.282089 0.44407
584 4 0.463752 0.294474 0.438803
2814 4 0.00957701 0.339983 0.459658
327 4 0.115736 0.335085 0.477461
326 4 0.0893678 0.365852 0.448156
325 2 0.102552 0.350468 0.462808
6 1 0.158105 0.333467 0.47853
709 2 0.157176 0.379549 0.431767
710 4 0.148021 0.397185 0.41659
711 4 0.166331 0.361913 0.446945
8 3 0.164197 0.348221 0.461689
803 4 0.238624 0.38006 0.506549
9 3 0.168646 0.339294 0.498362
375 4 0.258377 0.371028 0.417016
804 4 0.273726 0.409327 0.486253
802 2 0.256175 0.394694 0.496401
560 4 0.415623 0.411567 0.412451
238 2 0.360321 0.380217 0.445252
240 4 0.354646 0.393193 0.424646
239 4 0.365995 0.367242 0.465859
540 4 0.0575583 0.490513 0.485034
680 4 0.0220065 0.472485 0.443667
1381 2 0.00534837 0.483242 0.484642
1383 4 0.0132773 0.472591 0.463456
679 2 0.0301242 0.458314 0.424733
384 4 0.137443 0.446678 0.488143
569 4 0.134813 0.439442 0.46978
568 2 0.129683 0.431389 0.446671
570 4 0.124553 0.423336 0.423563
635 4 0.216828 0.444657 0.451559
634 2 0.201298 0.46062 0.440193
772 2 0.22078 0.438483 0.491903
774 4 0.221711 0.451536 0.470598
636 4 0.185769 0.476584 0.428827
1400 4 0.356204 0.459123 0.456537
588 4 0.372842 0.452989 0.447316
586 2 0.396907 0.452725 0.440535
1399 2 0.347441 0.482468 0.458372
587 4 0.420973 0.45246 0.433755
1126 2 0.0156398 0.075774 0.536459
1127 4 0.0228576 0.063022 0.516199
1128 4 0.00842203 0.088526 0.556719
1058 4 0.116329 0.0314414 0.546079
1057 2 0.128764 0.0497228 0.557755
1059 4 0.141199 0.0680042 0.569432
1030 2 0.234988 0.0795117 0.576772
1031 4 0.24092 0.0553292 0.574493
961 2 0.302456 0.0278338 0.518793
962 4 0.316052 0.0102863 0.5303
963 4 0.28886 0.0453814 0.507286
1181 4 0.269583 0.0486271 0.5047
1217 4 0.396976 0.0619043 0.533403
842 4 0.389893 0.071535 0.517729
841 2 0.371616 0.0808632 0.503441
1216 2 0.414397 0.0797021 0.535619
1218 4 0.431819 0.0974998 0.537835
4466 4 0.495609 0.991057 0.5731
1153 2 0.146368 0.10249 0.571623
939 4 0.138003 0.144499 0.542931
1155 4 0.130743 0.0835613 0.566852
937 2 0.122364 0.162424 0.535231
1154 4 0.161992 0.121418 0.576394
1152 4 0.166406 0.102544 0.494642
1150 2 0.175405 0.105382 0.517797
1151 4 0.184404 0.108221 0.540952
1032 4 0.229056 0.103694 0.579051
898 2 0.325079 0.15935 0.551833
899 4 0.302533 0.148714 0.55376
857 4 0.283848 0.151842 0.560449
3157 2 0.471743 0.146536 0.507268
878 4 0.0745624 0.228347 0.537512
470 4 0.0325151 0.207972 0.518723
1199 4 0.0123966 0.175046 0.557822
877 2 0.084925 0.223981 0.559844
938 4 0.106726 0.18035 0.527531
879 4 0.0952876 0.219616 0.582177
797 4 0.262101 0.200935 0.574036
856 2 0.26971 0.172358 0.558354
796 2 0.26926 0.224531 0.57818
858 4 0.255571 0.192873 0.556259
900 4 0.347625 0.169986 0.549905
871 2 0.376019 0.241946 0.510731
872 4 0.396157 0.228817 0.503857
3159 4 0.483524 0.166773 0.516034
1260 4 0.153518 0.284543 0.522191
696 4 0.135612 0.291535 0.518323
1258 2 0.17543 0.295264 0.527676
1259 4 0.197342 0.305985 0.533161
1237 2 0.245425 0.320661 0.581623
798 4 0.276418 0.248127 0.582323
1238 4 0.263813 0.30626 0.572695
792 4 0.281475 0.302029 0.581119
812 4 0.333688 0.301589 0.529547
811 2 0.335421 0.277469 0.52319
873 4 0.355881 0.255075 0.517605
813 4 0.337155 0.253349 0.516834
897 4 0.154918 0.365506 0.575233
1137 4 0.136269 0.374314 0.575507
1135 2 0.115522 0.360828 0.579094
895 2 0.179605 0.365418 0.571269
1189 2 0.223606 0.374784 0.537648
896 4 0.204292 0.36533 0.567304
1191 4 0.206384 0.381412 0.554519
1190 4 0.240828 0.368156 0.520776
929 4 0.357462 0.374255 0.535744
928 2 0.36867 0.370613 0.557796
925 2 0.449588 0.387811 0.51434
926 4 0.43986 0.381578 0.536514
1001 4 0.436186 0.408708 0.570864
927 4 0.459316 0.394044 0.492166
1382 4 0.997419 0.493894 0.505828
383 4 0.121045 0.416867 0.524792
382 2 0.129244 0.431773 0.506468
1173 4 0.221667 0.435006 0.549737
773 4 0.21985 0.425429 0.513209
1171 2 0.245833 0.438059 0.54409
1172 4 0.269998 0.441111 0.538443
882 4 0.287447 0.449262 0.535778
880 2 0.303406 0.46316 0.522462
881 4 0.319366 0.477059 0.509147
891 4 0.339938 0.456101 0.585197
1910 4 0.430651 0.474185 0.577313
1000 2 0.435317 0.433631 0.569065
661 2 0.477622 0.485535 0.508456
663 4 0.482445 0.461159 0.505678
1002 4 0.434448 0.458555 0.567267
1185 4 0.0159169 0.0457837 0.641366
945 4 0.0528838 0.0359528 0.650799
825 4 0.129351 0.012764 0.621023
951 4 0.228536 0.0464808 0.58749
949 2 0.210457 0.0293976 0.590036
950 4 0.192377 0.0123143 0.592583
1003 2 0.369577 0.0821765 0.635576
1004 4 0.387875 0.0737803 0.650405
2282 4 0.458686 0.0422883 0.647874
2281 2 0.455973 0.0221781 0.633266
45 3 0.477458 0.0764814 0.657457
810 4 0.489167 0.07075 0.643643
43 3 0.446127 0.0565089 0.651366
41 1 0.459196 0.0671214 0.667334
808 2 0.494618 0.0612918 0.621149
1082 4 0.056061 0.120335 0.63608
1081 2 0.0745553 0.103954 0.632232
1083 4 0.0930496 0.0875729 0.628384
1283 4 0.16566 0.0970239 0.656803
1221 4 0.177177 0.131221 0.585971
1219 2 0.19453 0.141613 0.60067
1220 4 0.211884 0.152004 0.615369
1212 4 0.21969 0.161699 0.631148
1005 4 0.35128 0.0905727 0.620748
1208 4 0.0658589 0.251359 0.638233
1272 4 0.108283 0.212455 0.597144
1270 2 0.111718 0.205366 0.620874
1271 4 0.115153 0.198276 0.644604
1207 2 0.0877364 0.250083 0.650271
909 4 0.180028 0.200573 0.650774
1210 2 0.24129 0.167597 0.642276
907 2 0.187987 0.183961 0.667681
1211 4 0.262891 0.173494 0.653404
888 4 0.27974 0.16772 0.663026
1026 4 0.417832 0.229822 0.635707
1024 2 0.425685 0.214312 0.653677
1244 4 0.0395294 0.301687 0.619304
1243 2 0.0246146 0.290269 0.635808
1245 4 0.00969981 0.278851 0.652311
1209 4 0.109614 0.248806 0.66231
948 4 0.17269 0.315755 0.63185
946 2 0.175676 0.29259 0.622927
947 4 0.178662 0.269424 0.614003
791 4 0.321822 0.275311 0.593727
790 2 0.301648 0.28867 0.587423
953 4 0.449148 0.275002 0.607172
952 2 0.442254 0.298987 0.605637
954 4 0.43536 0.322972 0.604101
3123 4 0.480362 0.295056 0.657022
983 4 0.0284267 0.360582 0.627747
1039 2 0.0629722 0.378244 0.618983
1041 4 0.0380138 0.376754 0.619182
982 2 0.0100032 0.350938 0.64163
1040 4 0.0879305 0.379734 0.618784
993 4 0.0899272 0.400853 0.619016
1136 4 0.0947742 0.347343 0.58268
992 4 0.126954 0.410539 0.651202
991 2 0.108441 0.405696 0.635109
1239 4 0.227038 0.335061 0.590551
930 4 0.379877 0.366971 0.579849
1204 2 0.4025 0.380957 0.606304
1206 4 0.388923 0.36223 0.59681
1205 4 0.416076 0.399685 0.615798
3182 4 0.494402 0.4051 0.654133
2129 4 0.0213217 0.493142 0.640103
2128 2 0.00134376 0.491611 0.65506
2170 2 0.104416 0.497507 0.662508
1160 4 0.172592 0.457111 0.623757
1159 2 0.19655 0.461501 0.618108
1161 4 0.220509 0.46589 0.612459
890 4 0.301067 0.428664 0.60059
889 2 0.320502 0.442383 0.592894
1952 4 0.346294 0.474674 0.588462
1951 2 0.349201 0.495375 0.602181
1909 2 0.448209 0.488715 0.587597
2319 4 0.0449125 0.0269644 0.667482
2318 4 0.0225277 0.994459 0.698191
943 2 0.0579975 0.0553011 0.665788
2317 2 0.0337201 0.0107119 0.682837
944 4 0.0631112 0.0746494 0.680777
1075 2 0.0640993 0.075726 0.717932
1077 4 0.058333 0.0641124 0.739311
1163 4 0.486296 0.0504531 0.683108
42 3 0.466093 0.0515782 0.682825
44 3 0.446781 0.0834794 0.678135
1076 4 0.0698655 0.0873395 0.696553
1105 2 0.0711393 0.168253 0.734814
1282 2 0.172238 0.112622 0.675205
1284 4 0.178816 0.128219 0.693606
1227 4 0.185251 0.141805 0.707646
1225 2 0.201179 0.126369 0.719187
1226 4 0.217107 0.110933 0.730728
1148 4 0.225591 0.102593 0.746566
1147 2 0.216725 0.0793645 0.749217
1142 4 0.395485 0.161279 0.701624
1107 4 0.0723182 0.179117 0.712324
851 4 0.0702605 0.197695 0.702898
852 4 0.0227403 0.208485 0.691667
850 2 0.0465004 0.20309 0.697283
1178 4 0.0174673 0.226987 0.688287
1177 2 0.0139723 0.250459 0.680413
908 4 0.195947 0.167348 0.684587
830 4 0.320655 0.170315 0.714635
886 2 0.297496 0.172657 0.679923
887 4 0.315253 0.177593 0.69682
829 2 0.32571 0.191924 0.726153
1064 4 0.260987 0.236179 0.710756
1193 4 0.367556 0.204564 0.66845
831 4 0.330764 0.213533 0.737671
1192 2 0.377149 0.213423 0.689773
1194 4 0.386742 0.222282 0.711096
1262 4 0.403159 0.22203 0.722431
1141 2 0.415943 0.172104 0.692166
1143 4 0.436402 0.182928 0.682708
1025 4 0.433539 0.198801 0.671648
3356 4 0.471144 0.219411 0.719165
3355 2 0.488202 0.229623 0.704003
1261 2 0.427937 0.225194 0.723526
1263 4 0.452715 0.228358 0.724622
1145 4 0.473032 0.199666 0.72145
3357 4 0.50526 0.239836 0.68884
1144 2 0.479603 0.192281 0.744417
1179 4 0.0104773 0.273932 0.672539
821 4 0.152223 0.266621 0.74876
1065 4 0.260392 0.286171 0.711836
1063 2 0.26069 0.261175 0.711296
806 4 0.351736 0.316479 0.682182
3121 2 0.492252 0.276205 0.668356
892 2 0.0665088 0.388641 0.715521
894 4 0.0430255 0.381554 0.720367
3276 4 0.0324434 0.372156 0.733946
893 4 0.0899921 0.395728 0.710675
1068 4 0.198188 0.412299 0.68207
1028 4 0.218294 0.415254 0.680877
1139 4 0.287145 0.417072 0.67224
1138 2 0.303693 0.414525 0.69081
1140 4 0.320242 0.411979 0.70938
807 4 0.376219 0.355985 0.700637
805 2 0.363977 0.336232 0.691409
1020 4 0.385615 0.367545 0.714627
1018 2 0.390402 0.369907 0.739054
1280 4 0.0314615 0.42234 0.69937
1281 4 0.0354611 0.463416 0.727609
1279 2 0.0334613 0.442878 0.71349
1983 4 0.0292448 0.479387 0.71814
1981 2 0.0156816 0.495556 0.731549
1067 4 0.150638 0.418689 0.696173
941 4 0.145536 0.429439 0.710827
2172 4 0.0925672 0.480096 0.675985
940 2 0.135454 0.435164 0.73298
942 4 0.125371 0.44089 0.755132
1066 2 0.174413 0.415494 0.689122
1027 2 0.243154 0.414041 0.678492
1175 4 0.250111 0.496679 0.70642
1987 2 0.320547 0.50045 0.724188
1029 4 0.268014 0.412828 0.676106
1989 4 0.334937 0.480006 0.723782
1229 4 0.337376 0.466169 0.738156
1228 2 0.359598 0.454814 0.739721
1230 4 0.38182 0.44346 0.741286
1269 4 0.463202 0.488285 0.684794
1100 4 0.464751 0.47176 0.72265
1099 2 0.483614 0.484917 0.71284
1203 4 0.0593112 0.0642509 0.759008
1201 2 0.075198 0.0472595 0.768178
1202 4 0.0910847 0.0302681 0.777347
864 4 0.0589267 0.0830072 0.79054
911 4 0.103568 0.0599339 0.802544
2049 4 0.0958467 0.0114088 0.776004
910 2 0.0964317 0.0799683 0.815692
1149 4 0.20786 0.0561363 0.751869
1256 4 0.306372 0.0733129 0.775297
1050 4 0.294411 0.00527089 0.776314
817 2 0.347419 0.0676351 0.828348
1112 4 0.409572 0.045028 0.823045
819 4 0.36012 0.0831405 0.813399
980 4 0.442611 0.0027092 0.83227
846 4 0.469132 0.0338053 0.816627
1113 4 0.457174 0.0474893 0.807921
844 2 0.487152 0.0416664 0.801178
1111 2 0.433373 0.0462586 0.815483
1106 4 0.0699604 0.15739 0.757303
862 2 0.035624 0.0906609 0.795397
863 4 0.0123213 0.0983145 0.800253
833 4 0.00176374 0.11163 0.810916
35 3 0.0812937 0.163894 0.772745
33 3 0.10594 0.135585 0.769773
31 1 0.102099 0.156704 0.778585
34 3 0.104076 0.156122 0.801697
32 3 0.11779 0.171252 0.770143
912 4 0.0892949 0.100003 0.82884
1130 4 0.23367 0.153466 0.781053
840 4 0.227347 0.109333 0.813335
838 2 0.246502 0.120114 0.801417
1255 2 0.296636 0.0863899 0.794254
1257 4 0.2869 0.0994669 0.813212
839 4 0.265657 0.130894 0.789498
958 2 0.288364 0.152634 0.819599
959 4 0.275405 0.145212 0.799544
960 4 0.301322 0.160055 0.839653