ITEM: TIMESTEP
70000
ITEM: NUMBER OF ATOMS
4590
ITEM: BOX BOUNDS pp pp pp
-9.9985700000000008e+00 9.9985700000000008e+00
-9.9985700000000008e+00 9.9985700000000008e+00
-9.9985700000000008e+00 9.9985700000000008e+00
ITEM: ATOMS id type xs ys zs
463 2 0.0559327 0.0428731 0.0225552
465 4 0.0403011 0.0615678 0.0169571
1667 4 0.0780071 0.00790542 0.0689613
464 4 0.0715644 0.0241784 0.0281534
532 2 0.199861 0.0439815 0.0152794
534 4 0.189122 0.0454156 0.037814
490 2 0.269126 0.0454593 0.0365777
491 4 0.279331 0.045388 0.0594039
492 4 0.258922 0.0455305 0.0137515
295 2 0.393942 0.0652016 0.0753141
296 4 0.3975 0.0712975 0.0513274
987 4 0.39328 0.0683772 0.000430028
745 2 0.447268 0.0580401 0.0485201
746 4 0.432446 0.0386315 0.0538851
747 4 0.462091 0.0774487 0.043155
2975 4 0.470595 0.0709831 0.00521111
589 2 0.0285027 0.112114 0.0600322
590 4 0.00755013 0.106123 0.0722909
591 4 0.0494552 0.118105 0.0477735
421 2 0.117618 0.129442 0.00599463
423 4 0.094433 0.13041 0.0153047
701 4 0.116386 0.109154 0.0803776
565 2 0.22394 0.12273 0.0595965
566 4 0.232751 0.106269 0.0429662
567 4 0.215129 0.139191 0.0762268
358 2 0.2765 0.134859 0.0304004
359 4 0.272364 0.115165 0.0155607
360 4 0.280637 0.154553 0.0452401
556 2 0.356676 0.123774 0.0468751
557 4 0.340403 0.1271 0.0281859
558 4 0.37295 0.120448 0.0655644
553 2 0.0645211 0.216757 0.0140847
555 4 0.0518089 0.19887 0.026069
476 4 0.110422 0.168712 0.0780765
571 2 0.322683 0.23078 0.0513167
573 4 0.298481 0.2367 0.0534149
572 4 0.346885 0.224859 0.0492185
664 2 0.349556 0.198952 0.00577842
665 4 0.37187 0.196549 0.0168008
255 4 0.363116 0.19276 0.089277
324 4 0.402279 0.247104 0.0736226
1071 4 0.40103 0.236019 0.00552157
771 4 0.445285 0.186258 0.0523122
770 4 0.49147 0.175632 0.0682721
769 2 0.468377 0.180945 0.0602921
1014 4 0.488668 0.202089 0.00774771
292 2 0.111658 0.289428 0.00853822
294 4 0.0898588 0.297526 0.0177245
914 4 0.186044 0.264677 0.00673544
483 4 0.229618 0.298419 0.044295
505 2 0.202547 0.28548 0.0583712
507 4 0.186573 0.301724 0.0480677
506 4 0.218521 0.269237 0.0686748
355 2 0.262407 0.266153 0.000843909
357 4 0.273669 0.262668 0.0228937
481 2 0.252261 0.308991 0.0434444
482 4 0.274903 0.319564 0.0425938
957 4 0.335549 0.318734 0.00461039
1069 2 0.4131 0.257909 0.00604771
280 2 0.466935 0.311376 0.0181975
281 4 0.471712 0.311187 0.0427398
322 2 0.416646 0.266111 0.0660412
323 4 0.431013 0.285119 0.0584598
1070 4 0.42517 0.2798 0.00657386
672 4 0.420351 0.326403 0.0776191
328 2 0.0159768 0.40242 0.0146032
330 4 0.0174018 0.385741 0.0331762
552 4 0.0745467 0.415052 0.0410482
454 2 0.133037 0.35553 0.0760901
455 4 0.147795 0.370297 0.0623321
288 4 0.166137 0.3963 0.00914357
286 2 0.171409 0.372036 0.0120867
287 4 0.176681 0.347773 0.0150298
252 4 0.253044 0.383193 0.0522156
250 2 0.274288 0.396272 0.0538896
251 4 0.295532 0.409351 0.0555636
670 2 0.438456 0.343596 0.0789497
671 4 0.456561 0.360789 0.0802804
550 2 0.0618086 0.436567 0.0411005
551 4 0.0490705 0.458083 0.0411527
315 4 0.0111292 0.416424 0.06778
241 2 0.165791 0.493813 0.0781085
244 2 0.239559 0.453645 0.0303503
245 4 0.21552 0.452258 0.0236114
243 4 0.186707 0.480688 0.0820355
246 4 0.263597 0.455032 0.0370892
271 2 0.291719 0.486142 0.00456058
272 4 0.304601 0.473645 0.0219693
608 4 0.341326 0.425017 0.0807656
564 4 0.415104 0.477247 0.0467897
227 4 0.491362 0.440288 0.0396181
562 2 0.435919 0.473979 0.0333267
563 4 0.456733 0.470711 0.0198637
16 1 0.0655568 0.0707535 0.153115
19 3 0.0565 0.0663873 0.132203
2576 4 0.00158515 0.0401469 0.128321
18 3 0.0634691 0.0520661 0.16671
450 4 0.150708 0.0477163 0.120864
20 3 0.0875114 0.0764405 0.151041
448 2 0.166326 0.0572456 0.137907
449 4 0.181943 0.066775 0.15495
1505 4 0.238014 0.0172631 0.162293
652 2 0.31608 0.0457964 0.146215
654 4 0.291696 0.0508565 0.143986
582 4 0.282109 0.0814674 0.133324
653 4 0.340465 0.0407363 0.148443
297 4 0.390384 0.0591056 0.0993009
1760 4 0.486172 0.00532087 0.129526
702 4 0.0718222 0.0865029 0.0817044
17 3 0.0540734 0.0882353 0.162689
700 2 0.0941039 0.0978283 0.081041
235 2 0.159022 0.136574 0.142918
237 4 0.140414 0.15146 0.150488
236 4 0.177631 0.121688 0.135348
580 2 0.275335 0.099225 0.149571
581 4 0.268561 0.116983 0.165817
628 2 0.406533 0.158446 0.143415
462 4 0.340346 0.157227 0.105105
629 4 0.418347 0.143177 0.127526
379 2 0.0310685 0.168616 0.160353
380 4 0.011103 0.177277 0.148043
656 4 0.0234178 0.249458 0.106305
475 2 0.124873 0.168973 0.0984792
477 4 0.139325 0.169235 0.118882
337 2 0.103634 0.247955 0.130115
338 4 0.121286 0.24778 0.147823
339 4 0.0859829 0.248129 0.112407
736 2 0.176124 0.202271 0.131496
737 4 0.164602 0.20392 0.109366
738 4 0.187645 0.200622 0.153625
354 4 0.227542 0.213812 0.110865
352 2 0.250369 0.223869 0.112589
353 4 0.273196 0.233925 0.114314
460 2 0.33153 0.178908 0.113901
461 4 0.322713 0.20059 0.122696
254 4 0.402718 0.163085 0.096472
253 2 0.382917 0.177923 0.0928745
630 4 0.39472 0.173715 0.159304
517 2 0.474608 0.233285 0.102614
518 4 0.475736 0.208331 0.101515
705 4 0.0145009 0.327889 0.1601
655 2 0.00484748 0.264588 0.0991369
703 2 0.00958932 0.303458 0.162143
704 4 0.00467771 0.279027 0.164187
536 4 0.185828 0.326959 0.166127
754 2 0.278381 0.302382 0.122613
755 4 0.287214 0.287184 0.140395
756 4 0.269547 0.31758 0.104832
741 4 0.325827 0.306 0.110167
622 2 0.382 0.264601 0.147294
624 4 0.35774 0.269626 0.14392
739 2 0.344154 0.320551 0.10136
623 4 0.40626 0.259576 0.150667
519 4 0.47348 0.258239 0.103713
619 2 0.00395574 0.350948 0.104777
620 4 0.0168711 0.371844 0.109439
456 4 0.118278 0.340762 0.0898481
537 4 0.148863 0.358548 0.154448
535 2 0.167346 0.342754 0.160288
625 2 0.209645 0.405751 0.111093
626 4 0.224249 0.386003 0.106407
607 2 0.322283 0.4142 0.0928282
609 4 0.303239 0.403383 0.104891
610 2 0.27358 0.358486 0.164938
612 4 0.280271 0.374742 0.147157
740 4 0.362481 0.335102 0.0925525
387 4 0.353136 0.385243 0.144061
15 3 0.406361 0.359226 0.128451
385 2 0.36139 0.38242 0.120628
386 4 0.369644 0.379596 0.0971957
11 1 0.401059 0.357618 0.150541
12 3 0.406476 0.336586 0.158121
13 3 0.378297 0.361022 0.153487
14 3 0.413057 0.373303 0.162724
495 4 0.422152 0.409628 0.122456
595 2 0.493765 0.395843 0.162595
597 4 0.476723 0.377699 0.160236
313 2 0.00776414 0.432977 0.0862149
314 4 0.00439909 0.44953 0.10465
416 4 0.128544 0.450507 0.159521
627 4 0.195042 0.425499 0.115778
639 4 0.239475 0.480394 0.129033
637 2 0.25644 0.4765 0.146983
523 2 0.345935 0.491434 0.106424
525 4 0.34195 0.479362 0.127955
658 2 0.398888 0.472151 0.152256
659 4 0.407786 0.489956 0.137123
660 4 0.389991 0.454346 0.167389
493 2 0.442911 0.422012 0.128849
494 4 0.46367 0.434397 0.135242
2479 2 0.000893104 0.0557352 0.195072
2480 4 0.00850042 0.0364535 0.181089
673 2 0.116157 0.0375974 0.220324
674 4 0.137396 0.0375497 0.207129
675 4 0.0949187 0.037645 0.233519
689 4 0.223754 0.00838057 0.23055
1506 4 0.268963 0.998707 0.196913
1504 2 0.253488 0.00798481 0.179603
21 1 0.374591 0.0574569 0.232477
23 3 0.376386 0.035188 0.238744
24 3 0.357816 0.0598999 0.216633
25 3 0.394421 0.064762 0.223987
759 4 0.398734 0.0695665 0.206071
757 2 0.415555 0.068562 0.187598
22 3 0.369205 0.0699852 0.251002
758 4 0.432375 0.0675575 0.169125
742 2 0.447809 0.0554001 0.247561
743 4 0.456979 0.078488 0.244728
381 4 0.0510339 0.159955 0.172664
511 2 0.0190309 0.156048 0.236639
513 4 0.0384194 0.140773 0.240628
577 2 0.0989638 0.109859 0.217566
578 4 0.0944565 0.128138 0.201111
579 4 0.103471 0.0915809 0.234021
723 4 0.18316 0.096878 0.22566
691 2 0.237202 0.0926226 0.188255
693 4 0.219841 0.0939162 0.170309
721 2 0.177913 0.109737 0.246451
692 4 0.254564 0.0913291 0.206202
30 3 0.303307 0.157447 0.220621
26 1 0.316414 0.13943 0.225337
28 3 0.308681 0.120797 0.213873
27 3 0.337998 0.143817 0.218699
310 2 0.408021 0.123604 0.192337
312 4 0.395179 0.12332 0.170885
311 4 0.420863 0.123887 0.213789
512 4 0.999642 0.171324 0.232649
363 4 0.0798004 0.241527 0.182845
394 2 0.0136614 0.234408 0.206571
395 4 0.0342519 0.242615 0.195001
391 2 0.0952451 0.189974 0.244137
392 4 0.0947653 0.177361 0.222553
370 2 0.158918 0.246986 0.240757
371 4 0.164213 0.222809 0.244307
284 4 0.23081 0.218902 0.165743
283 2 0.249283 0.204295 0.174146
285 4 0.267755 0.189689 0.182549
765 4 0.375411 0.242182 0.226562
764 4 0.382021 0.215596 0.184727
763 2 0.378716 0.228889 0.205644
520 2 0.464542 0.212275 0.238168
521 4 0.445407 0.209584 0.222301
648 4 0.0779162 0.329243 0.166513
361 2 0.0873829 0.262406 0.194324
362 4 0.0949653 0.283284 0.205804
372 4 0.153624 0.271164 0.237206
300 4 0.12334 0.320456 0.247567
279 4 0.215854 0.254531 0.184325
343 2 0.230295 0.288826 0.236361
344 4 0.235052 0.26429 0.235624
345 4 0.225538 0.313361 0.237099
277 2 0.239732 0.261913 0.183619
278 4 0.263611 0.269295 0.182913
307 2 0.304792 0.282149 0.233328
309 4 0.298347 0.295525 0.21321
527 4 0.498711 0.280337 0.175877
526 2 0.479425 0.266098 0.182984
528 4 0.46014 0.25186 0.190092
262 2 0.0285071 0.414715 0.216783
264 4 0.00893242 0.412066 0.232113
646 2 0.0894732 0.349542 0.175434
298 2 0.136331 0.336658 0.233642
299 4 0.149322 0.35286 0.219717
647 4 0.10103 0.369841 0.184354
417 4 0.154318 0.411606 0.177497
611 4 0.26689 0.34223 0.182718
301 2 0.335944 0.414124 0.191239
302 4 0.359531 0.406792 0.195121
643 2 0.444174 0.369982 0.20856
644 4 0.433118 0.384221 0.225886
645 4 0.455231 0.355743 0.191235
263 4 0.0480818 0.417364 0.201453
2618 4 0.00697441 0.474835 0.193933
415 2 0.141431 0.431056 0.168509
291 4 0.177406 0.445207 0.18736
289 2 0.201519 0.440359 0.191861
290 4 0.225631 0.435511 0.196362
768 4 0.238574 0.458118 0.217948
303 4 0.312357 0.421456 0.187358
767 4 0.282393 0.482166 0.216404
766 2 0.260483 0.470142 0.217176
638 4 0.273405 0.472606 0.164933
229 2 0.390072 0.488479 0.244195
231 4 0.382333 0.46577 0.251238
1568 4 0.490325 0.501271 0.207351
232 2 2.7104e-05 0.0501227 0.279815
233 4 0.0146493 0.0308495 0.286133
1402 2 0.0764971 0.0125699 0.279412
1464 4 0.13877 0.00882457 0.277953
1403 4 0.0980688 0.023843 0.273689
730 2 0.154696 0.0795842 0.314223
731 4 0.165042 0.0786246 0.29148
688 2 0.21986 0.0049597 0.255011
690 4 0.215965 0.00153884 0.279471
1699 2 0.254592 0.999949 0.323568
1700 4 0.265793 0.000384994 0.301218
744 4 0.438638 0.0323122 0.250393
478 2 0.476972 0.0338822 0.311344
480 4 0.471276 0.0135614 0.297935
351 4 0.442427 0.0653237 0.302087
479 4 0.482668 0.0542029 0.324753
2756 4 0.00439623 0.0900431 0.322283
529 2 0.0352614 0.140147 0.286191
530 4 0.059206 0.144762 0.291717
531 4 0.0113168 0.135533 0.280665
546 4 0.173233 0.140685 0.259227
722 4 0.172666 0.122596 0.267243
249 4 0.217835 0.114448 0.294501
247 2 0.238037 0.102529 0.285842
403 2 0.220023 0.15329 0.304891
404 4 0.216161 0.129036 0.309583
29 3 0.31628 0.135301 0.24817
248 4 0.258239 0.0906093 0.277182
631 2 0.349404 0.0991185 0.299527
632 4 0.338254 0.0898806 0.279143
633 4 0.360553 0.108356 0.319912
331 2 0.455684 0.14212 0.257554
332 4 0.479891 0.145808 0.262613
333 4 0.431477 0.138432 0.252494
349 2 0.452046 0.0852541 0.313724
350 4 0.461664 0.105184 0.325362
444 4 0.043608 0.24091 0.283466
393 4 0.0957249 0.202587 0.26572
544 2 0.174846 0.165415 0.255906
545 4 0.176459 0.190145 0.252586
405 4 0.223884 0.177543 0.300199
706 2 0.327232 0.203683 0.304451
708 4 0.323984 0.190011 0.325132
707 4 0.330479 0.217355 0.283769
420 4 0.42536 0.227907 0.279584
418 2 0.432421 0.234345 0.30269
419 4 0.439482 0.240784 0.325795
522 4 0.483678 0.214965 0.254036
762 4 0.461525 0.190812 0.273232
761 4 0.484012 0.194467 0.317748
760 2 0.472768 0.192639 0.29549
443 4 0.997973 0.260263 0.290072
748 2 0.0778314 0.285255 0.264832
750 4 0.0625918 0.265629 0.267614
442 2 0.0207906 0.250587 0.286769
366 4 0.0223065 0.328411 0.267027
390 4 0.0879336 0.256938 0.321608
749 4 0.0930709 0.304881 0.262049
388 2 0.109996 0.268586 0.319949
389 4 0.132058 0.280234 0.31829
677 4 0.138303 0.328931 0.320975
400 2 0.202196 0.266613 0.316687
402 4 0.224852 0.26878 0.306335
401 4 0.179539 0.264446 0.32704
308 4 0.311236 0.268773 0.253446
496 2 0.29942 0.288128 0.290149
497 4 0.314892 0.276768 0.306172
498 4 0.283948 0.299489 0.274126
543 4 0.403561 0.319493 0.297158
615 4 0.356398 0.29015 0.321669
613 2 0.364519 0.313797 0.321936
541 2 0.422232 0.303458 0.301568
542 4 0.440903 0.287424 0.305978
364 2 0.0135071 0.345743 0.282755
365 4 0.00470772 0.363075 0.298482
601 2 0.0749845 0.392024 0.295716
602 4 0.0631159 0.412854 0.288616
603 4 0.086853 0.371193 0.302816
734 4 0.169813 0.355242 0.256586
735 4 0.185784 0.348928 0.303551
733 2 0.177799 0.352085 0.280068
729 4 0.351079 0.350496 0.250034
727 2 0.348848 0.370598 0.264735
728 4 0.346618 0.3907 0.279436
614 4 0.37264 0.337443 0.322203
434 4 0.336983 0.396936 0.330671
447 4 0.424989 0.385697 0.255423
445 2 0.436002 0.388137 0.277738
446 4 0.447015 0.390576 0.300053
777 4 0.0567189 0.474953 0.325821
775 2 0.0812209 0.471973 0.321828
776 4 0.105723 0.468993 0.317834
414 4 0.140197 0.463075 0.290523
412 2 0.160468 0.469522 0.303665
413 4 0.180739 0.475968 0.316807
436 2 0.297535 0.440451 0.29379
437 4 0.315243 0.435914 0.276731
438 4 0.279827 0.444989 0.31085
713 4 0.406075 0.466098 0.294279
712 2 0.428996 0.476086 0.294497
714 4 0.451917 0.486074 0.294714
119 3 0.485219 0.433023 0.327851
316 2 0.0301808 0.0644194 0.357464
317 4 0.00950087 0.0562349 0.368889
318 4 0.0508608 0.0726038 0.346039
732 4 0.144351 0.0805438 0.336965
427 2 0.0966018 0.0253797 0.365673
428 4 0.0888041 0.0354985 0.387167
429 4 0.104399 0.0152608 0.344179
606 4 0.166553 0.0447472 0.393697
441 4 0.234219 0.0204152 0.384356
604 2 0.175237 0.0461456 0.370292
605 4 0.183921 0.0475441 0.346886
439 2 0.251754 0.0232361 0.401956
698 4 0.384514 0.0292931 0.347231
697 2 0.362043 0.0219995 0.355418
699 4 0.339571 0.0147058 0.363604
256 2 0.425068 0.0563192 0.373585
258 4 0.426138 0.0344718 0.385698
257 4 0.423998 0.0781665 0.361472
398 4 0.0620442 0.132902 0.334549
397 2 0.0842171 0.121706 0.337413
399 4 0.10639 0.110511 0.340277
600 4 0.156446 0.169463 0.339098
598 2 0.171861 0.160301 0.356522
599 4 0.187277 0.151139 0.373946
682 2 0.292392 0.0894709 0.376474
683 4 0.314892 0.086091 0.366105
684 4 0.269892 0.0928507 0.386842
466 2 0.34705 0.146697 0.402279
467 4 0.361515 0.149846 0.382128
451 2 0.469886 0.145077 0.357573
452 4 0.492026 0.135664 0.350759
453 4 0.447747 0.154489 0.364387
514 2 0.437746 0.150987 0.405254
515 4 0.437675 0.157099 0.381008
2654 4 0.021912 0.20388 0.365844
474 4 0.229674 0.16733 0.358779
274 2 0.22474 0.245787 0.397144
276 4 0.244494 0.234963 0.407998
472 2 0.251594 0.171734 0.347587
473 4 0.273515 0.176139 0.336394
488 4 0.287586 0.232008 0.39566
715 2 0.358161 0.231627 0.368246
716 4 0.340558 0.215345 0.361159
267 4 0.361324 0.245241 0.410983
617 4 0.0758428 0.312236 0.345008
616 2 0.0769938 0.323304 0.367399
676 2 0.139511 0.331302 0.345837
275 4 0.204986 0.256611 0.386291
510 4 0.198624 0.332942 0.347842
375 4 0.181319 0.291464 0.406344
376 2 0.293668 0.300639 0.357475
377 4 0.314223 0.289228 0.348964
378 4 0.273113 0.312051 0.365987
717 4 0.375764 0.247909 0.375333
268 2 0.476943 0.281613 0.385033
269 4 0.476257 0.256825 0.38183
270 4 0.477628 0.306401 0.388236
618 4 0.0781447 0.334372 0.389789
2927 4 0.0123543 0.367477 0.378952
548 4 0.0666301 0.41966 0.335626
408 4 0.0708389 0.397636 0.41393
406 2 0.0745396 0.40395 0.390022
678 4 0.140718 0.333672 0.370698
407 4 0.0782404 0.410263 0.366113
509 4 0.248187 0.333454 0.341208
508 2 0.223405 0.333198 0.344525
502 2 0.211029 0.4052 0.391291
504 4 0.197848 0.38428 0.387577
435 4 0.289496 0.399546 0.346127
433 2 0.31324 0.398241 0.338399
336 4 0.364487 0.382071 0.403003
561 4 0.432307 0.347482 0.400643
751 2 0.433237 0.400933 0.38621
752 4 0.444405 0.379187 0.391458
2925 4 0.493975 0.338526 0.389015
547 2 0.0482133 0.43348 0.345372
549 4 0.0297965 0.447301 0.355119
499 2 0.109515 0.46381 0.368968
500 4 0.131282 0.456084 0.378544
501 4 0.087748 0.471536 0.359393
1557 4 0.225834 0.500985 0.382818
503 4 0.22421 0.42612 0.395005
5 3 0.315617 0.46965 0.36424
1 1 0.336417 0.468933 0.373486
4 3 0.339009 0.449335 0.385635
2 3 0.339033 0.486866 0.387653
3 3 0.352529 0.470118 0.356831
594 4 0.39233 0.491556 0.350471
586 2 0.415008 0.450461 0.412222
588 4 0.390077 0.449574 0.410532
587 4 0.439939 0.451349 0.413912
753 4 0.422069 0.42268 0.380963
592 2 0.415957 0.483385 0.350096
593 4 0.439585 0.475214 0.349721
718 2 0.0504621 0.0637424 0.472179
719 4 0.0387253 0.0628938 0.49424
720 4 0.0621989 0.064591 0.450117
367 2 0.112083 0.0675317 0.467475
369 4 0.122224 0.0535899 0.485585
368 4 0.101942 0.0814735 0.449365
342 4 0.170381 0.0492165 0.460553
340 2 0.176843 0.0433311 0.483979
440 4 0.269288 0.026057 0.419557
430 2 0.320915 0.0773879 0.500208
724 2 0.332506 0.0726171 0.436339
726 4 0.314907 0.081911 0.421204
424 2 0.392851 0.0295113 0.445439
425 4 0.37623 0.0108912 0.446926
426 4 0.409472 0.0481315 0.443951
725 4 0.350106 0.0633232 0.451474
457 2 0.00970382 0.163 0.430209
458 4 0.0186526 0.140228 0.435359
471 4 0.997057 0.158464 0.488431
687 4 0.156234 0.164718 0.416489
1152 4 0.166042 0.0934366 0.471687
938 4 0.0854922 0.149369 0.496793
321 4 0.229098 0.121226 0.416567
319 2 0.25193 0.130549 0.420685
1150 2 0.176564 0.108554 0.488596
1182 4 0.252315 0.0955711 0.502724
320 4 0.274762 0.139872 0.424803
468 4 0.332585 0.143548 0.422429
431 4 0.340208 0.0913629 0.492615
574 2 0.376463 0.16743 0.461715
576 4 0.376117 0.14357 0.469183
642 4 0.467289 0.0959005 0.487545
516 4 0.437817 0.144876 0.429499
2880 4 0.493015 0.10298 0.449119
640 2 0.4655 0.117215 0.500494
459 4 0.000755095 0.185773 0.425059
469 2 0.00465721 0.182216 0.490239
470 4 0.0122574 0.205968 0.492047
260 4 0.080025 0.199948 0.438116
261 4 0.103796 0.191403 0.481274
259 2 0.0919103 0.195675 0.459695
1035 4 0.108357 0.209159 0.49239
685 2 0.180535 0.167891 0.421446
686 4 0.204836 0.171065 0.426403
857 4 0.222213 0.224865 0.500713
411 4 0.271466 0.175204 0.481806
409 2 0.280886 0.19836 0.482328
410 4 0.290306 0.221515 0.48285
487 2 0.294988 0.224408 0.418302
489 4 0.30239 0.216809 0.440943
575 4 0.37681 0.191289 0.454247
872 4 0.428 0.249993 0.494024
304 2 0.491646 0.206143 0.431172
305 4 0.480555 0.183998 0.427742
346 2 0.0534704 0.284678 0.419395
348 4 0.032265 0.271493 0.420685
347 4 0.0746758 0.297863 0.418105
327 4 0.0814315 0.325616 0.460563
694 2 0.100925 0.253619 0.490519
696 4 0.109121 0.266479 0.470705
6 1 0.161149 0.323609 0.484041
9 3 0.148493 0.304378 0.481148
325 2 0.0973541 0.331488 0.442201
373 2 0.199583 0.298572 0.421871
374 4 0.217846 0.305679 0.437398
10 3 0.175424 0.326231 0.466491
651 4 0.256495 0.262854 0.480173
649 2 0.262782 0.28684 0.476958
650 4 0.269069 0.310826 0.473743
265 2 0.35799 0.265058 0.425861
266 4 0.354656 0.284875 0.440739
583 2 0.469052 0.308343 0.468826
584 4 0.484564 0.294022 0.45543
585 4 0.45354 0.322664 0.482222
681 4 0.0372951 0.409442 0.456975
326 4 0.113277 0.33736 0.423839
7 3 0.147014 0.341727 0.485082
773 4 0.234538 0.40176 0.486863
709 2 0.186451 0.383528 0.447416
710 4 0.195389 0.401567 0.432587
711 4 0.177513 0.365489 0.462244
772 2 0.253767 0.391037 0.498714
334 2 0.351334 0.380451 0.424205
238 2 0.372571 0.37987 0.473654
239 4 0.38985 0.385 0.490982
240 4 0.355291 0.37474 0.456325
335 4 0.338181 0.378831 0.445408
559 2 0.44992 0.355576 0.416437
560 4 0.467533 0.36367 0.43223
926 4 0.442418 0.402233 0.504282
1383 4 0.0371718 0.492184 0.451607
680 4 0.0512403 0.437477 0.417983
679 2 0.0442677 0.423459 0.437479
538 2 0.0787816 0.501694 0.495071
539 4 0.0693827 0.478546 0.494068
568 2 0.165149 0.461328 0.421923
569 4 0.140524 0.465304 0.423639
383 4 0.0995635 0.431848 0.452576
382 2 0.0913006 0.427055 0.475683
384 4 0.0830377 0.422261 0.498789
635 4 0.250007 0.455819 0.485685
570 4 0.189775 0.457352 0.420208
634 2 0.247216 0.456172 0.460841
669 4 0.288071 0.431569 0.455992
667 2 0.300697 0.425637 0.435242
636 4 0.244424 0.456525 0.435996
668 4 0.313324 0.419705 0.414493
1401 4 0.333808 0.501281 0.433328
1332 4 0.503442 0.503087 0.484105
663 4 0.432033 0.496653 0.492657
1126 2 0.0500167 0.0532446 0.533588
1127 4 0.051768 0.0380773 0.513787
1128 4 0.0482655 0.0684119 0.553389
2238 4 0.042059 0.999177 0.518836
1057 2 0.144991 0.0541322 0.578032
1058 4 0.162583 0.0558923 0.560352
1181 4 0.218735 0.0610808 0.516271
2430 4 0.196592 0.0218947 0.527337
1180 2 0.235525 0.0783259 0.509498
341 4 0.183306 0.0374457 0.507405
961 2 0.288834 0.0285339 0.516269
963 4 0.292751 0.0526162 0.521735
962 4 0.284917 0.00445154 0.510803
1031 4 0.253016 0.0612054 0.574761
432 4 0.301622 0.0634129 0.507801
841 2 0.378799 0.0714874 0.549173
843 4 0.356652 0.0627627 0.556828
1217 4 0.410978 0.0325544 0.567016
3008 4 0.488411 0.05823 0.569908
1060 2 0.484935 0.00781768 0.519766
1062 4 0.471848 0.0227121 0.504533
937 2 0.0919348 0.134964 0.516188
939 4 0.0983774 0.120558 0.535583
1154 4 0.14602 0.135324 0.579538
1151 4 0.187086 0.123671 0.505505
1030 2 0.248949 0.0853051 0.580038
842 4 0.400945 0.0802121 0.541519
899 4 0.362239 0.146393 0.544527
641 4 0.463712 0.13853 0.513443
3159 4 0.49805 0.150734 0.548655
877 2 0.0732534 0.22439 0.572008
878 4 0.0595878 0.240254 0.558341
1200 4 0.00714006 0.207574 0.574815
1033 2 0.120683 0.192513 0.506396
1034 4 0.133009 0.175867 0.520401
695 4 0.0927296 0.240758 0.510334
879 4 0.086919 0.208527 0.585675
856 2 0.215942 0.218764 0.524136
858 4 0.209672 0.212663 0.547559
1221 4 0.182046 0.185221 0.565624
898 2 0.352385 0.168326 0.537669
900 4 0.342531 0.190258 0.530811
871 2 0.411935 0.247221 0.512981
873 4 0.395869 0.244448 0.531939
983 4 0.0272477 0.318177 0.552311
1258 2 0.156549 0.267511 0.574854
1260 4 0.131902 0.266229 0.578863
8 3 0.173134 0.322297 0.503867
1259 4 0.181195 0.268793 0.570845
790 2 0.306626 0.259794 0.574832
792 4 0.294138 0.277884 0.562915
813 4 0.314948 0.306362 0.526712
811 2 0.338336 0.298125 0.529926
812 4 0.361724 0.289887 0.53314
954 4 0.439662 0.302566 0.57962
982 2 0.0142624 0.334614 0.565962
897 4 0.169294 0.396507 0.564561
1189 2 0.245295 0.379333 0.579771
802 2 0.285131 0.355387 0.546477
803 4 0.309893 0.358834 0.546837
804 4 0.260369 0.35194 0.546117
1190 4 0.266695 0.389553 0.571848
774 4 0.272996 0.380314 0.510565
928 2 0.355919 0.374801 0.583406
929 4 0.350115 0.383508 0.560697
925 2 0.459418 0.401896 0.522614
927 4 0.476419 0.401558 0.540946
934 2 0.0038355 0.447949 0.521483
935 4 0.0158744 0.426169 0.519058
1938 4 0.0418847 0.499051 0.553055
936 4 0.991797 0.469729 0.523908
1159 2 0.169158 0.441011 0.566993
1161 4 0.165951 0.444591 0.542455
1171 2 0.231763 0.466888 0.558988
1173 4 0.207491 0.464935 0.55331
882 4 0.325172 0.463162 0.523861
1172 4 0.256035 0.468842 0.564665
880 2 0.348457 0.458565 0.531725
881 4 0.371742 0.453968 0.539589
1000 2 0.416929 0.44743 0.577689
1001 4 0.436515 0.437803 0.565487
662 4 0.470744 0.469982 0.509711
661 2 0.451389 0.483318 0.501184
1185 4 0.0127717 0.0458663 0.657929
1059 4 0.127399 0.052372 0.595712
825 4 0.14781 0.0277666 0.638926
823 2 0.168661 0.0232388 0.625891
824 4 0.189513 0.0187111 0.612857
949 2 0.262659 0.0310975 0.633586
951 4 0.262581 0.0397766 0.610137
950 4 0.262736 0.0224183 0.657034
1092 4 0.338631 0.0309944 0.663791
1216 2 0.403084 0.012774 0.580115
2196 4 0.341825 0.00658361 0.583522
809 4 0.458468 0.0722424 0.632076
1082 4 0.0278504 0.101863 0.643894
1076 4 0.0172313 0.101883 0.66097
1081 2 0.0448086 0.10284 0.625546
1083 4 0.0617668 0.103818 0.607198
1153 2 0.141802 0.128415 0.603195
1155 4 0.137585 0.121506 0.626852
1284 4 0.176482 0.0949591 0.639438
1283 4 0.223181 0.0999427 0.622259
1282 2 0.199831 0.0974509 0.630848
1032 4 0.244883 0.109405 0.585316
1005 4 0.316491 0.0799024 0.654026
808 2 0.460972 0.0952572 0.62263
810 4 0.463476 0.118272 0.613184
852 4 0.028428 0.17505 0.669278
1272 4 0.106606 0.204975 0.589786
1270 2 0.12054 0.197619 0.6092
1271 4 0.134475 0.190263 0.628614
1210 2 0.230789 0.192599 0.65219
1212 4 0.22114 0.20501 0.632747
1219 2 0.190598 0.179334 0.58837
1220 4 0.19915 0.173447 0.611116
796 2 0.222288 0.245309 0.614283
797 4 0.200241 0.245259 0.602489
798 4 0.244335 0.245358 0.626078
791 4 0.319113 0.241705 0.586748
1026 4 0.415091 0.206066 0.664291
1193 4 0.365146 0.184818 0.653562
904 2 0.48379 0.240032 0.588363
906 4 0.469182 0.220326 0.593206
1024 2 0.436292 0.197997 0.653775
1025 4 0.457493 0.189927 0.643259
1243 2 0.0289824 0.27743 0.641046
1244 4 0.0232073 0.282645 0.617284
1136 4 0.134121 0.336306 0.597809
946 2 0.175421 0.290055 0.640494
947 4 0.166355 0.266943 0.643461
948 4 0.184487 0.313168 0.637526
1239 4 0.294311 0.30519 0.633638
1237 2 0.311121 0.320237 0.622857
905 4 0.498397 0.259739 0.58352
952 2 0.447412 0.298942 0.603114
953 4 0.455162 0.295318 0.626608
984 4 0.00127714 0.351052 0.579613
1040 4 0.0472928 0.389793 0.624664
1039 2 0.0540755 0.4069 0.607737
3275 4 0.0008043 0.397463 0.659634
1137 4 0.100344 0.370622 0.584309
1135 2 0.117232 0.353464 0.591059
896 4 0.165441 0.380613 0.611819
1191 4 0.223895 0.369113 0.587693
895 2 0.167367 0.38856 0.58819
1028 4 0.222106 0.41062 0.669889
1238 4 0.32793 0.335283 0.612075
930 4 0.361723 0.366094 0.606115
1204 2 0.407953 0.416097 0.653134
1205 4 0.417637 0.393556 0.648307
1041 4 0.0608582 0.424007 0.590811
992 4 0.134833 0.444175 0.657697
991 2 0.119804 0.429644 0.643979
993 4 0.104776 0.415114 0.630261
1160 4 0.172365 0.437431 0.59153
1188 4 0.208416 0.499532 0.645651
889 2 0.330085 0.434366 0.598892
891 4 0.307669 0.440513 0.608108
1002 4 0.397343 0.457056 0.589891
890 4 0.352501 0.428219 0.589677
1206 4 0.398268 0.438638 0.65796
1951 2 0.352618 0.499882 0.598017
1952 4 0.372759 0.48537 0.595033
1268 4 0.474192 0.482405 0.656986
2990 4 0.00779873 0.0783872 0.718962
944 4 0.0588999 0.0697658 0.687881
943 2 0.0809217 0.0597866 0.681506
945 4 0.102943 0.0498073 0.675132
1147 2 0.208069 0.0738796 0.722218
1149 4 0.200086 0.0503609 0.725102
1090 2 0.35044 0.0116771 0.6744
1163 4 0.468556 0.0203058 0.679285
41 1 0.435237 0.074399 0.687128
43 3 0.430017 0.0527518 0.693652
45 3 0.452043 0.0740454 0.671763
1162 2 0.477189 0.0391819 0.693226
1164 4 0.485821 0.058058 0.707167
862 2 0.0559836 0.132229 0.721104
864 4 0.0337374 0.133148 0.709727
1075 2 0.0260014 0.119885 0.675942
863 4 0.0782298 0.13131 0.732481
1077 4 0.0347715 0.137888 0.690915
907 2 0.160527 0.145889 0.682445
909 4 0.139521 0.139666 0.670395
1148 4 0.216052 0.0973982 0.719333
1225 2 0.207804 0.13735 0.711654
1226 4 0.218276 0.116316 0.720204
1227 4 0.197331 0.158383 0.703105
908 4 0.181533 0.152113 0.694495
829 2 0.319074 0.147486 0.712259
830 4 0.321592 0.161737 0.691869
831 4 0.316557 0.133235 0.732649
1003 2 0.328115 0.0842429 0.675733
44 3 0.416493 0.0846956 0.678124
1004 4 0.33974 0.0885835 0.69744
1141 2 0.396322 0.145087 0.714917
1142 4 0.402954 0.147214 0.690902
1143 4 0.389691 0.142961 0.738931
42 3 0.4421 0.0862797 0.705591
3426 4 0.495257 0.109066 0.678954
851 4 0.0679137 0.175133 0.699963
850 2 0.0481709 0.175091 0.68462
1213 2 0.0157589 0.233369 0.744824
1179 4 0.00097761 0.256838 0.676901
1105 2 0.103361 0.206887 0.72899
1106 4 0.109448 0.23081 0.725013
1107 4 0.0972745 0.182964 0.732968
1208 4 0.104839 0.234648 0.677555
1211 4 0.240438 0.180188 0.671633
1277 4 0.227302 0.247121 0.735497
886 2 0.300766 0.186424 0.675635
888 4 0.282576 0.203428 0.677913
887 4 0.318955 0.16942 0.673358
976 2 0.291666 0.210658 0.737501
977 4 0.29894 0.231072 0.749972
978 4 0.284392 0.190244 0.72503
1192 2 0.354737 0.198686 0.671576
1194 4 0.344327 0.212553 0.689591
1298 4 0.361008 0.205556 0.749808
1261 2 0.441298 0.231423 0.720458
1263 4 0.423606 0.227716 0.703183
1262 4 0.45899 0.235129 0.737733
1245 4 0.0347575 0.272216 0.664808
1177 2 0.0205344 0.258982 0.692332
1178 4 0.0400912 0.261126 0.707763
1209 4 0.0874849 0.281525 0.679021
1207 2 0.0961621 0.258086 0.678288
820 2 0.157185 0.300445 0.737648
821 4 0.157332 0.296749 0.712919
1276 2 0.207303 0.256813 0.746954
1063 2 0.248174 0.281577 0.704607
1065 4 0.234443 0.277429 0.684127
1064 4 0.261904 0.285726 0.725087
807 4 0.325907 0.300287 0.68512
805 2 0.328307 0.323687 0.676642
1006 2 0.362769 0.302144 0.745979
1007 4 0.383522 0.296895 0.7589
1008 4 0.342016 0.307393 0.733058
3123 4 0.486201 0.2742 0.677689
892 2 0.0687695 0.355966 0.697839
893 4 0.0841009 0.336958 0.703206
894 4 0.0534381 0.374975 0.692471
940 2 0.147058 0.395709 0.743919
942 4 0.123166 0.40064 0.749401
1067 4 0.166084 0.411204 0.701434
1066 2 0.188919 0.405809 0.692794
1068 4 0.211754 0.400413 0.684154
1027 2 0.243275 0.397937 0.67391
941 4 0.17095 0.390779 0.738438
1029 4 0.264445 0.385253 0.677932
806 4 0.330707 0.347087 0.668164
1100 4 0.462651 0.414208 0.688663
1281 4 0.0183305 0.460616 0.697398
1280 4 0.0682326 0.462683 0.699894
1279 2 0.0432816 0.46165 0.698646
1174 2 0.221796 0.483059 0.694154
1175 4 0.246328 0.478953 0.691605
1176 4 0.197263 0.487164 0.696702
1138 2 0.305737 0.428261 0.719528
1139 4 0.294075 0.418852 0.739544
1140 4 0.3174 0.437669 0.699512
1989 4 0.31685 0.495513 0.705156
1228 2 0.366071 0.461608 0.71396
1229 4 0.361544 0.472167 0.736168
1230 4 0.370597 0.45105 0.691752
1267 2 0.451 0.483435 0.666272
1099 2 0.452674 0.434236 0.699823
1101 4 0.442697 0.454263 0.710983
1269 4 0.427808 0.484466 0.675558
1249 2 0.477955 0.491059 0.742085
1250 4 0.489189 0.471475 0.752829
1296 4 0.00774443 0.0254325 0.826893
1295 4 0.0253281 0.0412747 0.782841
1294 2 0.0165363 0.0333536 0.804867
1201 2 0.107064 0.0611938 0.779041
1202 4 0.130302 0.0607838 0.78826
1203 4 0.083826 0.0616039 0.769821
1196 4 0.126938 0.0186843 0.827667
875 4 0.213852 0.0526663 0.822734
1255 2 0.2765 0.0483608 0.801055
1256 4 0.294802 0.0521518 0.817664
1257 4 0.258197 0.0445698 0.784447
1113 4 0.399487 0.0259846 0.775489
975 4 0.356187 0.0242399 0.820505
844 2 0.500665 0.0679636 0.780508
1111 2 0.417897 0.0419956 0.780959
1112 4 0.436306 0.0580065 0.786428
832 2 0.0137709 0.137589 0.781461
833 4 0.0355174 0.149835 0.78298
34 3 0.11874 0.139499 0.809456
1287 4 0.0878448 0.110268 0.833737
31 1 0.124837 0.161446 0.80503
35 3 0.123332 0.165573 0.782684
839 4 0.271008 0.110619 0.791548
838 2 0.263671 0.128287 0.807647
840 4 0.256335 0.145955 0.823747
960 4 0.313697 0.137687 0.830929