ITEM: TIMESTEP
1230000
ITEM: NUMBER OF ATOMS
4590
ITEM: BOX BOUNDS pp pp pp
-9.9985700000000008e+00 9.9985700000000008e+00
-9.9985700000000008e+00 9.9985700000000008e+00
-9.9985700000000008e+00 9.9985700000000008e+00
ITEM: ATOMS id type xs ys zs
463 2 0.0414796 0.0665983 0.0232893
464 4 0.054565 0.0532551 0.00667889
3290 4 0.0592718 0.0358725 0.0155359
1668 4 0.064365 0.00458484 0.0551363
1666 2 0.0766664 0.023277 0.0662924
1667 4 0.0889677 0.0419691 0.0774486
1476 4 0.230328 0.036058 0.0610808
1474 2 0.246919 0.025588 0.0455797
1475 4 0.263511 0.015118 0.0300786
492 4 0.269616 0.999524 0.0188474
490 2 0.287252 0.0109816 0.00532461
986 4 0.365293 0.0572365 0.0105697
745 2 0.44578 0.0648584 0.0302234
747 4 0.454481 0.0578984 0.0526071
2722 2 0.474302 0.0429709 0.0764952
2724 4 0.472506 0.0475612 0.0519823
746 4 0.437079 0.0718184 0.00783978
465 4 0.0283942 0.0799416 0.0398998
591 4 0.0417434 0.110023 0.070585
701 4 0.0522614 0.115009 0.0555953
700 2 0.0378709 0.131233 0.0431502
2760 4 0.00375311 0.150191 0.0320746
702 4 0.0234804 0.147457 0.0307051
3234 4 0.0311775 0.126296 0.00660646
423 4 0.100054 0.163747 0.0446815
566 4 0.193499 0.0932158 0.0727248
1133 4 0.218997 0.133068 0.00419296
360 4 0.230359 0.134802 0.0218889
358 2 0.253776 0.139218 0.0294586
359 4 0.277193 0.143634 0.0370282
421 2 0.0773735 0.17403 0.0424381
553 2 0.0290098 0.203707 0.0357372
422 4 0.054693 0.184313 0.0401947
555 4 0.0492166 0.200263 0.0500549
554 4 0.00880298 0.207152 0.0214194
506 4 0.176841 0.235921 0.0508869
737 4 0.186884 0.223157 0.0614132
736 2 0.203337 0.20788 0.0724165
738 4 0.21979 0.192603 0.0834197
353 4 0.275954 0.212422 0.0708193
461 4 0.294042 0.2216 0.0711352
460 2 0.315441 0.216875 0.0831755
323 4 0.402625 0.22996 0.0357676
322 2 0.42454 0.237521 0.0451333
324 4 0.446456 0.245082 0.054499
1170 4 0.0461559 0.316485 0.0106358
1056 4 0.0602265 0.302374 0.0103049
294 4 0.142468 0.32588 0.0317634
292 2 0.160011 0.308637 0.0272806
505 2 0.184527 0.25783 0.0416083
507 4 0.192213 0.279739 0.0323297
293 4 0.177555 0.291395 0.0227979
481 2 0.279344 0.295007 0.0174243
482 4 0.28956 0.288664 0.0393464
1071 4 0.402566 0.246791 0.0235181
1069 2 0.387725 0.263667 0.0125565
573 4 0.389724 0.283695 0.0533281
571 2 0.371183 0.276143 0.0683075
456 4 0.133985 0.33703 0.0460715
454 2 0.145512 0.350323 0.0638366
607 2 0.251708 0.368588 0.0752719
252 4 0.267622 0.393188 0.0427506
250 2 0.284081 0.41197 0.043997
608 4 0.261698 0.378998 0.054851
281 4 0.431833 0.376124 0.0634809
671 4 0.424768 0.367557 0.0800832
280 2 0.451728 0.36307 0.0557994
282 4 0.471622 0.350017 0.0481178
104 3 0.487322 0.338947 0.0558296
550 2 0.0472374 0.496011 0.065716
314 4 0.0359374 0.464545 0.0747131
313 2 0.0339041 0.440935 0.082689
793 2 0.160103 0.49512 0.0112439
795 4 0.148599 0.477377 0.997901
246 4 0.221663 0.472063 0.0294476
244 2 0.224853 0.471471 0.0046554
251 4 0.30054 0.430751 0.0452433
524 4 0.368965 0.428184 0.0587415
523 2 0.354474 0.43374 0.0783458
19 3 0.0405538 0.0348747 0.137378
20 3 0.0705804 0.0124468 0.133766
1422 4 0.0293233 0.0198063 0.151728
16 1 0.0636488 0.0334679 0.139124
17 3 0.0731391 0.0485214 0.124547
2480 4 0.0246783 0.0223608 0.129839
18 3 0.0702949 0.0387307 0.160724
652 2 0.234804 0.0487324 0.152843
654 4 0.226464 0.0520442 0.129505
484 2 0.327932 0.0276089 0.135539
582 4 0.300334 0.0720354 0.136035
485 4 0.333282 0.0305176 0.111288
297 4 0.326197 0.042536 0.0979744
486 4 0.322582 0.0247003 0.15979
296 4 0.360241 0.0791354 0.0964928
295 2 0.343219 0.0608357 0.0972336
2723 4 0.476099 0.0383806 0.101008
2744 4 0.498618 0.0103575 0.160179
590 4 0.0574895 0.0922029 0.114576
589 2 0.0496165 0.101113 0.0925806
448 2 0.147977 0.086808 0.162631
449 4 0.152544 0.108607 0.151268
567 4 0.145937 0.100351 0.0864232
236 4 0.148189 0.124042 0.162363
565 2 0.169718 0.0967835 0.079574
580 2 0.292006 0.0861642 0.154908
557 4 0.361028 0.0992895 0.0924665
758 4 0.37483 0.096793 0.16542
558 4 0.409197 0.106723 0.103656
556 2 0.385113 0.103006 0.0980613
771 4 0.452306 0.143007 0.0844566
769 2 0.463138 0.163953 0.0927684
338 4 0.0563239 0.248615 0.102918
337 2 0.0785174 0.24553 0.114014
339 4 0.100711 0.242446 0.125109
477 4 0.173576 0.226519 0.121185
354 4 0.236822 0.191019 0.0934308
475 2 0.176054 0.207966 0.137763
476 4 0.178532 0.189412 0.15434
352 2 0.256388 0.20172 0.082125
277 2 0.297608 0.235219 0.149455
278 4 0.305 0.24067 0.1262
462 4 0.336839 0.21215 0.0952158
255 4 0.338812 0.194172 0.104381
254 4 0.385138 0.201263 0.121828
630 4 0.392197 0.204487 0.103399
253 2 0.361975 0.197718 0.113104
628 2 0.414494 0.215403 0.106377
770 4 0.47397 0.1849 0.10108
624 4 0.437638 0.244019 0.118304
629 4 0.436791 0.226319 0.109355
611 4 0.246175 0.310739 0.139629
610 2 0.241154 0.331883 0.127264
755 4 0.308023 0.257165 0.115485
754 2 0.32488 0.270832 0.103066
572 4 0.352642 0.268591 0.0832869
756 4 0.341737 0.284499 0.0906472
741 4 0.356405 0.293659 0.0994665
739 2 0.364423 0.316691 0.10498
622 2 0.435863 0.253903 0.141203
623 4 0.434088 0.263787 0.164101
621 4 0.0346975 0.405947 0.106831
619 2 0.0486028 0.38766 0.116702
620 4 0.0625082 0.369374 0.126573
647 4 0.0794816 0.363924 0.136137
455 4 0.157038 0.363616 0.0816018
646 2 0.0857213 0.373206 0.158499
612 4 0.236132 0.353027 0.1149
609 4 0.241719 0.358177 0.0956928
536 4 0.182406 0.374748 0.153915
387 4 0.332105 0.380641 0.14171
302 4 0.316062 0.392763 0.142342
301 2 0.327232 0.409702 0.156954
385 2 0.344883 0.366277 0.125723
740 4 0.372441 0.339724 0.110493
386 4 0.357661 0.351913 0.109737
12 3 0.396769 0.35832 0.144225
11 1 0.405628 0.375311 0.156952
15 3 0.388676 0.387706 0.165764
672 4 0.405022 0.360947 0.125549
14 3 0.418978 0.388632 0.143434
670 2 0.414895 0.364252 0.102816
596 4 0.466826 0.336435 0.136094
495 4 0.423407 0.401681 0.12796
595 2 0.451585 0.342739 0.154886
552 4 0.0462198 0.478756 0.0837829
315 4 0.0318708 0.417325 0.0906649
1789 2 0.0722371 0.48811 0.115679
1791 4 0.0684761 0.489222 0.140373
1790 4 0.075998 0.486997 0.0909847
1466 4 0.0581637 0.50654 0.142207
626 4 0.190223 0.452468 0.125781
625 2 0.210722 0.447033 0.139025
627 4 0.231221 0.441597 0.152269
638 4 0.236323 0.459846 0.159781
639 4 0.272747 0.491814 0.14745
637 2 0.254535 0.47583 0.153615
525 4 0.339983 0.439295 0.09795
494 4 0.412953 0.445665 0.106587
493 2 0.41818 0.423673 0.117273
1420 2 0.0293381 0.00180911 0.169086
450 4 0.14341 0.0650087 0.173994
690 4 0.16902 0.0112375 0.252956
688 2 0.181442 0.00741919 0.231596
653 4 0.243145 0.0454207 0.17618
693 4 0.237864 0.0550699 0.193538
691 2 0.219612 0.0512093 0.210185
692 4 0.20136 0.0473487 0.226832
1661 4 0.304992 0.0155027 0.165183
1700 4 0.330227 0.0641905 0.222104
1699 2 0.308729 0.0525846 0.227424
1701 4 0.287231 0.0409788 0.232744
21 1 0.366643 0.0660631 0.234263
25 3 0.381096 0.0638181 0.216807
759 4 0.380469 0.0589338 0.197601
23 3 0.346978 0.0545886 0.229786
1760 4 0.484405 0.00314179 0.172116
235 2 0.157608 0.137586 0.181151
237 4 0.167026 0.151131 0.19994
581 4 0.283678 0.100293 0.173781
28 3 0.276366 0.132894 0.196924
30 3 0.282235 0.095915 0.192954
26 1 0.290426 0.115146 0.201995
29 3 0.311722 0.119314 0.193778
27 3 0.291589 0.112877 0.224856
757 2 0.37765 0.0778634 0.18151
24 3 0.362058 0.0885152 0.237909
312 4 0.407559 0.111346 0.181603
311 4 0.410101 0.158707 0.197454
310 2 0.40883 0.135026 0.189528
577 2 0.0721355 0.174119 0.216445
578 4 0.0492142 0.166647 0.223076
513 4 0.0354122 0.175587 0.211451
511 2 0.0201202 0.170805 0.192256
531 4 0.00648837 0.187516 0.233336
579 4 0.0950567 0.181591 0.209815
279 4 0.290216 0.229768 0.172711
284 4 0.270307 0.251537 0.22798
283 2 0.271171 0.24517 0.203816
285 4 0.272036 0.238804 0.179652
521 4 0.439399 0.212707 0.242968
703 2 0.0275109 0.307064 0.213334
704 4 0.0144614 0.297351 0.194346
705 4 0.0405605 0.316777 0.232322
443 4 0.0831632 0.27968 0.240963
537 4 0.167703 0.328587 0.166311
396 4 0.0884135 0.29253 0.225889
394 2 0.100389 0.277874 0.20955
395 4 0.112365 0.263218 0.193211
363 4 0.118807 0.2691 0.174966
361 2 0.14324 0.265448 0.178823
362 4 0.167673 0.261796 0.182681
372 4 0.170932 0.253266 0.200569
370 2 0.174292 0.257183 0.225034
371 4 0.177652 0.261099 0.249499
343 2 0.274624 0.318857 0.230542
344 4 0.289229 0.307161 0.247127
527 4 0.433217 0.281548 0.17464
526 2 0.446974 0.282576 0.195493
528 4 0.460731 0.283604 0.216347
300 4 0.109134 0.371357 0.184645
648 4 0.0919609 0.382489 0.180862
298 2 0.121861 0.387582 0.198785
299 4 0.134589 0.403808 0.212924
535 2 0.175055 0.351668 0.160113
290 4 0.221929 0.406606 0.21884
345 4 0.260018 0.330554 0.213958
13 3 0.41836 0.366056 0.174001
597 4 0.436344 0.349043 0.173679
643 2 0.448125 0.377325 0.205136
644 4 0.464421 0.390604 0.218673
645 4 0.431828 0.364045 0.1916
447 4 0.468009 0.402334 0.235021
263 4 0.0341514 0.459136 0.207918
262 2 0.0445761 0.442111 0.192864
264 4 0.0550008 0.425085 0.177809
417 4 0.16229 0.471846 0.202223
1430 4 0.170284 0.481556 0.185744
416 4 0.191871 0.431857 0.197068
415 2 0.17708 0.451852 0.199645
289 2 0.22009 0.426528 0.233836
291 4 0.218251 0.446451 0.248833
766 2 0.232042 0.484126 0.2069
768 4 0.207722 0.484736 0.201123
767 4 0.256361 0.483515 0.212677
303 4 0.338401 0.42664 0.171566
659 4 0.331201 0.44468 0.17806
660 4 0.335976 0.485505 0.206543
658 2 0.333589 0.465092 0.192301
231 4 0.337036 0.500696 0.218736
713 4 0.387078 0.456464 0.244625
712 2 0.411908 0.458032 0.24711
445 2 0.454671 0.421355 0.244265
232 2 0.0340505 0.0256138 0.297533
234 4 0.0274813 0.0479613 0.288444
317 4 0.0218956 0.0649992 0.299274
673 2 0.14921 0.0375475 0.265515
675 4 0.13165 0.0440634 0.282079
674 4 0.16677 0.0310315 0.24895
1406 4 0.237472 0.00452619 0.325668
723 4 0.231672 0.07579 0.254774
249 4 0.296239 0.0772147 0.325115
1518 4 0.37071 0.00752517 0.310992
697 2 0.38439 0.0324971 0.287545
699 4 0.389181 0.0121451 0.301257
698 4 0.379599 0.052849 0.273833
22 3 0.376238 0.057258 0.253225
333 4 0.397108 0.0594391 0.26027
331 2 0.416282 0.0750322 0.264065
744 4 0.478935 0.00708595 0.273654
743 4 0.491341 0.0555154 0.27484
742 2 0.485138 0.0313007 0.274247
351 4 0.489 0.0731893 0.283926
1747 2 0.456761 0.990925 0.330355
1749 4 0.477196 0.00526098 0.328904
316 2 0.0319629 0.0877646 0.301633
318 4 0.0420302 0.11053 0.303991
399 4 0.148207 0.15239 0.327274
545 4 0.164379 0.164576 0.257867
722 4 0.220492 0.124316 0.259347
721 2 0.226082 0.100053 0.257061
546 4 0.204101 0.134321 0.260603
544 2 0.18424 0.149448 0.259235
599 4 0.238351 0.144374 0.30462
404 4 0.238894 0.16524 0.308876
598 2 0.222345 0.132503 0.319721
349 2 0.469319 0.0879761 0.279544
332 4 0.435455 0.0906253 0.267861
350 4 0.449639 0.102763 0.275161
762 4 0.42184 0.104399 0.297557
760 2 0.425484 0.128541 0.292162
761 4 0.429128 0.152682 0.286766
257 4 0.469885 0.0977604 0.327354
529 2 0.0189762 0.193619 0.25412
530 4 0.0314641 0.199723 0.274904
393 4 0.137733 0.165843 0.318194
392 4 0.164207 0.172297 0.276263
391 2 0.15097 0.16907 0.297228
403 2 0.241286 0.19012 0.309544
405 4 0.243677 0.215 0.310213
401 4 0.232189 0.229995 0.300383
400 2 0.211241 0.234671 0.287557
402 4 0.190293 0.239347 0.274731
765 4 0.380642 0.209741 0.278978
763 2 0.401652 0.213134 0.265855
522 4 0.488287 0.217123 0.252517
520 2 0.463843 0.214915 0.247742
764 4 0.422663 0.216527 0.252732
442 2 0.0677425 0.283273 0.260315
444 4 0.0523218 0.286866 0.279666
390 4 0.0972582 0.291239 0.337358
309 4 0.304371 0.320533 0.252165
307 2 0.311117 0.330528 0.274069
541 2 0.460264 0.310936 0.30136
542 4 0.478054 0.295895 0.310441
543 4 0.442474 0.325977 0.292278
748 2 0.0761304 0.36327 0.255799
749 4 0.0521873 0.363396 0.263003
365 4 0.0217724 0.377071 0.314734
364 2 0.0274259 0.372644 0.290784
366 4 0.0330794 0.368217 0.266834
547 2 0.0504438 0.418394 0.335022
750 4 0.100073 0.363144 0.248596
734 4 0.113807 0.377122 0.25188
733 2 0.132989 0.363751 0.260737
602 4 0.125512 0.415988 0.3272
735 4 0.152171 0.35038 0.269593
677 4 0.170486 0.345388 0.277885
678 4 0.171457 0.34884 0.327763
676 2 0.170972 0.347114 0.302824
497 4 0.311151 0.345361 0.322842
308 4 0.317863 0.340524 0.295972
729 4 0.315891 0.360614 0.300138
727 2 0.316803 0.382711 0.311804
728 4 0.317716 0.404807 0.32347
614 4 0.419735 0.365619 0.32999
615 4 0.423511 0.333945 0.291478
613 2 0.421623 0.349782 0.310734
118 3 0.498715 0.38968 0.323432
2537 4 0.511653 0.377983 0.309645
549 4 0.0558647 0.422419 0.310947
777 4 0.119207 0.428729 0.313367
1757 4 0.0836745 0.464436 0.268822
1756 2 0.0918061 0.487834 0.265417
776 4 0.100255 0.455549 0.275654
775 2 0.109731 0.442139 0.294511
1545 4 0.198479 0.495746 0.311207
414 4 0.212679 0.449767 0.266822
413 4 0.198069 0.490247 0.29229
412 2 0.205374 0.470007 0.279556
438 4 0.320945 0.494986 0.289432
434 4 0.334334 0.419141 0.329016
1435 2 0.258269 0.474812 0.325807
437 4 0.294895 0.457424 0.30971
436 2 0.30792 0.476205 0.299571
1437 4 0.273764 0.457054 0.317456
5 3 0.290446 0.453719 0.332086
446 4 0.441333 0.440377 0.253509
2862 4 0.487056 0.441315 0.302213
120 3 0.496814 0.422837 0.305693
2861 4 0.493922 0.454548 0.25448
714 4 0.436738 0.459599 0.249596
2860 2 0.490489 0.447932 0.278346
606 4 0.170869 0.0296191 0.380991
731 4 0.111944 0.0524237 0.370181
428 4 0.0940882 0.0485903 0.378496
427 2 0.0872951 0.0254228 0.371992
730 2 0.125554 0.0719538 0.362529
604 2 0.173736 0.0148242 0.36104
605 4 0.176603 2.91687e-05 0.341088
682 2 0.216157 0.0405805 0.390929
684 4 0.19939 0.0221374 0.388949
683 4 0.232923 0.0590236 0.392909
247 2 0.315446 0.080186 0.340845
439 2 0.26552 0.00493886 0.407209
633 4 0.353515 0.084287 0.353983
425 4 0.39379 0.0296613 0.376019
480 4 0.492199 0.0131063 0.341413
256 2 0.460856 0.0820034 0.344541
424 2 0.415342 0.0409671 0.370287
426 4 0.436895 0.052273 0.364555
258 4 0.451827 0.0662465 0.361727
2878 2 0.488553 0.047046 0.411415
397 2 0.142735 0.131997 0.340666
732 4 0.139163 0.0914838 0.354878
398 4 0.137263 0.111604 0.354059
600 4 0.206339 0.120632 0.334823
686 4 0.186814 0.148033 0.393818
685 2 0.190915 0.136179 0.372188
687 4 0.195016 0.124325 0.350558
321 4 0.260089 0.133708 0.389258
248 4 0.334652 0.0831574 0.356576
467 4 0.312777 0.139045 0.410249
319 2 0.264155 0.120429 0.41005
632 4 0.378145 0.125548 0.367824
631 2 0.36583 0.104918 0.360903
453 4 0.492246 0.164772 0.405131
515 4 0.475473 0.158891 0.414469
2653 2 0.996948 0.222006 0.361811
2654 4 0.0191941 0.21063 0.362741
617 4 0.0444351 0.248001 0.376871
274 2 0.14641 0.229256 0.356292
276 4 0.128294 0.243297 0.366285
275 4 0.164525 0.215215 0.346299
474 4 0.182916 0.220833 0.349634
472 2 0.206884 0.227254 0.352715
473 4 0.230852 0.233674 0.355797
708 4 0.240011 0.216233 0.360315
707 4 0.258367 0.202249 0.404679
706 2 0.249189 0.209241 0.382497
418 2 0.405485 0.201664 0.356737
419 4 0.385984 0.209864 0.343408
716 4 0.378835 0.227261 0.351576
715 2 0.370482 0.242538 0.369521
420 4 0.424985 0.193463 0.370066
269 4 0.460436 0.243552 0.351971
347 4 0.0160894 0.297213 0.403666
618 4 0.0198818 0.290719 0.385419
616 2 0.0321584 0.26936 0.381145
388 2 0.113177 0.273071 0.343814
389 4 0.129095 0.254902 0.350269
510 4 0.254691 0.313802 0.360803
374 4 0.239652 0.327415 0.367205
508 2 0.258281 0.290071 0.353793
509 4 0.261872 0.26634 0.346783
488 4 0.325536 0.275085 0.409867
498 4 0.327965 0.322787 0.364175
487 2 0.303523 0.264085 0.414293
717 4 0.362129 0.257814 0.387467
377 4 0.349005 0.271734 0.381726
376 2 0.343896 0.291486 0.36727
378 4 0.338788 0.311237 0.352815
268 2 0.476303 0.251399 0.36963
306 4 0.505114 0.256135 0.403051
2493 4 0.00960885 0.38731 0.327138
548 4 0.045023 0.414368 0.359096
601 2 0.110018 0.396612 0.330315
603 4 0.0945241 0.377236 0.33343
502 2 0.210839 0.405832 0.395648
504 4 0.218241 0.383451 0.387311
373 2 0.237146 0.3492 0.379219
375 4 0.234641 0.370985 0.391232
496 2 0.319558 0.334074 0.343509
433 2 0.355603 0.420008 0.342133
334 2 0.354773 0.406185 0.410534
435 4 0.376872 0.420874 0.35525
561 4 0.454123 0.414801 0.409118
407 4 0.0519939 0.429655 0.37116
406 2 0.0631018 0.433547 0.39322
408 4 0.0742097 0.43744 0.41528
501 4 0.146092 0.504875 0.356919
1436 4 0.242774 0.492569 0.334158
503 4 0.203437 0.428212 0.403984
636 4 0.199352 0.449106 0.400131
2 3 0.31455 0.425528 0.33623
3 3 0.27786 0.419597 0.341829
1 1 0.295105 0.434952 0.344118
668 4 0.305794 0.453337 0.37972
4 3 0.297947 0.440396 0.366494
667 2 0.328959 0.447834 0.387356
587 4 0.394657 0.497657 0.407362
669 4 0.352123 0.44233 0.394992
336 4 0.359721 0.423031 0.392732
119 3 0.499528 0.422106 0.343239
752 4 0.466742 0.419481 0.392731
593 4 0.459066 0.457952 0.367689
751 2 0.486761 0.422661 0.378092
592 2 0.456517 0.48057 0.378037
718 2 0.0731768 0.0415453 0.492907
2586 4 0.016994 0.0688174 0.426687
719 4 0.0970062 0.0441423 0.485794
368 4 0.0969243 0.0434248 0.428542
367 2 0.106049 0.0270272 0.445066
369 4 0.115175 0.0106297 0.46159
2430 4 0.21208 0.00908403 0.471019
2428 2 0.230784 0.0177156 0.456848
341 4 0.233094 0.0834083 0.497942
2429 4 0.249489 0.0263472 0.442677
1182 4 0.24935 0.0731411 0.490836
441 4 0.259778 0.0188698 0.427162
1180 2 0.26765 0.0564004 0.494007
1181 4 0.285949 0.0396596 0.497178
726 4 0.316473 0.0812559 0.457511
430 2 0.333176 0.0872919 0.494628
2880 4 0.471596 0.0593754 0.42504
642 4 0.466124 0.0759304 0.432619
458 4 0.0052507 0.133792 0.472115
340 2 0.209807 0.08656 0.489402
342 4 0.186519 0.0897116 0.480862
1152 4 0.181911 0.107055 0.488968
724 2 0.295915 0.0849285 0.443761
725 4 0.275357 0.0886011 0.430011
320 4 0.26822 0.10715 0.430842
466 2 0.327625 0.14109 0.430263
432 4 0.32053 0.0925332 0.473705
468 4 0.342472 0.143135 0.450277
641 4 0.480459 0.11586 0.459092
640 2 0.473291 0.0958951 0.445855
3158 4 0.495017 0.128536 0.462087
3157 2 0.483714 0.149556 0.469541
575 4 0.436209 0.167752 0.448647
469 2 0.02507 0.232654 0.468961
470 4 0.00761456 0.235263 0.45125
471 4 0.0425254 0.230046 0.486672
261 4 0.133636 0.201817 0.485392
260 4 0.106244 0.21453 0.445533
259 2 0.11994 0.208173 0.465462
410 4 0.245874 0.174682 0.501155
650 4 0.258595 0.218084 0.453827
411 4 0.255156 0.200135 0.459123
409 2 0.250515 0.187409 0.480139
649 2 0.259942 0.234357 0.434892
576 4 0.408101 0.186857 0.48533
514 2 0.452636 0.165611 0.422119
516 4 0.4298 0.172331 0.429768
3159 4 0.472411 0.170576 0.476994
574 2 0.422155 0.177304 0.466988
2814 4 0.0155301 0.331969 0.462118
348 4 0.0106791 0.327418 0.443152
346 2 0.0133842 0.312315 0.423409
695 4 0.113289 0.299174 0.460184
694 2 0.122839 0.280284 0.473494
696 4 0.132389 0.261394 0.486804
489 4 0.28151 0.253084 0.418718
651 4 0.261289 0.250631 0.415957
267 4 0.338552 0.274568 0.423478
265 2 0.360541 0.272732 0.435238
266 4 0.38253 0.270896 0.446998
585 4 0.394558 0.264373 0.432078
583 2 0.418604 0.263802 0.438907
2457 4 0.478021 0.314127 0.462027
2455 2 0.460545 0.296355 0.460043
2456 4 0.443069 0.278583 0.458059
584 4 0.44265 0.26323 0.445736
2812 2 0.999961 0.350468 0.468487
326 4 0.0879168 0.397067 0.43856
10 3 0.164069 0.339092 0.461819
7 3 0.129594 0.353318 0.463223
327 4 0.123173 0.362596 0.446893
325 2 0.105545 0.379832 0.442726
6 1 0.152037 0.358357 0.463473
709 2 0.157383 0.401688 0.421236
9 3 0.157079 0.369155 0.483383
711 4 0.167227 0.381142 0.431539
8 3 0.156809 0.372239 0.445504
382 2 0.117257 0.418329 0.50007
804 4 0.292 0.392325 0.493909
335 4 0.349825 0.389339 0.428336
238 2 0.358322 0.372217 0.466618
240 4 0.357494 0.381187 0.443293
239 4 0.35915 0.363247 0.489942
2508 4 0.4888 0.380902 0.450616
559 2 0.4622 0.399007 0.426738
560 4 0.470278 0.383213 0.444359
680 4 0.0163448 0.476022 0.462544
1383 4 0.00703975 0.477934 0.478309
679 2 0.0121175 0.491928 0.443721
710 4 0.14754 0.422234 0.410933
570 4 0.132357 0.431005 0.421906
568 2 0.12738 0.439013 0.445064
569 4 0.122402 0.447021 0.468222
384 4 0.121667 0.430862 0.478888
772 2 0.219613 0.446147 0.47116
634 2 0.206484 0.462235 0.42018
635 4 0.213616 0.475363 0.440229
773 4 0.228166 0.427954 0.486027
774 4 0.21106 0.464341 0.456293
1454 4 0.303856 0.496298 0.497532
586 2 0.385484 0.483271 0.425639
1401 4 0.343263 0.491307 0.490955
1400 4 0.359131 0.462608 0.453201
1399 2 0.351197 0.476957 0.472078
588 4 0.376311 0.468884 0.443917
2712 4 0.491413 0.427959 0.453755
1126 2 0.0209052 0.0541735 0.528816
1127 4 0.0397942 0.0434149 0.516461
720 4 0.0493474 0.0389483 0.50002
951 4 0.199056 0.0454789 0.567448
1031 4 0.218599 0.0510599 0.561456
1030 2 0.241096 0.056499 0.570917
961 2 0.296052 0.0109912 0.523497
963 4 0.286322 0.0198223 0.502225
431 4 0.345822 0.0820507 0.515552
841 2 0.362644 0.0786613 0.545022
843 4 0.340242 0.0797114 0.533966
842 4 0.385046 0.0776113 0.556077
4466 4 0.453362 0.0169117 0.571957
1062 4 0.46684 0.0135477 0.586846
1218 4 0.44483 0.0755721 0.524613
1216 2 0.421455 0.0786497 0.532939
1033 2 0.0611106 0.145306 0.518095
1035 4 0.0475264 0.124367 0.519573
939 4 0.160913 0.151057 0.511625
1151 4 0.161929 0.135767 0.524703
1150 2 0.17192 0.121411 0.506835
899 4 0.300955 0.164647 0.541465
857 4 0.282069 0.162785 0.542641
1217 4 0.39808 0.0817274 0.541265
1199 4 0.0197542 0.191724 0.565334
1198 2 0.998542 0.180131 0.558945
1034 4 0.0746949 0.166246 0.516616
878 4 0.0786387 0.232047 0.542767
937 2 0.148298 0.172359 0.508118
877 2 0.0821606 0.22513 0.566535
938 4 0.135683 0.19366 0.504611
898 2 0.322622 0.176725 0.538323
798 4 0.253157 0.244341 0.58297
856 2 0.265952 0.171539 0.559635
858 4 0.249835 0.180294 0.576628
796 2 0.256058 0.219608 0.585217
900 4 0.344288 0.188803 0.535181
871 2 0.353012 0.221748 0.559124
872 4 0.352693 0.198338 0.550346
873 4 0.35333 0.245159 0.567901
1258 2 0.149887 0.272248 0.522351
1260 4 0.131698 0.269043 0.505497
1259 4 0.168076 0.275454 0.539205
1237 2 0.244719 0.330507 0.582092
812 4 0.294656 0.275884 0.549882
811 2 0.315442 0.262736 0.554383
813 4 0.336229 0.249589 0.558883
953 4 0.467121 0.282562 0.589202
1137 4 0.135885 0.360983 0.560247
383 4 0.112846 0.405797 0.521252
897 4 0.150648 0.362225 0.572882
1239 4 0.252945 0.352964 0.574799
895 2 0.17247 0.364689 0.560928
1189 2 0.224201 0.361124 0.538226
896 4 0.194292 0.367152 0.548973
1191 4 0.210895 0.365647 0.558905
1190 4 0.237508 0.356602 0.517546
803 4 0.256934 0.361182 0.511263
1173 4 0.248802 0.407401 0.576154
802 2 0.274467 0.376754 0.502586
928 2 0.372243 0.382468 0.55895
930 4 0.391441 0.383706 0.574922
929 4 0.353045 0.381231 0.542979
925 2 0.483014 0.394146 0.535082
926 4 0.48319 0.414258 0.549936
927 4 0.482838 0.374034 0.520228
1001 4 0.466772 0.409057 0.558733
538 2 0.0505418 0.477067 0.528846
540 4 0.0386367 0.459673 0.542296
539 4 0.062447 0.49446 0.515395
2243 4 0.182872 0.495077 0.576135
1171 2 0.264302 0.423794 0.565374
1172 4 0.279802 0.440187 0.554594
882 4 0.282776 0.444586 0.53418
880 2 0.293392 0.46554 0.52561
891 4 0.317241 0.462381 0.578005
1951 2 0.31593 0.496833 0.571153
881 4 0.304007 0.486493 0.517041
1952 4 0.330401 0.476462 0.570281
1000 2 0.457627 0.428563 0.571424
1910 4 0.44265 0.466575 0.591542
1002 4 0.448482 0.448069 0.584116
1185 4 0.0196279 0.0208902 0.645883
945 4 0.0369488 0.0258635 0.65637
1183 2 0.0021148 0.0377614 0.640067
1058 4 0.0976024 0.0351964 0.59178
1057 2 0.108844 0.0575 0.590612
825 4 0.0972958 0.0213483 0.605911
950 4 0.171307 0.0637536 0.604821
1059 4 0.120085 0.0798037 0.589445
949 2 0.185181 0.0546163 0.586134
1032 4 0.263592 0.0619381 0.580379
1004 4 0.361564 0.0523872 0.630518
1003 2 0.362936 0.0544252 0.655401
4465 2 0.435087 0.0315863 0.580666
4467 4 0.416812 0.0462609 0.589376
2283 4 0.419132 0.0610879 0.602609
2282 4 0.427645 0.0580666 0.651794
2281 2 0.423388 0.0595772 0.627201
43 3 0.445739 0.0556402 0.657839
45 3 0.480094 0.0568746 0.642479
810 4 0.494853 0.0515508 0.629
41 1 0.468195 0.0600858 0.66163
1082 4 0.0668901 0.150245 0.621252
1081 2 0.0432037 0.153828 0.628415
1083 4 0.0195174 0.15741 0.635578
1155 4 0.137741 0.0855504 0.581789
1153 2 0.153448 0.105004 0.581889
1154 4 0.169155 0.124458 0.58199
1221 4 0.188103 0.129108 0.588716
1219 2 0.20792 0.130013 0.603937
1220 4 0.227737 0.130919 0.619157
1212 4 0.238879 0.134482 0.636818
1210 2 0.249257 0.122138 0.655926
1142 4 0.347599 0.158916 0.643377
3426 4 0.493272 0.149128 0.621385
879 4 0.0856825 0.218213 0.590303
1272 4 0.099431 0.205021 0.59451
1270 2 0.113837 0.199925 0.614301
1271 4 0.128242 0.194829 0.634092
909 4 0.143704 0.197073 0.646845
907 2 0.163551 0.211102 0.640974
1209 4 0.0779234 0.239256 0.662033
908 4 0.183397 0.225131 0.635102
947 4 0.201841 0.218903 0.634215
946 2 0.205342 0.236121 0.616426
797 4 0.258958 0.194876 0.587465
1141 2 0.366183 0.175644 0.643492
1143 4 0.384767 0.192371 0.643607
1025 4 0.405462 0.192018 0.646128
1026 4 0.436991 0.172522 0.612564
904 2 0.489805 0.252519 0.587618
1024 2 0.421227 0.18227 0.629346
1244 4 0.0689663 0.312561 0.657718
948 4 0.208843 0.253339 0.598637
792 4 0.246262 0.296602 0.602714
1238 4 0.236492 0.30805 0.589385
791 4 0.273461 0.283476 0.642572
790 2 0.259862 0.290039 0.622643
905 4 0.467163 0.262806 0.590209
952 2 0.448279 0.298871 0.591246
954 4 0.429438 0.31518 0.593291
3121 2 0.491615 0.271006 0.658358
3123 4 0.479614 0.282304 0.639556
1205 4 0.414978 0.328534 0.592468
983 4 0.027455 0.377431 0.641307
1039 2 0.0693898 0.389612 0.639504
1041 4 0.0471121 0.378427 0.637558
982 2 0.00411165 0.383257 0.634501
1040 4 0.0916676 0.400796 0.64145
1135 2 0.118955 0.370019 0.576275
1136 4 0.102024 0.379056 0.592302
993 4 0.101489 0.416214 0.633819
991 2 0.124063 0.420465 0.643695
1206 4 0.399955 0.376217 0.591313
1204 2 0.407467 0.352376 0.591891
992 4 0.146636 0.424716 0.653571
2170 2 0.123835 0.498291 0.643473
2172 4 0.121487 0.475888 0.63262
1160 4 0.209207 0.446815 0.591116
1159 2 0.190878 0.463381 0.587272
1161 4 0.172548 0.479947 0.583428
1187 4 0.266742 0.48851 0.607757
890 4 0.307386 0.421926 0.605698
889 2 0.312314 0.442153 0.591852
1186 2 0.259857 0.501382 0.628056
1909 2 0.439203 0.490149 0.583955
2319 4 0.0143188 0.0331489 0.716404
943 2 0.0531127 0.0405629 0.668529
944 4 0.0692767 0.0552622 0.680688
1075 2 0.0506458 0.0411277 0.730416
1076 4 0.0329778 0.0269953 0.719772
1077 4 0.0683138 0.0552601 0.74106
1005 4 0.364308 0.0564631 0.680284
44 3 0.47081 0.0819295 0.669007
1163 4 0.485633 0.0517962 0.693944
42 3 0.47597 0.0457709 0.677872
1162 2 0.504492 0.0505531 0.710314
1283 4 0.19177 0.084131 0.680896
1282 2 0.205473 0.10439 0.68609
1284 4 0.219177 0.124648 0.691284
1227 4 0.215604 0.122165 0.712166
1225 2 0.207236 0.136275 0.731036
888 4 0.272229 0.112068 0.690752
1211 4 0.259634 0.109793 0.675034
886 2 0.29613 0.119195 0.688988
887 4 0.320031 0.126322 0.687224
830 4 0.329995 0.132735 0.701778
829 2 0.331509 0.155428 0.712167
1146 4 0.505713 0.145089 0.733145
1144 2 0.493418 0.162505 0.72008
1105 2 0.0600651 0.187179 0.716529
1107 4 0.0490413 0.201644 0.699371
851 4 0.0295515 0.206399 0.697423
850 2 0.0123814 0.223826 0.702586
1106 4 0.0710888 0.172714 0.733688
35 3 0.0813276 0.169721 0.750894
822 4 0.137546 0.232606 0.730736
820 2 0.121632 0.247867 0.718945
1278 4 0.148435 0.216591 0.72439
1276 2 0.153322 0.212698 0.7486
918 4 0.296139 0.223638 0.746848
916 2 0.28459 0.244079 0.738247
831 4 0.333023 0.17812 0.722557
1192 2 0.389611 0.225597 0.703206
1194 4 0.398715 0.202422 0.705489
1262 4 0.419236 0.196295 0.704523
1261 2 0.442545 0.191421 0.712146
1263 4 0.465853 0.186547 0.71977
1145 4 0.481123 0.179921 0.707016
1245 4 0.0215674 0.317089 0.673
1207 2 0.0789753 0.260394 0.675347
1243 2 0.0452669 0.314825 0.665359
1179 4 0.0130904 0.300202 0.681747
1208 4 0.0800272 0.281533 0.68866
1177 2 0.00591405 0.276711 0.686421
821 4 0.105718 0.263128 0.707154
1064 4 0.224808 0.272439 0.731696
1063 2 0.22251 0.26986 0.706932
1065 4 0.220213 0.26728 0.682168
917 4 0.273042 0.26452 0.729645
1097 4 0.271388 0.280214 0.741928
1193 4 0.380508 0.248773 0.700922
806 4 0.424754 0.273454 0.728713
805 2 0.418745 0.297678 0.727208
807 4 0.412736 0.321902 0.725703
3357 4 0.490925 0.247648 0.6872
1280 4 0.0455514 0.420879 0.739113
3275 4 0.0313536 0.413186 0.750119
894 4 0.0754067 0.404158 0.672916
940 2 0.139729 0.407568 0.727252
941 4 0.149514 0.398357 0.706167
1067 4 0.168988 0.404983 0.707473
1066 2 0.192261 0.400819 0.699335
1068 4 0.215533 0.396654 0.691197
1028 4 0.228739 0.406128 0.678998
1140 4 0.324863 0.405084 0.719775
1018 2 0.41133 0.354581 0.731685
1020 4 0.416458 0.33746 0.7142
3330 4 0.491974 0.401793 0.716049
3328 2 0.472138 0.416238 0.720853
2020 2 0.061137 0.496569 0.722763
892 2 0.0789354 0.421318 0.690756
1281 4 0.0425671 0.467907 0.722375
1279 2 0.0440593 0.444393 0.730744
2021 4 0.0397695 0.486291 0.730697
893 4 0.082464 0.438479 0.708596
1027 2 0.247559 0.418493 0.689865
1175 4 0.252939 0.510466 0.70956
1029 4 0.266379 0.430857 0.700731
1138 2 0.30542 0.417883 0.710645
1139 4 0.285978 0.430682 0.701514
1987 2 0.309359 0.464996 0.743262
1989 4 0.323369 0.450786 0.728197
1229 4 0.336846 0.438432 0.719267
1228 2 0.357811 0.429726 0.72975
1230 4 0.378775 0.421021 0.740233
1100 4 0.484441 0.484624 0.747146
1099 2 0.493265 0.497909 0.727889
3329 4 0.452302 0.430682 0.725657
1203 4 0.0697246 0.0545044 0.761483
1201 2 0.0933594 0.046933 0.764524
1202 4 0.116994 0.0393615 0.767565
2049 4 0.118354 0.0191942 0.765541
1148 4 0.197958 0.0361122 0.748007
1147 2 0.209946 0.0417686 0.769208
1149 4 0.221935 0.047425 0.790408
1049 4 0.286717 0.0227106 0.800845
1048 2 0.295363 0.00382443 0.814765
1256 4 0.30842 0.0800852 0.752168
1255 2 0.297389 0.0739613 0.773756
1257 4 0.286359 0.0678374 0.795343
1112 4 0.431866 0.011668 0.81754
846 4 0.46884 0.0538215 0.794512
1113 4 0.452268 0.0434372 0.78475
1111 2 0.442067 0.0275526 0.801145
844 2 0.489842 0.066408 0.789445
864 4 0.0500743 0.0863858 0.815548
911 4 0.0497107 0.0947977 0.833052
862 2 0.0383023 0.105044 0.80378
832 2 0.0184126 0.16377 0.78578
863 4 0.0265302 0.123701 0.792013
833 4 0.0179609 0.14019 0.794084
33 3 0.0694695 0.157052 0.784309
31 1 0.0880011 0.161826 0.771186
32 3 0.100158 0.14253 0.768185
1226 4 0.198868 0.150385 0.749906
1130 4 0.202404 0.149906 0.768601
840 4 0.234686 0.141473 0.784231
1129 2 0.182412 0.163751 0.774417
838 2 0.249658 0.137432 0.803845
839 4 0.26463 0.133392 0.823459
959 4 0.280969 0.144089 0.830469
819 4 0.398443 0.0980589 0.826207
1084 2 0.374017 0.119824 0.795803
1085 4 0.390845 0.106631 0.808764