ITEM: TIMESTEP
980000
ITEM: NUMBER OF ATOMS
4590
ITEM: BOX BOUNDS pp pp pp
-9.9985700000000008e+00 9.9985700000000008e+00
-9.9985700000000008e+00 9.9985700000000008e+00
-9.9985700000000008e+00 9.9985700000000008e+00
ITEM: ATOMS id type xs ys zs
463 2 0.0436327 0.0630871 0.0304574
464 4 0.0380521 0.039531 0.0242009
3290 4 0.0496979 0.0268217 0.0143659
1668 4 0.0658124 0.0279129 0.0565223
1666 2 0.0848594 0.0349057 0.0711336
1476 4 0.205303 0.0324358 0.0523677
1474 2 0.217855 0.0302467 0.0308546
1475 4 0.230408 0.0280576 0.00934155
492 4 0.247832 0.0187677 0.00583367
745 2 0.462903 0.065714 0.0224124
746 4 0.458431 0.0819259 0.0409152
747 4 0.467375 0.0495021 0.00390951
2722 2 0.491014 0.0511064 0.0780482
1827 4 0.492634 0.999259 0.0464375
465 4 0.0492133 0.0866433 0.0367139
591 4 0.0566334 0.0809191 0.0557588
701 4 0.0585257 0.0909835 0.0193389
700 2 0.0635313 0.11527 0.0225503
423 4 0.0647911 0.156281 3.58636e-05
2760 4 0.00594001 0.124043 0.0295078
589 2 0.0555355 0.0921774 0.0780573
702 4 0.0685369 0.139556 0.0257617
3234 4 0.0466302 0.148341 0.00337648
567 4 0.17128 0.093721 0.0775303
565 2 0.189451 0.105153 0.0647128
566 4 0.207622 0.116585 0.0518953
360 4 0.250843 0.140663 0.0196428
1133 4 0.211943 0.167603 0.0195163
358 2 0.272861 0.128816 0.0196273
359 4 0.29488 0.116969 0.0196117
558 4 0.374437 0.12341 0.0743475
665 4 0.387742 0.134387 0.00440176
664 2 0.375047 0.155927 0.00417663
771 4 0.477084 0.133625 0.0812644
421 2 0.0593105 0.168574 0.0211073
553 2 0.0264496 0.2093 0.0462769
422 4 0.0538299 0.180868 0.0421787
555 4 0.0448881 0.194073 0.0535797
554 4 0.00801101 0.224528 0.0389741
353 4 0.274874 0.202654 0.0707645
461 4 0.294059 0.198209 0.0735969
352 2 0.251229 0.198633 0.0778299
1069 2 0.411561 0.244829 0.0265882
666 4 0.362352 0.177467 0.00395149
1070 4 0.435238 0.24042 0.0198699
1014 4 0.477659 0.17804 0.00396165
1012 2 0.496471 0.193562 0.00947321
292 2 0.16407 0.291667 0.0367862
294 4 0.151061 0.312993 0.0357201
456 4 0.154706 0.327024 0.048979
454 2 0.143843 0.329341 0.0713802
505 2 0.176496 0.25812 0.0801301
507 4 0.1794 0.268694 0.0576592
293 4 0.177078 0.27034 0.0378523
481 2 0.2302 0.283023 0.0365347
482 4 0.221036 0.289367 0.0589165
483 4 0.239365 0.276679 0.0141529
1071 4 0.387884 0.249237 0.0333066
573 4 0.387138 0.25255 0.0528935
571 2 0.372834 0.268624 0.0656293
324 4 0.429933 0.267071 0.057313
322 2 0.436841 0.253694 0.0772761
1168 2 0.0390214 0.337343 0.00579391
330 4 0.0401332 0.413185 0.0165885
328 2 0.0343824 0.390723 0.0072299
1169 4 0.0367041 0.360667 0.0145004
329 4 0.0286316 0.368261 0.997871
252 4 0.266293 0.401293 0.0721666
250 2 0.286959 0.396755 0.0588443
608 4 0.265965 0.387944 0.0861998
251 4 0.307626 0.392217 0.0455219
281 4 0.443516 0.339206 0.0746294
671 4 0.42401 0.342705 0.0820734
280 2 0.46592 0.345155 0.0652557
282 4 0.488324 0.351103 0.055882
314 4 0.0377129 0.46074 0.0725855
550 2 0.0491575 0.482733 0.0494119
552 4 0.047458 0.458689 0.0560567
244 2 0.220483 0.473345 0.0160769
246 4 0.223784 0.486707 0.0369515
272 4 0.23991 0.494098 0.0457214
1440 4 0.229422 0.500348 0.0722674
227 4 0.412162 0.422574 0.0271344
226 2 0.426443 0.427125 0.00712125
19 3 0.0497881 0.0187545 0.141474
20 3 0.0746577 0.0125355 0.113897
1422 4 0.032609 0.0253831 0.15291
16 1 0.0676138 0.0275506 0.129504
17 3 0.0607098 0.0467834 0.11894
18 3 0.085038 0.0327505 0.143918
2480 4 0.0331643 0.0260694 0.129663
2479 2 0.0102254 0.0241716 0.119897
1667 4 0.103907 0.0418984 0.0857449
1506 4 0.187452 0.00521947 0.153636
450 4 0.16643 0.0780236 0.153841
653 4 0.242491 0.0236426 0.166212
693 4 0.244043 0.042838 0.163403
652 2 0.250011 0.0218765 0.142431
654 4 0.257531 0.0201105 0.118651
484 2 0.327616 0.0214957 0.141152
486 4 0.315667 0.0113519 0.160633
582 4 0.299841 0.0767178 0.131305
485 4 0.339564 0.0316395 0.121671
296 4 0.372729 0.0678981 0.105491
295 2 0.358855 0.0471318 0.104289
297 4 0.344981 0.0263655 0.103087
758 4 0.375618 0.0359947 0.16817
1760 4 0.488255 0.0219287 0.149373
2723 4 0.484391 0.0296143 0.0889754
1759 2 0.474009 0.00156894 0.15215
590 4 0.0544376 0.103436 0.100356
449 4 0.14088 0.120527 0.160271
448 2 0.153655 0.0992753 0.157056
580 2 0.29967 0.0774739 0.156297
556 2 0.368482 0.104047 0.0890023
557 4 0.362527 0.0846829 0.103657
769 2 0.480165 0.152079 0.0978523
337 2 0.0810902 0.251969 0.131834
339 4 0.0877092 0.228436 0.126585
477 4 0.177021 0.172495 0.142665
506 4 0.173592 0.247546 0.102601
475 2 0.178881 0.189881 0.160538
354 4 0.227584 0.194611 0.0848952
737 4 0.185713 0.230097 0.104331
738 4 0.207794 0.188103 0.0885334
736 2 0.196754 0.2091 0.0964322
460 2 0.303095 0.205863 0.0956186
462 4 0.31213 0.213517 0.11764
255 4 0.324299 0.207415 0.133037
277 2 0.274715 0.243192 0.152009
254 4 0.370904 0.193738 0.121137
630 4 0.389545 0.188454 0.12545
253 2 0.347601 0.200576 0.127087
628 2 0.405368 0.207813 0.125238
624 4 0.429685 0.241866 0.112087
629 4 0.421191 0.227172 0.125026
2591 4 0.490301 0.182693 0.154227
323 4 0.443748 0.240317 0.0972392
770 4 0.483246 0.170532 0.11444
338 4 0.0744713 0.275503 0.137083
455 4 0.132981 0.331659 0.0937814
610 2 0.235925 0.334849 0.1421
611 4 0.235258 0.324741 0.164959
278 4 0.29137 0.257246 0.139751
755 4 0.292632 0.255766 0.118907
756 4 0.319398 0.286101 0.0895126
754 2 0.306015 0.270933 0.10421
572 4 0.358531 0.284699 0.0783651
741 4 0.360936 0.29945 0.0926107
739 2 0.349059 0.318357 0.103863
622 2 0.427789 0.256596 0.132202
623 4 0.425893 0.271326 0.152317
527 4 0.441609 0.272061 0.163576
621 4 0.0552177 0.408171 0.0965572
619 2 0.0599012 0.397208 0.118536
620 4 0.0645847 0.386246 0.140515
647 4 0.0836424 0.376095 0.142
646 2 0.0891353 0.366187 0.16429
535 2 0.17924 0.381068 0.154154
536 4 0.178495 0.401075 0.139176
612 4 0.236592 0.344957 0.11924
609 4 0.237811 0.349466 0.101285
607 2 0.251888 0.368705 0.0937426
302 4 0.328537 0.400318 0.16087
740 4 0.337181 0.337265 0.115115
386 4 0.348771 0.339686 0.132764
385 2 0.343982 0.360922 0.145065
387 4 0.339194 0.382157 0.157365
495 4 0.409525 0.401555 0.153558
672 4 0.404189 0.359445 0.124823
670 2 0.4141 0.351075 0.103448
12 3 0.409279 0.375466 0.136431
11 1 0.406268 0.371491 0.158887
15 3 0.385288 0.363321 0.162312
595 2 0.457641 0.350866 0.146929
596 4 0.473089 0.344722 0.128253
597 4 0.442192 0.35701 0.165604
313 2 0.0405358 0.44169 0.0885326
315 4 0.0433588 0.42264 0.10448
626 4 0.188111 0.432357 0.116167
625 2 0.205914 0.442963 0.130157
627 4 0.223718 0.453569 0.144148
1438 2 0.237764 0.495972 0.0954285
1439 4 0.246106 0.491596 0.11859
637 2 0.247553 0.484867 0.15406
639 4 0.260177 0.491852 0.133639
524 4 0.363088 0.459912 0.0949737
523 2 0.352466 0.459753 0.117608
525 4 0.341844 0.459594 0.140243
301 2 0.338167 0.423266 0.158453
303 4 0.347797 0.446213 0.156036
493 2 0.418539 0.419071 0.13816
494 4 0.427553 0.436588 0.122763
1420 2 0.032358 0.00392637 0.165744
690 4 0.159656 0.0473225 0.232869
674 4 0.160834 0.043266 0.252218
688 2 0.171829 0.0276073 0.223471
691 2 0.2288 0.0507969 0.181554
692 4 0.213556 0.0587558 0.199705
689 4 0.184001 0.00789214 0.214073
1700 4 0.328441 0.0635269 0.241253
28 3 0.28554 0.0773723 0.217277
1699 2 0.30819 0.0514761 0.249613
21 1 0.363944 0.0733535 0.237822
25 3 0.373661 0.0593881 0.222683
759 4 0.365242 0.0672322 0.205816
757 2 0.37043 0.0516135 0.186993
23 3 0.34746 0.062034 0.249593
236 4 0.149934 0.131329 0.175386
579 4 0.113639 0.158999 0.209363
577 2 0.0899751 0.166563 0.212188
235 2 0.164962 0.145514 0.189461
237 4 0.17999 0.1597 0.203536
722 4 0.202142 0.119693 0.243011
546 4 0.188529 0.134293 0.236515
581 4 0.299499 0.0782299 0.181288
30 3 0.296662 0.0981134 0.187887
26 1 0.29246 0.0983818 0.210268
29 3 0.276097 0.114119 0.215063
27 3 0.311715 0.104008 0.221526
24 3 0.354746 0.091665 0.226936
312 4 0.42375 0.102839 0.184721
311 4 0.432517 0.143109 0.213044
310 2 0.428133 0.122974 0.198882
512 4 0.00929018 0.171096 0.196591
513 4 0.0498752 0.170176 0.225792
511 2 0.0295827 0.170636 0.211191
578 4 0.066311 0.174126 0.215013
381 4 0.00306979 0.179703 0.178166
476 4 0.18074 0.207267 0.178412
284 4 0.24443 0.217695 0.211223
371 4 0.171505 0.246055 0.240553
279 4 0.25806 0.229138 0.164268
285 4 0.280897 0.228395 0.243726
283 2 0.262664 0.223045 0.227475
765 4 0.388886 0.20974 0.230497
763 2 0.412579 0.215094 0.236425
521 4 0.44839 0.223375 0.226559
520 2 0.469331 0.220521 0.239919
764 4 0.436272 0.220448 0.242353
705 4 0.00861726 0.338917 0.172571
394 2 0.0715881 0.288062 0.208961
396 4 0.059817 0.29874 0.228264
443 4 0.0501079 0.310675 0.241761
395 4 0.0833592 0.277385 0.189658
363 4 0.0968488 0.265903 0.181482
362 4 0.144795 0.276867 0.190518
361 2 0.120822 0.271385 0.186
372 4 0.153025 0.280268 0.20911
370 2 0.162265 0.263162 0.224831
345 4 0.227681 0.29214 0.234599
343 2 0.247284 0.307608 0.235868
344 4 0.266888 0.323077 0.237137
309 4 0.27913 0.326684 0.25262
526 2 0.447601 0.282104 0.185676
528 4 0.453593 0.292147 0.207776
749 4 0.0601096 0.352184 0.238235
748 2 0.0790058 0.355036 0.222111
750 4 0.097902 0.357888 0.205988
300 4 0.115008 0.368525 0.205396
648 4 0.0946282 0.35628 0.18658
298 2 0.132922 0.376595 0.220861
299 4 0.150835 0.384666 0.236326
537 4 0.179986 0.361062 0.169133
290 4 0.235607 0.402477 0.204018
14 3 0.408993 0.391416 0.170463
13 3 0.422043 0.356008 0.165945
643 2 0.444114 0.365553 0.205258
644 4 0.442559 0.379465 0.225976
645 4 0.44567 0.351642 0.18454
447 4 0.44831 0.392336 0.240673
263 4 0.0577206 0.492876 0.208181
262 2 0.0514658 0.469504 0.201871
264 4 0.0452109 0.446132 0.195561
417 4 0.16378 0.468124 0.172073
1757 4 0.100583 0.452568 0.251986
1430 4 0.171961 0.485939 0.171057
289 2 0.219061 0.419703 0.211412
415 2 0.176442 0.453431 0.187852
291 4 0.202515 0.436929 0.218807
416 4 0.189104 0.438738 0.203631
766 2 0.224049 0.476425 0.206589
768 4 0.223872 0.463105 0.227749
767 4 0.224227 0.489744 0.185429
414 4 0.208435 0.450902 0.23221
638 4 0.234929 0.477882 0.174481
659 4 0.356851 0.448561 0.174187
660 4 0.352647 0.472769 0.217742
658 2 0.354749 0.460665 0.195965
231 4 0.343142 0.490534 0.214101
232 2 0.0266405 0.0216105 0.328819
233 4 0.044479 0.00492313 0.32348
673 2 0.152028 0.0549091 0.272517
675 4 0.143221 0.0665522 0.292816
1701 4 0.28794 0.0394254 0.257972
1518 4 0.349583 0.0160522 0.302713
697 2 0.376903 0.0458119 0.286077
699 4 0.364185 0.027116 0.296749
698 4 0.389621 0.0645079 0.275405
22 3 0.379908 0.0807564 0.252637
744 4 0.499512 0.00123434 0.254511
1747 2 0.462636 0.00774445 0.334808
743 4 0.477176 0.0450492 0.26357
742 2 0.488344 0.0231417 0.25904
351 4 0.479461 0.050219 0.282393
349 2 0.464344 0.069399 0.277028
257 4 0.439862 0.0847694 0.32016
256 2 0.44673 0.0639569 0.332195
531 4 0.0102589 0.167293 0.300145
399 4 0.120282 0.156648 0.317748
397 2 0.119928 0.135399 0.330921
723 4 0.234461 0.0893525 0.266155
721 2 0.218302 0.104523 0.254583
544 2 0.175682 0.151627 0.249153
599 4 0.216338 0.128552 0.293204
404 4 0.229867 0.142894 0.292855
598 2 0.21191 0.124819 0.317527
403 2 0.223859 0.162163 0.278097
248 4 0.314602 0.0903061 0.32559
249 4 0.285778 0.112813 0.291482
247 2 0.30019 0.101559 0.308536
333 4 0.390615 0.0839629 0.269283
331 2 0.413367 0.0900158 0.277703
332 4 0.436119 0.0960687 0.286124
350 4 0.449227 0.0885791 0.271663
762 4 0.445883 0.095315 0.303932
760 2 0.447836 0.119332 0.310607
761 4 0.44979 0.143349 0.317282
529 2 0.00442934 0.184981 0.283462
393 4 0.12697 0.175598 0.320004
392 4 0.154741 0.178041 0.278489
391 2 0.140855 0.176819 0.299247
545 4 0.162836 0.16896 0.26179
405 4 0.21785 0.181432 0.263339
401 4 0.220448 0.198846 0.27419
400 2 0.222674 0.223389 0.278417
402 4 0.2249 0.247932 0.282645
418 2 0.382872 0.216255 0.332446
420 4 0.393259 0.203523 0.3136
522 4 0.490272 0.217666 0.25328
444 4 0.0764685 0.303227 0.283598
442 2 0.0632882 0.306951 0.262679
390 4 0.0995883 0.280233 0.303796
388 2 0.11081 0.277749 0.326002
307 2 0.297723 0.333419 0.267921
497 4 0.322244 0.323297 0.292293
496 2 0.336058 0.314254 0.31107
498 4 0.349872 0.305212 0.329847
615 4 0.420649 0.330522 0.317488
543 4 0.431191 0.332226 0.300655
541 2 0.449606 0.316965 0.307947
542 4 0.468021 0.301704 0.315239
365 4 0.018605 0.381391 0.299197
2493 4 0.0155387 0.395286 0.312732
364 2 0.0259786 0.369112 0.278703
366 4 0.0333522 0.356832 0.258208
549 4 0.0238574 0.413116 0.313232
547 2 0.0476241 0.414681 0.320839
2491 2 0.00345344 0.381127 0.329424
548 4 0.0713909 0.416246 0.328446
601 2 0.114394 0.37899 0.323855
734 4 0.14791 0.373313 0.252606
733 2 0.147957 0.367591 0.276946
602 4 0.114367 0.394197 0.304008
735 4 0.148004 0.361869 0.301286
777 4 0.129133 0.408683 0.29691
677 4 0.162962 0.351246 0.308195
676 2 0.187723 0.347779 0.308419
678 4 0.212483 0.344311 0.308642
308 4 0.316316 0.340154 0.283223
729 4 0.291283 0.363782 0.312416
727 2 0.314233 0.373686 0.311788
728 4 0.337183 0.383589 0.311159
613 2 0.407023 0.347226 0.330157
434 4 0.341582 0.386072 0.330139
445 2 0.450342 0.413631 0.253616
499 2 0.131394 0.496892 0.330846
1756 2 0.101405 0.475789 0.261222
776 4 0.104154 0.441198 0.268282
775 2 0.116644 0.42494 0.282596
1758 4 0.102228 0.49901 0.270457
413 4 0.200169 0.445782 0.281262
412 2 0.204302 0.448342 0.256736
1436 4 0.220148 0.483576 0.323493
1543 2 0.185917 0.490084 0.322754
1545 4 0.203172 0.47336 0.329663
1435 2 0.243486 0.485487 0.33226
438 4 0.316727 0.478824 0.268655
437 4 0.267084 0.478736 0.262636
436 2 0.291906 0.47878 0.265645
3 3 0.274883 0.432567 0.331605
713 4 0.405468 0.46545 0.297519
2861 4 0.48601 0.468784 0.257369
446 4 0.452374 0.434927 0.26656
2860 2 0.492088 0.458569 0.279367
712 2 0.421811 0.448485 0.289134
714 4 0.438154 0.431521 0.280749
234 4 0.00880206 0.0382978 0.334158
317 4 0.0182554 0.0579535 0.3321
428 4 0.0808694 0.0456588 0.371819
731 4 0.0752478 0.0649046 0.36447
316 2 0.0256063 0.0778993 0.345265
427 2 0.0840672 0.0213768 0.366785
730 2 0.0934009 0.0804781 0.357182
606 4 0.147204 0.00886393 0.357749
604 2 0.159291 0.028053 0.347219
368 4 0.131496 0.00606057 0.416681
605 4 0.171378 0.0472421 0.33669
682 2 0.245485 0.0488343 0.401734
684 4 0.238074 0.0577791 0.379592
632 4 0.378289 0.082151 0.352135
425 4 0.41859 0.038996 0.399473
480 4 0.488421 0.0324874 0.336013
1749 4 0.471389 0.0288694 0.344923
2879 4 0.494346 0.0393553 0.40588
424 2 0.430895 0.0356625 0.377964
426 4 0.4432 0.032329 0.356455
258 4 0.453598 0.0431443 0.34423
2878 2 0.491199 0.0623672 0.415139
318 4 0.0329573 0.0978451 0.358429
398 4 0.119574 0.11415 0.344094
732 4 0.111554 0.0960515 0.349894
600 4 0.207482 0.121087 0.341851
686 4 0.165166 0.153241 0.381842
685 2 0.176901 0.141388 0.363214
687 4 0.188635 0.129536 0.344586
633 4 0.333275 0.0914234 0.332425
467 4 0.329678 0.170626 0.41586
631 2 0.355782 0.0867872 0.34228
453 4 0.481135 0.150031 0.384998
451 2 0.500566 0.142799 0.371021
2654 4 0.0114382 0.232009 0.35609
274 2 0.155321 0.235875 0.344199
276 4 0.138252 0.253987 0.346602
275 4 0.172389 0.217762 0.341797
474 4 0.192389 0.213124 0.343848
472 2 0.215822 0.221648 0.345696
473 4 0.239256 0.230171 0.347544
707 4 0.290085 0.201367 0.369224
708 4 0.244827 0.222259 0.36523
706 2 0.267456 0.211813 0.367227
419 4 0.372485 0.228987 0.351292
716 4 0.378689 0.224302 0.370774
715 2 0.364894 0.237786 0.386682
515 4 0.472234 0.168859 0.3808
514 2 0.462975 0.167913 0.404007
268 2 0.472516 0.250642 0.380671
270 4 0.477934 0.244667 0.404338
618 4 0.0360888 0.271861 0.408091
616 2 0.0418412 0.263731 0.385156
617 4 0.0475936 0.255602 0.362222
347 4 0.0504397 0.286041 0.413118
389 4 0.122031 0.275264 0.348207
508 2 0.232977 0.285977 0.38865
509 4 0.220499 0.266177 0.37985
510 4 0.245455 0.305777 0.397449
374 4 0.24619 0.325328 0.402591
488 4 0.312548 0.271649 0.386971
487 2 0.293588 0.26431 0.401526
489 4 0.274628 0.256971 0.41608
377 4 0.332573 0.273839 0.386506
717 4 0.351098 0.25127 0.402589
376 2 0.340507 0.281815 0.364176
378 4 0.348441 0.28979 0.341846
267 4 0.337276 0.266252 0.404629
269 4 0.467099 0.256617 0.357004
585 4 0.422214 0.292991 0.409969
603 4 0.114421 0.363784 0.343703
502 2 0.218775 0.4021 0.407009
504 4 0.227976 0.379604 0.40114
373 2 0.24652 0.350065 0.39896
375 4 0.246849 0.374801 0.39533
433 2 0.361994 0.398207 0.337966
614 4 0.393398 0.36393 0.342826
335 4 0.365528 0.382265 0.404362
334 2 0.354952 0.404921 0.404582
435 4 0.382406 0.410342 0.345794
561 4 0.458703 0.403698 0.393649
407 4 0.0638896 0.426861 0.346812
406 2 0.0640202 0.436302 0.369965
408 4 0.0641509 0.445743 0.393117
500 4 0.110516 0.483766 0.334967
503 4 0.209574 0.424596 0.412878
2 3 0.306544 0.452821 0.331587
1437 4 0.266824 0.487398 0.341027
5 3 0.274611 0.468487 0.342891
668 4 0.2919 0.444914 0.384825
1 1 0.286708 0.449193 0.342657
4 3 0.291358 0.442499 0.364382
667 2 0.313003 0.444304 0.398221
669 4 0.334106 0.443694 0.411617
336 4 0.344377 0.427577 0.404802
594 4 0.454725 0.50042 0.355485
752 4 0.463226 0.413663 0.377631
593 4 0.418164 0.474226 0.377346
751 2 0.484121 0.420335 0.365629
592 2 0.436444 0.487323 0.366416
718 2 0.0665672 0.0460945 0.487349
719 4 0.0874827 0.0539158 0.4761
367 2 0.137048 0.0195509 0.436988
369 4 0.1426 0.0330412 0.457295
2429 4 0.238529 0.0283662 0.432333
2428 2 0.224123 0.0354433 0.451505
341 4 0.216889 0.0603304 0.478727
340 2 0.203165 0.0797074 0.486561
2430 4 0.209718 0.0425204 0.470676
1182 4 0.236434 0.0628275 0.481415
683 4 0.252896 0.0398896 0.423876
439 2 0.273401 0.00956426 0.432832
441 4 0.26689 0.0333598 0.436902
430 2 0.317064 0.0577072 0.496153
726 4 0.331123 0.0820371 0.449547
1180 2 0.258733 0.0593822 0.492188
431 4 0.33729 0.0703154 0.488596
642 4 0.47006 0.0839108 0.434843
458 4 0.999522 0.152222 0.443352
1033 2 0.0816964 0.149113 0.495867
321 4 0.22619 0.115206 0.433715
342 4 0.189441 0.0990843 0.494395
319 2 0.250415 0.111214 0.428986
724 2 0.313518 0.0951799 0.43761
725 4 0.295913 0.108323 0.425673
320 4 0.274641 0.107222 0.424257
466 2 0.321159 0.15378 0.432256
468 4 0.312641 0.136933 0.448652
2880 4 0.488053 0.0853791 0.424398
574 2 0.423318 0.165947 0.451985
641 4 0.453771 0.123897 0.460072
640 2 0.461916 0.103904 0.447457
3158 4 0.465176 0.132857 0.473899
3157 2 0.474898 0.150771 0.488382
575 4 0.444382 0.15651 0.442371
471 4 0.0453479 0.242843 0.477383
469 2 0.0369803 0.231412 0.497986
1035 4 0.0933355 0.167406 0.483413
261 4 0.105419 0.18369 0.487465
260 4 0.110759 0.216089 0.449749
259 2 0.108089 0.199889 0.468607
411 4 0.23461 0.207948 0.466196
410 4 0.267257 0.178407 0.489907
409 2 0.250933 0.193177 0.478052
576 4 0.402253 0.175383 0.461599
516 4 0.453716 0.166968 0.427213
2814 4 0.0141325 0.32456 0.445384
346 2 0.0372442 0.306083 0.420144
348 4 0.0240487 0.326125 0.427171
695 4 0.0950577 0.289317 0.446454
694 2 0.110238 0.288393 0.466301
1260 4 0.142438 0.289975 0.495086
696 4 0.125418 0.287468 0.486147
650 4 0.251912 0.241562 0.477352
651 4 0.26509 0.260826 0.433126
649 2 0.258501 0.251194 0.455239
266 4 0.362937 0.289864 0.440472
265 2 0.350106 0.278058 0.42255
306 4 0.479766 0.257959 0.419894
304 2 0.492257 0.249496 0.439832
2455 2 0.487304 0.313883 0.456964
2456 4 0.464569 0.314811 0.446599
583 2 0.437309 0.296956 0.429503
584 4 0.452404 0.300922 0.449038
2812 2 0.00328354 0.345718 0.43765
326 4 0.0670361 0.375528 0.486239
710 4 0.147146 0.419024 0.429347
10 3 0.149891 0.334046 0.473083
7 3 0.128095 0.364141 0.469595
327 4 0.110608 0.371367 0.462055
325 2 0.0888221 0.373447 0.474147
6 1 0.149659 0.356818 0.472841
709 2 0.157271 0.39663 0.433948
8 3 0.16294 0.364686 0.455517
9 3 0.157398 0.36503 0.493115
711 4 0.167395 0.374235 0.438549
804 4 0.279788 0.389248 0.491483
238 2 0.36796 0.364394 0.443816
240 4 0.364303 0.370238 0.419782
239 4 0.371617 0.35855 0.46785
559 2 0.463817 0.393318 0.415813
560 4 0.468932 0.382937 0.437978
681 4 0.0560844 0.482854 0.429986
680 4 0.0294527 0.465308 0.468503
1383 4 0.0131736 0.474016 0.476831
679 2 0.0427686 0.474081 0.449244
570 4 0.133052 0.434747 0.430503
568 2 0.12427 0.439745 0.453374
569 4 0.115488 0.444743 0.476245
384 4 0.109473 0.447009 0.495583
772 2 0.221486 0.452297 0.49766
636 4 0.18857 0.443827 0.42123
635 4 0.214267 0.45859 0.461509
634 2 0.201419 0.451208 0.44137
774 4 0.230357 0.45296 0.474292
1454 4 0.318512 0.496581 0.499128
1401 4 0.329055 0.491692 0.481897
1400 4 0.369779 0.463282 0.487825
1399 2 0.349417 0.477487 0.484861
587 4 0.396533 0.434065 0.432125
588 4 0.372814 0.458755 0.468574
586 2 0.384673 0.44641 0.450349
1126 2 0.0249743 0.0613182 0.524519
1127 4 0.0309438 0.0418071 0.510067
1128 4 0.0190049 0.0808293 0.538971
720 4 0.0456517 0.0382732 0.498598
1058 4 0.108374 0.0333242 0.572831
1057 2 0.11406 0.0556627 0.582518
951 4 0.196499 0.061812 0.5751
1031 4 0.215504 0.0571287 0.576142
961 2 0.303094 0.0292203 0.544366
962 4 0.302103 0.0220769 0.568306
963 4 0.304086 0.0363638 0.520425
1181 4 0.281032 0.0559369 0.502961
432 4 0.296837 0.0450991 0.50371
1217 4 0.410539 0.0658456 0.52875
842 4 0.393123 0.0564237 0.524218
841 2 0.370865 0.0634191 0.515228
843 4 0.348607 0.0704145 0.506238
1216 2 0.43282 0.0747118 0.535831
4466 4 0.492957 0.0177558 0.584304
1034 4 0.0700573 0.13082 0.50832
939 4 0.155418 0.152095 0.509597
1151 4 0.163215 0.141343 0.523686
937 2 0.135441 0.167099 0.508611
1150 2 0.171409 0.118497 0.517678
1152 4 0.179603 0.095651 0.51167
899 4 0.318993 0.154451 0.561873
857 4 0.300977 0.161171 0.561601
898 2 0.334953 0.148841 0.580285
1218 4 0.4551 0.0835781 0.542911
3159 4 0.48462 0.168685 0.502865
470 4 0.0286127 0.219981 0.518589
1199 4 0.0104291 0.204346 0.548468
878 4 0.0660033 0.237916 0.560231
877 2 0.084208 0.225791 0.572345
879 4 0.102413 0.213666 0.584459
938 4 0.115464 0.182103 0.507624
797 4 0.252528 0.198857 0.566536
856 2 0.277718 0.169885 0.564481
858 4 0.254459 0.178598 0.567361
796 2 0.257676 0.222108 0.574157
798 4 0.262825 0.245359 0.581778
871 2 0.36571 0.224422 0.537157
872 4 0.37816 0.210563 0.553833
873 4 0.353259 0.238282 0.520481
813 4 0.348331 0.249851 0.535298
1258 2 0.164109 0.288193 0.507431
1259 4 0.18578 0.286411 0.519775
1238 4 0.250326 0.321203 0.57999
812 4 0.327245 0.293438 0.547799
811 2 0.337788 0.271645 0.541548
1135 2 0.113486 0.383981 0.575204
383 4 0.119574 0.400588 0.511196
897 4 0.143267 0.366499 0.582426
1137 4 0.136543 0.378263 0.567402
895 2 0.167867 0.362227 0.581093
1189 2 0.221236 0.368625 0.553194
896 4 0.192467 0.357954 0.57976
1191 4 0.202112 0.35598 0.563172
803 4 0.243034 0.378392 0.523608
1190 4 0.240359 0.381271 0.543217
802 2 0.261411 0.38382 0.507545
1173 4 0.254144 0.413271 0.573911
929 4 0.355522 0.388811 0.566962
928 2 0.377171 0.3764 0.568531
930 4 0.398821 0.36399 0.5701
1206 4 0.411231 0.349473 0.5684
925 2 0.46659 0.38863 0.514487
926 4 0.460612 0.366061 0.505541
927 4 0.472568 0.4112 0.523434
1001 4 0.439684 0.40438 0.566669
538 2 0.0532104 0.486298 0.52217
540 4 0.0387565 0.466531 0.527223
382 2 0.114524 0.423798 0.503389
773 4 0.212616 0.451635 0.521028
1171 2 0.270577 0.421888 0.557152
1172 4 0.287011 0.430506 0.540393
882 4 0.293822 0.435132 0.521954
880 2 0.300247 0.457159 0.512019
881 4 0.306671 0.479187 0.502085
1000 2 0.445324 0.428722 0.565755
1909 2 0.463789 0.485462 0.573291
1002 4 0.450965 0.453064 0.564842
1910 4 0.467655 0.460849 0.575406
1185 4 0.0226533 0.0497453 0.642732
945 4 0.0309639 0.0396408 0.657376
1059 4 0.119746 0.0780012 0.592205
823 2 0.146963 0.004438 0.608997
825 4 0.133547 0.0250919 0.604683
1030 2 0.236565 0.0693732 0.581772
949 2 0.185063 0.0468091 0.591511
950 4 0.173628 0.0318061 0.607922
1032 4 0.257626 0.0816177 0.587402
1005 4 0.326214 0.066368 0.652914
1004 4 0.364193 0.0338787 0.65125
1003 2 0.345203 0.0501233 0.652082
4465 2 0.471719 0.0301285 0.588891
4467 4 0.450481 0.0425011 0.593477
2283 4 0.442625 0.0590942 0.60195
2282 4 0.448709 0.0653052 0.651196
2281 2 0.445667 0.0621997 0.626573
45 3 0.483599 0.0570296 0.667209
810 4 0.4798 0.0745129 0.656444
808 2 0.497958 0.0853304 0.643086
1082 4 0.0687628 0.14864 0.60198
1081 2 0.0575275 0.128718 0.612083
1083 4 0.0462922 0.108796 0.622185
1155 4 0.129216 0.0937821 0.593301
1153 2 0.152599 0.101343 0.588692
1154 4 0.175982 0.108904 0.584084
1221 4 0.195351 0.110632 0.584939
1219 2 0.213737 0.124454 0.594743
1220 4 0.232122 0.138276 0.604546
1212 4 0.249872 0.146583 0.610176
1210 2 0.252384 0.152143 0.634424
1211 4 0.254896 0.157703 0.658672
900 4 0.350913 0.143231 0.598697
1209 4 0.074147 0.235445 0.656622
1272 4 0.102058 0.212313 0.60424
1270 2 0.115202 0.191239 0.607123
1271 4 0.128346 0.170166 0.610006
908 4 0.179742 0.199226 0.630374
907 2 0.173204 0.202453 0.654291
1143 4 0.401913 0.174898 0.654121
1025 4 0.420626 0.182382 0.655783
1026 4 0.4337 0.230622 0.654141
1024 2 0.427163 0.206502 0.654962
905 4 0.477665 0.209291 0.589723
904 2 0.497046 0.21426 0.604719
3357 4 0.503025 0.232713 0.664455
1243 2 0.0407735 0.30614 0.662656
1179 4 0.00951 0.281922 0.657117
1245 4 0.0299267 0.284334 0.656997
947 4 0.185654 0.278397 0.627716
1237 2 0.226731 0.32631 0.586502
948 4 0.170063 0.325895 0.626484
946 2 0.177858 0.302146 0.6271
1239 4 0.203137 0.331417 0.593013
792 4 0.260626 0.311117 0.595601
791 4 0.284159 0.27651 0.622974
790 2 0.272392 0.293814 0.609288
953 4 0.435413 0.294834 0.619105
952 2 0.456932 0.301924 0.608529
954 4 0.478452 0.309013 0.597954
3122 4 0.491345 0.249091 0.659101
983 4 0.029113 0.39017 0.621312
1039 2 0.0608709 0.390593 0.627094
1041 4 0.0396246 0.384956 0.639011
982 2 0.00645002 0.383597 0.62958
1136 4 0.0904293 0.389698 0.583006
1040 4 0.0821171 0.396229 0.615178
993 4 0.103392 0.39934 0.614974
991 2 0.116373 0.394892 0.635875
992 4 0.129355 0.390443 0.656777
1204 2 0.414607 0.344998 0.592767
1205 4 0.417982 0.340522 0.617134
2170 2 0.113025 0.494603 0.657628
1160 4 0.221228 0.459217 0.595059
1159 2 0.203903 0.477172 0.59668
1161 4 0.186577 0.495127 0.598301
890 4 0.332199 0.41436 0.59077
1952 4 0.332661 0.477437 0.617994
889 2 0.333292 0.436267 0.602773
891 4 0.334385 0.458174 0.614777
1951 2 0.339123 0.497496 0.604538
1268 4 0.445919 0.495488 0.651852
2319 4 0.0167768 0.0376271 0.671688
943 2 0.0455428 0.0532737 0.672435
2317 2 0.00592572 0.0157314 0.676981
944 4 0.0601218 0.0669067 0.687494
1075 2 0.0518251 0.0599571 0.729423
1076 4 0.0515732 0.0689435 0.706092
1148 4 0.212827 0.0688167 0.737824
43 3 0.446319 0.060807 0.670893
41 1 0.46678 0.0618606 0.681785
1163 4 0.484532 0.0512176 0.707049
42 3 0.466909 0.0464638 0.698875
1105 2 0.0741771 0.162035 0.711206
1106 4 0.0909802 0.149186 0.724537
35 3 0.0992988 0.154908 0.741167
1283 4 0.168154 0.113131 0.672612
1282 2 0.190934 0.116018 0.682506
1284 4 0.213714 0.118905 0.692401
1227 4 0.213119 0.112298 0.710658
1225 2 0.208163 0.117436 0.734621
888 4 0.26432 0.139595 0.666567
886 2 0.285385 0.141047 0.679958
887 4 0.30645 0.142499 0.693349
830 4 0.322577 0.149981 0.698802
1142 4 0.361525 0.162581 0.680914
829 2 0.3368 0.166088 0.711587
44 3 0.469905 0.0830362 0.690742
1107 4 0.0573741 0.174885 0.697874
851 4 0.0533378 0.192422 0.688998
852 4 0.0175122 0.225216 0.677088
850 2 0.035425 0.208819 0.683043
1178 4 0.000972061 0.235059 0.672338
909 4 0.166665 0.205679 0.678208
821 4 0.0971062 0.220502 0.754821
1064 4 0.23568 0.244799 0.692583
918 4 0.299377 0.229322 0.745415
1141 2 0.381719 0.168739 0.667518
831 4 0.351022 0.182195 0.724373
1193 4 0.364608 0.223082 0.694082
1192 2 0.388787 0.229038 0.691822
1194 4 0.412965 0.234995 0.689562
1262 4 0.419326 0.229709 0.709099
3356 4 0.481563 0.208815 0.702782
3355 2 0.492294 0.220764 0.683619
1261 2 0.44138 0.21794 0.709671
1263 4 0.463433 0.206171 0.710243
1145 4 0.472469 0.210758 0.726624
1144 2 0.475112 0.192967 0.743992
1244 4 0.0516203 0.327946 0.668314
1207 2 0.0675866 0.255179 0.670505
1208 4 0.0610263 0.274913 0.684387
1177 2 0.00524103 0.258491 0.664728
1242 4 0.205722 0.322462 0.746201
1063 2 0.252601 0.261683 0.699918
1065 4 0.269522 0.278567 0.707253
917 4 0.289489 0.278169 0.749521
916 2 0.294433 0.253746 0.747468
1097 4 0.295162 0.297663 0.748166
806 4 0.35583 0.314849 0.70056
805 2 0.378309 0.325643 0.702389
892 2 0.0744494 0.402919 0.693552
894 4 0.0531402 0.390598 0.697945
3275 4 0.0205711 0.41382 0.747882
893 4 0.0957586 0.415239 0.689158
1068 4 0.206775 0.400765 0.678387
1066 2 0.194467 0.416784 0.693121
1140 4 0.321772 0.403593 0.701015
807 4 0.400789 0.336437 0.704219
1020 4 0.403173 0.344591 0.722736
1018 2 0.407107 0.36105 0.741142
1280 4 0.0301532 0.416917 0.729369
1281 4 0.0270597 0.466622 0.724825
1279 2 0.0286065 0.441769 0.727097
1983 4 0.0210479 0.481014 0.736219
2172 4 0.0985413 0.481027 0.67283
940 2 0.147897 0.439039 0.731928
942 4 0.125151 0.447039 0.738546
1028 4 0.223733 0.408972 0.674423
941 4 0.170643 0.431039 0.72531
1067 4 0.18216 0.432803 0.707855
1027 2 0.247742 0.415935 0.674951
1029 4 0.27175 0.422898 0.675478
1139 4 0.27956 0.429301 0.693403
1138 2 0.300666 0.416447 0.697209
1987 2 0.326845 0.487967 0.738156
1989 4 0.333215 0.472901 0.719245
1229 4 0.346198 0.458364 0.723258
1228 2 0.369128 0.448445 0.724245
1230 4 0.392059 0.438527 0.725232
1100 4 0.493823 0.458941 0.711957
1099 2 0.487114 0.48301 0.71104
1250 4 0.473169 0.448021 0.738186
3329 4 0.486426 0.444674 0.724164
1077 4 0.052077 0.0509707 0.752755
1203 4 0.0553888 0.0464264 0.771967
1201 2 0.0704313 0.0267688 0.775499
864 4 0.0582099 0.075825 0.793368
1202 4 0.0854739 0.00711124 0.779031
2049 4 0.103445 0.00942484 0.77094
1147 2 0.218982 0.070916 0.761967
1149 4 0.225137 0.0730153 0.786111
1049 4 0.291036 0.010594 0.796126
1048 2 0.303464 0.0145693 0.817454
1256 4 0.284302 0.0703895 0.809114
1112 4 0.405812 0.0204364 0.785852
846 4 0.463951 0.0286292 0.803442
1113 4 0.448807 0.0417888 0.799859
844 2 0.484816 0.0420782 0.800448
1111 2 0.42731 0.0311126 0.792856
980 4 0.436526 0.999359 0.812616
862 2 0.0406379 0.0887649 0.781163
911 4 0.0682055 0.0830111 0.808362
832 2 0.0106411 0.135575 0.787128
863 4 0.0230658 0.101705 0.768958
833 4 0.00962622 0.115602 0.77212
834 4 0.011656 0.155548 0.802136
910 2 0.0853598 0.0995624 0.815909
33 3 0.0873658 0.13968 0.773468
31 1 0.0990288 0.157265 0.763817
32 3 0.120634 0.157081 0.771711
912 4 0.102514 0.116114 0.823457
1226 4 0.203206 0.122573 0.758584
1130 4 0.210472 0.138882 0.771836
840 4 0.230168 0.134567 0.762112
1129 2 0.207871 0.163355 0.776249