ITEM: TIMESTEP
3020000
ITEM: NUMBER OF ATOMS
4590
ITEM: BOX BOUNDS pp pp pp
-9.9985700000000008e+00 9.9985700000000008e+00
-9.9985700000000008e+00 9.9985700000000008e+00
-9.9985700000000008e+00 9.9985700000000008e+00
ITEM: ATOMS id type xs ys zs
463 2 0.00915365 0.0441972 0.023832
464 4 0.0232195 0.0281681 0.0368857
1668 4 0.0607201 0.0652551 0.0652381
1666 2 0.0449303 0.0554618 0.0819698
3290 4 0.0616359 0.0507549 0.0521126
465 4 0.995088 0.0602263 0.0107783
3289 2 0.0778281 0.0401915 0.0362567
3291 4 0.0940203 0.0296282 0.0204009
2183 4 0.0995722 0.0213488 0.00324051
566 4 0.160589 0.0615873 0.020335
565 2 0.1698 0.0407058 0.0305475
567 4 0.179011 0.0198243 0.04076
490 2 0.30907 0.00658876 0.0580967
491 4 0.308918 0.0237814 0.0399427
985 2 0.304819 0.0418588 0.006489
987 4 0.314489 0.0392371 0.0293975
2143 2 0.3522 0.00700854 0.00364637
745 2 0.483693 0.0333734 0.0596628
746 4 0.47137 0.0468254 0.0425639
421 2 0.0680485 0.168109 0.00528639
460 2 0.287173 0.160358 0.0524262
462 4 0.306514 0.145629 0.0582688
422 4 0.047624 0.180151 0.0132246
506 4 0.167303 0.237533 0.0771682
737 4 0.173906 0.222509 0.0654063
736 2 0.192187 0.214423 0.0503873
738 4 0.210468 0.206336 0.0353683
354 4 0.215139 0.190701 0.0474962
352 2 0.238469 0.187922 0.0389433
461 4 0.267831 0.175088 0.0465836
353 4 0.261799 0.185143 0.0303905
1069 2 0.39143 0.240978 0.00546268
1070 4 0.407436 0.224599 0.995427
665 4 0.364475 0.203743 0.00394282
323 4 0.49125 0.256883 0.0153696
828 4 0.494176 0.242864 0.000516474
836 4 0.0515146 0.253731 0.0141434
3339 4 0.00165601 0.276015 0.00291635
505 2 0.148786 0.254233 0.0790076
293 4 0.112553 0.270097 0.0722359
507 4 0.130269 0.270934 0.080847
287 4 0.124126 0.292926 0.0117915
286 2 0.135125 0.314731 0.0064303
612 4 0.258462 0.297205 0.0474873
610 2 0.270906 0.283918 0.0646278
609 4 0.269281 0.313104 0.0405819
572 4 0.320787 0.282545 0.997007
1071 4 0.375424 0.257356 0.0154988
573 4 0.357794 0.263115 0.0244603
571 2 0.339291 0.27283 0.0107338
324 4 0.447574 0.281138 0.0175746
322 2 0.469412 0.26901 0.0164721
1046 4 0.487201 0.337585 0.00404723
519 4 0.502282 0.265932 0.0535661
990 4 0.148516 0.346031 0.0185367
455 4 0.113345 0.37229 0.0838267
1289 4 0.181267 0.402855 0.0218661
988 2 0.165515 0.364346 0.0194048
989 4 0.182513 0.382662 0.0202729
1288 2 0.197209 0.407607 0.00319891
607 2 0.271695 0.337948 0.0420403
739 2 0.325581 0.349102 0.0456227
250 2 0.289537 0.403837 0.0410556
252 4 0.276978 0.382334 0.0433121
608 4 0.274109 0.362792 0.0434988
741 4 0.318507 0.345013 0.0219918
386 4 0.324211 0.371919 0.0713712
740 4 0.332654 0.35319 0.0692537
226 2 0.383107 0.387354 0.0220076
228 4 0.364642 0.40421 0.0217072
227 4 0.401572 0.370497 0.0223079
1305 4 0.402651 0.355368 0.00953982
1303 2 0.41307 0.333452 0.00351564
1045 2 0.491518 0.343908 0.0278499
281 4 0.435196 0.354329 0.0838506
280 2 0.458834 0.352459 0.0759179
282 4 0.482472 0.35059 0.0679852
1047 4 0.495835 0.350231 0.0516525
104 3 0.492865 0.355617 0.0865905
552 4 0.0155821 0.454933 0.0733646
550 2 0.00917295 0.474226 0.0588085
551 4 0.00276376 0.493519 0.0442525
1956 4 0.00433584 0.497643 0.0246163
1788 4 0.153953 0.508092 0.0769545
1786 2 0.173745 0.5003 0.0638123
243 4 0.242891 0.450995 0.0614178
1440 4 0.240026 0.447936 0.0811545
241 2 0.223385 0.464007 0.0527361
242 4 0.203879 0.47702 0.0440543
1787 4 0.193538 0.492509 0.0506701
251 4 0.302095 0.42534 0.0387991
524 4 0.319093 0.434529 0.0440179
271 2 0.283184 0.476258 0.072514
272 4 0.296956 0.455636 0.075714
525 4 0.365748 0.418398 0.0360316
523 2 0.342421 0.426463 0.0400247
1583 4 0.455598 0.442246 0.0444897
1582 2 0.455955 0.464943 0.0549735
1584 4 0.456312 0.48764 0.0654573
1674 4 0.447107 0.505292 0.0703657
1667 4 0.0291404 0.0456685 0.0987016
16 1 0.0338101 0.0565935 0.136869
19 3 0.0203158 0.0716807 0.148213
17 3 0.0254868 0.0536876 0.115622
20 3 0.0338812 0.0365613 0.147702
1422 4 0.00770818 0.0420904 0.154483
2480 4 0.00560173 0.0626533 0.159751
18 3 0.0554369 0.064869 0.135387
652 2 0.256181 0.0494152 0.157784
654 4 0.26432 0.0416492 0.135454
1476 4 0.281793 0.0498914 0.133276
1475 4 0.303784 0.045052 0.0886247
1474 2 0.292789 0.0474717 0.11095
297 4 0.375815 0.0466434 0.136641
295 2 0.397327 0.0591222 0.134056
484 2 0.356672 0.0144508 0.120903
485 4 0.368117 0.0366093 0.119117
296 4 0.418839 0.071601 0.131472
486 4 0.345227 0.992292 0.12269
557 4 0.431629 0.0632204 0.117932
556 2 0.453988 0.0741329 0.120408
450 4 0.0821315 0.106215 0.0856951
236 4 0.136822 0.1258 0.115939
449 4 0.127289 0.123129 0.0989421
448 2 0.10471 0.114672 0.0923186
235 2 0.160384 0.127482 0.124137
237 4 0.183945 0.129165 0.132334
580 2 0.314991 0.123859 0.146526
581 4 0.297279 0.141426 0.144834
30 3 0.278266 0.13871 0.14579
582 4 0.332703 0.106292 0.148218
26 1 0.265272 0.149696 0.160926
758 4 0.349674 0.0991205 0.142401
757 2 0.357047 0.0910806 0.164899
558 4 0.476348 0.0850455 0.122884
771 4 0.480512 0.096546 0.138221
769 2 0.485537 0.116146 0.15291
477 4 0.237569 0.161792 0.153316
371 4 0.196669 0.206031 0.145765
476 4 0.194769 0.186581 0.145944
475 2 0.216169 0.174186 0.14963
29 3 0.255599 0.168316 0.15102
756 4 0.367189 0.242542 0.12088
754 2 0.353934 0.243811 0.142043
755 4 0.340679 0.24508 0.163206
624 4 0.460982 0.251128 0.135418
629 4 0.455276 0.239657 0.120822
628 2 0.435228 0.249961 0.110001
339 4 0.0491166 0.301739 0.163754
294 4 0.100964 0.310478 0.0993619
292 2 0.106759 0.290288 0.0857989
456 4 0.093197 0.327395 0.0927284
611 4 0.283349 0.270631 0.0817684
279 4 0.278189 0.2548 0.149898
277 2 0.280405 0.259188 0.125383
278 4 0.28262 0.263577 0.100867
285 4 0.269025 0.26543 0.163281
255 4 0.358443 0.251521 0.105458
254 4 0.401324 0.27183 0.0896615
253 2 0.379883 0.261675 0.0975598
630 4 0.41518 0.260265 0.0991796
622 2 0.459923 0.262187 0.157818
619 2 0.0417349 0.376324 0.139797
620 4 0.0567671 0.390136 0.125359
621 4 0.0267027 0.362513 0.154235
2694 4 0.998824 0.40764 0.124826
315 4 0.0166395 0.417429 0.126643
454 2 0.103271 0.349842 0.0882776
537 4 0.115299 0.398026 0.13913
535 2 0.1355 0.385784 0.130931
536 4 0.155701 0.373541 0.122731
647 4 0.117148 0.399181 0.158282
625 2 0.219384 0.381554 0.134434
627 4 0.222007 0.393278 0.112506
626 4 0.216761 0.36983 0.156363
1439 4 0.237141 0.402554 0.101961
670 2 0.407945 0.353397 0.0994932
385 2 0.335924 0.379868 0.0919821
387 4 0.347637 0.387816 0.112593
12 3 0.401551 0.382901 0.123468
11 1 0.387515 0.401044 0.125204
15 3 0.367331 0.395816 0.116045
672 4 0.392738 0.36819 0.112726
302 4 0.351566 0.410136 0.11502
13 3 0.384889 0.406376 0.147634
671 4 0.423151 0.338604 0.0862606
314 4 0.00531386 0.440537 0.0837659
313 2 0.0109767 0.428983 0.105204
1465 2 0.0170066 0.50051 0.119436
1620 4 0.153628 0.477348 0.144981
1618 2 0.144353 0.489863 0.125423
1438 2 0.238583 0.425245 0.0915577
639 4 0.26872 0.484141 0.137414
638 4 0.310242 0.456274 0.137538
637 2 0.289481 0.470207 0.137476
303 4 0.314081 0.436079 0.135575
659 4 0.319537 0.472186 0.150186
301 2 0.332823 0.423107 0.125297
1559 4 0.363167 0.499282 0.135156
14 3 0.39696 0.418947 0.11386
495 4 0.395901 0.434063 0.126158
493 2 0.403843 0.457432 0.122159
494 4 0.411785 0.480801 0.11816
674 4 0.156836 0.0732314 0.212656
688 2 0.161435 0.044732 0.190721
689 4 0.154934 0.0215939 0.183827
690 4 0.167937 0.0678701 0.197616
1505 4 0.171261 0.0113391 0.18049
693 4 0.254276 0.0756765 0.186673
653 4 0.248043 0.0571812 0.180114
1699 2 0.330885 0.090402 0.21555
1701 4 0.308822 0.0910876 0.227293
1700 4 0.352949 0.0897164 0.203806
22 3 0.392597 0.0698997 0.225404
698 4 0.416555 0.0692631 0.232138
697 2 0.415561 0.0482957 0.245723
25 3 0.383388 0.0750026 0.189599
349 2 0.484218 0.0671951 0.217744
742 2 0.485562 0.00360442 0.245099
513 4 0.0111333 0.137378 0.233039
578 4 0.0283425 0.145416 0.239633
511 2 0.000721728 0.129465 0.211728
673 2 0.15291 0.0838688 0.234941
675 4 0.148985 0.0945062 0.257226
691 2 0.274663 0.0836147 0.198777
692 4 0.29505 0.0915529 0.210882
28 3 0.248753 0.135513 0.168951
27 3 0.278351 0.156597 0.178546
21 1 0.386477 0.0854507 0.209597
333 4 0.413093 0.0896246 0.222137
759 4 0.364421 0.0830407 0.187397
23 3 0.366749 0.095636 0.21634
24 3 0.403334 0.101287 0.207735
770 4 0.490561 0.135745 0.1676
331 2 0.437248 0.0956662 0.224415
312 4 0.486105 0.140633 0.185691
310 2 0.488087 0.139448 0.210587
350 4 0.468336 0.0862358 0.214522
332 4 0.461404 0.101708 0.226693
311 4 0.490068 0.138264 0.235484
577 2 0.0336912 0.169766 0.237725
529 2 0.0261336 0.220993 0.201845
530 4 0.0362868 0.208757 0.221143
579 4 0.0390398 0.194116 0.235816
531 4 0.0159803 0.233229 0.182548
2483 4 0.0134991 0.247863 0.168178
372 4 0.170665 0.225305 0.183883
362 4 0.153785 0.23051 0.174479
370 2 0.183667 0.215668 0.164824
704 4 0.037645 0.309773 0.178632
337 2 0.070288 0.290707 0.171188
703 2 0.0306018 0.322539 0.198945
705 4 0.0235586 0.335304 0.219258
361 2 0.136868 0.248144 0.179771
363 4 0.119951 0.265779 0.185064
338 4 0.0914594 0.279676 0.178621
395 4 0.103367 0.2716 0.192179
396 4 0.0999385 0.284939 0.240253
394 2 0.101653 0.278269 0.216216
283 2 0.272425 0.259288 0.187278
284 4 0.275825 0.253146 0.211276
528 4 0.439483 0.296039 0.229564
623 4 0.458864 0.273246 0.180218
527 4 0.439683 0.271141 0.186196
526 2 0.439583 0.28359 0.20788
542 4 0.448443 0.294945 0.246632
2615 4 0.0109199 0.346962 0.228655
300 4 0.104827 0.379264 0.213893
646 2 0.114616 0.398076 0.183132
648 4 0.112085 0.39697 0.207983
298 2 0.105331 0.36817 0.236295
289 2 0.224342 0.407679 0.250711
416 4 0.19682 0.404613 0.225294
290 4 0.211066 0.417525 0.23195
415 2 0.183774 0.420216 0.21075
597 4 0.388426 0.39193 0.1641
345 4 0.355828 0.371667 0.211001
596 4 0.356747 0.365665 0.192513
645 4 0.395552 0.411239 0.168335
595 2 0.372586 0.378797 0.178306
343 2 0.359247 0.370224 0.235727
263 4 0.0504882 0.416208 0.248686
1431 4 0.157681 0.484037 0.165552
1429 2 0.15993 0.46 0.172058
1430 4 0.162179 0.435962 0.178564
417 4 0.170729 0.43582 0.196206
438 4 0.26786 0.456237 0.215529
436 2 0.273813 0.461573 0.23922
658 2 0.339711 0.466758 0.163923
643 2 0.392437 0.429626 0.18499
644 4 0.389323 0.448014 0.201644
660 4 0.359886 0.461331 0.17766
231 4 0.360233 0.475599 0.19153
447 4 0.395418 0.452839 0.21953
445 2 0.412225 0.453259 0.238037
1403 4 0.0246281 0.0212454 0.260161
233 4 0.0321024 0.0282159 0.276397
232 2 0.0382742 0.052269 0.279319
234 4 0.0444461 0.0763221 0.28224
317 4 0.0602715 0.0716182 0.294365
722 4 0.188804 0.0718068 0.255467
1407 4 0.238698 0.000373245 0.284591
1405 2 0.231982 0.021324 0.272711
1406 4 0.225267 0.0422748 0.26083
721 2 0.194824 0.0772977 0.279106
723 4 0.200843 0.0827887 0.302745
599 4 0.187955 0.0778686 0.318179
699 4 0.414567 0.0273282 0.259308
1518 4 0.408937 0.00752325 0.261109
743 4 0.48524 0.0226237 0.261327
425 4 0.495043 0.0269808 0.278567
424 2 0.479704 0.0416791 0.291752
258 4 0.444721 0.0602776 0.302841
426 4 0.464364 0.0563774 0.304937
316 2 0.0772022 0.0896489 0.290701
318 4 0.0941329 0.10768 0.287037
393 4 0.0941201 0.163407 0.323293
391 2 0.0893246 0.155853 0.299945
392 4 0.0845291 0.148298 0.276598
544 2 0.112677 0.121449 0.262142
545 4 0.0935127 0.137507 0.262345
546 4 0.131842 0.105391 0.261938
399 4 0.112598 0.159233 0.332648
404 4 0.236176 0.0891527 0.295138
403 2 0.236039 0.113741 0.2906
405 4 0.235902 0.138329 0.286063
401 4 0.252546 0.151738 0.28406
400 2 0.238525 0.171561 0.290032
256 2 0.447516 0.079026 0.319146
402 4 0.224505 0.191384 0.296004
707 4 0.282634 0.187797 0.33869
377 4 0.390602 0.211046 0.341111
763 2 0.449288 0.19594 0.31322
764 4 0.460229 0.186591 0.292773
442 2 0.0793077 0.28337 0.272107
444 4 0.0764673 0.283644 0.296947
443 4 0.0821482 0.283096 0.247266
497 4 0.306035 0.268268 0.322764
541 2 0.436624 0.314432 0.256915
543 4 0.424806 0.33392 0.267198
749 4 0.0630365 0.331941 0.29229
366 4 0.0498115 0.346892 0.286272
365 4 0.0111529 0.363659 0.313199
364 2 0.0304822 0.355276 0.299735
602 4 0.0675009 0.398461 0.312842
2493 4 0.999439 0.379126 0.310072
748 2 0.0854162 0.339311 0.283922
299 4 0.105836 0.357076 0.258697
750 4 0.107796 0.34668 0.275554
777 4 0.0765276 0.413813 0.302943
735 4 0.147619 0.401709 0.28934
733 2 0.141635 0.377579 0.292003
734 4 0.135652 0.353448 0.294665
677 4 0.161209 0.400695 0.276264
291 4 0.237619 0.397832 0.269471
414 4 0.238724 0.416318 0.278381
412 2 0.253839 0.415993 0.298296
413 4 0.268954 0.415667 0.318211
727 2 0.325245 0.396115 0.324558
344 4 0.362666 0.36878 0.260454
308 4 0.358251 0.374327 0.323099
729 4 0.339862 0.376161 0.328215
615 4 0.416403 0.347315 0.27777
309 4 0.368372 0.357378 0.277153
307 2 0.363312 0.365853 0.300126
614 4 0.428375 0.341262 0.325944
613 2 0.422389 0.344288 0.301857
2924 4 0.495934 0.348823 0.322863
2923 2 0.471805 0.34428 0.327586
2862 4 0.483334 0.393504 0.279812
2860 2 0.497478 0.390099 0.259476
120 3 0.486156 0.40117 0.300009
713 4 0.48052 0.416027 0.283538
2925 4 0.447675 0.339736 0.332309
116 1 0.499033 0.389735 0.314911
262 2 0.0444471 0.436773 0.261561
264 4 0.038406 0.457338 0.274435
1758 4 0.100439 0.500859 0.284776
775 2 0.0943262 0.429678 0.295414
1757 4 0.122104 0.456974 0.27451
776 4 0.112125 0.445543 0.287884
1756 2 0.111272 0.478917 0.279643
676 2 0.174997 0.421546 0.276838
678 4 0.188785 0.442397 0.277411
768 4 0.17607 0.457306 0.281104
766 2 0.187645 0.479353 0.278835
1545 4 0.24282 0.499341 0.326579
767 4 0.19922 0.501399 0.276566
5 3 0.267866 0.42272 0.336905
1436 4 0.259804 0.504548 0.31731
437 4 0.279766 0.466908 0.262911
1437 4 0.275614 0.4771 0.278614
1435 2 0.267709 0.490824 0.297962
433 2 0.310776 0.453798 0.308443
435 4 0.310439 0.469809 0.289241
728 4 0.310628 0.416069 0.320901
434 4 0.311114 0.437787 0.327645
446 4 0.429033 0.453679 0.256544
712 2 0.460847 0.429423 0.275878
714 4 0.441174 0.44282 0.268218
368 4 0.0727568 0.057404 0.422147
731 4 0.0765726 0.0612475 0.40231
730 2 0.090821 0.0679449 0.382885
604 2 0.140451 0.0643907 0.348553
606 4 0.15583 0.0491906 0.335998
605 4 0.125073 0.0795909 0.361108
249 4 0.300592 0.0358863 0.339837
684 4 0.282443 0.0438728 0.338968
682 2 0.266008 0.0573344 0.352152
683 4 0.249572 0.0707959 0.365336
247 2 0.322563 0.0424412 0.349812
248 4 0.344534 0.048996 0.359786
633 4 0.339907 0.0581673 0.376909
631 2 0.342861 0.0677476 0.399815
1747 2 0.469015 0.00863035 0.360484
1749 4 0.481434 0.0274971 0.349761
641 4 0.499667 0.0786975 0.413329
480 4 0.500482 0.0324504 0.345289
2586 4 0.00874248 0.14437 0.394147
732 4 0.105069 0.0746422 0.363461
397 2 0.112593 0.142005 0.350769
398 4 0.112589 0.124778 0.368891
598 2 0.195532 0.09186 0.337466
600 4 0.203109 0.105851 0.356754
685 2 0.201928 0.137365 0.37418
687 4 0.194814 0.123336 0.354744
686 4 0.209042 0.151394 0.393616
410 4 0.217917 0.140773 0.408149
321 4 0.25065 0.0907832 0.369495
319 2 0.260097 0.0966763 0.391882
419 4 0.36614 0.162208 0.388284
418 2 0.351194 0.145474 0.399318
420 4 0.336247 0.12874 0.410352
716 4 0.365548 0.153634 0.371188
257 4 0.450311 0.0977744 0.335452
760 2 0.482983 0.126493 0.34427
761 4 0.466743 0.109218 0.33633
390 4 0.0830658 0.226629 0.413424
388 2 0.0957312 0.235964 0.393992
274 2 0.147541 0.229454 0.37517
276 4 0.124765 0.235816 0.383292
473 4 0.226335 0.205441 0.350356
474 4 0.186919 0.22137 0.376689
472 2 0.206627 0.213406 0.363522
708 4 0.236158 0.20498 0.331944
275 4 0.170316 0.223092 0.367047
650 4 0.241172 0.19163 0.407634
651 4 0.25281 0.23982 0.401077
649 2 0.246991 0.215725 0.404356
706 2 0.259396 0.196388 0.335317
489 4 0.25377 0.24495 0.382677
717 4 0.385434 0.193737 0.348894
715 2 0.375491 0.173686 0.360041
376 2 0.37702 0.232036 0.340807
584 4 0.402797 0.250036 0.408629
765 4 0.438348 0.205289 0.333667
269 4 0.498177 0.249774 0.339276
2654 4 0.992492 0.250157 0.41324
389 4 0.108397 0.245298 0.374559
1258 2 0.141219 0.310764 0.400162
1259 4 0.151976 0.324148 0.381986
1260 4 0.130463 0.297381 0.418338
509 4 0.234271 0.305302 0.359072
487 2 0.246501 0.268242 0.377216
488 4 0.239232 0.291534 0.371754
508 2 0.226615 0.328902 0.362167
496 2 0.327522 0.266669 0.335449
267 4 0.341466 0.328488 0.351009
498 4 0.349009 0.265069 0.348135
378 4 0.363438 0.253027 0.340503
266 4 0.362082 0.301406 0.387646
585 4 0.375604 0.28597 0.386948
583 2 0.3892 0.268003 0.397789
265 2 0.351774 0.314947 0.369328
268 2 0.490204 0.262705 0.359136
270 4 0.482231 0.275635 0.378996
306 4 0.48324 0.265204 0.396381
304 2 0.480212 0.268392 0.420995
601 2 0.0812583 0.390293 0.332057
407 4 0.0265453 0.412037 0.393422
603 4 0.0950158 0.382126 0.351271
547 2 0.103383 0.411539 0.382141
549 4 0.0952463 0.392285 0.368421
504 4 0.197093 0.404898 0.340183
510 4 0.21896 0.352503 0.365262
374 4 0.224629 0.369568 0.373726
373 2 0.244677 0.381867 0.365241
375 4 0.264725 0.394167 0.356756
3 3 0.282826 0.400385 0.363268
751 2 0.492648 0.404137 0.379906
119 3 0.491392 0.393492 0.336496
753 4 0.489671 0.397073 0.356107
679 2 0.05002 0.483703 0.371864
680 4 0.0591366 0.474305 0.393165
406 2 0.0367936 0.434749 0.395499
408 4 0.0470418 0.457461 0.397575
681 4 0.0409035 0.493102 0.350563
569 4 0.115543 0.446451 0.407605
548 4 0.11152 0.430793 0.395861
502 2 0.203125 0.429115 0.33865
635 4 0.168118 0.480476 0.380314
634 2 0.183299 0.474516 0.361362
636 4 0.19848 0.468555 0.342409
503 4 0.209157 0.453331 0.337116
669 4 0.291077 0.485878 0.402261
2 3 0.304895 0.421561 0.341423
1 1 0.284601 0.420713 0.35222
668 4 0.269266 0.448798 0.376764
4 3 0.283492 0.438149 0.367489
667 2 0.280171 0.467338 0.389513
1586 4 0.299953 0.501782 0.393331
752 4 0.495625 0.411201 0.403706
718 2 0.0385933 0.0604755 0.498159
719 4 0.0313391 0.0596162 0.474246
369 4 0.0350789 0.0627963 0.454582
367 2 0.0539179 0.0601001 0.438365
341 4 0.162142 0.0707741 0.457544
441 4 0.209912 0.999419 0.451242
2430 4 0.171752 0.0553451 0.463722
2428 2 0.187179 0.0365669 0.457846
2429 4 0.202607 0.0177886 0.451969
632 4 0.345814 0.0773279 0.42272
2878 2 0.472313 0.00763481 0.463381
2880 4 0.486432 0.0262436 0.454462
642 4 0.486524 0.0368847 0.437405
640 2 0.493096 0.0577911 0.425367
259 2 0.0759814 0.166201 0.498413
409 2 0.230495 0.160875 0.416081
340 2 0.173036 0.0916626 0.46592
1152 4 0.189814 0.12519 0.490146
342 4 0.183931 0.112551 0.474297
320 4 0.269545 0.102569 0.414269
725 4 0.276487 0.092809 0.430274
724 2 0.280895 0.10111 0.453444
432 4 0.288218 0.0974811 0.491316
726 4 0.285302 0.109412 0.476614
468 4 0.335977 0.0904972 0.433341
467 4 0.364025 0.123453 0.4584
466 2 0.350001 0.106975 0.445871
574 2 0.402396 0.129936 0.436983
576 4 0.379506 0.126311 0.446367
3158 4 0.500155 0.10008 0.418334
575 4 0.425287 0.133562 0.427598
516 4 0.441334 0.140358 0.437766
514 2 0.466014 0.142029 0.44141
515 4 0.490694 0.143701 0.445054
260 4 0.0744535 0.165269 0.473474
469 2 0.0791463 0.200081 0.448133
471 4 0.0696321 0.183028 0.463749
470 4 0.0886604 0.217134 0.432517
411 4 0.243073 0.180976 0.424012
2455 2 0.402043 0.217684 0.433138
2457 4 0.410157 0.201408 0.450297
2456 4 0.39393 0.23396 0.415978
616 2 0.0146431 0.276763 0.441623
617 4 0.0275262 0.288477 0.459568
695 4 0.0996622 0.257906 0.446432
694 2 0.105961 0.279317 0.435161
696 4 0.11226 0.300729 0.423889
878 4 0.112663 0.268019 0.488776
1010 4 0.449421 0.317042 0.467976
1009 2 0.455724 0.293285 0.463387
1011 4 0.462027 0.269528 0.458798
305 4 0.477183 0.27158 0.445609
2507 4 0.458436 0.334896 0.474953
326 4 0.100825 0.368567 0.442521
325 2 0.124533 0.365228 0.449729
7 3 0.16388 0.359312 0.468948
327 4 0.148241 0.361889 0.456937
8 3 0.168172 0.391223 0.488336
6 1 0.1706 0.368159 0.48909
334 2 0.342887 0.418377 0.441241
335 4 0.358966 0.404437 0.454366
238 2 0.346959 0.391216 0.489742
240 4 0.359351 0.390163 0.46805
561 4 0.491007 0.420691 0.420253
559 2 0.496644 0.402026 0.435906
2506 2 0.472954 0.353444 0.466564
2508 4 0.487471 0.371993 0.458175
1381 2 0.00553519 0.450604 0.476326
1382 4 0.0249108 0.466309 0.474555
538 2 0.0453107 0.488425 0.489799
540 4 0.0381451 0.48006 0.467352
384 4 0.13005 0.500206 0.497964
568 2 0.112609 0.437109 0.430612
570 4 0.109676 0.427768 0.453619
709 2 0.131798 0.407905 0.483882
774 4 0.10745 0.488958 0.433661
773 4 0.129373 0.499081 0.477451
772 2 0.118412 0.494019 0.455556
710 4 0.113744 0.418808 0.470452
1393 2 0.232559 0.493815 0.458722
1394 4 0.243517 0.480026 0.476469
1401 4 0.315085 0.445314 0.419477
1399 2 0.324326 0.468235 0.423274
1400 4 0.333567 0.491156 0.42707
336 4 0.326807 0.432318 0.428115
1127 4 0.0287633 0.0550202 0.529291
720 4 0.0458475 0.0613348 0.522071
1126 2 0.0133057 0.0417059 0.543746
1031 4 0.167104 0.0873734 0.542087
949 2 0.199854 0.0703892 0.557154
950 4 0.224408 0.0681293 0.561295
1182 4 0.22703 0.0534905 0.574496
951 4 0.175299 0.0726491 0.553013
1180 2 0.243438 0.0396936 0.561627
963 4 0.279766 0.0269326 0.546888
1181 4 0.259846 0.0258967 0.548758
961 2 0.292229 0.00634578 0.553672
1216 2 0.376841 0.0527739 0.51432
1217 4 0.360614 0.0694828 0.523413
842 4 0.357333 0.0611173 0.541634
1218 4 0.393068 0.036065 0.505228
1035 4 0.0741971 0.139898 0.571675
261 4 0.0775094 0.167133 0.523353
1033 2 0.080808 0.157652 0.555357
1030 2 0.145731 0.0984838 0.548792
1032 4 0.124358 0.109594 0.555496
938 4 0.164423 0.169811 0.591104
1154 4 0.115457 0.10417 0.572952
1150 2 0.189942 0.142301 0.508377
1151 4 0.19007 0.159412 0.526608
843 4 0.317015 0.0897512 0.549065
431 4 0.300208 0.0971915 0.539863
430 2 0.294213 0.0973363 0.51559
857 4 0.340206 0.129406 0.578141
899 4 0.351241 0.130206 0.560974
841 2 0.337174 0.0754343 0.54535
898 2 0.367379 0.148291 0.55484
808 2 0.49666 0.091441 0.567603
1034 4 0.0874188 0.175406 0.53904
1272 4 0.103836 0.237661 0.542885
1270 2 0.121523 0.231805 0.55956
1271 4 0.13921 0.22595 0.576236
937 2 0.172737 0.165937 0.567844
939 4 0.18105 0.162063 0.544583
900 4 0.383518 0.166377 0.548706
872 4 0.378324 0.184957 0.543483
873 4 0.375326 0.229589 0.565836
871 2 0.376825 0.207273 0.554659
813 4 0.361342 0.228454 0.579834
953 4 0.449445 0.253765 0.58325
879 4 0.106239 0.25783 0.537311
877 2 0.109451 0.262925 0.513044
1239 4 0.25909 0.262308 0.575453
1205 4 0.394599 0.293791 0.566937
1204 2 0.36961 0.292963 0.566772
1206 4 0.34462 0.292135 0.566606
930 4 0.333881 0.308599 0.560817
954 4 0.407874 0.28026 0.574848
952 2 0.42866 0.267013 0.579049
984 4 0.0119926 0.406077 0.588334
9 3 0.157326 0.359344 0.505957
711 4 0.149851 0.397002 0.497313
896 4 0.186243 0.359871 0.515586
1137 4 0.19052 0.357186 0.584815
897 4 0.189323 0.356197 0.565363
895 2 0.187783 0.358034 0.540474
10 3 0.192419 0.362759 0.49275
1191 4 0.207798 0.362084 0.508134
1189 2 0.232717 0.36075 0.506577
928 2 0.328628 0.33301 0.562117
802 2 0.289785 0.364074 0.536991
804 4 0.306205 0.365206 0.555814
929 4 0.323375 0.357421 0.563416
803 4 0.273365 0.362941 0.518169
1190 4 0.257636 0.359416 0.505021
239 4 0.334567 0.392269 0.511433
1001 4 0.470572 0.39115 0.546597
926 4 0.48133 0.391655 0.530293
925 2 0.490159 0.369264 0.52352
1000 2 0.472724 0.401184 0.569397
927 4 0.498987 0.346873 0.516747
934 2 0.00267002 0.480853 0.583614
936 4 0.0274445 0.478631 0.581071
1938 4 0.0427957 0.477286 0.568337
1936 2 0.0544239 0.486145 0.548052
382 2 0.130719 0.492646 0.521788
383 4 0.131388 0.485086 0.545612
2244 4 0.128831 0.497208 0.561246
1446 4 0.242475 0.476661 0.496481
882 4 0.287891 0.456451 0.579563
880 2 0.291221 0.468635 0.557984
881 4 0.294552 0.480819 0.536406
1445 4 0.275475 0.483935 0.533343
1444 2 0.258975 0.480298 0.514912
1183 2 0.996481 0.0414735 0.64874
1185 4 0.0179684 0.0370406 0.660733
1058 4 0.0768254 0.0175915 0.631219
1057 2 0.0862633 0.0399157 0.625076
945 4 0.0214075 0.0565883 0.665929
1155 4 0.0935832 0.0676082 0.599134
1059 4 0.0957012 0.0622399 0.618933
1153 2 0.10452 0.085889 0.586043
825 4 0.0914465 0.00587455 0.638147
1005 4 0.312 0.0739226 0.61853
2282 4 0.465517 0.0222377 0.61118
2281 2 0.454273 0.00935284 0.592939
43 3 0.470513 0.0410006 0.610303
41 1 0.475469 0.0627492 0.616694
44 3 0.456206 0.0734566 0.623954
45 3 0.484545 0.0741193 0.599173
42 3 0.490614 0.0621474 0.633997
1163 4 0.504628 0.0592826 0.649438
810 4 0.485202 0.0730842 0.58013
1082 4 0.0614521 0.142933 0.586598
1081 2 0.0389049 0.144976 0.597211
1083 4 0.0163578 0.147019 0.607823
1199 4 0.99732 0.153337 0.606326
1221 4 0.145883 0.0973322 0.619562
1219 2 0.16858 0.104246 0.627451
1220 4 0.191276 0.111159 0.63534
1212 4 0.205977 0.12292 0.639002
1210 2 0.226657 0.136914 0.640309
1211 4 0.247337 0.150907 0.641616
856 2 0.325864 0.146514 0.589402
1003 2 0.303224 0.081369 0.640727
1004 4 0.294448 0.0888154 0.662924
858 4 0.311523 0.163621 0.600664
888 4 0.258712 0.137269 0.650981
886 2 0.276917 0.124746 0.662684
887 4 0.295122 0.112223 0.674386
1143 4 0.375534 0.139057 0.65467
1025 4 0.386577 0.155867 0.648418
1141 2 0.351202 0.134119 0.657628
909 4 0.137881 0.211597 0.590129
907 2 0.151198 0.217324 0.610501
908 4 0.164514 0.223051 0.630874
947 4 0.15521 0.22566 0.647815
946 2 0.174795 0.240529 0.65235
812 4 0.31473 0.234779 0.596807
798 4 0.311099 0.215094 0.603397
796 2 0.305079 0.191583 0.60941
797 4 0.299058 0.168071 0.615423
811 2 0.338036 0.231616 0.58832
1024 2 0.381336 0.179376 0.641708
1026 4 0.376096 0.202886 0.634999
905 4 0.45799 0.237293 0.589611
904 2 0.48099 0.245153 0.583746
3122 4 0.478808 0.228918 0.667941
948 4 0.194379 0.255397 0.656884
1237 2 0.277583 0.274832 0.586695
792 4 0.31247 0.281308 0.609576
790 2 0.321314 0.304338 0.613643
1238 4 0.296075 0.287355 0.597937
791 4 0.330157 0.327369 0.61771
983 4 0.0601609 0.392671 0.589226
982 2 0.0360768 0.399374 0.58878
1041 4 0.0683356 0.41084 0.587724
3263 4 0.0025312 0.397827 0.6041
893 4 0.11652 0.340905 0.6523
1135 2 0.181149 0.379271 0.591856
1136 4 0.171777 0.401357 0.598897
1910 4 0.464672 0.406823 0.60917
1039 2 0.0886679 0.425382 0.587182
992 4 0.170313 0.421742 0.595714
991 2 0.149482 0.433211 0.587987
993 4 0.128652 0.444681 0.580259
1040 4 0.109 0.439924 0.586641
1171 2 0.243448 0.462683 0.582563
1160 4 0.220071 0.484868 0.586071
1159 2 0.200342 0.49594 0.596718
1173 4 0.218515 0.46359 0.580917
1172 4 0.268381 0.461776 0.584209
1267 2 0.419171 0.463197 0.655062
1269 4 0.409594 0.484226 0.664613
1002 4 0.474876 0.411218 0.592198
1911 4 0.44167 0.445644 0.630723
1909 2 0.453171 0.426234 0.619946
1268 4 0.428748 0.442167 0.64551
943 2 0.0360068 0.0462322 0.683387
1076 4 0.0519579 0.0303185 0.719694
944 4 0.0506062 0.035876 0.700845
1075 2 0.0689489 0.0363165 0.737029
32 3 0.101052 0.131342 0.740819
1283 4 0.145197 0.0984048 0.697849
1284 4 0.170203 0.0905095 0.740429
1282 2 0.1577 0.0944572 0.719139
1227 4 0.180643 0.107398 0.737249
830 4 0.306487 0.0939047 0.676342
829 2 0.325312 0.0929509 0.69277
831 4 0.344137 0.091997 0.709198
1142 4 0.32687 0.129181 0.660587
851 4 0.0116531 0.182961 0.729981
1107 4 0.0293364 0.183935 0.740257
1105 2 0.045545 0.167695 0.750193
3188 4 0.0172612 0.255137 0.737434
822 4 0.135808 0.211428 0.698089
1278 4 0.149329 0.204165 0.712366
820 2 0.118762 0.225362 0.709941
821 4 0.101716 0.239295 0.721792
1276 2 0.158632 0.191823 0.732021
1277 4 0.167935 0.179481 0.751675
976 2 0.286023 0.205636 0.744994
977 4 0.302409 0.222423 0.736342
916 2 0.309706 0.243511 0.707266
918 4 0.317665 0.227767 0.724985
1008 4 0.350587 0.240682 0.718804
3121 2 0.457914 0.239152 0.677101
3123 4 0.43702 0.249385 0.686261
1263 4 0.449081 0.214686 0.74577
1145 4 0.446393 0.195072 0.741033
1207 2 0.0706389 0.266181 0.702211
1209 4 0.0537727 0.282423 0.693441
1244 4 0.035223 0.284362 0.702753
1243 2 0.0110361 0.278207 0.704263
1208 4 0.0875051 0.249939 0.71098
1064 4 0.245629 0.298895 0.674761
1063 2 0.228465 0.281173 0.670702
1065 4 0.2113 0.263451 0.666644
1240 2 0.228796 0.295174 0.723245
1242 4 0.214098 0.295239 0.743473
1241 4 0.243494 0.295109 0.703017
917 4 0.301747 0.259255 0.689548
1097 4 0.302119 0.276839 0.699919
1096 2 0.280056 0.287628 0.69523
1098 4 0.257993 0.298418 0.690541
1006 2 0.364832 0.256154 0.732327
894 4 0.0774107 0.343051 0.683389
1279 2 0.0499722 0.357463 0.702564
3275 4 0.0377256 0.386719 0.722035
1280 4 0.042061 0.367921 0.723853
1281 4 0.0578834 0.347005 0.681275
3274 2 0.0502587 0.40063 0.738606
892 2 0.0969655 0.341978 0.667845
940 2 0.153847 0.391666 0.751964
941 4 0.172554 0.377721 0.742977
1028 4 0.241724 0.356323 0.703397
1068 4 0.222737 0.363405 0.699005
1067 4 0.181137 0.368811 0.726226
1066 2 0.201937 0.366108 0.712615
1029 4 0.276798 0.381033 0.677707
1139 4 0.285991 0.397403 0.67232
1027 2 0.259261 0.368678 0.690552
1138 2 0.294909 0.417624 0.684016
1229 4 0.376632 0.38588 0.696334
1228 2 0.373934 0.409811 0.703057
1983 4 0.046806 0.506725 0.730928
2022 4 0.0301406 0.494892 0.66787
2172 4 0.195597 0.487695 0.66203
1140 4 0.303826 0.437844 0.695713
1989 4 0.294698 0.451993 0.706288
1987 2 0.297618 0.453172 0.731092
890 4 0.390363 0.487866 0.660026
1230 4 0.371237 0.433743 0.709779
1100 4 0.45001 0.492437 0.73189
1250 4 0.463791 0.497552 0.74491
862 2 0.0409349 0.0849811 0.8195
864 4 0.0542871 0.0707066 0.835093
1077 4 0.0859399 0.0423146 0.754365
1202 4 0.131865 0.0117361 0.783052
1203 4 0.100825 0.0302168 0.748474
1201 2 0.116345 0.0209765 0.765763
2049 4 0.150218 0.00365434 0.784524
1147 2 0.218808 0.0605025 0.80321
1149 4 0.23049 0.0392555 0.809316
1049 4 0.245125 0.0354355 0.795076
1148 4 0.207126 0.0817494 0.797105
1048 2 0.264096 0.0282241 0.80968
1050 4 0.283067 0.0210127 0.824284
818 4 0.364498 0.069103 0.808434
965 4 0.377333 0.0667034 0.822612
846 4 0.482477 0.019395 0.752477
35 3 0.0806146 0.159651 0.754004
3387 4 0.997969 0.0964442 0.748986
1106 4 0.0617536 0.151455 0.760128
832 2 0.0465126 0.118106 0.776789
863 4 0.0275827 0.0992555 0.803907
833 4 0.0287008 0.101785 0.783234
33 3 0.0823655 0.127295 0.773178
834 4 0.0643243 0.134427 0.770344
31 1 0.0940809 0.142238 0.759842
34 3 0.112703 0.150103 0.771232
1073 4 0.130972 0.158401 0.771954
1225 2 0.184495 0.116065 0.760383
1226 4 0.188347 0.124733 0.783518
840 4 0.209183 0.128155 0.784029
838 2 0.229781 0.132331 0.797572
839 4 0.25038 0.136508 0.811116
959 4 0.259009 0.156179 0.813429
819 4 0.33477 0.105198 0.790711
817 2 0.349634 0.0871506 0.799573
1084 2 0.344977 0.143053 0.808923
1085 4 0.337273 0.123017 0.796101
1086 4 0.35268 0.163089 0.821744
1146 4 0.480061 0.160101 0.753039
153 3 0.999198 0.241426 0.819677
779 4 0.0554727 0.205358 0.823242