ITEM: TIMESTEP
470000
ITEM: NUMBER OF ATOMS
4590
ITEM: BOX BOUNDS pp pp pp
-9.9985700000000008e+00 9.9985700000000008e+00
-9.9985700000000008e+00 9.9985700000000008e+00
-9.9985700000000008e+00 9.9985700000000008e+00
ITEM: ATOMS id type xs ys zs
463 2 0.016382 0.0581448 0.0437043
465 4 0.0156968 0.0707875 0.0652651
464 4 0.0170672 0.045502 0.0221434
3290 4 0.0247741 0.0418024 0.00418835
3289 2 0.0126454 0.0200339 0.0021372
591 4 0.0335748 0.0719946 0.0753128
702 4 0.0972728 0.077213 0.0411614
534 4 0.171216 0.0318081 0.00763418
1476 4 0.198479 0.00518426 0.0491294
490 2 0.275466 0.0425182 0.0229735
491 4 0.291789 0.0607088 0.0176956
492 4 0.259143 0.0243277 0.0282513
557 4 0.381137 0.0775791 0.0704258
745 2 0.467687 0.0725494 0.0362558
747 4 0.479131 0.0589669 0.0186567
746 4 0.456243 0.0861319 0.0538549
1826 4 0.462666 0.00282418 0.0677015
2975 4 0.470086 0.0623356 0.00233008
701 4 0.0671432 0.116632 0.034909
700 2 0.082208 0.0969223 0.0380352
423 4 0.0772064 0.148554 0.00744531
565 2 0.181023 0.108053 0.0622844
566 4 0.174503 0.132124 0.0641011
567 4 0.187542 0.083983 0.0604678
358 2 0.292906 0.128921 0.0205104
360 4 0.286605 0.136863 0.0433666
556 2 0.380838 0.101271 0.06244
558 4 0.380538 0.124963 0.0544542
421 2 0.0661816 0.170627 0.0115009
553 2 0.026088 0.212669 0.030336
554 4 0.0128735 0.219453 0.0504494
422 4 0.0551569 0.192699 0.0155565
555 4 0.0393024 0.205886 0.0102226
353 4 0.2818 0.227278 0.0694547
352 2 0.258519 0.230936 0.077811
324 4 0.39982 0.239057 0.0840073
665 4 0.363892 0.21229 0.0153882
770 4 0.454712 0.172437 0.064847
771 4 0.458628 0.174149 0.0150228
769 2 0.45667 0.173293 0.0399349
828 4 0.441373 0.168281 0.00802614
292 2 0.143534 0.315123 0.0386449
293 4 0.157483 0.3007 0.0535645
294 4 0.129585 0.329545 0.0237254
507 4 0.163373 0.28501 0.0428373
506 4 0.178462 0.250311 0.0755329
505 2 0.170918 0.267661 0.0591851
481 2 0.240796 0.315715 0.0714428
356 4 0.2289 0.26171 0.00388457
483 4 0.253318 0.294378 0.0750672
572 4 0.319249 0.257248 0.0542942
571 2 0.341707 0.266165 0.0478662
573 4 0.364165 0.275082 0.0414381
1071 4 0.372207 0.263908 0.0266932
1069 2 0.393379 0.262468 0.0134704
322 2 0.419124 0.254536 0.0804086
280 2 0.45273 0.323416 0.0451714
281 4 0.431181 0.325015 0.0577526
671 4 0.426302 0.315011 0.073747
282 4 0.474278 0.321817 0.0325903
323 4 0.438428 0.270014 0.0768098
328 2 0.0189515 0.404581 0.0325887
329 4 0.0156973 0.400358 0.00816013
330 4 0.0222057 0.408804 0.0570173
455 4 0.0726779 0.364547 0.0642546
621 4 0.0164598 0.377209 0.0734928
1169 4 0.0606185 0.353421 0.00478543
454 2 0.0961917 0.356135 0.0654843
456 4 0.119706 0.347723 0.0667139
482 4 0.228274 0.337051 0.0678184
252 4 0.316671 0.38083 0.0582771
250 2 0.298897 0.390845 0.0438227
251 4 0.281122 0.400861 0.0293683
608 4 0.314029 0.369975 0.0745765
227 4 0.473911 0.40403 0.0418823
551 4 0.0673075 0.451241 0.0659739
315 4 0.0320022 0.42151 0.0697591
550 2 0.0870553 0.445523 0.0517438
552 4 0.106803 0.439804 0.0375136
245 4 0.208235 0.459247 0.0240298
244 2 0.232941 0.459565 0.0278604
246 4 0.257647 0.459882 0.0316911
272 4 0.27549 0.469036 0.0320904
271 2 0.28568 0.491864 0.0315923
562 2 0.461529 0.48581 0.0350428
564 4 0.459775 0.493506 0.0587679
563 4 0.463283 0.478115 0.0113178
226 2 0.48486 0.426417 0.0439153
228 4 0.495809 0.448804 0.0459483
1667 4 0.0720469 0.0569258 0.0920349
1666 2 0.0790444 0.0330673 0.0946776
19 3 0.0310398 0.0467831 0.15789
20 3 0.0586796 0.0647498 0.139699
1422 4 0.0344854 0.0192965 0.152031
16 1 0.0536291 0.0520866 0.157942
18 3 0.0663258 0.0326652 0.157859
2480 4 0.016011 0.0324277 0.149335
1668 4 0.0860418 0.00920873 0.0973203
450 4 0.172011 0.060366 0.15581
1506 4 0.233353 0.0110206 0.156946
652 2 0.291991 0.0613398 0.136138
654 4 0.297885 0.045845 0.11742
653 4 0.286096 0.0768346 0.154855
296 4 0.381473 0.0674553 0.087551
295 2 0.370952 0.0483387 0.0997588
297 4 0.36043 0.0292221 0.111967
758 4 0.418338 0.0554568 0.157116
485 4 0.351282 0.0200786 0.127221
1759 2 0.477539 0.00856622 0.157096
1761 4 0.452609 0.00778332 0.155346
2723 4 0.493956 0.072444 0.1138
589 2 0.0416496 0.0924749 0.0871674
590 4 0.0497244 0.112955 0.0990219
448 2 0.174324 0.0841993 0.163007
582 4 0.301148 0.0866968 0.163074
476 4 0.139621 0.18489 0.107434
475 2 0.130136 0.188902 0.130218
477 4 0.12065 0.192914 0.153002
737 4 0.195156 0.182032 0.0970837
736 2 0.210365 0.201854 0.0980675
738 4 0.225574 0.221676 0.0990513
354 4 0.235239 0.234593 0.0861672
461 4 0.290867 0.22358 0.0873451
460 2 0.30666 0.206283 0.0960962
462 4 0.322453 0.188986 0.104847
254 4 0.381859 0.169364 0.134378
630 4 0.402069 0.172805 0.130005
255 4 0.337628 0.180589 0.113926
253 2 0.359743 0.174976 0.124152
622 2 0.377893 0.246277 0.142176
628 2 0.414057 0.193731 0.123402
624 4 0.400314 0.242434 0.152553
629 4 0.426045 0.214656 0.116799
337 2 0.0765118 0.25356 0.146498
339 4 0.0525365 0.25525 0.139605
338 4 0.100487 0.251871 0.153391
279 4 0.237831 0.287812 0.16492
277 2 0.252356 0.275308 0.148862
754 2 0.281886 0.290515 0.106027
755 4 0.269853 0.279771 0.125131
756 4 0.293919 0.301258 0.0869225
278 4 0.266881 0.262804 0.132804
741 4 0.35299 0.31149 0.0911675
623 4 0.355471 0.250121 0.131798
739 2 0.356269 0.331411 0.105918
670 2 0.423639 0.333393 0.0904862
527 4 0.464587 0.278213 0.16033
620 4 0.0203425 0.344295 0.110941
619 2 0.0184011 0.360752 0.0922167
647 4 0.071241 0.368236 0.14408
537 4 0.15764 0.365564 0.130786
535 2 0.159051 0.381767 0.149777
626 4 0.205293 0.380714 0.108131
625 2 0.204099 0.405578 0.110485
611 4 0.244307 0.346556 0.151323
609 4 0.294155 0.347455 0.114558
607 2 0.304092 0.358715 0.0945675
612 4 0.291299 0.349955 0.134564
610 2 0.267803 0.348256 0.142944
387 4 0.311752 0.385193 0.14244
302 4 0.312546 0.400519 0.155286
385 2 0.330997 0.369323 0.140717
740 4 0.359548 0.351332 0.120668
15 3 0.402144 0.352911 0.145804
386 4 0.350242 0.353453 0.138994
14 3 0.417763 0.386904 0.141539
495 4 0.40933 0.403373 0.134667
672 4 0.420976 0.351774 0.107225
11 1 0.421776 0.364093 0.142943
13 3 0.436077 0.359643 0.160665
12 3 0.431717 0.357076 0.123422
595 2 0.476721 0.370127 0.162652
596 4 0.499946 0.37595 0.155452
313 2 0.0141911 0.432029 0.0838052
627 4 0.202906 0.430442 0.112839
637 2 0.234852 0.474067 0.157682
639 4 0.234 0.47433 0.132695
1438 2 0.239284 0.493547 0.104928
1439 4 0.249762 0.478151 0.121612
525 4 0.343033 0.463471 0.100808
523 2 0.338225 0.487122 0.0942715
493 2 0.417694 0.425701 0.127137
494 4 0.426058 0.448029 0.119607
17 3 0.0584215 0.0640228 0.177013
673 2 0.130616 0.0478917 0.241524
675 4 0.118026 0.0646894 0.227941
1505 4 0.203696 0.0162657 0.196866
1504 2 0.218525 0.0136432 0.176906
689 4 0.20806 0.0319983 0.208986
688 2 0.19132 0.029552 0.227397
693 4 0.23775 0.0550973 0.199099
690 4 0.17458 0.0271057 0.245809
691 2 0.255076 0.0725385 0.203659
21 1 0.383474 0.0669204 0.231705
23 3 0.393112 0.0474723 0.239907
24 3 0.363455 0.0710773 0.242675
25 3 0.379798 0.0649277 0.209318
759 4 0.381629 0.0669423 0.189073
757 2 0.399984 0.0611995 0.173094
742 2 0.452935 0.0297205 0.247376
744 4 0.447664 0.0224757 0.224033
380 4 0.00694647 0.134592 0.171918
379 2 0.0151641 0.146261 0.192449
381 4 0.0233817 0.15793 0.212979
511 2 0.0519605 0.162923 0.230243
513 4 0.0734887 0.151755 0.236326
578 4 0.0783735 0.134174 0.24433
237 4 0.165378 0.163433 0.168321
577 2 0.0839968 0.116042 0.228059
579 4 0.0896202 0.0979086 0.211788
235 2 0.178005 0.142129 0.171767
449 4 0.176638 0.108033 0.170204
236 4 0.190631 0.120825 0.175213
546 4 0.182907 0.15022 0.249854
721 2 0.193361 0.118352 0.249486
722 4 0.179264 0.134704 0.236874
692 4 0.272402 0.0899796 0.208219
580 2 0.292898 0.105238 0.17768
581 4 0.284648 0.123779 0.192286
30 3 0.289826 0.131818 0.211177
26 1 0.303953 0.130487 0.22899
28 3 0.294872 0.116687 0.245283
27 3 0.324031 0.121631 0.22209
29 3 0.307698 0.151655 0.237724
22 3 0.397819 0.0844994 0.235492
333 4 0.410606 0.0974624 0.243348
312 4 0.408867 0.122408 0.191204
311 4 0.454317 0.125146 0.170528
310 2 0.431592 0.123777 0.180866
512 4 0.0304323 0.174091 0.22416
285 4 0.299304 0.237158 0.181311
284 4 0.259026 0.212253 0.19738
283 2 0.279165 0.224706 0.189345
764 4 0.402091 0.21226 0.219778
763 2 0.415323 0.233256 0.222822
520 2 0.476064 0.223529 0.24687
521 4 0.451745 0.218974 0.24326
395 4 0.0711638 0.259398 0.20518
394 2 0.0518822 0.259722 0.221095
396 4 0.0326005 0.260046 0.23701
363 4 0.100567 0.250574 0.172587
361 2 0.11674 0.260391 0.188934
750 4 0.108377 0.322777 0.216716
362 4 0.132913 0.270208 0.205282
372 4 0.131878 0.261314 0.223317
748 2 0.0984163 0.30222 0.226884
749 4 0.0884559 0.281664 0.237052
370 2 0.15387 0.272499 0.227372
371 4 0.175862 0.283684 0.231427
345 4 0.232293 0.297509 0.236055
343 2 0.253811 0.292566 0.224321
344 4 0.27533 0.287623 0.212586
307 2 0.309042 0.300429 0.240005
309 4 0.290007 0.294171 0.225049
765 4 0.428555 0.254252 0.225867
528 4 0.475644 0.271372 0.208618
526 2 0.470116 0.274793 0.184474
646 2 0.0819801 0.367041 0.166628
536 4 0.160462 0.39797 0.168768
300 4 0.119691 0.333578 0.229906
648 4 0.0927192 0.365846 0.189176
298 2 0.118597 0.356739 0.239264
299 4 0.117503 0.3799 0.248622
290 4 0.2349 0.403587 0.227549
729 4 0.301433 0.370941 0.249442
597 4 0.453495 0.364303 0.169852
643 2 0.450426 0.355109 0.21192
644 4 0.454842 0.354675 0.236526
645 4 0.446011 0.355543 0.187313
263 4 0.0495677 0.474112 0.187983
262 2 0.0485314 0.457463 0.206609
264 4 0.0474952 0.440814 0.225235
417 4 0.152554 0.445518 0.211435
415 2 0.175379 0.445645 0.201229
638 4 0.235703 0.473804 0.18267
416 4 0.198205 0.445771 0.191023
291 4 0.213287 0.431881 0.192434
289 2 0.224093 0.417734 0.209992
768 4 0.216979 0.480055 0.244716
766 2 0.22788 0.481011 0.222234
767 4 0.238781 0.481967 0.199753
414 4 0.199181 0.47459 0.250863
1430 4 0.178949 0.498946 0.214656
301 2 0.32055 0.418849 0.17029
303 4 0.328554 0.437178 0.185295
437 4 0.289571 0.465603 0.230761
660 4 0.371633 0.480915 0.17576
658 2 0.357627 0.460405 0.172868
659 4 0.343621 0.439895 0.169975
231 4 0.376917 0.490827 0.192315
2755 2 0.00399536 0.0634196 0.320147
232 2 0.0373232 0.0322213 0.287013
233 4 0.0576058 0.0187867 0.292784
1403 4 0.0671446 0.0030343 0.301534
234 4 0.0170406 0.0456558 0.281241
2756 4 0.0120991 0.0595907 0.296805
674 4 0.143207 0.0310941 0.255107
1464 4 0.137397 0.00687802 0.298973
1701 4 0.288296 0.0437 0.311944
1699 2 0.286524 0.0315132 0.290183
1700 4 0.284752 0.0193264 0.268423
1516 2 0.358802 0.00739302 0.287343
1518 4 0.355814 0.0315537 0.293045
697 2 0.375901 0.0427293 0.329978
699 4 0.362095 0.0313661 0.312501
1747 2 0.458233 0.0172567 0.30251
1749 4 0.47546 0.0230573 0.319678
743 4 0.458207 0.0369653 0.27072
257 4 0.438666 0.0754523 0.326987
480 4 0.488695 0.0359997 0.312604
351 4 0.447487 0.0537213 0.272021
349 2 0.442294 0.0696372 0.290593
1748 4 0.441005 0.0114561 0.285342
530 4 0.0167872 0.15939 0.273468
397 2 0.0703514 0.131144 0.311797
399 4 0.0565692 0.145853 0.297002
544 2 0.163148 0.164597 0.255153
398 4 0.0841336 0.116436 0.326592
732 4 0.09746 0.101859 0.333223
723 4 0.207458 0.102 0.262098
404 4 0.235254 0.133277 0.287907
403 2 0.235238 0.15828 0.287965
599 4 0.213875 0.153789 0.318454
249 4 0.254041 0.133506 0.294237
248 4 0.270995 0.0866609 0.298578
247 2 0.262518 0.110083 0.296408
632 4 0.361833 0.0943429 0.288013
631 2 0.366704 0.116676 0.298146
633 4 0.371576 0.139009 0.30828
350 4 0.437101 0.0855531 0.309164
331 2 0.42776 0.113614 0.251717
332 4 0.444915 0.129765 0.260086
762 4 0.449828 0.132805 0.279245
760 2 0.460242 0.138679 0.301204
761 4 0.470657 0.144554 0.323163
390 4 0.0816727 0.239528 0.314382
392 4 0.136715 0.189265 0.276067
391 2 0.120034 0.183439 0.293758
393 4 0.103352 0.177613 0.311449
545 4 0.143389 0.178974 0.260452
388 2 0.105542 0.235975 0.320923
389 4 0.129412 0.232421 0.327464
405 4 0.235223 0.183284 0.288024
401 4 0.199653 0.249102 0.27911
400 2 0.216186 0.251045 0.297766
706 2 0.292423 0.191374 0.322767
707 4 0.312271 0.184575 0.309165
420 4 0.385034 0.196824 0.31787
443 4 0.0186291 0.265981 0.250532
444 4 0.0334296 0.284008 0.294767
442 2 0.0260293 0.274994 0.272649
402 4 0.232718 0.252989 0.316423
308 4 0.328076 0.306688 0.254962
496 2 0.308529 0.308972 0.300101
497 4 0.293342 0.304957 0.280649
498 4 0.323717 0.312986 0.319554
615 4 0.399761 0.327256 0.292103
543 4 0.415523 0.32029 0.30218
541 2 0.438414 0.329698 0.298617
2493 4 0.0155116 0.373359 0.311515
366 4 0.0153138 0.368309 0.250269
364 2 0.0153696 0.377493 0.273524
365 4 0.0154254 0.386677 0.29678
603 4 0.101332 0.367927 0.329253
601 2 0.101283 0.38926 0.316211
734 4 0.134286 0.383741 0.257426
733 2 0.146766 0.383354 0.279088
602 4 0.101234 0.410593 0.303169
735 4 0.159247 0.382968 0.300751
677 4 0.161843 0.374814 0.320603
676 2 0.185194 0.367415 0.315587
678 4 0.208545 0.360016 0.310572
433 2 0.324274 0.390686 0.329748
727 2 0.300192 0.383065 0.271274
434 4 0.310615 0.392708 0.308903
728 4 0.298951 0.395189 0.293107
613 2 0.385882 0.33558 0.311163
614 4 0.372004 0.343904 0.330223
542 4 0.461304 0.339106 0.295054
447 4 0.464847 0.368444 0.250418
445 2 0.447936 0.37977 0.264941
446 4 0.431026 0.391097 0.279464
1756 2 0.0801834 0.493226 0.27343
549 4 0.0181674 0.461063 0.328347
1757 4 0.0730518 0.470169 0.279962
776 4 0.0646113 0.459314 0.293873
777 4 0.102621 0.426978 0.290647
775 2 0.0836162 0.443146 0.29226
413 4 0.156128 0.476685 0.276216
412 2 0.177655 0.475637 0.263539
1435 2 0.244924 0.497657 0.326788
436 2 0.29842 0.475398 0.251996
438 4 0.307269 0.485192 0.273231
1437 4 0.269077 0.495572 0.332908
713 4 0.402809 0.459539 0.280546
593 4 0.382327 0.479176 0.330097
2862 4 0.496193 0.436402 0.292146
712 2 0.419534 0.45972 0.299131
714 4 0.436259 0.4599 0.317717
317 4 0.0753549 0.0638073 0.359389
428 4 0.0745417 0.0517302 0.343553
2584 2 0.999456 0.0711833 0.400549
2586 4 0.0184764 0.0693512 0.384423
427 2 0.0832279 0.0286337 0.339519
429 4 0.0919142 0.00553712 0.335484
731 4 0.133367 0.0799945 0.360303
1782 4 0.10168 0.00850166 0.372117
606 4 0.187726 0.0569795 0.356368
604 2 0.204126 0.0657698 0.373069
605 4 0.220527 0.0745601 0.38977
683 4 0.293735 0.0564536 0.369348
682 2 0.2849 0.0784259 0.377369
698 4 0.389706 0.0540924 0.347455
425 4 0.416975 0.0313445 0.407912
478 2 0.497702 0.0415589 0.335257
424 2 0.437894 0.0370929 0.395481
426 4 0.458812 0.0428412 0.383049
256 2 0.443756 0.0636813 0.348451
258 4 0.448847 0.0519104 0.369916
316 2 0.0629459 0.0846858 0.365329
318 4 0.0505369 0.105564 0.371269
730 2 0.115414 0.0909266 0.346763
685 2 0.163004 0.134427 0.401791
687 4 0.16958 0.119504 0.382838
600 4 0.189365 0.127007 0.352845
598 2 0.20162 0.140398 0.33565
684 4 0.276065 0.100398 0.385391
320 4 0.268584 0.0985052 0.404633
514 2 0.444069 0.160071 0.400883
515 4 0.460929 0.152512 0.384038
2653 2 0.000315769 0.226306 0.39914
2654 4 0.0231147 0.223949 0.409132
474 4 0.224154 0.204108 0.361632
472 2 0.248604 0.19957 0.359029
708 4 0.272576 0.198173 0.336369
473 4 0.273054 0.195032 0.356426
418 2 0.397744 0.211558 0.333571
716 4 0.376951 0.247927 0.363826
419 4 0.410455 0.226292 0.349272
451 2 0.481467 0.169047 0.362179
453 4 0.458257 0.167007 0.371253
304 2 0.49839 0.224192 0.406581
306 4 0.48158 0.241184 0.413921
616 2 0.079229 0.306913 0.38422
618 4 0.0584996 0.295829 0.392743
347 4 0.0431214 0.302029 0.401974
617 4 0.0999584 0.317996 0.375698
275 4 0.185132 0.262227 0.359226
274 2 0.203233 0.257902 0.375924
276 4 0.221334 0.253577 0.392623
508 2 0.241382 0.311473 0.36853
510 4 0.234042 0.322095 0.389942
374 4 0.218495 0.326623 0.400984
509 4 0.248722 0.300851 0.347118
488 4 0.305069 0.257567 0.38079
376 2 0.313461 0.282817 0.349923
377 4 0.307185 0.261987 0.362248
378 4 0.319737 0.303647 0.337599
487 2 0.293723 0.263052 0.402386
715 2 0.363906 0.258605 0.382291
717 4 0.35086 0.269284 0.400756
270 4 0.472555 0.258643 0.408868
269 4 0.485808 0.290897 0.373024
268 2 0.479182 0.27477 0.390946
406 2 0.0656198 0.404281 0.377409
407 4 0.0537272 0.408767 0.355878
681 4 0.0431603 0.413095 0.411729
408 4 0.0775124 0.399795 0.398941
373 2 0.216511 0.348112 0.413612
502 2 0.209258 0.404396 0.40937
435 4 0.337933 0.388664 0.350593
336 4 0.362256 0.395391 0.396126
561 4 0.47057 0.40147 0.400668
752 4 0.461505 0.401192 0.383758
559 2 0.456468 0.384007 0.411685
751 2 0.473846 0.410977 0.364338
547 2 0.0308897 0.443541 0.340848
548 4 0.0436119 0.426018 0.35335
500 4 0.10338 0.497426 0.373315
499 2 0.12694 0.491442 0.36746
501 4 0.1505 0.485457 0.361605
503 4 0.217197 0.424215 0.396356
668 4 0.31089 0.441431 0.39123
5 3 0.280066 0.456104 0.373126
1 1 0.297802 0.450165 0.360134
2 3 0.309629 0.469035 0.354372
4 3 0.31178 0.435847 0.371882
3 3 0.290313 0.439803 0.34077
667 2 0.319059 0.452031 0.412351
753 4 0.486187 0.420762 0.344918
718 2 0.0680538 0.0685861 0.494572
368 4 0.078919 0.0409222 0.451038
719 4 0.0905923 0.0641056 0.484717
367 2 0.103107 0.0471009 0.449642
369 4 0.127295 0.0532796 0.448245
341 4 0.187635 0.0289068 0.477697
340 2 0.189797 0.0510201 0.489164
2430 4 0.200647 0.0191197 0.489561
1180 2 0.249858 0.0640701 0.46911
1182 4 0.23367 0.0824416 0.464049
439 2 0.286661 0.00292919 0.43434
1181 4 0.266046 0.0456986 0.474171
441 4 0.27822 0.0248138 0.443
726 4 0.29284 0.075238 0.421784
724 2 0.31286 0.0610621 0.42662
432 4 0.293649 0.063157 0.484118
963 4 0.280897 0.0474067 0.488351
430 2 0.313302 0.0753313 0.493643
725 4 0.332881 0.0468862 0.431457
2878 2 0.49425 0.077816 0.447355
2880 4 0.476906 0.0819066 0.464895
459 4 0.0058375 0.156976 0.446806
1034 4 0.108648 0.148991 0.483528
686 4 0.156428 0.149351 0.420744
321 4 0.26686 0.132827 0.440961
319 2 0.267722 0.115666 0.422797
468 4 0.356601 0.160271 0.429721
574 2 0.396129 0.150567 0.435335
576 4 0.385278 0.136049 0.452558
575 4 0.40698 0.165085 0.418111
516 4 0.427208 0.16763 0.417728
641 4 0.483321 0.138128 0.492333
642 4 0.468835 0.0995684 0.463978
640 2 0.476078 0.118848 0.478156
458 4 0.0260899 0.201602 0.436854
457 2 0.0159637 0.179289 0.44183
470 4 0.0254938 0.215952 0.494888
260 4 0.0803216 0.235586 0.439999
261 4 0.0996244 0.202666 0.472316
259 2 0.089973 0.219126 0.456158
1035 4 0.110157 0.198712 0.488651
1033 2 0.109403 0.173851 0.48609
411 4 0.268727 0.232796 0.487175
409 2 0.279918 0.211072 0.481885
410 4 0.291109 0.189348 0.476595
466 2 0.354301 0.184464 0.435601
467 4 0.352002 0.208658 0.44148
346 2 0.0447638 0.297144 0.42644
348 4 0.0464062 0.292259 0.450907
695 4 0.0880689 0.252487 0.488242
694 2 0.109199 0.265634 0.490662
10 3 0.158226 0.322368 0.48694
696 4 0.130328 0.278782 0.493082
650 4 0.250303 0.30663 0.453247
489 4 0.282377 0.268536 0.423981
651 4 0.267748 0.262636 0.437093
649 2 0.259025 0.284633 0.44517
812 4 0.318934 0.289724 0.487463
267 4 0.348015 0.282163 0.415295
266 4 0.365123 0.292444 0.461146
265 2 0.356569 0.287303 0.43822
811 2 0.339146 0.279915 0.498437
2456 4 0.495154 0.295585 0.450468
583 2 0.456853 0.284837 0.455909
584 4 0.478866 0.283806 0.444097
585 4 0.43484 0.285868 0.467721
7 3 0.137047 0.352767 0.491438
326 4 0.103955 0.358805 0.4375
327 4 0.123352 0.341788 0.480335
325 2 0.113654 0.350297 0.458917
6 1 0.158629 0.344905 0.490191
711 4 0.158256 0.36989 0.463779
8 3 0.169376 0.355275 0.472433
375 4 0.214527 0.369601 0.42624
504 4 0.20132 0.384578 0.422385
709 2 0.169589 0.374198 0.441911
710 4 0.180922 0.378506 0.420044
334 2 0.366259 0.387932 0.419653
238 2 0.400984 0.366553 0.46359
240 4 0.388781 0.373249 0.44282
335 4 0.370262 0.380473 0.44318
239 4 0.413187 0.359856 0.484361
560 4 0.442367 0.366545 0.422702
383 4 0.0676747 0.435314 0.479843
680 4 0.0265265 0.450759 0.44011
1381 2 0.0191074 0.480553 0.447764
1383 4 0.0171385 0.457774 0.457884
679 2 0.0348434 0.431927 0.42592
935 4 0.0115545 0.455044 0.479492
570 4 0.128732 0.494257 0.419225
540 4 0.112216 0.497649 0.465284
384 4 0.109376 0.460114 0.467731
382 2 0.0885253 0.447714 0.473787
569 4 0.108749 0.457696 0.446877
568 2 0.118741 0.475977 0.433051
634 2 0.21595 0.454087 0.449384
636 4 0.227205 0.464032 0.429394
772 2 0.224127 0.419268 0.492469
635 4 0.204696 0.444142 0.469374
774 4 0.205607 0.427026 0.477569
669 4 0.327229 0.462631 0.433471
586 2 0.397498 0.435657 0.435747
588 4 0.376004 0.425298 0.428273
587 4 0.418992 0.446017 0.443221
1126 2 0.018982 0.0642278 0.53702
1127 4 0.0260246 0.0695279 0.513622
1128 4 0.0119394 0.0589277 0.560419
2236 2 0.0120868 0.00161538 0.520546
720 4 0.0455153 0.0730665 0.504427
2237 4 0.0165527 0.0236778 0.509661
1058 4 0.128952 0.0544462 0.540395
1057 2 0.137262 0.0737682 0.553915
1030 2 0.238882 0.0742564 0.578555
342 4 0.191959 0.0731334 0.500632
1152 4 0.172465 0.0726225 0.502566
961 2 0.27888 0.0350646 0.510002
962 4 0.276863 0.0227225 0.531654
1217 4 0.401175 0.0489735 0.529025
841 2 0.367901 0.0734094 0.513611
842 4 0.383336 0.0555027 0.521753
1216 2 0.401451 0.0362198 0.55053
1218 4 0.401726 0.023466 0.572034
1060 2 0.494114 0.0104095 0.530191
1062 4 0.483113 0.0129903 0.552496
937 2 0.105139 0.162325 0.576403
1151 4 0.159869 0.118209 0.518811
1059 4 0.145571 0.0930902 0.567435
1155 4 0.153198 0.106334 0.58056
1150 2 0.166167 0.0954158 0.510688
1153 2 0.163531 0.129041 0.582238
1032 4 0.240102 0.098705 0.573461
1154 4 0.173864 0.151747 0.583917
898 2 0.319432 0.141068 0.559643
899 4 0.298586 0.133794 0.547907
431 4 0.332956 0.0875057 0.503167
843 4 0.352466 0.091316 0.505469
900 4 0.340277 0.148341 0.571379
3158 4 0.48884 0.137681 0.511691
3157 2 0.484114 0.162206 0.512866
878 4 0.0570647 0.192979 0.572779
471 4 0.0398475 0.171648 0.513105
469 2 0.0326706 0.1938 0.503997
938 4 0.0959793 0.176445 0.557913
797 4 0.235381 0.22456 0.577259
856 2 0.248391 0.200023 0.550078
857 4 0.246628 0.179648 0.535693
858 4 0.250154 0.220398 0.564463
3159 4 0.479388 0.186731 0.514042
1258 2 0.155174 0.274116 0.525361
1260 4 0.144852 0.267872 0.50346
1136 4 0.104923 0.33178 0.560567
1259 4 0.165496 0.280361 0.547262
873 4 0.376459 0.261636 0.505226
871 2 0.398186 0.260912 0.517578
813 4 0.359358 0.270105 0.509411
872 4 0.419913 0.260188 0.529931
953 4 0.437382 0.317712 0.57529
1135 2 0.118295 0.347282 0.574921
897 4 0.145129 0.372563 0.576637
9 3 0.169571 0.349845 0.510048
1189 2 0.226938 0.355524 0.547467
896 4 0.191953 0.363251 0.561752
1191 4 0.206798 0.351377 0.561694
895 2 0.168541 0.367907 0.569195
1190 4 0.247077 0.359671 0.533241
773 4 0.242646 0.411509 0.507369
802 2 0.264507 0.387498 0.52259
803 4 0.266909 0.364355 0.531745
804 4 0.262105 0.410641 0.513436
929 4 0.333998 0.4075 0.567361
928 2 0.356862 0.398411 0.571815
930 4 0.379726 0.389323 0.576268
925 2 0.463584 0.370722 0.51725
927 4 0.46511 0.393224 0.506455
926 4 0.462057 0.348221 0.528046
1001 4 0.434006 0.415538 0.550844
1171 2 0.236013 0.429894 0.546904
1173 4 0.233523 0.438251 0.570338
1172 4 0.238503 0.421538 0.52347
2243 4 0.165454 0.496673 0.580893
882 4 0.324005 0.452086 0.509727
880 2 0.319525 0.460484 0.532848
881 4 0.315044 0.468881 0.55597
1952 4 0.335087 0.47052 0.558151
1951 2 0.349186 0.486574 0.571139
1000 2 0.4402 0.434043 0.566477
661 2 0.476857 0.471497 0.522012
663 4 0.468082 0.449227 0.529237
662 4 0.485632 0.493768 0.514787
2319 4 0.0648475 0.00181499 0.659134
945 4 0.0741667 0.0180615 0.655223
1185 4 0.00214403 0.0344522 0.632476
1183 2 0.00908178 0.0426602 0.655052
943 2 0.0708983 0.0413648 0.663676
825 4 0.115444 0.0134842 0.627104
951 4 0.234449 0.0467524 0.603946
1031 4 0.237661 0.0498079 0.58365
949 2 0.235737 0.0225221 0.597912
1283 4 0.192101 0.0817146 0.632896
808 2 0.477022 0.0818192 0.620698
810 4 0.457486 0.0756896 0.635049
43 3 0.424353 0.0644353 0.663256
45 3 0.453764 0.0848112 0.651531
1082 4 0.0393009 0.11333 0.659598
1083 4 0.0633521 0.108137 0.616063
1081 2 0.0513265 0.110733 0.637831
939 4 0.114298 0.148205 0.594894
909 4 0.159049 0.164408 0.65471
1284 4 0.170165 0.123789 0.648684
1282 2 0.181133 0.102752 0.64079
1221 4 0.178614 0.164905 0.596468
1005 4 0.33353 0.0982171 0.639352
1003 2 0.346905 0.0928422 0.659782
809 4 0.496558 0.0879488 0.606347
877 2 0.0737724 0.208359 0.583242
1208 4 0.0713298 0.250523 0.645652
879 4 0.0904801 0.223739 0.593706
1272 4 0.0978467 0.20827 0.604888
1270 2 0.118349 0.203637 0.61843
1271 4 0.138851 0.199004 0.631972
1212 4 0.203303 0.175448 0.658227
1219 2 0.191591 0.167473 0.617686
1220 4 0.204568 0.17004 0.638904
796 2 0.241826 0.243359 0.592432
1210 2 0.227295 0.176779 0.665141
791 4 0.316418 0.244504 0.585576
906 4 0.484442 0.217252 0.626548
1024 2 0.425899 0.20806 0.653218
1026 4 0.432979 0.211842 0.629538
904 2 0.500008 0.216488 0.606995
1244 4 0.018486 0.254927 0.623071
1243 2 0.0280661 0.273869 0.636285
1245 4 0.0376463 0.29281 0.649499
1207 2 0.0886431 0.258204 0.661975
948 4 0.150707 0.284367 0.614765
798 4 0.24827 0.262158 0.607606
946 2 0.172136 0.296549 0.61057
947 4 0.193564 0.308731 0.606376
1239 4 0.248047 0.335193 0.607191
790 2 0.308139 0.26797 0.588023
792 4 0.29986 0.291436 0.59047
1238 4 0.287943 0.306582 0.597681
1237 2 0.267995 0.320888 0.602436
954 4 0.440316 0.316754 0.625202
952 2 0.438849 0.317233 0.600246
3123 4 0.497222 0.287907 0.642469
3121 2 0.494828 0.26857 0.658138
1039 2 0.0463411 0.413114 0.618577
1041 4 0.021695 0.410034 0.615703
984 4 0.00354501 0.331128 0.626442
1137 4 0.131668 0.362784 0.589276
993 4 0.0868174 0.404215 0.622835
992 4 0.126755 0.402644 0.65289
991 2 0.106786 0.403429 0.637863
1204 2 0.397824 0.393254 0.614892
1206 4 0.392161 0.384414 0.592199
1205 4 0.403487 0.402094 0.637585
1040 4 0.0709872 0.416194 0.621452
2129 4 0.00808962 0.496366 0.650463
1159 2 0.163417 0.437826 0.609217
1160 4 0.144546 0.454222 0.60974
1188 4 0.209685 0.488411 0.629741
1161 4 0.182288 0.421431 0.608694
889 2 0.298287 0.439751 0.590857
891 4 0.287151 0.462136 0.591081
890 4 0.309424 0.417365 0.590633
1002 4 0.446394 0.452547 0.58211
1910 4 0.437786 0.463344 0.597289
1267 2 0.431681 0.498829 0.648081
1909 2 0.424844 0.483809 0.591055
1269 4 0.448245 0.495307 0.629685
1184 4 0.0160195 0.0508682 0.677628
944 4 0.06763 0.0646681 0.672129
1076 4 0.0648737 0.0809027 0.683026
1163 4 0.477601 0.0327133 0.677283
42 3 0.458559 0.0586547 0.677718
41 1 0.444208 0.0746655 0.669542
845 4 0.484967 0.0263309 0.751765
864 4 0.0657394 0.100717 0.748929
1075 2 0.0674458 0.08834 0.706759
1077 4 0.0700179 0.0957772 0.730492
1105 2 0.0759694 0.157879 0.731658
1106 4 0.0887183 0.145416 0.749188
907 2 0.169054 0.159362 0.677062
908 4 0.179059 0.154315 0.699414
1227 4 0.198313 0.159609 0.696848
1148 4 0.21598 0.108978 0.732299
1225 2 0.211199 0.141554 0.708386
1226 4 0.224084 0.123498 0.719925
829 2 0.333474 0.162822 0.715804
831 4 0.352655 0.159664 0.73153
1004 4 0.36028 0.0874673 0.680213
44 3 0.440136 0.0902984 0.686199
1107 4 0.0632205 0.170343 0.714128
851 4 0.0590965 0.187446 0.724191
852 4 0.0627424 0.229141 0.696823
850 2 0.0609195 0.208293 0.710507
1215 4 0.0229936 0.232645 0.723781
1178 4 0.0434303 0.231679 0.692406
1177 2 0.022295 0.238728 0.681057
1213 2 0.00796289 0.218724 0.738115
1179 4 0.00115976 0.245778 0.669709
830 4 0.314293 0.16598 0.700078
1211 4 0.251286 0.178109 0.672055
886 2 0.286544 0.186825 0.693291
888 4 0.262761 0.187792 0.685634
887 4 0.310327 0.185858 0.700948
1064 4 0.270957 0.239804 0.717416
1193 4 0.370961 0.228758 0.669313
1192 2 0.358433 0.214411 0.685511
1194 4 0.345904 0.200064 0.701709
1262 4 0.402178 0.224078 0.727559
1143 4 0.409806 0.186974 0.680483
1142 4 0.435867 0.167887 0.718657
1025 4 0.418819 0.204278 0.676898
1141 2 0.422836 0.177431 0.69957
3122 4 0.492435 0.249233 0.673808
3356 4 0.496929 0.238509 0.731569
3355 2 0.489518 0.236209 0.707801
1261 2 0.424623 0.234712 0.724672
1145 4 0.495117 0.230898 0.750501
3357 4 0.482107 0.233908 0.684032
1263 4 0.447067 0.245346 0.721786
821 4 0.141223 0.261407 0.730695
1209 4 0.105956 0.265886 0.678297
820 2 0.161822 0.262138 0.744848
1065 4 0.240656 0.279163 0.723198
1063 2 0.255807 0.259483 0.720307
806 4 0.337614 0.326866 0.679805
3274 2 0.00858229 0.387862 0.73954
892 2 0.0613111 0.397052 0.712986
894 4 0.037795 0.390472 0.707613
3276 4 0.0243757 0.382645 0.720871
893 4 0.0848272 0.403632 0.718359
1067 4 0.156649 0.401314 0.69648
942 4 0.124084 0.412823 0.744927
1028 4 0.219706 0.395656 0.68269
1066 2 0.179199 0.39969 0.6858
1068 4 0.201748 0.398066 0.67512
1027 2 0.243775 0.402427 0.682607
1029 4 0.267844 0.409198 0.682524
807 4 0.346879 0.372774 0.697337
805 2 0.342246 0.34982 0.688571
1019 4 0.398864 0.394112 0.73384
1018 2 0.382747 0.382641 0.71855
1230 4 0.335989 0.408571 0.738669
1020 4 0.366629 0.371169 0.70326
1281 4 0.021408 0.466651 0.724671
1279 2 0.00974814 0.446693 0.715137
1983 4 0.0319728 0.480347 0.716782
1981 2 0.0313367 0.495547 0.736625
1280 4 0.998088 0.426735 0.705603
2128 2 0.0226573 0.500243 0.670411
2172 4 0.110157 0.485716 0.674561
940 2 0.140911 0.415523 0.726631
941 4 0.157739 0.418223 0.708336
1174 2 0.201061 0.491094 0.708236
1175 4 0.217552 0.473465 0.701722
1987 2 0.32965 0.493019 0.746993
1139 4 0.277951 0.42494 0.689728
1138 2 0.29651 0.440794 0.695151
1140 4 0.315069 0.456648 0.700574
1228 2 0.33742 0.43341 0.736195
1229 4 0.338851 0.45825 0.733721
1989 4 0.34374 0.477797 0.733031
3329 4 0.499696 0.465014 0.741417
1100 4 0.472283 0.444665 0.708624
1099 2 0.47656 0.466577 0.697365
1101 4 0.480837 0.488489 0.686106
1203 4 0.0737759 0.0576135 0.784505
1202 4 0.0916857 0.021428 0.755
1201 2 0.0827308 0.0395207 0.769752
911 4 0.120146 0.0593226 0.792128
2049 4 0.110356 0.0141283 0.749928
910 2 0.112245 0.0745332 0.810332
1149 4 0.221586 0.0810823 0.773422
1255 2 0.291247 0.0777554 0.803796
1256 4 0.305166 0.0684171 0.82235
1050 4 0.344825 0.00816462 0.775223
975 4 0.371152 0.999412 0.832045
817 2 0.363732 0.0761112 0.827334
846 4 0.456302 0.0238537 0.792667
1113 4 0.461044 0.0412855 0.802389
844 2 0.470635 0.0250923 0.772216
1111 2 0.445409 0.059482 0.809434
1112 4 0.429775 0.0776784 0.816478
980 4 0.437189 0.0232505 0.831324
862 2 0.0418348 0.100272 0.756247
863 4 0.0179303 0.0998279 0.763565
833 4 0.00582628 0.0893869 0.776586
832 2 0.00238575 0.105427 0.795455
33 3 0.118319 0.141902 0.7825
912 4 0.104343 0.0897438 0.828536
31 1 0.109299 0.162631 0.777271
35 3 0.0944259 0.160538 0.760151
1147 2 0.218783 0.0950303 0.75286
1130 4 0.195485 0.151544 0.778153
840 4 0.248674 0.127306 0.832683