ITEM: TIMESTEP
580000
ITEM: NUMBER OF ATOMS
4590
ITEM: BOX BOUNDS pp pp pp
-9.9985700000000008e+00 9.9985700000000008e+00
-9.9985700000000008e+00 9.9985700000000008e+00
-9.9985700000000008e+00 9.9985700000000008e+00
ITEM: ATOMS id type xs ys zs
463 2 0.0159136 0.05155 0.0505961
465 4 0.023993 0.0591066 0.0730193
464 4 0.00783417 0.0439934 0.0281729
3290 4 0.0130066 0.053432 0.0107458
591 4 0.0260051 0.0768463 0.0818332
534 4 0.188248 0.000245936 0.005155
1476 4 0.20713 0.00255139 0.0717761
567 4 0.185689 0.0821436 0.0603672
490 2 0.268919 0.0355431 0.0328441
491 4 0.278895 0.0424107 0.0109696
492 4 0.258942 0.0286755 0.0547185
557 4 0.378394 0.0693549 0.0748559
296 4 0.358894 0.0657813 0.0768737
745 2 0.451792 0.0773458 0.0147045
1826 4 0.462778 0.00743698 0.047685
746 4 0.436169 0.0734683 0.0338378
701 4 0.0763864 0.125719 0.0258099
700 2 0.0800213 0.104502 0.0385308
589 2 0.0392406 0.0976236 0.077555
590 4 0.0524762 0.118401 0.0732768
702 4 0.0836562 0.0832854 0.0512517
565 2 0.178116 0.100652 0.0753759
358 2 0.2818 0.140981 0.00659228
360 4 0.259548 0.152192 0.00450979
359 4 0.304053 0.12977 0.00867477
556 2 0.378382 0.0920619 0.0643883
558 4 0.378371 0.114769 0.0539207
421 2 0.0578327 0.173578 0.006741
553 2 0.0401035 0.212604 0.0443897
554 4 0.0281768 0.233606 0.0508608
422 4 0.0561599 0.195423 0.0187897
555 4 0.0520302 0.191603 0.0379187
506 4 0.174749 0.228487 0.0735388
1133 4 0.210694 0.211996 0.0112062
505 2 0.174309 0.246903 0.0566321
665 4 0.377325 0.202488 0.0211785
664 2 0.367348 0.191252 0.00119399
828 4 0.456126 0.173988 0.000593431
770 4 0.44529 0.185323 0.0597814
771 4 0.463785 0.187797 0.0133857
769 2 0.454537 0.18656 0.0365835
292 2 0.154402 0.29927 0.0430069
294 4 0.134897 0.313968 0.0483648
456 4 0.124813 0.325912 0.0594877
293 4 0.173907 0.284572 0.0376489
507 4 0.173869 0.26532 0.0397255
481 2 0.240814 0.290767 0.0606246
482 4 0.243457 0.307538 0.0422683
483 4 0.238171 0.273997 0.0789809
572 4 0.342871 0.267055 0.0755788
571 2 0.351214 0.260678 0.0528876
573 4 0.359558 0.254301 0.0301963
1071 4 0.372778 0.261033 0.0176489
1069 2 0.38853 0.251524 0.000718159
324 4 0.390991 0.258949 0.0839141
741 4 0.369629 0.310513 0.0710525
280 2 0.45841 0.329569 0.056968
281 4 0.433621 0.332621 0.0558055
671 4 0.426822 0.330976 0.0748108
282 4 0.483199 0.326517 0.0581304
328 2 0.0323657 0.40021 0.0117224
330 4 0.0254363 0.41897 0.0267295
621 4 0.026661 0.394123 0.0732201
315 4 0.0203524 0.407543 0.0598916
455 4 0.0908243 0.362565 0.0580774
454 2 0.107819 0.344238 0.0587826
252 4 0.309913 0.395556 0.0640544
250 2 0.294703 0.397164 0.0442743
251 4 0.279493 0.398772 0.0244942
608 4 0.300701 0.388652 0.082204
227 4 0.477999 0.412139 0.0289166
1047 4 0.469765 0.3467 0.00697137
551 4 0.0815257 0.464619 0.0812795
313 2 0.0156877 0.430498 0.0686378
550 2 0.0963408 0.461596 0.0613657
552 4 0.111156 0.458574 0.0414519
245 4 0.215084 0.464169 0.00547235
244 2 0.237363 0.459275 0.0157134
246 4 0.259642 0.454381 0.0259545
272 4 0.270342 0.469368 0.018539
271 2 0.282351 0.491148 0.0159684
226 2 0.481126 0.43667 0.0252227
228 4 0.484252 0.461201 0.0215288
1667 4 0.0750794 0.0726824 0.0832841
19 3 0.0431088 0.0298453 0.14384
20 3 0.0725778 0.0505855 0.132927
1422 4 0.0422275 0.0127653 0.156724
16 1 0.0595019 0.0447887 0.150649
2480 4 0.0235734 0.0273744 0.153154
17 3 0.0493501 0.0636389 0.159061
1666 2 0.0684167 0.0494766 0.0897862
1668 4 0.0617539 0.0262708 0.0962883
18 3 0.0725229 0.0352169 0.167299
450 4 0.149583 0.0715151 0.163236
652 2 0.306637 0.0655647 0.133338
654 4 0.304888 0.0602306 0.108973
653 4 0.308385 0.0708988 0.157704
295 2 0.364754 0.0467027 0.0919352
297 4 0.370614 0.0276242 0.106997
485 4 0.367807 0.0186692 0.124945
484 2 0.347867 0.00798334 0.135594
758 4 0.414984 0.0598737 0.162826
1759 2 0.475118 0.999275 0.156788
2723 4 0.499049 0.0758191 0.125174
1760 4 0.489407 0.0189391 0.15093
566 4 0.170544 0.119161 0.0903846
311 4 0.46416 0.134251 0.165175
339 4 0.0642378 0.231189 0.116139
337 2 0.0774237 0.244441 0.132743
476 4 0.162409 0.163796 0.134563
475 2 0.147518 0.174052 0.151832
477 4 0.132626 0.184308 0.169102
737 4 0.182917 0.211724 0.117565
736 2 0.200998 0.20601 0.101269
738 4 0.21908 0.200296 0.0849723
354 4 0.230973 0.215447 0.0901926
353 4 0.280483 0.213899 0.0833353
352 2 0.255728 0.214673 0.0867639
461 4 0.299563 0.213255 0.0786411
460 2 0.318226 0.20801 0.0944322
462 4 0.336889 0.202765 0.110223
255 4 0.336268 0.192165 0.127703
254 4 0.384175 0.180403 0.135904
630 4 0.402685 0.181479 0.129098
253 2 0.360221 0.186284 0.131803
628 2 0.414476 0.203465 0.127434
629 4 0.426266 0.225452 0.12577
338 4 0.0906096 0.257693 0.149347
363 4 0.0860159 0.263652 0.167768
277 2 0.242307 0.265718 0.155468
611 4 0.247633 0.325898 0.143376
756 4 0.300486 0.29668 0.0965192
754 2 0.284551 0.283837 0.110883
755 4 0.268615 0.270995 0.125246
278 4 0.251478 0.264467 0.132241
622 2 0.372702 0.269938 0.125726
624 4 0.395605 0.279799 0.127566
623 4 0.349799 0.260076 0.123886
322 2 0.413343 0.266965 0.091743
739 2 0.365571 0.328465 0.087977
323 4 0.435696 0.274981 0.0995719
619 2 0.0339855 0.381671 0.0936276
620 4 0.04131 0.369218 0.114035
537 4 0.159857 0.385528 0.134651
535 2 0.172782 0.380046 0.155341
626 4 0.192624 0.405156 0.0927373
609 4 0.303858 0.361295 0.123945
607 2 0.302279 0.374974 0.103075
612 4 0.290686 0.348086 0.130931
610 2 0.269159 0.336992 0.137154
302 4 0.327027 0.395516 0.162436
387 4 0.332701 0.384673 0.145798
385 2 0.347137 0.367581 0.134636
740 4 0.361512 0.346417 0.104902
15 3 0.406828 0.354161 0.158554
386 4 0.361573 0.350488 0.123473
14 3 0.420489 0.381028 0.135989
495 4 0.405616 0.395583 0.136085
301 2 0.33792 0.418021 0.162582
11 1 0.425522 0.361874 0.148081
670 2 0.421745 0.33682 0.0985857
672 4 0.416668 0.342665 0.122361
12 3 0.433289 0.34577 0.133608
595 2 0.483465 0.373164 0.160032
13 3 0.442026 0.36649 0.163724
314 4 0.0110229 0.453452 0.077384
625 2 0.211233 0.420997 0.098022
627 4 0.229843 0.436838 0.103307
1438 2 0.23187 0.493225 0.117278
1440 4 0.212975 0.503099 0.104215
639 4 0.261 0.477093 0.146876
1439 4 0.250765 0.483351 0.130342
523 2 0.332009 0.488323 0.102858
525 4 0.319466 0.470434 0.115016
493 2 0.415503 0.415471 0.1246
659 4 0.367905 0.448496 0.164417
494 4 0.42539 0.435358 0.113116
690 4 0.156003 0.0329492 0.240832
675 4 0.122135 0.0714639 0.251377
1505 4 0.203781 0.0202999 0.205735
1504 2 0.214606 0.0014185 0.193427
689 4 0.200352 0.0148764 0.226438
688 2 0.178177 0.0239128 0.233635
693 4 0.211942 0.0542735 0.203035
691 2 0.233915 0.0645224 0.196926
692 4 0.255888 0.0747713 0.190816
21 1 0.379741 0.0672928 0.235189
23 3 0.393926 0.0489905 0.233702
24 3 0.361535 0.0621338 0.248618
25 3 0.372615 0.0733093 0.214412
759 4 0.379285 0.0703277 0.196248
757 2 0.397134 0.0651007 0.179537
22 3 0.391216 0.0848463 0.244641
742 2 0.472401 0.0326116 0.249013
744 4 0.471234 0.0159131 0.230439
381 4 0.0152965 0.166673 0.20695
513 4 0.0591698 0.160951 0.234161
578 4 0.0783928 0.161886 0.234316
577 2 0.0865687 0.139291 0.227401
579 4 0.0947446 0.116697 0.220487
448 2 0.162198 0.0908271 0.172883
235 2 0.17228 0.146009 0.192454
449 4 0.174814 0.110139 0.182529
236 4 0.179466 0.122805 0.198382
546 4 0.182549 0.159366 0.243514
722 4 0.18232 0.139194 0.246951
582 4 0.312351 0.0893115 0.163299
580 2 0.298703 0.0998544 0.181403
581 4 0.285056 0.110397 0.199508
30 3 0.280939 0.116919 0.219298
26 1 0.291853 0.119939 0.239057
27 3 0.298661 0.0995111 0.247152
29 3 0.310526 0.133327 0.235823
333 4 0.410182 0.0825074 0.240845
312 4 0.434341 0.121134 0.203115
310 2 0.449251 0.127692 0.184145
511 2 0.0378505 0.171798 0.226881
512 4 0.0165312 0.182646 0.219602
237 4 0.165095 0.169212 0.186526
285 4 0.287585 0.221594 0.172842
284 4 0.281718 0.237741 0.219806
283 2 0.284651 0.229668 0.196324
764 4 0.42296 0.214955 0.222177
763 2 0.429932 0.238967 0.222288
522 4 0.497115 0.242015 0.245186
527 4 0.462544 0.244416 0.160977
520 2 0.476073 0.22917 0.249359
395 4 0.0736439 0.268258 0.19567
394 2 0.0627946 0.265974 0.218081
396 4 0.0519453 0.26369 0.240492
749 4 0.0767587 0.304763 0.227347
361 2 0.104388 0.271266 0.182924
750 4 0.121862 0.322658 0.215259
362 4 0.12276 0.278879 0.198079
372 4 0.137305 0.28734 0.210411
748 2 0.0993106 0.31371 0.221303
370 2 0.155647 0.27729 0.224114
279 4 0.233136 0.266969 0.178696
371 4 0.173988 0.26724 0.237817
345 4 0.2392 0.286314 0.228604
343 2 0.262838 0.29104 0.221962
344 4 0.286475 0.295765 0.21532
307 2 0.306246 0.315249 0.241348
309 4 0.294524 0.314393 0.219279
765 4 0.436904 0.262979 0.2224
528 4 0.47176 0.287665 0.184328
526 2 0.467152 0.26604 0.172653
647 4 0.0496386 0.385916 0.167475
646 2 0.0731657 0.378999 0.172356
300 4 0.12866 0.34078 0.220265
648 4 0.0966928 0.372083 0.177236
298 2 0.124848 0.363177 0.230706
299 4 0.121036 0.385574 0.241148
536 4 0.185707 0.374564 0.176031
289 2 0.223253 0.412009 0.212623
290 4 0.245641 0.402789 0.218866
597 4 0.460981 0.379095 0.169223
643 2 0.442184 0.366926 0.208413
644 4 0.440226 0.359401 0.232177
645 4 0.444142 0.374451 0.18465
263 4 0.039971 0.478637 0.183784
262 2 0.0563547 0.466452 0.198216
264 4 0.0727384 0.454268 0.212649
1430 4 0.165622 0.475443 0.18811
637 2 0.249405 0.484134 0.167879
417 4 0.182974 0.467666 0.194371
415 2 0.186266 0.443011 0.191825
638 4 0.23781 0.491176 0.188883
416 4 0.189557 0.418356 0.189278
291 4 0.200866 0.421229 0.20638
766 2 0.212588 0.499819 0.222747
767 4 0.227036 0.501964 0.202454
414 4 0.205829 0.480394 0.24827
1429 2 0.175389 0.49664 0.179139
303 4 0.348814 0.440526 0.162729
660 4 0.369221 0.495217 0.182196
658 2 0.368563 0.471856 0.173307
231 4 0.359266 0.500402 0.199918
232 2 0.038721 0.0299197 0.295175
233 4 0.0553293 0.0119089 0.29018
1403 4 0.0738103 0.0128409 0.283806
234 4 0.0221126 0.0479305 0.30017
2756 4 0.0209918 0.0515363 0.31906
673 2 0.135348 0.0506003 0.25529
674 4 0.148561 0.0297368 0.259202
429 4 0.0811871 0.0111298 0.327864
1700 4 0.282541 0.00671235 0.298702
1701 4 0.30805 0.0346948 0.266038
1699 2 0.295295 0.0207036 0.28237
1516 2 0.35191 0.00761448 0.28051
1518 4 0.343178 0.0298343 0.28794
697 2 0.381581 0.0417939 0.308036
699 4 0.358676 0.0386038 0.298531
698 4 0.404486 0.044984 0.317542
1749 4 0.46754 0.0125317 0.328679
743 4 0.473567 0.04931 0.267586
257 4 0.431211 0.0729444 0.319418
480 4 0.475367 0.031456 0.32569
351 4 0.482268 0.0664552 0.271662
349 2 0.465664 0.0694716 0.290112
350 4 0.44906 0.0724879 0.308562
529 2 0.00537656 0.167664 0.2791
530 4 0.0295508 0.163336 0.274405
544 2 0.162575 0.165784 0.257117
397 2 0.0940416 0.140107 0.320553
398 4 0.0918813 0.117478 0.330966
732 4 0.105039 0.101977 0.330857
721 2 0.192837 0.119832 0.258768
723 4 0.203355 0.100469 0.270585
403 2 0.234361 0.161312 0.304387
599 4 0.225083 0.130944 0.329215
404 4 0.25135 0.143002 0.305521
28 3 0.277635 0.129778 0.254531
249 4 0.259136 0.131827 0.319872
248 4 0.30216 0.122894 0.296001
247 2 0.280648 0.12736 0.307937
632 4 0.343959 0.11176 0.292469
631 2 0.364186 0.115177 0.306766
633 4 0.384412 0.118595 0.321062
331 2 0.426668 0.0886982 0.258595
332 4 0.443154 0.0948889 0.276345
762 4 0.442683 0.105315 0.292881
760 2 0.447737 0.129203 0.298265
761 4 0.452792 0.153091 0.303649
399 4 0.096202 0.162736 0.310139
390 4 0.0891978 0.225014 0.310038
392 4 0.139029 0.1891 0.27951
391 2 0.116185 0.191739 0.289328
393 4 0.093342 0.194377 0.299146
545 4 0.142601 0.172203 0.270719
388 2 0.106235 0.243193 0.312142
405 4 0.217371 0.179622 0.303252
401 4 0.180827 0.236477 0.287579
400 2 0.193986 0.241506 0.308237
402 4 0.207146 0.246535 0.328894
706 2 0.28683 0.182961 0.323595
708 4 0.270167 0.201449 0.325983
707 4 0.303493 0.164472 0.321208
418 2 0.408092 0.203287 0.323984
419 4 0.414411 0.222631 0.309456
521 4 0.455031 0.216325 0.253531
443 4 0.0572355 0.26163 0.259377
444 4 0.0456056 0.289995 0.298885
442 2 0.0514205 0.275813 0.279131
389 4 0.123273 0.261372 0.314247
308 4 0.317968 0.316104 0.263417
496 2 0.316291 0.315223 0.299282
497 4 0.306954 0.325117 0.278304
498 4 0.325628 0.30533 0.320261
615 4 0.396645 0.314023 0.313488
543 4 0.410277 0.304635 0.302848
613 2 0.385165 0.33225 0.326182
541 2 0.43257 0.315919 0.303774
542 4 0.454864 0.327203 0.3047
366 4 0.015776 0.365081 0.252284
2493 4 0.0153545 0.37856 0.313404
364 2 0.0211086 0.3747 0.274739
365 4 0.0264412 0.38432 0.297194
603 4 0.0888464 0.353141 0.321638
601 2 0.0950144 0.374541 0.310272
734 4 0.12899 0.393452 0.257
733 2 0.138594 0.395971 0.279947
602 4 0.101182 0.39594 0.298905
735 4 0.148198 0.39849 0.302895
677 4 0.162292 0.390161 0.313784
777 4 0.0904627 0.405067 0.284908
676 2 0.182161 0.375796 0.308879
678 4 0.20203 0.361431 0.303974
729 4 0.286242 0.374459 0.264136
727 2 0.29041 0.385008 0.286419
434 4 0.314384 0.392789 0.305494
728 4 0.294577 0.395558 0.308702
433 2 0.327414 0.38931 0.326549
614 4 0.373686 0.350478 0.338877
447 4 0.441883 0.369975 0.249045
445 2 0.444793 0.387117 0.267013
446 4 0.447704 0.404259 0.284982
1756 2 0.0733665 0.491733 0.290254
1757 4 0.0660563 0.468775 0.296937
776 4 0.0707188 0.450686 0.29037
775 2 0.0805907 0.427876 0.287639
549 4 0.0459217 0.47866 0.331681
413 4 0.181957 0.483018 0.292133
412 2 0.193893 0.481706 0.270201
437 4 0.264778 0.482642 0.285456
436 2 0.284148 0.486144 0.270038
438 4 0.303518 0.489646 0.254621
3 3 0.278731 0.446549 0.336675
713 4 0.409283 0.440932 0.3033
593 4 0.390224 0.472987 0.328436
712 2 0.424715 0.459368 0.296434
714 4 0.440147 0.477804 0.289568
2757 4 0.997454 0.0422051 0.362183
2755 2 0.00922277 0.0468707 0.340622
317 4 0.0639357 0.0589281 0.361275
428 4 0.0542671 0.0412981 0.357291
427 2 0.0677271 0.026214 0.342578
316 2 0.0606339 0.0834657 0.364765
1782 4 0.105007 0.00159351 0.361187
731 4 0.121638 0.0801399 0.372671
606 4 0.167081 0.0609678 0.364362
604 2 0.191813 0.0635882 0.366941
605 4 0.216545 0.0662087 0.369521
683 4 0.298404 0.0555446 0.361307
682 2 0.292216 0.0782449 0.369768
479 4 0.496613 0.0713372 0.347109
478 2 0.48599 0.0513966 0.3364
424 2 0.431111 0.0427484 0.397525
426 4 0.428373 0.0485765 0.373365
256 2 0.433702 0.0696383 0.344076
258 4 0.436192 0.0663322 0.368735
318 4 0.0573321 0.108003 0.368255
730 2 0.113339 0.0910583 0.351764
686 4 0.146568 0.162546 0.404409
685 2 0.163972 0.150874 0.390769
687 4 0.181377 0.139203 0.37713
600 4 0.192941 0.125903 0.367191
598 2 0.209012 0.128424 0.348203
684 4 0.286028 0.100945 0.378229
320 4 0.291643 0.100214 0.398142
319 2 0.282938 0.116433 0.415062
468 4 0.377249 0.163922 0.401896
514 2 0.446396 0.160004 0.400591
451 2 0.49664 0.168736 0.364068
453 4 0.472798 0.161223 0.364612
2653 2 0.0103482 0.22203 0.386851
2654 4 0.0348885 0.21886 0.390443
474 4 0.213047 0.214929 0.362108
472 2 0.233875 0.208644 0.349786
276 4 0.18739 0.240008 0.402416
473 4 0.254704 0.20236 0.337463
420 4 0.401773 0.183943 0.338512
466 2 0.355828 0.168193 0.414064
716 4 0.379808 0.23933 0.373775
515 4 0.45839 0.164237 0.379064
304 2 0.49412 0.223145 0.415402
618 4 0.0502439 0.309055 0.394315
616 2 0.0712337 0.29976 0.384405
617 4 0.0922235 0.290464 0.374495
275 4 0.150951 0.268829 0.383915
274 2 0.16917 0.254418 0.393165
508 2 0.250941 0.30502 0.362286
510 4 0.245912 0.321264 0.380617
374 4 0.243658 0.321995 0.400252
509 4 0.255969 0.288776 0.343955
488 4 0.303795 0.277007 0.385033
376 2 0.316802 0.284571 0.355068
377 4 0.318481 0.270497 0.375666
378 4 0.315123 0.298646 0.33447
487 2 0.296167 0.274945 0.408755
715 2 0.36302 0.253816 0.385329
717 4 0.346233 0.268303 0.396884
267 4 0.361746 0.272698 0.411359
269 4 0.476103 0.284747 0.370328
268 2 0.472038 0.271532 0.391161
270 4 0.467974 0.258316 0.411994
406 2 0.0648636 0.405488 0.387972
408 4 0.07 0.382975 0.39756
710 4 0.164448 0.364289 0.415433
373 2 0.2316 0.341595 0.410031
502 2 0.223804 0.395899 0.408549
503 4 0.221135 0.412618 0.39015
435 4 0.340443 0.385831 0.347604
334 2 0.350943 0.402734 0.409396
561 4 0.454923 0.391118 0.411187
752 4 0.464762 0.39404 0.393844
751 2 0.478281 0.403361 0.374989
753 4 0.491801 0.412681 0.356133
407 4 0.0597272 0.428002 0.378383
547 2 0.0510164 0.461511 0.349149
548 4 0.056111 0.444362 0.366617
500 4 0.12279 0.461394 0.359499
499 2 0.13349 0.483962 0.358326
570 4 0.111553 0.470557 0.413866
636 4 0.19211 0.47667 0.418662
669 4 0.336555 0.460905 0.409048
1437 4 0.265175 0.494419 0.34557
668 4 0.298101 0.441441 0.383686
5 3 0.264562 0.476551 0.354473
1 1 0.282863 0.463168 0.352332
2 3 0.300709 0.475818 0.345215
4 3 0.288129 0.453621 0.372815
667 2 0.317328 0.451173 0.396367
336 4 0.349622 0.426596 0.402045
592 2 0.402698 0.491299 0.340022
718 2 0.0533047 0.0571114 0.48336
719 4 0.0772978 0.0513207 0.479363
720 4 0.0293116 0.0629022 0.487357
1523 4 0.114455 0.999637 0.476199
368 4 0.10428 0.0421529 0.434524
367 2 0.116135 0.0627763 0.442227
369 4 0.127989 0.0833996 0.449931
1152 4 0.161402 0.084492 0.49311
2429 4 0.243318 0.0150373 0.473987
2428 2 0.218944 0.0192549 0.470339
341 4 0.198426 0.0425856 0.46113
340 2 0.185921 0.0628224 0.468829
2430 4 0.194571 0.0234725 0.46669
342 4 0.173416 0.0830592 0.476527
1182 4 0.234303 0.0669319 0.462849
1180 2 0.247243 0.0660804 0.484228
441 4 0.254887 0.999713 0.471483
724 2 0.32691 0.0751177 0.437293
432 4 0.288126 0.0554893 0.503723
430 2 0.30417 0.074138 0.499251
726 4 0.317352 0.0711369 0.460052
1181 4 0.260182 0.065229 0.505606
725 4 0.336469 0.0790986 0.414535
2879 4 0.498863 0.0497851 0.420293
425 4 0.43385 0.0369202 0.421685
2878 2 0.483868 0.0636858 0.434685
2880 4 0.468874 0.0775865 0.449076
1034 4 0.113427 0.138269 0.468642
1033 2 0.0987729 0.158159 0.472493
321 4 0.274232 0.132653 0.431983
431 4 0.320214 0.0927867 0.494779
574 2 0.407257 0.141449 0.450701
576 4 0.392043 0.126316 0.463535
843 4 0.339582 0.0876437 0.492013
642 4 0.467759 0.0938617 0.460019
516 4 0.434403 0.155772 0.422118
641 4 0.491425 0.12756 0.488392
640 2 0.479592 0.110711 0.474205
575 4 0.422471 0.156581 0.437866
471 4 0.0402568 0.179231 0.483253
458 4 0.0236189 0.181478 0.450607
260 4 0.0799459 0.227059 0.442262
261 4 0.0854034 0.197174 0.481984
259 2 0.0826746 0.212116 0.462123
1035 4 0.0841185 0.178048 0.476344
411 4 0.241259 0.212 0.475454
409 2 0.26388 0.201642 0.47794
410 4 0.286501 0.191284 0.480427
467 4 0.334407 0.172465 0.426233
306 4 0.476396 0.240489 0.418601
347 4 0.0474143 0.308916 0.413402
346 2 0.0345786 0.290423 0.424284
348 4 0.021743 0.271929 0.435165
695 4 0.0808203 0.271883 0.487963
694 2 0.103507 0.270679 0.498406
1260 4 0.14354 0.271054 0.499771
327 4 0.124133 0.325272 0.482818
10 3 0.174789 0.330659 0.4833
650 4 0.242972 0.282944 0.48205
489 4 0.28854 0.272883 0.432477
651 4 0.275745 0.283624 0.444285
649 2 0.259358 0.283284 0.463168
812 4 0.339192 0.307011 0.486339
266 4 0.364178 0.297306 0.454825
265 2 0.362962 0.285002 0.433092
811 2 0.347055 0.288062 0.500631
2456 4 0.499693 0.282336 0.445705
583 2 0.458297 0.273642 0.443462
584 4 0.481844 0.279017 0.436995
585 4 0.43475 0.268266 0.44993
2814 4 7.18436e-05 0.349354 0.501965
7 3 0.138594 0.336932 0.489893
326 4 0.105036 0.349453 0.443431
325 2 0.114584 0.337362 0.463125
6 1 0.159928 0.344987 0.492917
709 2 0.159285 0.366443 0.439803
8 3 0.161529 0.365897 0.482986
711 4 0.154121 0.368596 0.464172
375 4 0.219541 0.361195 0.419809
504 4 0.226474 0.37918 0.426948
238 2 0.384571 0.381402 0.447804
240 4 0.365887 0.380484 0.431213
335 4 0.352264 0.378872 0.416747
239 4 0.403254 0.382319 0.464395
560 4 0.413145 0.379177 0.435941
559 2 0.434034 0.385148 0.423564
927 4 0.466233 0.406585 0.49316
681 4 0.0288818 0.419142 0.404972
383 4 0.0756435 0.414725 0.480973
680 4 0.0168857 0.435046 0.45084
1381 2 0.00436767 0.476781 0.459836
1383 4 0.0159433 0.454874 0.456474
679 2 0.0228837 0.427094 0.427906
540 4 0.0890719 0.496175 0.461148
569 4 0.107117 0.449925 0.459202
382 2 0.0935715 0.432142 0.480322
384 4 0.1115 0.449559 0.479671
568 2 0.109335 0.460241 0.436534
634 2 0.20076 0.464497 0.438716
635 4 0.209409 0.452324 0.458771
774 4 0.220991 0.435806 0.4576
772 2 0.232992 0.425242 0.476823
587 4 0.418343 0.465868 0.434169
586 2 0.404189 0.44565 0.430159
588 4 0.390036 0.425432 0.426149
1126 2 0.0217802 0.0625681 0.531615
1127 4 0.0268624 0.062294 0.507135
1128 4 0.016698 0.0628421 0.556095
2237 4 0.0115613 0.00853869 0.52306
1058 4 0.125596 0.0456898 0.558227
1057 2 0.134108 0.0666586 0.568858
1030 2 0.241592 0.0744216 0.578083
961 2 0.278145 0.0250491 0.514892
962 4 0.285997 0.00506395 0.527703
963 4 0.270293 0.0450342 0.502081
1217 4 0.385118 0.0729873 0.521824
841 2 0.360935 0.0760852 0.497982
842 4 0.382288 0.0645267 0.503951
1216 2 0.405461 0.0628635 0.532258
1218 4 0.425803 0.0527397 0.542693
937 2 0.103121 0.156669 0.554426
1059 4 0.142621 0.0876275 0.57949
1155 4 0.146563 0.107287 0.581672
1151 4 0.167138 0.123412 0.523982
1150 2 0.16427 0.103952 0.508546
938 4 0.085082 0.155689 0.53714
1153 2 0.162295 0.126672 0.583037
939 4 0.121161 0.157648 0.571712
1032 4 0.25217 0.0864991 0.558914
898 2 0.320093 0.162114 0.578428
899 4 0.300006 0.172383 0.567647
900 4 0.340179 0.151844 0.58921
3158 4 0.474196 0.131866 0.501112
3157 2 0.485973 0.148758 0.515294
878 4 0.0799655 0.205516 0.559564
470 4 0.0151682 0.203419 0.519117
1199 4 0.00353325 0.177224 0.547376
469 2 0.0277125 0.191325 0.501185
877 2 0.0966902 0.209906 0.577625
797 4 0.256011 0.213963 0.577658
856 2 0.260747 0.184228 0.550793
857 4 0.264341 0.160724 0.543059
796 2 0.250461 0.238143 0.57454
858 4 0.257153 0.207732 0.558528
871 2 0.381199 0.241496 0.530465
872 4 0.400414 0.232513 0.543704
3159 4 0.49775 0.16565 0.529476
1258 2 0.156349 0.288721 0.511978
696 4 0.126193 0.269474 0.508848
1259 4 0.169158 0.306388 0.524184
798 4 0.244912 0.262322 0.571422
873 4 0.361983 0.250479 0.517227
813 4 0.354919 0.269113 0.514924
895 2 0.167654 0.365071 0.575431
9 3 0.164152 0.34668 0.51567
1189 2 0.214872 0.356912 0.539778
896 4 0.188811 0.352716 0.570441
1191 4 0.194413 0.349002 0.551781
1190 4 0.23533 0.364822 0.527776
773 4 0.244994 0.414677 0.496046
802 2 0.254287 0.392932 0.517067
803 4 0.253275 0.368173 0.520407
804 4 0.255299 0.417691 0.513726
929 4 0.344043 0.376422 0.542359
928 2 0.364013 0.384421 0.555102
930 4 0.383983 0.392419 0.567846
925 2 0.47619 0.394256 0.512499
926 4 0.486147 0.381927 0.531839
1171 2 0.23965 0.438446 0.54677
1173 4 0.231758 0.444429 0.569728
1172 4 0.247542 0.432463 0.523811
882 4 0.307999 0.429411 0.534406
880 2 0.323267 0.448235 0.540547
881 4 0.338535 0.467059 0.546689
1952 4 0.331303 0.468227 0.565441
891 4 0.322048 0.455279 0.576531
1951 2 0.34816 0.479365 0.580171
1001 4 0.445786 0.421784 0.544068
1000 2 0.446139 0.436956 0.563939
661 2 0.491224 0.477226 0.511326
663 4 0.485061 0.45306 0.513126
1002 4 0.446491 0.452128 0.58381
1910 4 0.436044 0.465434 0.572335
2319 4 0.0590128 0.0121532 0.649937
1185 4 0.0148563 0.0309044 0.62745
1183 2 0.0107096 0.0445208 0.648006
945 4 0.0732637 0.0270121 0.654531
943 2 0.0767456 0.0483811 0.667038
825 4 0.114752 0.0147009 0.616922
951 4 0.228634 0.0431889 0.600414
1031 4 0.231015 0.0623441 0.597251
949 2 0.229641 0.0182755 0.60228
1004 4 0.357308 0.0704732 0.657076
2282 4 0.435673 0.0155772 0.656856
2281 2 0.445627 0.00618951 0.635929
45 3 0.463686 0.077754 0.647334
43 3 0.436457 0.056593 0.662448
41 1 0.453901 0.0712488 0.666843
4467 4 0.456947 0.00722707 0.598584
1082 4 0.0376103 0.114888 0.640208
1081 2 0.0603831 0.114289 0.629902
1083 4 0.0831559 0.113689 0.619596
1283 4 0.180151 0.123014 0.626543
1154 4 0.178028 0.146058 0.584401
1282 2 0.179103 0.11888 0.65118
1221 4 0.175122 0.15059 0.603376
1212 4 0.214282 0.17388 0.650631
1219 2 0.189586 0.164278 0.618497
1005 4 0.350784 0.0952857 0.614152
1003 2 0.354046 0.0828794 0.635614
810 4 0.464014 0.0905251 0.631455
808 2 0.48561 0.0903477 0.618855
879 4 0.113415 0.214296 0.595686
1272 4 0.104731 0.201441 0.60912
1270 2 0.112814 0.194933 0.631868
1271 4 0.120897 0.188424 0.654616
1220 4 0.204049 0.177966 0.633618
1210 2 0.233606 0.186575 0.660149
791 4 0.31912 0.247053 0.587501
1211 4 0.25293 0.19927 0.669667
888 4 0.270447 0.193807 0.66278
1193 4 0.36689 0.216308 0.649615
1024 2 0.424064 0.204353 0.645834
1026 4 0.431721 0.208464 0.622389
1208 4 0.0531857 0.278716 0.662963
1244 4 0.0236393 0.254486 0.61856
1243 2 0.0223904 0.271342 0.636985
1245 4 0.0211415 0.288198 0.65541
1207 2 0.078123 0.280376 0.663709
1136 4 0.0907826 0.340973 0.580915
948 4 0.165874 0.290901 0.630276
1209 4 0.10306 0.282035 0.664455
946 2 0.189063 0.287089 0.621738
947 4 0.212253 0.283278 0.6132
1239 4 0.241321 0.327797 0.588192
790 2 0.306287 0.268485 0.586427
792 4 0.293454 0.289918 0.585353
1238 4 0.287027 0.308002 0.592644
1237 2 0.264174 0.317899 0.590418
953 4 0.435961 0.300387 0.586909
952 2 0.446137 0.318346 0.60102
983 4 0.0141664 0.370343 0.60714
1039 2 0.0499121 0.392596 0.606716
1041 4 0.031386 0.377915 0.614867
1040 4 0.0684382 0.407277 0.598565
982 2 0.00500431 0.349542 0.617559
993 4 0.0812054 0.407417 0.614426
1135 2 0.110707 0.355535 0.584934
897 4 0.146497 0.377427 0.580421
1137 4 0.130631 0.370098 0.588953
992 4 0.118637 0.402477 0.647216
991 2 0.099921 0.404947 0.630821
1204 2 0.381784 0.381626 0.607814
1206 4 0.387175 0.380255 0.583437
1205 4 0.376393 0.382997 0.63219
806 4 0.380232 0.351666 0.665606
954 4 0.456312 0.336305 0.615131
2129 4 0.0347919 0.501193 0.623131
1160 4 0.155981 0.441807 0.607205
1159 2 0.174338 0.449432 0.622374
1188 4 0.207992 0.49339 0.641854
1161 4 0.192694 0.457056 0.637543
889 2 0.311073 0.441539 0.594306
890 4 0.300098 0.427799 0.612081
1953 4 0.365017 0.490502 0.594901
1909 2 0.432563 0.488029 0.582461
1269 4 0.472103 0.482024 0.635235
1101 4 0.500896 0.485749 0.665734
1267 2 0.455155 0.493101 0.649906
2317 2 0.0488733 0.00183887 0.670333
1184 4 0.00656279 0.0581372 0.668563
4338 4 0.0131311 0.987581 0.709482
944 4 0.0802275 0.0697502 0.679545
1076 4 0.0751402 0.0811207 0.69596
1163 4 0.483464 0.0485097 0.673408
42 3 0.469491 0.0605403 0.679936
1075 2 0.0709681 0.0839818 0.720447
1077 4 0.0667959 0.086843 0.744933
1105 2 0.0748345 0.152547 0.736913
1284 4 0.178056 0.114747 0.675817
1227 4 0.201719 0.159251 0.703403
1148 4 0.23152 0.125539 0.744245
1225 2 0.220071 0.147244 0.715412
1226 4 0.238424 0.135237 0.72742
44 3 0.445964 0.0898049 0.678291
1142 4 0.445088 0.165104 0.713055
1107 4 0.0760784 0.161864 0.713743
851 4 0.0733534 0.183239 0.712814
852 4 0.0323057 0.206942 0.696878
850 2 0.0528296 0.19509 0.704846
1178 4 0.0268755 0.215759 0.678881
1177 2 0.0157761 0.238115 0.680372
909 4 0.158009 0.182908 0.676847
907 2 0.174629 0.178252 0.694937
908 4 0.19125 0.173596 0.713027
829 2 0.330343 0.182865 0.718661
830 4 0.311264 0.187895 0.703304
886 2 0.291876 0.18711 0.673785
887 4 0.313305 0.180412 0.684791
831 4 0.349423 0.177834 0.734018
1192 2 0.363953 0.216467 0.674445
1194 4 0.361015 0.216625 0.699275
1262 4 0.409843 0.217056 0.717506
1025 4 0.416407 0.200241 0.669278
1141 2 0.429876 0.173365 0.695012
1143 4 0.414664 0.181625 0.67697
3356 4 0.475582 0.233717 0.735267
3355 2 0.48651 0.23097 0.712946
1261 2 0.433445 0.223806 0.722252
3357 4 0.497437 0.228222 0.690626
1263 4 0.457048 0.230557 0.726997
1179 4 0.00467673 0.26047 0.681862
821 4 0.138029 0.257402 0.73884
1065 4 0.25519 0.300121 0.711298
1064 4 0.283632 0.26507 0.732819
1063 2 0.269411 0.282596 0.722059
892 2 0.0676523 0.409234 0.706187
894 4 0.0473485 0.41087 0.720687
3276 4 0.0333804 0.39705 0.730142
1067 4 0.156487 0.418388 0.68862
941 4 0.141517 0.412416 0.70064
893 4 0.0879561 0.407598 0.691686
1028 4 0.221229 0.412133 0.692012
1066 2 0.180921 0.415768 0.684007
1068 4 0.205356 0.413148 0.679393
1027 2 0.245185 0.406877 0.687147
1029 4 0.269141 0.401621 0.682282
1139 4 0.282523 0.411287 0.671008
1138 2 0.30376 0.409724 0.684112
807 4 0.350093 0.348221 0.705361
805 2 0.365162 0.349943 0.685484
1018 2 0.37066 0.371019 0.738454
1020 4 0.354388 0.360026 0.722976
1230 4 0.345136 0.413179 0.730628
1281 4 0.00955129 0.46019 0.691275
1279 2 0.0215563 0.442544 0.704302
1983 4 0.00734218 0.477605 0.701403
1981 2 0.00985842 0.495628 0.718551
1280 4 0.0335613 0.424899 0.717329
2172 4 0.132723 0.485296 0.689817
940 2 0.130776 0.41802 0.722513
942 4 0.120035 0.423624 0.744386
1176 4 0.198303 0.489013 0.71301
1174 2 0.21585 0.475599 0.70129
1175 4 0.233397 0.462186 0.68957
1140 4 0.324997 0.408161 0.697216
1987 2 0.33394 0.499243 0.742273
1228 2 0.34683 0.437356 0.736776
1229 4 0.348523 0.461533 0.742924
1989 4 0.34625 0.478983 0.734324
1100 4 0.499787 0.447033 0.697366
1099 2 0.500341 0.466391 0.68155
1250 4 0.483932 0.460514 0.743242
1203 4 0.0669514 0.0642085 0.752147
1201 2 0.0739765 0.0425706 0.762521
1202 4 0.0810015 0.0209327 0.772896
911 4 0.0947016 0.0606211 0.790098
2049 4 0.0963202 0.0119725 0.763063
910 2 0.0900668 0.0753084 0.809796
1048 2 0.3148 0.00877403 0.763315
1256 4 0.302596 0.0589211 0.80067
1050 4 0.320836 0.032615 0.767827
818 4 0.359731 0.0673287 0.835416
846 4 0.462023 0.0176274 0.771843
1113 4 0.461291 0.0299227 0.786891
844 2 0.485988 0.0181213 0.764728
1111 2 0.447398 0.0506943 0.786061
1112 4 0.433504 0.0714659 0.785231
980 4 0.448708 0.00195223 0.812075
1106 4 0.0735905 0.143231 0.760083
864 4 0.064058 0.0904719 0.765931
862 2 0.0404001 0.098551 0.76547
863 4 0.0167422 0.10663 0.76501
833 4 0.00404998 0.108422 0.780133
912 4 0.085432 0.0899958 0.829493
33 3 0.110677 0.122499 0.782539
31 1 0.109679 0.145446 0.779245
35 3 0.0900216 0.151003 0.769178
34 3 0.111547 0.156456 0.799584
32 3 0.127175 0.151786 0.765723
1149 4 0.218447 0.0827511 0.766584
1147 2 0.224983 0.104145 0.755414
1130 4 0.214848 0.143226 0.786682
840 4 0.228865 0.120561 0.818104
1255 2 0.294881 0.0824291 0.79706
838 2 0.252561 0.120795 0.810125
1257 4 0.287167 0.105937 0.793449
839 4 0.276256 0.121029 0.802146
958 2 0.302402 0.150009 0.81855
959 4 0.284355 0.139196 0.805038
817 2 0.362648 0.0842525 0.817243
1084 2 0.340677 0.126379 0.785781
1085 4 0.347313 0.102957 0.791488
1086 4 0.334041 0.1498 0.780074
819 4 0.365565 0.101176 0.79907
1299 4 0.352384 0.156875 0.778309
3270 4 0.492108 0.155231 0.769534
1073 4 0.125021 0.236365 0.797168
1072 2 0.139232 0.215856 0.798774
1074 4 0.153443 0.195346 0.80038
1129 2 0.208966 0.167483 0.785209
1131 4 0.203083 0.19174 0.783736
1277 4 0.198726 0.206628 0.797206