ITEM: TIMESTEP
1630000
ITEM: NUMBER OF ATOMS
4590
ITEM: BOX BOUNDS pp pp pp
-9.9985700000000008e+00 9.9985700000000008e+00
-9.9985700000000008e+00 9.9985700000000008e+00
-9.9985700000000008e+00 9.9985700000000008e+00
ITEM: ATOMS id type xs ys zs
463 2 0.0614903 0.0763371 0.00973355
464 4 0.0632826 0.051413 0.00886219
1666 2 0.0734696 0.0181579 0.0792118
1668 4 0.0724979 0.0336063 0.0595756
3290 4 0.0753656 0.0369448 0.0025932
591 4 0.0229356 0.0652865 0.0549771
589 2 0.0222689 0.0766724 0.0772278
1474 2 0.239212 0.00961186 0.0543507
565 2 0.184476 0.0732997 0.0547352
566 4 0.162729 0.0615287 0.0510313
490 2 0.275102 0.0397626 0.0191009
492 4 0.259478 0.0416568 0.0385301
1475 4 0.255654 0.0221194 0.0402657
745 2 0.457718 0.0767917 0.0147864
2724 4 0.481285 0.0372615 0.0674431
1826 4 0.49221 0.033922 0.0501369
1825 2 0.501439 0.0112858 0.055391
2722 2 0.465583 0.0482935 0.0834717
465 4 0.0596979 0.101261 0.0106049
701 4 0.0396351 0.104503 0.0115746
700 2 0.0352215 0.127454 0.0204599
702 4 0.0308079 0.150405 0.0293451
2760 4 0.00513853 0.13012 0.0290181
567 4 0.206222 0.0850706 0.0584392
1133 4 0.201888 0.139393 0.00935741
360 4 0.209405 0.155452 0.0200506
358 2 0.219239 0.145741 0.0408873
359 4 0.229073 0.13603 0.061724
747 4 0.45871 0.0924165 0.0342816
828 4 0.418421 0.163837 0.00698238
555 4 0.0380685 0.169336 0.0259014
553 2 0.0295934 0.191346 0.0176001
422 4 0.0772177 0.198499 0.0416751
554 4 0.0211182 0.213356 0.00929874
423 4 0.0947196 0.175994 0.000590355
421 2 0.0859687 0.187247 0.0211328
737 4 0.208824 0.241582 0.0309777
736 2 0.219288 0.225458 0.0469681
354 4 0.239673 0.200544 0.0787951
738 4 0.229752 0.209334 0.0629586
352 2 0.260201 0.186861 0.0747283
353 4 0.280729 0.173177 0.0706614
755 4 0.305309 0.249235 0.0899558
254 4 0.405146 0.232115 0.078335
630 4 0.417071 0.223073 0.0655727
253 2 0.382174 0.23884 0.0855631
1056 4 0.0783016 0.316888 0.999464
506 4 0.190999 0.249808 0.0267085
507 4 0.185253 0.298932 0.0193261
293 4 0.175974 0.305103 0.0363595
292 2 0.170265 0.325804 0.0491676
505 2 0.188126 0.27437 0.0230173
481 2 0.295248 0.300936 0.0127324
482 4 0.295261 0.297482 0.0374963
756 4 0.333352 0.286078 0.0710633
754 2 0.31933 0.267656 0.0805096
1071 4 0.375301 0.261081 0.0114657
323 4 0.406881 0.272268 0.0255185
573 4 0.387456 0.269392 0.026422
571 2 0.380151 0.282042 0.0467149
572 4 0.372846 0.294691 0.0670079
741 4 0.366124 0.30154 0.0847032
322 2 0.430963 0.2657 0.0240737
324 4 0.455045 0.259131 0.022629
1170 4 0.0842947 0.334285 0.00627064
1168 2 0.0662994 0.351591 0.00492249
456 4 0.147324 0.357672 0.0687072
454 2 0.155548 0.380773 0.0638217
455 4 0.163772 0.403875 0.0589362
294 4 0.164556 0.346505 0.0619757
607 2 0.233844 0.356705 0.0771344
608 4 0.242923 0.36961 0.0577378
252 4 0.261425 0.376985 0.0501756
250 2 0.278091 0.395298 0.0536488
251 4 0.294757 0.41361 0.057122
524 4 0.31429 0.417867 0.0564332
226 2 0.397501 0.376129 0.0342459
228 4 0.396375 0.384323 0.0578417
671 4 0.410018 0.370221 0.0669998
227 4 0.398628 0.367935 0.0106501
281 4 0.421272 0.351948 0.0591639
280 2 0.446229 0.352009 0.0606919
282 4 0.471186 0.35207 0.0622198
104 3 0.486128 0.36002 0.0729415
1045 2 0.481459 0.370648 0.0119237
1047 4 0.48676 0.350056 0.0250772
103 3 0.500156 0.350119 0.0390357
1046 4 0.476158 0.391241 0.99877
552 4 0.0176135 0.439024 0.0418186
314 4 0.0348028 0.439614 0.0531955
313 2 0.0344253 0.425551 0.0738658
550 2 0.996031 0.450402 0.0363481
795 4 0.151747 0.488488 0.00425702
1440 4 0.244245 0.489799 0.0866024
246 4 0.242397 0.494257 0.0124068
244 2 0.232723 0.474082 0.00124685
243 4 0.233331 0.485092 0.0705519
272 4 0.250852 0.484109 0.0592469
1559 4 0.310347 0.487456 0.0830758
523 2 0.329617 0.420978 0.0759422
37 3 0.320771 0.467349 0.988898
20 3 0.0716524 0.00219105 0.151027
1667 4 0.0744413 0.00270951 0.0988481
19 3 0.0387823 0.0183863 0.142371
1422 4 0.0261453 0.0236637 0.16119
16 1 0.0609713 0.015711 0.136135
17 3 0.0617191 0.00607265 0.115262
2480 4 0.018803 0.0316136 0.144071
18 3 0.0714938 0.036372 0.135238
653 4 0.23251 0.0589302 0.167504
652 2 0.247041 0.0530446 0.148026
1661 4 0.330812 0.00660227 0.16005
654 4 0.261571 0.0471591 0.128547
484 2 0.3439 0.0109571 0.125224
297 4 0.363364 0.0398624 0.101449
485 4 0.349043 0.0252182 0.105341
295 2 0.385033 0.0520334 0.0987101
296 4 0.406702 0.0642045 0.0959716
758 4 0.396003 0.0914849 0.165236
557 4 0.411381 0.0819781 0.102427
1759 2 0.45402 0.0023085 0.146323
2723 4 0.449881 0.0593256 0.0995002
1760 4 0.475444 0.0151889 0.145764
590 4 0.0216022 0.0880583 0.0994786
237 4 0.131044 0.149315 0.137683
235 2 0.138866 0.137682 0.158388
556 2 0.429266 0.0992911 0.104787
771 4 0.434477 0.132047 0.104181
558 4 0.447151 0.116604 0.107147
769 2 0.45249 0.149381 0.103697
770 4 0.470503 0.166715 0.103212
477 4 0.173658 0.222534 0.116114
475 2 0.16874 0.227846 0.140047
461 4 0.289804 0.179352 0.0866454
460 2 0.310849 0.191312 0.0929097
279 4 0.289198 0.243939 0.152771
285 4 0.278878 0.252053 0.167345
462 4 0.331893 0.203273 0.0991741
255 4 0.359203 0.245566 0.0927912
628 2 0.43028 0.216372 0.0857168
624 4 0.44369 0.219265 0.124366
629 4 0.44349 0.209671 0.105861
622 2 0.453532 0.234955 0.141163
338 4 0.0594289 0.242335 0.141877
337 2 0.0798423 0.255287 0.148257
339 4 0.100256 0.268239 0.154637
611 4 0.242881 0.314314 0.150118
610 2 0.233068 0.319704 0.127762
612 4 0.223255 0.325095 0.105405
278 4 0.300648 0.258832 0.106426
277 2 0.294923 0.251386 0.129599
739 2 0.352154 0.317504 0.0979377
623 4 0.463374 0.250646 0.157959
595 2 0.422599 0.324489 0.153141
596 4 0.427353 0.304262 0.139233
619 2 0.0562579 0.397425 0.119439
620 4 0.0745822 0.401211 0.136024
647 4 0.0897893 0.408362 0.147749
621 4 0.0379336 0.393639 0.102854
315 4 0.0340478 0.411488 0.0945361
537 4 0.113184 0.342669 0.155165
535 2 0.118783 0.350745 0.132174
536 4 0.124383 0.358821 0.109183
609 4 0.224765 0.343801 0.096531
387 4 0.319835 0.393485 0.131728
385 2 0.330659 0.374019 0.120367
302 4 0.333821 0.401649 0.143714
740 4 0.338183 0.333468 0.111172
670 2 0.401262 0.367513 0.0902632
386 4 0.341483 0.354552 0.109005
12 3 0.403525 0.357167 0.127203
11 1 0.399133 0.372687 0.143604
15 3 0.377117 0.371537 0.149317
672 4 0.392507 0.364805 0.113527
14 3 0.404101 0.393833 0.135444
495 4 0.406356 0.410129 0.125874
13 3 0.412363 0.368018 0.162085
597 4 0.417845 0.344717 0.167049
626 4 0.170106 0.435264 0.118281
1438 2 0.245913 0.465663 0.092915
625 2 0.182959 0.435757 0.139722
627 4 0.195813 0.43625 0.161163
638 4 0.207596 0.454137 0.161072
637 2 0.224022 0.472337 0.156163
639 4 0.240449 0.490537 0.151254
1439 4 0.247581 0.441527 0.0992275
1574 4 0.26097 0.489702 0.151908
301 2 0.331756 0.425541 0.150793
525 4 0.344943 0.424089 0.0954513
493 2 0.426096 0.425424 0.127134
494 4 0.445836 0.440719 0.128394
1583 4 0.47 0.485069 0.108899
1420 2 0.0253131 0.00575621 0.17862
674 4 0.124508 0.993129 0.231783
450 4 0.13769 0.0628288 0.18598
693 4 0.234871 0.0484717 0.185337
691 2 0.254088 0.0437336 0.200615
723 4 0.225691 0.0668303 0.234173
692 4 0.273305 0.0389955 0.215894
1700 4 0.321764 0.0518803 0.23255
1699 2 0.3037 0.0375519 0.222876
1701 4 0.285636 0.0232235 0.213203
23 3 0.334122 0.0660828 0.236866
21 1 0.357245 0.0662303 0.234938
25 3 0.363277 0.0618152 0.213426
22 3 0.36596 0.0500149 0.248731
24 3 0.365603 0.0868814 0.241425
759 4 0.361815 0.0718262 0.195984
757 2 0.378909 0.0816555 0.18061
2744 4 0.477427 0.0208259 0.164292
511 2 0.012383 0.131285 0.20307
578 4 0.0554893 0.134723 0.215214
513 4 0.0350106 0.131094 0.213706
577 2 0.0595407 0.158445 0.221998
448 2 0.145154 0.0866192 0.187849
449 4 0.152617 0.11041 0.189719
236 4 0.146688 0.12605 0.179093
722 4 0.200644 0.109688 0.240225
28 3 0.244652 0.149689 0.186291
721 2 0.213167 0.088259 0.237199
580 2 0.305256 0.108377 0.190856
581 4 0.280967 0.10684 0.196592
30 3 0.270853 0.124703 0.196629
26 1 0.263665 0.146169 0.199117
29 3 0.280393 0.160913 0.192699
27 3 0.258523 0.149922 0.221222
582 4 0.329544 0.109914 0.18512
310 2 0.449862 0.153 0.1975
311 4 0.460654 0.130446 0.197289
529 2 0.0238135 0.1975 0.236518
530 4 0.0480461 0.194944 0.230912
579 4 0.063592 0.182167 0.228782
476 4 0.163821 0.233159 0.163979
372 4 0.169112 0.240707 0.182386
284 4 0.27541 0.240083 0.215774
283 2 0.277144 0.246068 0.19156
312 4 0.439071 0.175554 0.197711
520 2 0.489132 0.189383 0.249055
521 4 0.464545 0.193897 0.249577
764 4 0.449001 0.205626 0.244841
396 4 0.0666104 0.294514 0.220112
443 4 0.0790147 0.28378 0.231357
394 2 0.0798524 0.288178 0.199872
362 4 0.153432 0.302648 0.187179
395 4 0.0930943 0.281843 0.179631
363 4 0.115143 0.27512 0.170538
361 2 0.134288 0.288884 0.178859
370 2 0.182597 0.252537 0.199804
371 4 0.196083 0.264366 0.217222
345 4 0.271053 0.338467 0.220511
527 4 0.456635 0.260085 0.174719
526 2 0.446595 0.277679 0.189377
528 4 0.436555 0.295273 0.204034
264 4 0.0542461 0.411615 0.211435
646 2 0.0962495 0.399919 0.17038
648 4 0.10271 0.391477 0.193012
300 4 0.106052 0.371747 0.196926
298 2 0.116094 0.364003 0.218476
299 4 0.126136 0.356259 0.240025
343 2 0.287677 0.345233 0.237919
645 4 0.418362 0.362045 0.181746
643 2 0.425339 0.367876 0.205038
644 4 0.432316 0.373707 0.228329
447 4 0.431279 0.389388 0.240515
445 2 0.423577 0.412839 0.236526
262 2 0.0351788 0.418954 0.225849
1430 4 0.168518 0.491362 0.19389
417 4 0.174429 0.471679 0.190383
290 4 0.21933 0.427621 0.217508
416 4 0.210202 0.441281 0.207616
415 2 0.192316 0.45648 0.198999
289 2 0.224093 0.424195 0.241813
303 4 0.329691 0.449433 0.157871
659 4 0.338123 0.45405 0.176013
658 2 0.341013 0.47725 0.184876
446 4 0.415874 0.436289 0.232537
232 2 0.0537911 0.0318991 0.30415
234 4 0.0505095 0.0548843 0.294871
317 4 0.0347432 0.0667426 0.295364
233 4 0.0570728 0.00891387 0.313428
675 4 0.123212 0.0103082 0.278728
673 2 0.12386 0.00171844 0.255256
697 2 0.382563 0.0269831 0.273532
699 4 0.380043 0.00469018 0.28457
698 4 0.385082 0.049276 0.262493
333 4 0.379555 0.0678972 0.254012
331 2 0.399558 0.0778606 0.265229
743 4 0.467257 0.0289009 0.276735
742 2 0.459376 0.00671111 0.268328
351 4 0.468207 0.0437099 0.289081
349 2 0.451118 0.0618955 0.287523
316 2 0.0325463 0.090199 0.286989
318 4 0.0303495 0.113655 0.278613
393 4 0.127177 0.140952 0.3149
399 4 0.124497 0.129446 0.332607
391 2 0.145014 0.148516 0.299095
392 4 0.16285 0.156081 0.283289
546 4 0.207947 0.117183 0.255916
545 4 0.175482 0.152971 0.2688
544 2 0.191714 0.135077 0.262358
599 4 0.211168 0.117089 0.313358
404 4 0.227262 0.13012 0.315466
598 2 0.191477 0.116451 0.328754
403 2 0.230549 0.154864 0.314025
332 4 0.419561 0.0878239 0.276445
350 4 0.434029 0.0800812 0.285965
762 4 0.433807 0.14473 0.307007
760 2 0.441498 0.152273 0.284444
761 4 0.44919 0.159816 0.26188
401 4 0.235487 0.184021 0.294007
400 2 0.23366 0.19633 0.27232
402 4 0.231833 0.208639 0.250633
405 4 0.233837 0.179609 0.312584
765 4 0.404331 0.192224 0.262888
763 2 0.426666 0.198925 0.253865
442 2 0.075329 0.284846 0.256064
444 4 0.0716433 0.285912 0.280772
541 2 0.459014 0.283853 0.326773
542 4 0.467783 0.273804 0.305623
2493 4 0.0195449 0.357545 0.330703
749 4 0.0609037 0.350859 0.287766
365 4 0.0117003 0.361445 0.312646
364 2 0.028775 0.359566 0.294477
366 4 0.0458497 0.357688 0.276308
603 4 0.0753851 0.394203 0.330697
750 4 0.104258 0.338758 0.265979
734 4 0.121466 0.348743 0.258797
748 2 0.0825811 0.344809 0.276872
733 2 0.140695 0.347987 0.274761
601 2 0.0969502 0.399628 0.319265
677 4 0.156479 0.349013 0.309485
735 4 0.159924 0.347232 0.290726
676 2 0.17296 0.365477 0.318567
602 4 0.118515 0.405053 0.307833
344 4 0.304302 0.351998 0.255327
309 4 0.312509 0.33458 0.261021
307 2 0.316974 0.339505 0.285125
727 2 0.323603 0.388624 0.307168
308 4 0.321439 0.344429 0.309229
728 4 0.322672 0.413235 0.311485
729 4 0.324534 0.364014 0.302852
497 4 0.333456 0.335303 0.321895
263 4 0.0161115 0.426293 0.240262
777 4 0.12702 0.42274 0.30033
1757 4 0.106625 0.472229 0.294821
1756 2 0.102754 0.495739 0.287241
776 4 0.113166 0.468938 0.31354
775 2 0.120093 0.445839 0.306935
291 4 0.228856 0.420769 0.266119
1545 4 0.209265 0.486052 0.328079
414 4 0.242794 0.420587 0.281293
413 4 0.203158 0.42813 0.310836
412 2 0.222976 0.424358 0.296064
1436 4 0.22489 0.474713 0.325625
1435 2 0.249287 0.476492 0.320449
438 4 0.317729 0.500679 0.277922
437 4 0.280749 0.472036 0.295606
436 2 0.299239 0.486357 0.286764
1437 4 0.273685 0.478271 0.315273
5 3 0.28468 0.457802 0.312163
3 3 0.273518 0.428442 0.332925
434 4 0.341033 0.412969 0.320249
2 3 0.303315 0.425525 0.310203
1 1 0.29176 0.43975 0.324106
712 2 0.38768 0.458201 0.254327
713 4 0.367122 0.471514 0.259356
714 4 0.408239 0.444888 0.249298
433 2 0.356472 0.4319 0.325584
435 4 0.37191 0.450832 0.330918
428 4 0.0790357 0.0330278 0.359169
427 2 0.0867265 0.0118199 0.369951
606 4 0.152427 0.0700502 0.398228
731 4 0.0948592 0.0493038 0.393428
730 2 0.0919049 0.0718577 0.383047
604 2 0.147192 0.0466624 0.391102
605 4 0.141957 0.0232746 0.383976
368 4 0.094285 0.0336531 0.406656
682 2 0.238958 0.0573011 0.378514
683 4 0.224152 0.0751847 0.387794
684 4 0.253764 0.0394174 0.369233
249 4 0.298225 0.0545504 0.350437
247 2 0.315403 0.0717497 0.356291
1749 4 0.47772 0.0180393 0.35522
2879 4 0.492262 0.0750318 0.391421
480 4 0.482749 0.0248896 0.335933
424 2 0.428561 0.0477958 0.386243
426 4 0.428233 0.0655898 0.36868
425 4 0.428889 0.0300018 0.403806
258 4 0.429232 0.0850897 0.372324
2878 2 0.479111 0.0746684 0.412684
732 4 0.0889506 0.0944116 0.372665
397 2 0.112123 0.110778 0.343724
398 4 0.0997486 0.09211 0.35484
687 4 0.170122 0.132987 0.355481
600 4 0.171785 0.115812 0.344149
685 2 0.171303 0.128546 0.380059
686 4 0.172484 0.124105 0.404637
321 4 0.280215 0.113433 0.37692
319 2 0.275125 0.101608 0.398355
248 4 0.332581 0.088949 0.362146
320 4 0.270034 0.089784 0.419789
633 4 0.339426 0.101729 0.37667
632 4 0.376676 0.131914 0.36246
631 2 0.358051 0.116821 0.369565
420 4 0.375973 0.149906 0.3705
467 4 0.347731 0.109535 0.420354
257 4 0.470406 0.0942337 0.345459
256 2 0.449819 0.0896617 0.358891
2654 4 0.00281035 0.21828 0.37069
618 4 0.0173095 0.231292 0.375678
616 2 0.0327331 0.247864 0.386293
274 2 0.153529 0.229898 0.356427
276 4 0.131183 0.236008 0.347018
389 4 0.122686 0.256279 0.350647
275 4 0.175874 0.223788 0.365837
474 4 0.175548 0.206569 0.354809
472 2 0.19655 0.195017 0.361925
473 4 0.217551 0.183465 0.369042
708 4 0.23777 0.187172 0.369929
706 2 0.259396 0.196976 0.362096
707 4 0.281023 0.20678 0.354263
377 4 0.314584 0.244235 0.361278
717 4 0.332203 0.233502 0.360397
418 2 0.379726 0.174446 0.37348
419 4 0.383479 0.198986 0.376459
716 4 0.373123 0.216124 0.383295
715 2 0.352663 0.224813 0.371846
515 4 0.486632 0.166325 0.39799
514 2 0.465134 0.170055 0.410201
617 4 0.0481567 0.264436 0.396907
390 4 0.079655 0.281746 0.349905
388 2 0.10117 0.269013 0.350276
510 4 0.255409 0.332338 0.357615
374 4 0.239934 0.32994 0.345347
508 2 0.263491 0.311692 0.369173
509 4 0.271574 0.291046 0.380731
376 2 0.313529 0.269128 0.359171
488 4 0.275583 0.292394 0.399733
487 2 0.268406 0.271646 0.411698
378 4 0.312473 0.29402 0.357063
496 2 0.332423 0.316456 0.338293
498 4 0.33139 0.297609 0.354691
267 4 0.375695 0.29019 0.359039
265 2 0.376253 0.275797 0.379477
266 4 0.376812 0.261404 0.399915
585 4 0.369356 0.252941 0.41764
270 4 0.493263 0.261142 0.403574
543 4 0.450246 0.293902 0.347923
615 4 0.452387 0.312826 0.339115
269 4 0.444128 0.259516 0.394419
268 2 0.468695 0.260329 0.398996
2491 2 0.000151271 0.366392 0.343772
549 4 0.0662985 0.378395 0.340285
547 2 0.0563001 0.394377 0.35671
548 4 0.0463017 0.41036 0.373135
678 4 0.189441 0.381942 0.327648
502 2 0.199139 0.402812 0.35977
504 4 0.197031 0.382223 0.345741
373 2 0.227452 0.351605 0.345462
375 4 0.21497 0.37327 0.345578
614 4 0.420406 0.351258 0.338185
613 2 0.436397 0.332042 0.33865
2925 4 0.488355 0.353062 0.382931
119 3 0.490578 0.426257 0.340547
407 4 0.0495983 0.429383 0.37546
406 2 0.0674696 0.446116 0.380541
408 4 0.085341 0.462848 0.385621
1543 2 0.194485 0.502178 0.34019
503 4 0.201248 0.423401 0.373799
636 4 0.182803 0.429592 0.378566
634 2 0.186456 0.442363 0.39975
668 4 0.303635 0.432937 0.355359
4 3 0.305855 0.446608 0.341215
667 2 0.317186 0.430648 0.376247
669 4 0.330738 0.42836 0.397135
336 4 0.344619 0.420014 0.409492
561 4 0.484165 0.427979 0.412548
752 4 0.468495 0.434839 0.402608
753 4 0.481106 0.418753 0.356968
593 4 0.462118 0.498427 0.355611
751 2 0.4748 0.426796 0.379788
718 2 0.0604566 0.0351558 0.484086
719 4 0.0723174 0.0321026 0.462287
369 4 0.076131 0.0161156 0.449825
367 2 0.085208 0.0248843 0.428241
2430 4 0.214037 0.0741348 0.444157
2428 2 0.221139 0.050643 0.439373
341 4 0.224894 0.0880026 0.454751
2429 4 0.22824 0.0271511 0.434589
441 4 0.243925 0.013711 0.429333
726 4 0.300678 0.066502 0.46835
432 4 0.312653 0.0774736 0.479527
724 2 0.294481 0.0735269 0.445167
725 4 0.288284 0.0805517 0.421985
2880 4 0.465959 0.0743051 0.433946
642 4 0.456608 0.0806513 0.451014
340 2 0.214623 0.0970934 0.475656
409 2 0.236378 0.170341 0.424951
1152 4 0.193033 0.118955 0.486455
410 4 0.239538 0.14874 0.412762
466 2 0.3654 0.123847 0.430752
468 4 0.38307 0.138159 0.441151
641 4 0.469696 0.126608 0.465758
640 2 0.463152 0.10363 0.458386
3158 4 0.48608 0.13911 0.467454
3157 2 0.506084 0.147096 0.454756
575 4 0.438726 0.166172 0.439782
576 4 0.415171 0.15215 0.481607
574 2 0.426949 0.159161 0.460695
469 2 0.0714463 0.234794 0.453504
471 4 0.0717442 0.213473 0.466561
260 4 0.0749962 0.210077 0.485701
259 2 0.0986318 0.207003 0.493257
651 4 0.243022 0.243161 0.420188
650 4 0.21861 0.204967 0.441307
649 2 0.230816 0.224064 0.430747
411 4 0.233218 0.191943 0.437139
516 4 0.443636 0.173785 0.422412
470 4 0.0711484 0.256115 0.440447
2814 4 0.00813092 0.316754 0.473561
2812 2 0.0111313 0.311935 0.497911
695 4 0.0877938 0.301058 0.4496
694 2 0.108471 0.288773 0.456434
696 4 0.129149 0.276488 0.463268
1260 4 0.143157 0.279894 0.476536
1258 2 0.165051 0.289245 0.48418
1259 4 0.186944 0.298595 0.491823
489 4 0.261229 0.250898 0.423664
583 2 0.391203 0.253626 0.429782
584 4 0.41305 0.254311 0.441923
2456 4 0.42567 0.269935 0.44426
2457 4 0.471394 0.285413 0.457319
2455 2 0.448532 0.277674 0.45079
709 2 0.149752 0.413288 0.432572
10 3 0.151683 0.34892 0.460871
7 3 0.121749 0.369747 0.468812
327 4 0.107143 0.384764 0.466883
325 2 0.100048 0.407896 0.473189
6 1 0.144715 0.369558 0.467516
8 3 0.15149 0.38554 0.452118
711 4 0.162633 0.392274 0.436775
9 3 0.153449 0.374509 0.488435
239 4 0.377904 0.361351 0.482151
334 2 0.352755 0.398223 0.418666
335 4 0.360892 0.376433 0.42784
238 2 0.371032 0.359648 0.458171
240 4 0.364159 0.357945 0.434191
2710 2 0.50049 0.406672 0.486264
560 4 0.487801 0.407191 0.457884
2712 4 0.496889 0.391468 0.466743
559 2 0.485983 0.417585 0.435216
680 4 0.0189034 0.457014 0.439753
679 2 0.0178398 0.481963 0.438491
1383 4 0.018538 0.442837 0.454038
1381 2 0.0264035 0.443555 0.477761
326 4 0.0929532 0.431027 0.479495
384 4 0.131328 0.454474 0.495022
710 4 0.136871 0.434302 0.428368
570 4 0.121059 0.446838 0.433048
569 4 0.125876 0.465587 0.479156
568 2 0.123467 0.456212 0.456102
774 4 0.186056 0.442551 0.434858
773 4 0.199149 0.465178 0.477488
635 4 0.190108 0.455134 0.420933
772 2 0.192602 0.453864 0.456173
1399 2 0.326519 0.458565 0.464792
1400 4 0.323668 0.481938 0.456381
1401 4 0.32937 0.435191 0.473203
588 4 0.336428 0.490802 0.443915
1126 2 0.0149889 0.0551791 0.527753
1127 4 0.0324875 0.0509855 0.510392
4508 4 0.99691 0.00294607 0.578448
720 4 0.0485959 0.0382091 0.505885
1059 4 0.104556 0.0635069 0.58567
1155 4 0.110013 0.0748239 0.570408
951 4 0.190121 0.0570045 0.555143
1031 4 0.201568 0.0518262 0.570515
1030 2 0.219726 0.0363195 0.57793
949 2 0.195825 0.0593224 0.530909
950 4 0.20153 0.0616403 0.506676
961 2 0.282666 0.0232203 0.521913
2194 2 0.290403 0.00199315 0.571238
1180 2 0.262216 0.0775929 0.505398
430 2 0.318484 0.0661004 0.501018
963 4 0.275529 0.0461269 0.514876
431 4 0.324314 0.0547271 0.522508
1181 4 0.279152 0.0599615 0.500157
841 2 0.36886 0.0489837 0.524251
843 4 0.345774 0.0558325 0.51752
842 4 0.391946 0.0421349 0.530982
1217 4 0.408552 0.0344997 0.524325
1218 4 0.445923 0.0516884 0.552762
1216 2 0.427237 0.043094 0.538544
4465 2 0.432745 0.00295268 0.581871
1035 4 0.0758153 0.169438 0.555
1033 2 0.0743352 0.156486 0.533664
1034 4 0.0728551 0.143535 0.512327
939 4 0.158548 0.161781 0.521475
1151 4 0.173661 0.149322 0.521142
1150 2 0.183347 0.134138 0.503799
1182 4 0.245279 0.0952242 0.510639
342 4 0.204352 0.106184 0.496562
857 4 0.3086 0.137458 0.559329
899 4 0.327687 0.137557 0.554405
856 2 0.290432 0.152966 0.566717
898 2 0.345953 0.15437 0.557379
1082 4 0.0641162 0.207783 0.570425
1081 2 0.043313 0.194394 0.574052
877 2 0.0812288 0.259187 0.574571
1083 4 0.0225098 0.181006 0.577679
937 2 0.14854 0.184314 0.517317
938 4 0.138531 0.206846 0.51316
261 4 0.122267 0.20393 0.500813
858 4 0.272263 0.168474 0.574106
797 4 0.273091 0.188586 0.574024
813 4 0.310942 0.229036 0.541379
811 2 0.288697 0.238072 0.534399
873 4 0.327841 0.230262 0.55135
900 4 0.364219 0.171183 0.560354
871 2 0.341956 0.209879 0.554584
872 4 0.356071 0.189495 0.557818
906 4 0.498675 0.247786 0.550476
878 4 0.0885883 0.273651 0.55555
2813 4 0.0141317 0.307116 0.522262
1238 4 0.260259 0.323033 0.574138
812 4 0.266452 0.247107 0.52742
792 4 0.264768 0.304366 0.580923
1204 2 0.387319 0.325968 0.574477
1205 4 0.404306 0.310214 0.565072
904 2 0.478913 0.261588 0.557121
905 4 0.459152 0.27539 0.563767
952 2 0.439103 0.305429 0.575603
953 4 0.460785 0.29335 0.572575
936 4 0.00210115 0.411165 0.542177
1137 4 0.147563 0.352649 0.562728
897 4 0.16362 0.340213 0.559831
1135 2 0.127726 0.367868 0.562946
1136 4 0.107889 0.383087 0.563163
895 2 0.188162 0.335469 0.56045
896 4 0.212704 0.330725 0.561069
1189 2 0.230372 0.357724 0.533288
1191 4 0.214571 0.345901 0.548641
1190 4 0.246173 0.369546 0.517935
803 4 0.264817 0.377727 0.513084
802 2 0.285853 0.388583 0.521135
804 4 0.306889 0.39944 0.529185
1206 4 0.370332 0.341721 0.583882
928 2 0.361278 0.374876 0.560016
929 4 0.364543 0.393673 0.543855
930 4 0.358014 0.356079 0.576178
925 2 0.447787 0.407727 0.534297
927 4 0.437888 0.389552 0.520268
538 2 0.0429862 0.474773 0.52451
540 4 0.0282073 0.456608 0.515746
539 4 0.0577652 0.492937 0.533275
1382 4 0.034269 0.444272 0.501484
383 4 0.133698 0.443538 0.543761
382 2 0.132513 0.449006 0.519392
2242 2 0.151789 0.48312 0.578385
2244 4 0.134323 0.476051 0.561948
1173 4 0.2369 0.442381 0.548759
1172 4 0.278613 0.467305 0.536947
1171 2 0.257757 0.454843 0.542853
882 4 0.27882 0.465862 0.517506
880 2 0.290601 0.485657 0.50778
1001 4 0.455455 0.418279 0.566675
926 4 0.457687 0.425903 0.548326
1000 2 0.459571 0.43241 0.586888
1185 4 0.0197304 0.0413246 0.651342
945 4 0.039083 0.0382586 0.646002
825 4 0.0765171 0.0124294 0.616741
1058 4 0.0755896 0.0270753 0.603956
943 2 0.0512421 0.0439534 0.667095
1057 2 0.090073 0.0452911 0.594813
823 2 0.0952516 0.00269485 0.630136
824 4 0.113986 0.99296 0.643531
1032 4 0.237885 0.0208128 0.585346
2196 4 0.285735 0.00677283 0.595333
1003 2 0.343975 0.0504541 0.660245
1005 4 0.348464 0.0334716 0.642451
4467 4 0.417498 0.0203937 0.59128
2283 4 0.427921 0.0333644 0.60297
2282 4 0.447392 0.0498936 0.645963
2281 2 0.437656 0.041629 0.624467
43 3 0.462153 0.047008 0.658322
45 3 0.486895 0.0661483 0.637367
41 1 0.483123 0.0569284 0.657846
42 3 0.499051 0.0408508 0.661967
1153 2 0.126871 0.0862179 0.584941
1154 4 0.143728 0.0976119 0.599473
1221 4 0.141799 0.109054 0.616188
1219 2 0.152246 0.12461 0.632742
1220 4 0.162693 0.140166 0.649297
1212 4 0.231576 0.15835 0.664215
1283 4 0.1796 0.134802 0.659922
1210 2 0.256309 0.157928 0.660572
1211 4 0.281042 0.157506 0.656929
888 4 0.290561 0.142407 0.662894
879 4 0.0738692 0.244722 0.593592
1209 4 0.0519728 0.256932 0.653987
1199 4 0.00973281 0.18245 0.593254
1272 4 0.087313 0.233904 0.60543
1270 2 0.104538 0.228457 0.622717
1271 4 0.121762 0.223011 0.640003
909 4 0.131461 0.207804 0.648411
907 2 0.155694 0.213958 0.648583
908 4 0.179928 0.220113 0.648755
947 4 0.1948 0.231997 0.64184
796 2 0.277852 0.21074 0.584593
798 4 0.282613 0.232894 0.595162
1025 4 0.393645 0.204262 0.643736
1024 2 0.402796 0.203287 0.620488
1143 4 0.380627 0.190764 0.6494
1026 4 0.411947 0.202313 0.59724
1141 2 0.357006 0.195427 0.656144
3123 4 0.455555 0.248407 0.646924
1207 2 0.0690909 0.26864 0.667954
946 2 0.18865 0.248636 0.624219
948 4 0.182499 0.265275 0.606599
791 4 0.293786 0.289437 0.618815
790 2 0.279277 0.296902 0.599869
954 4 0.417421 0.317509 0.57863
983 4 0.0261546 0.414503 0.621348
1041 4 0.0279817 0.420623 0.640787
982 2 0.00922555 0.398644 0.612016
992 4 0.129359 0.420887 0.649209
1239 4 0.236545 0.362187 0.594271
1237 2 0.248402 0.34261 0.584205
1039 2 0.0522259 0.422506 0.634968
1040 4 0.0764701 0.424389 0.62915
993 4 0.0916494 0.431632 0.618172
991 2 0.110504 0.426259 0.63369
2170 2 0.153502 0.486765 0.644118
2172 4 0.162908 0.463608 0.644793
1160 4 0.212301 0.460229 0.623118
1159 2 0.196984 0.467597 0.60478
2243 4 0.169255 0.490189 0.594821
1161 4 0.181667 0.474964 0.586442
890 4 0.29752 0.438006 0.596608
889 2 0.317909 0.452334 0.59866
1187 4 0.326814 0.489692 0.61872
891 4 0.338297 0.466661 0.600712
1952 4 0.342174 0.48542 0.596185
1002 4 0.463687 0.44654 0.607101
1910 4 0.459795 0.461843 0.5953
1909 2 0.454622 0.485862 0.599937
1268 4 0.439838 0.4747 0.658447
944 4 0.0634012 0.0496483 0.688187
1075 2 0.0610716 0.0599688 0.72008
1076 4 0.0650917 0.0683214 0.696858
1077 4 0.0570516 0.0516163 0.743302
2319 4 0.0358291 0.0201513 0.728649
2317 2 0.0163513 0.0143193 0.714096
1257 4 0.284699 0.0559647 0.741663
1004 4 0.339486 0.0674366 0.678039
44 3 0.484533 0.0732645 0.674264
32 3 0.087515 0.155461 0.745644
1282 2 0.201099 0.142103 0.670394
1284 4 0.222598 0.149403 0.680866
1227 4 0.238144 0.145556 0.693793
1225 2 0.243308 0.160696 0.713009
886 2 0.298877 0.13324 0.684619
887 4 0.307193 0.124074 0.706345
830 4 0.305942 0.104359 0.713427
829 2 0.306947 0.102929 0.738369
978 4 0.316342 0.147595 0.747604
1146 4 0.495589 0.151212 0.732678
3270 4 0.490094 0.140134 0.747618
1107 4 0.00789708 0.190842 0.739053
851 4 0.999026 0.209284 0.736455
822 4 0.142277 0.241543 0.715215
1278 4 0.155645 0.23082 0.722848
820 2 0.118619 0.247485 0.709723
1226 4 0.248471 0.175837 0.732226
1276 2 0.167074 0.21511 0.738589
916 2 0.311245 0.228761 0.723697
918 4 0.32575 0.208412 0.722873
977 4 0.320423 0.196292 0.73699
976 2 0.318382 0.171944 0.742297
1142 4 0.333385 0.20009 0.662888
917 4 0.296741 0.249111 0.72452
1192 2 0.41094 0.230135 0.735703
1144 2 0.489651 0.174018 0.724322
1145 4 0.483713 0.196823 0.715965
1194 4 0.42504 0.231077 0.715076
1262 4 0.423368 0.21455 0.702827
1261 2 0.446987 0.2064 0.701861
1263 4 0.470605 0.198251 0.700895
1243 2 0.0023055 0.306357 0.705854
1244 4 0.0224808 0.313979 0.718505
1208 4 0.0862089 0.280348 0.68192
821 4 0.0949609 0.253427 0.704231
1065 4 0.206044 0.258408 0.704194
1064 4 0.215401 0.29288 0.739193
1063 2 0.210722 0.275644 0.721694
1096 2 0.271516 0.283186 0.737111
1097 4 0.289522 0.266966 0.730955
1098 4 0.25351 0.299405 0.743268
3121 2 0.476467 0.250543 0.660463
3122 4 0.49738 0.252678 0.674002
806 4 0.449745 0.302844 0.738482
892 2 0.0689473 0.392223 0.68863
893 4 0.0548283 0.392481 0.667996
894 4 0.0830664 0.391965 0.709265
942 4 0.11891 0.421286 0.745669
1028 4 0.231937 0.396943 0.693491
1066 2 0.194901 0.405314 0.700864
1068 4 0.213749 0.392183 0.69099
1027 2 0.254098 0.406689 0.687237
1139 4 0.280681 0.417908 0.699807
1230 4 0.359605 0.419423 0.73884
1281 4 0.0619422 0.442942 0.70582
1279 2 0.0593735 0.438143 0.730224
2021 4 0.0618997 0.476167 0.737713
2020 2 0.0699042 0.496755 0.725996
940 2 0.139875 0.415637 0.733269
1067 4 0.176053 0.418445 0.710739
941 4 0.160839 0.409988 0.72087
1138 2 0.304879 0.420651 0.705472
1140 4 0.329077 0.423394 0.711137
1029 4 0.276258 0.416436 0.680983
1269 4 0.423429 0.488059 0.703757
3328 2 0.488174 0.450176 0.681938
3329 4 0.465523 0.451464 0.692448
1267 2 0.431633 0.48138 0.681102
1203 4 0.065753 0.0525791 0.760857
1201 2 0.0838451 0.0418885 0.774406
1202 4 0.101937 0.0311979 0.787955
2049 4 0.115786 0.0179395 0.797398
1148 4 0.177752 0.0205633 0.802502
1147 2 0.195173 0.0357607 0.792976
1149 4 0.212593 0.0509581 0.78345
1049 4 0.232305 0.0470423 0.787358
1255 2 0.293992 0.043685 0.761362
1256 4 0.303285 0.0314052 0.78106
1048 2 0.251822 0.0590932 0.79731
1050 4 0.271339 0.0711442 0.807262
846 4 0.455095 0.0468589 0.787205
1113 4 0.453393 0.0266859 0.78595
1111 2 0.442747 0.00565422 0.794287
844 2 0.473546 0.0625318 0.793457
845 4 0.491997 0.0782048 0.799709
862 2 0.0316533 0.0881334 0.823155
832 2 0.0302331 0.135929 0.782088
863 4 0.0217382 0.106686 0.80964
833 4 0.0157974 0.120934 0.795942
33 3 0.0642708 0.143778 0.772771
834 4 0.0446687 0.150923 0.768233
31 1 0.0777968 0.161245 0.765676
1106 4 0.0477736 0.169549 0.760435
34 3 0.0945229 0.165153 0.781276
838 2 0.240753 0.122681 0.834279
840 4 0.225946 0.136801 0.819906
831 4 0.307952 0.101499 0.763312
959 4 0.273296 0.115721 0.841173
819 4 0.368426 0.0864759 0.809416
1084 2 0.358231 0.117096 0.791065
1085 4 0.352945 0.0979597 0.806265
1086 4 0.363518 0.136231 0.775864
1299 4 0.375533 0.148249 0.787382
3269 4 0.497732 0.143329 0.796935
3468 4 0.496156 0.15047 0.815345
3268 2 0.493913 0.141732 0.772277
1105 2 0.0278353 0.180196 0.749744
1214 4 0.0188611 0.21842 0.773745
35 3 0.0653064 0.180069 0.762794
780 4 0.0690918 0.233284 0.795708
1073 4 0.109263 0.175029 0.791077
1072 2 0.131394 0.182934 0.799615
1074 4 0.153525 0.190839 0.808153
1130 4 0.239397 0.175331 0.749413
1277 4 0.178503 0.199401 0.754329
1129 2 0.216889 0.183662 0.756426
1131 4 0.194382 0.191994 0.763439
1008 4 0.326235 0.235178 0.752586
1193 4 0.39684 0.229193 0.756331
1297 2 0.383308 0.168487 0.799839
1298 4 0.391083 0.188725 0.812295
47 3 0.409157 0.194213 0.808739
1043 4 0.408742 0.244393 0.803931
1006 2 0.340712 0.249003 0.767568
46 1 0.419976 0.206367 0.824999
49 3 0.429036 0.225421 0.815341
1166 4 0.427853 0.243492 0.807469
48 3 0.436855 0.193324 0.83413
778 2 0.0550785 0.253984 0.79627
779 4 0.0410652 0.274684 0.796833
869 4 0.101603 0.261403 0.818612