ITEM: TIMESTEP
3300000
ITEM: NUMBER OF ATOMS
4590
ITEM: BOX BOUNDS pp pp pp
-9.9985700000000008e+00 9.9985700000000008e+00
-9.9985700000000008e+00 9.9985700000000008e+00
-9.9985700000000008e+00 9.9985700000000008e+00
ITEM: ATOMS id type xs ys zs
1666 2 0.0696999 0.064108 0.0784951
701 4 0.0342396 0.0759367 0.99163
1668 4 0.0812056 0.052522 0.0595594
463 2 0.0236133 0.0407058 0.999469
464 4 0.0202401 0.016929 0.992507
465 4 0.0269865 0.0644826 0.00643046
3290 4 0.099396 0.0549134 0.0502818
3289 2 0.104123 0.0475594 0.0268563
3291 4 0.108851 0.0402054 0.00343092
565 2 0.136748 0.0037596 0.001711
490 2 0.299293 0.0169223 0.0519696
491 4 0.309113 0.0395273 0.047754
492 4 0.289474 0.994317 0.0561851
1475 4 0.32038 0.0517526 0.0812511
986 4 0.293117 0.0563376 0.995698
359 4 0.24768 0.125767 0.985136
462 4 0.310054 0.1697 0.082482
2808 4 0.00397497 0.261378 0.045267
505 2 0.144497 0.234917 0.0480368
506 4 0.159659 0.216506 0.0555429
915 4 0.128478 0.253861 0.0205522
507 4 0.129335 0.253327 0.0405308
737 4 0.177732 0.209329 0.0518558
736 2 0.199618 0.197246 0.0513923
738 4 0.221503 0.185163 0.0509288
354 4 0.230993 0.1867 0.0323431
460 2 0.305053 0.173586 0.0582937
352 2 0.255817 0.183747 0.0318638
461 4 0.300052 0.177472 0.0341055
353 4 0.280641 0.180794 0.0313845
665 4 0.345133 0.196656 0.0259221
664 2 0.340406 0.178847 0.0090206
2807 4 0.02214 0.278471 0.00192452
2806 2 0.0130575 0.269925 0.0235957
293 4 0.115457 0.261837 0.0544511
287 4 0.172607 0.286611 0.0321211
286 2 0.16064 0.308419 0.0295937
292 2 0.110754 0.284126 0.0647581
288 4 0.148674 0.330227 0.0270663
294 4 0.106051 0.306416 0.075065
355 2 0.226966 0.257363 0.0174306
356 4 0.248317 0.26039 0.0300855
483 4 0.257098 0.278613 0.0264016
612 4 0.259491 0.310636 0.0492447
610 2 0.256747 0.300887 0.0721049
609 4 0.265877 0.328537 0.0491705
482 4 0.304522 0.288591 0.0140689
481 2 0.28081 0.283602 0.0202352
571 2 0.334679 0.292422 0.996101
573 4 0.359226 0.287918 0.994564
990 4 0.15163 0.350014 0.0315423
988 2 0.170457 0.366394 0.0330984
1289 4 0.186852 0.399097 0.0204637
989 4 0.189284 0.382775 0.0346546
1288 2 0.205475 0.404258 0.00459823
1440 4 0.214601 0.410609 0.0730283
607 2 0.265362 0.35343 0.0514659
250 2 0.295773 0.404815 0.0648711
252 4 0.278644 0.386601 0.0646397
608 4 0.264847 0.378323 0.0537612
251 4 0.312901 0.423029 0.0651025
740 4 0.334723 0.333355 0.0668269
741 4 0.372205 0.339916 0.0343807
739 2 0.353464 0.336636 0.0506038
226 2 0.395666 0.398074 0.0279127
227 4 0.40214 0.37644 0.0171787
1305 4 0.419245 0.373815 0.00797167
1046 4 0.498119 0.365492 0.00494355
1045 2 0.498373 0.366034 0.02994
280 2 0.465856 0.353619 0.0775443
282 4 0.489011 0.360836 0.0714662
281 4 0.442701 0.346402 0.0836224
1047 4 0.498628 0.366576 0.0549364
551 4 0.0183488 0.497995 0.0201925
552 4 0.00375077 0.482448 0.0654244
550 2 0.0110498 0.490222 0.0428085
313 2 0.0169369 0.44414 0.0752967
314 4 0.014291 0.46896 0.0767624
315 4 0.0195827 0.41932 0.0738311
1788 4 0.128418 0.490912 0.0289494
1786 2 0.151734 0.482537 0.0323281
1767 4 0.118532 0.495233 0.0466105
243 4 0.200854 0.415627 0.058823
241 2 0.194616 0.438351 0.0504616
242 4 0.188378 0.461074 0.0421001
1787 4 0.17505 0.474162 0.0357067
524 4 0.325576 0.430945 0.0515155
271 2 0.292934 0.47657 0.0641717
272 4 0.296362 0.454001 0.074372
228 4 0.389192 0.419709 0.0386467
525 4 0.375212 0.425121 0.0532587
523 2 0.350394 0.428033 0.0523871
1583 4 0.486666 0.476328 0.0480542
1582 2 0.474417 0.49231 0.0628767
1667 4 0.0581942 0.0756941 0.0974309
16 1 0.0315827 0.0564735 0.117999
19 3 0.0162991 0.0658674 0.132715
17 3 0.0391761 0.0728309 0.103718
20 3 0.0215795 0.0399891 0.105881
18 3 0.0496162 0.0478216 0.12976
2480 4 0.0130063 0.0812803 0.147889
1422 4 0.0024047 0.0610996 0.148663
1506 4 0.229951 0.0193979 0.172504
652 2 0.265806 0.0760469 0.152548
654 4 0.276395 0.0687802 0.131094
1476 4 0.292283 0.0661594 0.120029
1474 2 0.306331 0.058956 0.10064
486 4 0.33322 0.000389831 0.138549
297 4 0.388441 0.037843 0.116729
295 2 0.405945 0.0556448 0.118101
484 2 0.35111 0.0161617 0.131041
485 4 0.369 0.0319337 0.123533
296 4 0.423449 0.0734466 0.119474
745 2 0.488778 0.0219611 0.0909584
746 4 0.476243 0.0406804 0.101804
557 4 0.438029 0.0656178 0.109101
450 4 0.0727635 0.119594 0.101902
236 4 0.1191 0.117041 0.148909
449 4 0.111948 0.127147 0.132039
448 2 0.0923556 0.123371 0.116971
235 2 0.135398 0.134176 0.157028
28 3 0.247398 0.146614 0.165323
580 2 0.305059 0.111614 0.135058
581 4 0.281936 0.120774 0.137629
30 3 0.27388 0.139855 0.139425
26 1 0.263661 0.156063 0.151734
582 4 0.328182 0.102455 0.132486
758 4 0.340262 0.10878 0.147562
556 2 0.458061 0.0766404 0.11922
558 4 0.478094 0.087663 0.129338
771 4 0.480416 0.106523 0.134033
769 2 0.475604 0.121162 0.153724
477 4 0.236706 0.180113 0.139103
371 4 0.197747 0.233958 0.149458
476 4 0.205541 0.219211 0.138224
475 2 0.221124 0.199662 0.138664
29 3 0.254054 0.171816 0.137665
27 3 0.279295 0.166492 0.164999
756 4 0.347824 0.242412 0.130756
754 2 0.345811 0.226152 0.149643
255 4 0.352777 0.249412 0.113152
624 4 0.442912 0.231647 0.160479
629 4 0.435513 0.217517 0.14673
628 2 0.425851 0.229531 0.127046
456 4 0.0952601 0.314958 0.0896309
611 4 0.254003 0.291137 0.094965
279 4 0.288653 0.272542 0.150972
277 2 0.273411 0.279525 0.132422
278 4 0.25817 0.286508 0.113872
253 2 0.375834 0.244836 0.104629
254 4 0.39889 0.240259 0.0961061
630 4 0.416188 0.241546 0.107361
619 2 0.0294078 0.367649 0.141477
620 4 0.0193113 0.390428 0.139389
621 4 0.0395044 0.34487 0.143565
454 2 0.11093 0.334443 0.0895808
455 4 0.126599 0.353927 0.0895308
537 4 0.133028 0.397904 0.137216
535 2 0.131259 0.385309 0.115689
536 4 0.129491 0.372714 0.0941612
647 4 0.136679 0.385323 0.152249
625 2 0.210191 0.382551 0.149243
627 4 0.215684 0.402581 0.135321
626 4 0.204699 0.362522 0.163166
1439 4 0.202197 0.40339 0.120932
1438 2 0.208399 0.406999 0.09698
301 2 0.31435 0.409336 0.135598
386 4 0.330663 0.336346 0.0860829
385 2 0.327766 0.352879 0.104615
387 4 0.324869 0.369413 0.123146
302 4 0.324126 0.386459 0.138102
670 2 0.408906 0.354077 0.108342
12 3 0.375177 0.355983 0.135884
11 1 0.367366 0.377592 0.134802
15 3 0.34573 0.377401 0.127694
672 4 0.386033 0.354021 0.118441
13 3 0.368676 0.387109 0.155923
14 3 0.380493 0.389575 0.119886
495 4 0.387905 0.402149 0.105904
671 4 0.43178 0.354132 0.0982436
1431 4 0.140875 0.482655 0.146846
1620 4 0.152885 0.494971 0.137577
1429 2 0.155081 0.467353 0.160601
1574 4 0.252129 0.467653 0.140708
639 4 0.259017 0.459616 0.156897
638 4 0.304631 0.451949 0.137888
637 2 0.281824 0.455782 0.147393
303 4 0.304575 0.432213 0.133094
659 4 0.317827 0.429911 0.16426
1559 4 0.381047 0.497298 0.123554
493 2 0.400432 0.419858 0.11834
494 4 0.412959 0.437567 0.130776
688 2 0.166387 0.0390869 0.204568
690 4 0.150944 0.058573 0.207209
674 4 0.149807 0.0783768 0.210876
689 4 0.181831 0.0196008 0.201927
1505 4 0.189414 0.00201177 0.196067
1504 2 0.209683 0.0107048 0.184286
722 4 0.196411 0.0703768 0.253181
653 4 0.255217 0.0833136 0.174001
693 4 0.264356 0.0778071 0.191497
22 3 0.381717 0.064314 0.222959
698 4 0.398262 0.067701 0.233537
697 2 0.401795 0.0450584 0.243537
699 4 0.405329 0.0224158 0.253538
349 2 0.480323 0.0678049 0.195656
1518 4 0.413542 0.00529078 0.247305
511 2 0.0137616 0.124203 0.223798
513 4 0.0342925 0.137129 0.229847
578 4 0.0497148 0.14903 0.223567
2479 2 0.00506626 0.0959051 0.166551
237 4 0.151697 0.151312 0.165147
673 2 0.140436 0.101496 0.212575
675 4 0.131065 0.124614 0.214273
546 4 0.115359 0.122011 0.226518
544 2 0.113312 0.138314 0.245365
691 2 0.275463 0.0895707 0.21056
1701 4 0.304521 0.108546 0.228127
692 4 0.286571 0.101334 0.229623
1699 2 0.327617 0.103164 0.220202
757 2 0.349642 0.103782 0.170195
333 4 0.410413 0.0832879 0.229617
21 1 0.379123 0.0866779 0.218239
23 3 0.360375 0.094574 0.2294
25 3 0.376491 0.0893474 0.195776
1700 4 0.350712 0.0977823 0.212277
759 4 0.359022 0.0987841 0.192827
24 3 0.398006 0.0980976 0.225411
350 4 0.459766 0.0809499 0.201115
331 2 0.433997 0.0884617 0.223119
332 4 0.457581 0.0936355 0.216621
770 4 0.470792 0.1358 0.173415
312 4 0.485022 0.128276 0.18684
310 2 0.47609 0.14044 0.206776
311 4 0.467159 0.152604 0.226712
577 2 0.0436122 0.171866 0.231717
529 2 0.0164753 0.226913 0.228467
530 4 0.0371955 0.214028 0.233927
579 4 0.0375095 0.194703 0.239866
338 4 0.0824219 0.248048 0.176404
362 4 0.149301 0.225161 0.198985
370 2 0.181376 0.23121 0.168157
372 4 0.165005 0.228461 0.186855
755 4 0.343798 0.209892 0.16853
622 2 0.439208 0.250178 0.176852
339 4 0.0503115 0.286364 0.175178
704 4 0.0395674 0.291345 0.191312
337 2 0.0663667 0.267206 0.175791
703 2 0.026795 0.31283 0.191965
705 4 0.0140227 0.334315 0.192618
361 2 0.135802 0.245891 0.20262
363 4 0.122302 0.266621 0.206255
395 4 0.109914 0.274456 0.220558
394 2 0.0991335 0.269576 0.242584
285 4 0.28966 0.278829 0.170694
283 2 0.280099 0.272549 0.192927
284 4 0.270539 0.26627 0.215161
528 4 0.416861 0.330227 0.200806
526 2 0.428159 0.308914 0.194226
623 4 0.435503 0.268708 0.193225
527 4 0.439457 0.287601 0.187646
542 4 0.417062 0.326915 0.221184
2615 4 0.00828347 0.341916 0.210527
264 4 0.0139806 0.417667 0.232433
263 4 0.0636835 0.421995 0.229026
262 2 0.038832 0.419831 0.23073
648 4 0.109077 0.384901 0.193947
300 4 0.0942166 0.374701 0.201791
646 2 0.122878 0.385112 0.173098
298 2 0.0979631 0.366353 0.225061
734 4 0.151097 0.381106 0.223354
733 2 0.150227 0.392989 0.245336
416 4 0.198247 0.410005 0.219177
290 4 0.213658 0.403919 0.23084
597 4 0.356311 0.395638 0.173058
345 4 0.34399 0.347088 0.211503
596 4 0.338918 0.365421 0.208907
645 4 0.374366 0.40751 0.166677
595 2 0.347614 0.38053 0.190983
343 2 0.347808 0.340154 0.235221
541 2 0.422336 0.336532 0.243654
1430 4 0.169287 0.452051 0.174356
415 2 0.185082 0.426396 0.205642
417 4 0.171917 0.442788 0.192108
438 4 0.26862 0.477121 0.215223
436 2 0.270571 0.474224 0.239981
658 2 0.332895 0.442956 0.179359
643 2 0.388209 0.425698 0.176813
644 4 0.402053 0.443886 0.186949
660 4 0.347962 0.456002 0.194457
231 4 0.352368 0.47177 0.183777
447 4 0.417372 0.451551 0.198401
229 2 0.36286 0.493442 0.190517
445 2 0.419745 0.444912 0.22239
446 4 0.422117 0.438274 0.24638
1402 2 0.0407721 0.00829501 0.260484
1403 4 0.0338448 0.03116 0.267859
233 4 0.0301055 0.0366006 0.287352
232 2 0.0508127 0.0473274 0.29637
234 4 0.0715199 0.0580542 0.305388
317 4 0.0648019 0.0739772 0.295059
1405 2 0.211586 0.03053 0.29298
1406 4 0.193689 0.047713 0.289878
721 2 0.182359 0.0812682 0.270762
1407 4 0.229483 0.0133471 0.296083
599 4 0.159639 0.0872685 0.305618
1517 4 0.441506 0.00166454 0.288604
743 4 0.493341 0.011744 0.268884
425 4 0.48395 0.0186717 0.284641
424 2 0.487632 0.037592 0.300567
258 4 0.478104 0.067987 0.326613
426 4 0.491315 0.0565122 0.316493
1516 2 0.427524 0.00347766 0.267955
316 2 0.0712088 0.0973594 0.288943
318 4 0.0776157 0.120742 0.282827
393 4 0.111464 0.142903 0.328944
392 4 0.107668 0.162171 0.282954
545 4 0.111265 0.154617 0.264211
391 2 0.109566 0.152537 0.305949
723 4 0.168307 0.0921596 0.288343
403 2 0.22425 0.142764 0.298764
598 2 0.173112 0.0999545 0.322433
404 4 0.232237 0.119792 0.304568
405 4 0.216264 0.165736 0.292961
521 4 0.484163 0.159609 0.233828
401 4 0.21161 0.183465 0.285615
400 2 0.20487 0.201306 0.301784
402 4 0.19813 0.219148 0.317952
763 2 0.452392 0.214291 0.328588
765 4 0.457289 0.190366 0.333951
442 2 0.0626371 0.256302 0.285122
444 4 0.0385848 0.249517 0.285919
443 4 0.0866893 0.263086 0.284324
396 4 0.0883526 0.264696 0.26461
497 4 0.310059 0.254754 0.341429
496 2 0.334739 0.254801 0.33742
378 4 0.374536 0.258952 0.320875
366 4 0.0506558 0.370329 0.305276
749 4 0.0560352 0.352464 0.298155
364 2 0.0277385 0.368635 0.31513
748 2 0.0721812 0.350878 0.279129
777 4 0.0842252 0.403032 0.312126
750 4 0.0883272 0.349292 0.260104
299 4 0.10171 0.358005 0.24833
735 4 0.149356 0.404871 0.267318
677 4 0.169274 0.411854 0.268501
289 2 0.218513 0.402625 0.255334
291 4 0.223367 0.401331 0.279828
414 4 0.242795 0.400384 0.284112
412 2 0.247872 0.414867 0.303851
727 2 0.319549 0.414757 0.328299
729 4 0.330633 0.393529 0.321109
344 4 0.351626 0.33322 0.258938
308 4 0.336385 0.384065 0.303642
309 4 0.349404 0.345881 0.274092
307 2 0.342894 0.364973 0.288867
2860 2 0.498755 0.388638 0.261335
118 3 0.489063 0.381215 0.320002
543 4 0.427609 0.346149 0.266123
615 4 0.427522 0.364697 0.274214
614 4 0.444586 0.342404 0.315597
613 2 0.436054 0.353551 0.294905
2862 4 0.481429 0.403792 0.2711
120 3 0.486463 0.40695 0.292641
713 4 0.464858 0.405827 0.285675
116 1 0.489377 0.403875 0.315017
602 4 0.0836857 0.42011 0.322194
775 2 0.0987161 0.410998 0.293371
1757 4 0.120511 0.438463 0.275174
776 4 0.113207 0.418964 0.274616
1756 2 0.123135 0.461586 0.284317
1758 4 0.125759 0.48471 0.293459
1775 4 0.13298 0.482328 0.312185
676 2 0.172832 0.426834 0.288201
678 4 0.17639 0.441815 0.307902
768 4 0.184034 0.458384 0.298061
766 2 0.192112 0.480522 0.289705
413 4 0.25295 0.429351 0.32359
437 4 0.272521 0.471326 0.264739
1437 4 0.294825 0.49823 0.313206
433 2 0.28982 0.456058 0.303637
435 4 0.284076 0.463825 0.280575
434 4 0.295564 0.448291 0.326699
712 2 0.449063 0.421878 0.274808
714 4 0.433269 0.437928 0.263941
2757 4 0.0125503 0.0797198 0.393357
606 4 0.1472 0.0567779 0.328575
730 2 0.0959054 0.0744958 0.404978
604 2 0.133399 0.0655987 0.347467
605 4 0.119597 0.0744195 0.366358
683 4 0.253991 0.0712945 0.381171
249 4 0.287827 0.024872 0.381664
684 4 0.269552 0.0240442 0.376075
682 2 0.261771 0.0476693 0.378623
247 2 0.310833 0.022911 0.39126
633 4 0.345657 0.0366243 0.402959
248 4 0.333838 0.02095 0.400856
631 2 0.351547 0.0582136 0.414113
632 4 0.357436 0.079803 0.425266
1747 2 0.496582 0.999057 0.344301
1749 4 0.504971 0.0225548 0.342672
2586 4 0.0106019 0.142287 0.387143
2584 2 0.00529374 0.118069 0.390382
2585 4 0.999986 0.0938505 0.393621
399 4 0.0978745 0.143388 0.343983
732 4 0.11045 0.0758087 0.384683
397 2 0.113203 0.144631 0.363698
398 4 0.128531 0.145873 0.383413
600 4 0.186584 0.112641 0.339248
685 2 0.21502 0.117945 0.366575
687 4 0.19633 0.106392 0.354643
686 4 0.233711 0.129498 0.378507
410 4 0.22272 0.142322 0.388841
409 2 0.241386 0.156405 0.397699
321 4 0.269417 0.0856898 0.381581
319 2 0.2667 0.09565 0.404353
419 4 0.382256 0.152191 0.374507
418 2 0.357604 0.148646 0.376723
420 4 0.332952 0.145101 0.378939
716 4 0.397128 0.162718 0.366138
256 2 0.47528 0.0894656 0.339098
762 4 0.475757 0.160738 0.398928
257 4 0.472456 0.110944 0.351583
760 2 0.472198 0.140713 0.384385
761 4 0.468639 0.120688 0.369841
515 4 0.476288 0.0850685 0.424815
390 4 0.0994154 0.224826 0.414628
388 2 0.109104 0.213648 0.39447
274 2 0.154395 0.221519 0.362274
276 4 0.132183 0.210039 0.362083
389 4 0.118793 0.202469 0.374312
473 4 0.22559 0.213465 0.34716
474 4 0.190419 0.246883 0.359282
472 2 0.208004 0.230174 0.353221
275 4 0.176606 0.232999 0.362465
708 4 0.240759 0.202651 0.349935
707 4 0.290514 0.205915 0.346121
651 4 0.257708 0.237767 0.398898
649 2 0.258086 0.21371 0.405701
706 2 0.265636 0.204283 0.348028
650 4 0.258464 0.189652 0.412505
411 4 0.260052 0.170487 0.406556
377 4 0.402121 0.225931 0.34636
717 4 0.408967 0.208664 0.350343
715 2 0.403047 0.185691 0.35824
376 2 0.388329 0.242442 0.333617
764 4 0.447495 0.238217 0.323226
1258 2 0.121405 0.312368 0.392918
1259 4 0.11743 0.3079 0.36864
1260 4 0.12538 0.316836 0.417196
696 4 0.0796298 0.30474 0.427465
509 4 0.217796 0.310674 0.376919
488 4 0.227375 0.292621 0.375505
508 2 0.230978 0.330438 0.369124
487 2 0.235385 0.269629 0.381198
489 4 0.243395 0.246638 0.38689
498 4 0.359419 0.254848 0.333411
267 4 0.360529 0.327817 0.355762
266 4 0.360251 0.280196 0.371022
585 4 0.372674 0.272751 0.385542
583 2 0.371553 0.256724 0.404701
265 2 0.36039 0.304007 0.363392
270 4 0.505325 0.285098 0.375085
304 2 0.484697 0.278613 0.408965
504 4 0.177246 0.409244 0.329856
510 4 0.244161 0.350203 0.36133
374 4 0.263905 0.349616 0.367951
373 2 0.264074 0.372881 0.358793
375 4 0.264242 0.396147 0.349635
3 3 0.265009 0.412729 0.360605
2924 4 0.500307 0.365586 0.332048
119 3 0.472611 0.414802 0.32676
2923 2 0.479698 0.35151 0.330527
2925 4 0.459089 0.337434 0.329005
751 2 0.473987 0.409952 0.369811
752 4 0.480709 0.404704 0.393315
561 4 0.494014 0.416288 0.400657
601 2 0.0816946 0.430014 0.345065
679 2 0.0354255 0.481917 0.382945
680 4 0.0452858 0.459971 0.376137
406 2 0.0315923 0.433338 0.408403
408 4 0.034042 0.44984 0.389779
603 4 0.0797034 0.439919 0.367937
549 4 0.0894183 0.452329 0.381116
547 2 0.105604 0.448139 0.399708
548 4 0.12179 0.44395 0.418299
502 2 0.181784 0.422919 0.35029
503 4 0.186323 0.436595 0.370724
634 2 0.191939 0.478727 0.359629
636 4 0.194073 0.453829 0.360471
635 4 0.189806 0.503625 0.358787
728 4 0.308466 0.435985 0.33549
2 3 0.297351 0.430251 0.352882
5 3 0.266081 0.440642 0.335359
1 1 0.274632 0.433106 0.355075
668 4 0.288588 0.45555 0.378668
4 3 0.270605 0.448588 0.371883
667 2 0.301478 0.476709 0.382028
594 4 0.458805 0.498887 0.344268
753 4 0.467265 0.4152 0.346306
731 4 0.0813603 0.0731829 0.425273
368 4 0.0619006 0.0770771 0.4221
367 2 0.0440485 0.0835378 0.438371
719 4 0.0226341 0.0794662 0.470848
341 4 0.173452 0.0767316 0.45189
2430 4 0.189549 0.0681918 0.44399
441 4 0.222354 0.0199127 0.449967
2428 2 0.1992 0.0455276 0.439705
2429 4 0.208852 0.0228635 0.43542
468 4 0.365154 0.0871258 0.443668
2878 2 0.460913 0.015302 0.44973
2880 4 0.478548 0.0280604 0.462036
642 4 0.492643 0.0435105 0.461013
640 2 0.493901 0.0629492 0.445337
369 4 0.0261964 0.0899985 0.454642
718 2 0.0246895 0.0854208 0.495045
259 2 0.0660709 0.16741 0.490129
1152 4 0.147017 0.12643 0.481518
342 4 0.143297 0.114134 0.465763
340 2 0.158375 0.0954326 0.458827
1150 2 0.165577 0.138845 0.492769
320 4 0.263982 0.10561 0.427126
725 4 0.265746 0.0947029 0.443524
724 2 0.266003 0.0995961 0.468043
726 4 0.26626 0.104489 0.492562
467 4 0.402461 0.120361 0.445762
466 2 0.383807 0.103743 0.444715
576 4 0.401018 0.136098 0.458433
574 2 0.423995 0.138683 0.448916
3158 4 0.49698 0.102147 0.439423
575 4 0.446972 0.141268 0.4394
516 4 0.446014 0.124785 0.427432
514 2 0.461151 0.104927 0.426124
260 4 0.0664964 0.184679 0.472052
471 4 0.058542 0.20301 0.466472
469 2 0.0704355 0.20958 0.445483
470 4 0.082329 0.21615 0.424493
616 2 0.0123105 0.246322 0.432584
617 4 0.036574 0.248447 0.438237
2455 2 0.406149 0.218789 0.440595
2456 4 0.388158 0.232092 0.429436
584 4 0.370433 0.240698 0.423861
2457 4 0.42414 0.205486 0.451754
695 4 0.0782192 0.260206 0.450167
694 2 0.0789245 0.282473 0.438816
878 4 0.0958781 0.254963 0.474213
326 4 0.128126 0.335473 0.413621
1010 4 0.441718 0.328054 0.461711
1009 2 0.450449 0.306189 0.453292
1011 4 0.45918 0.284324 0.444873
305 4 0.473838 0.284904 0.430591
407 4 0.0291427 0.416836 0.427027
709 2 0.129016 0.409235 0.488412
325 2 0.137753 0.35175 0.429979
327 4 0.147381 0.368026 0.446336
8 3 0.146411 0.369453 0.499408
7 3 0.156392 0.366183 0.46332
6 1 0.163643 0.36363 0.485001
9 3 0.169618 0.34146 0.488351
1191 4 0.203518 0.378584 0.487006
1189 2 0.228375 0.375906 0.486594
10 3 0.181629 0.377145 0.488536
1190 4 0.253231 0.373228 0.486183
803 4 0.261037 0.356104 0.493483
334 2 0.353843 0.418528 0.451285
335 4 0.376529 0.4194 0.461761
238 2 0.372752 0.394239 0.497199
240 4 0.379657 0.410881 0.479862
2507 4 0.46052 0.334133 0.467808
560 4 0.488801 0.391392 0.443712
559 2 0.491408 0.40384 0.422184
2506 2 0.472848 0.355059 0.461867
2508 4 0.485175 0.375985 0.455926
1382 4 0.0317829 0.445608 0.464567
1381 2 0.00696851 0.445233 0.467614
540 4 0.0389315 0.452014 0.48167
710 4 0.117271 0.430799 0.483695
569 4 0.12803 0.459535 0.42645
568 2 0.128607 0.451517 0.450126
570 4 0.129185 0.443499 0.473802
1446 4 0.254486 0.483785 0.488692
1394 4 0.246512 0.503198 0.489115
1444 2 0.273511 0.488706 0.504152
1399 2 0.322535 0.460149 0.435801
1401 4 0.327253 0.435728 0.438358
1400 4 0.317817 0.48457 0.433245
588 4 0.319271 0.496115 0.448893
336 4 0.331156 0.417657 0.440809
1182 4 0.220414 0.0658875 0.572144
1180 2 0.239807 0.0502741 0.569843
950 4 0.215386 0.0736876 0.55521
963 4 0.25089 0.0162884 0.570113
1181 4 0.2592 0.0346608 0.567541
961 2 0.274338 0.0076198 0.569615
841 2 0.329274 0.0713822 0.546414
1216 2 0.38217 0.0645654 0.519911
1218 4 0.400639 0.050038 0.511364
1217 4 0.363702 0.0790927 0.528458
842 4 0.352552 0.0668177 0.538508
720 4 0.026745 0.0913754 0.519242
1127 4 0.0167992 0.0796959 0.530378
1033 2 0.0582327 0.140104 0.549472
1034 4 0.0603128 0.140714 0.524563
261 4 0.0656454 0.15014 0.508205
1035 4 0.0561527 0.139494 0.574382
1030 2 0.134093 0.085209 0.547898
1032 4 0.11268 0.080967 0.560091
1154 4 0.101656 0.0952757 0.569772
1031 4 0.155506 0.0894511 0.535705
949 2 0.193351 0.0846687 0.550845
951 4 0.171316 0.0956498 0.546479
1151 4 0.184136 0.15126 0.50402
939 4 0.180826 0.142566 0.521872
937 2 0.183265 0.1534 0.544274
843 4 0.305997 0.0759466 0.55432
431 4 0.297409 0.0900129 0.541812
430 2 0.280374 0.099619 0.526233
432 4 0.263339 0.109225 0.510654
857 4 0.373931 0.153862 0.572751
899 4 0.378969 0.149943 0.552985
1272 4 0.121791 0.251804 0.53811
1270 2 0.128503 0.235602 0.555932
1271 4 0.135215 0.2194 0.573754
938 4 0.185704 0.164234 0.566676
898 2 0.384887 0.172007 0.542819
900 4 0.390805 0.194071 0.532653
872 4 0.394671 0.209005 0.54524
873 4 0.377577 0.252859 0.562134
871 2 0.386124 0.230932 0.553687
813 4 0.357594 0.256529 0.568069
811 2 0.346484 0.245936 0.587805
879 4 0.112033 0.253705 0.521522
877 2 0.103956 0.254334 0.497868
1239 4 0.289441 0.281905 0.567116
1204 2 0.376577 0.310856 0.578125
1206 4 0.355142 0.319315 0.56842
930 4 0.338383 0.329695 0.568349
1205 4 0.398012 0.302397 0.587829
952 2 0.435714 0.290696 0.578553
905 4 0.47655 0.284669 0.578241
953 4 0.459564 0.292746 0.57133
983 4 0.0518849 0.388611 0.564635
982 2 0.0273767 0.392663 0.567482
1041 4 0.070503 0.383396 0.570544
984 4 0.00286853 0.396715 0.570329
711 4 0.14076 0.387671 0.493129
896 4 0.193362 0.377844 0.507576
897 4 0.192626 0.395383 0.554401
895 2 0.192994 0.386613 0.530989
1137 4 0.194563 0.414636 0.557131
802 2 0.283386 0.358286 0.50448
804 4 0.305736 0.360469 0.515477
929 4 0.313705 0.355105 0.53305
928 2 0.326044 0.3424 0.5507
239 4 0.365848 0.377597 0.514536
1001 4 0.460925 0.383601 0.532462
926 4 0.473636 0.370166 0.52411
925 2 0.496314 0.360199 0.520715
1000 2 0.452591 0.389616 0.555255
1002 4 0.444257 0.395631 0.578049
1936 2 0.0373259 0.477914 0.562477
1937 4 0.0445819 0.48678 0.540252
539 4 0.0475817 0.475702 0.524853
538 2 0.0432566 0.463858 0.503261
2244 4 0.120369 0.492983 0.5557
383 4 0.122793 0.506836 0.540634
2242 2 0.1385 0.492274 0.572903
1171 2 0.247905 0.445613 0.577858
1173 4 0.223222 0.444226 0.581603
1160 4 0.210896 0.459569 0.588517
882 4 0.291386 0.453494 0.569112
880 2 0.292595 0.473909 0.554726
881 4 0.293805 0.494324 0.54034
1445 4 0.292536 0.493626 0.519611
1172 4 0.272588 0.447 0.574113
1455 4 0.357496 0.491019 0.549596
1953 4 0.362491 0.501276 0.567214
1185 4 0.00953655 0.0490734 0.643207
945 4 0.0271426 0.0434724 0.649222
943 2 0.0401007 0.0585807 0.664355
1058 4 0.113563 0.0195877 0.65357
1057 2 0.104241 0.0391268 0.641059
1155 4 0.0941866 0.0681902 0.61114
1059 4 0.0949195 0.0586658 0.628549
1153 2 0.0979211 0.081733 0.590456
1142 4 0.363972 0.0710815 0.662059
2282 4 0.475127 0.0325812 0.609098
2281 2 0.463719 0.0197662 0.59091
43 3 0.483947 0.0481325 0.617782
41 1 0.493311 0.0693602 0.618088
42 3 0.504719 0.0721714 0.637864
45 3 0.507796 0.0717145 0.600672
2283 4 0.452311 0.00695132 0.572721
1082 4 0.0552384 0.127825 0.590214
1081 2 0.0373701 0.142804 0.599245
1083 4 0.0195018 0.157782 0.608276
1199 4 0.00476374 0.170865 0.612147
1221 4 0.143003 0.0905325 0.668089
1219 2 0.163669 0.0953935 0.654881
1220 4 0.184335 0.100255 0.641672
1212 4 0.202689 0.107361 0.637019
1210 2 0.22302 0.113274 0.650317
1211 4 0.243352 0.119188 0.663615
1005 4 0.309911 0.0793568 0.608497
1004 4 0.314422 0.0948973 0.655813
1003 2 0.312166 0.0871271 0.632155
888 4 0.258278 0.128336 0.672801
886 2 0.277787 0.113018 0.669649
858 4 0.348607 0.171864 0.611935
856 2 0.361269 0.162863 0.592343
1024 2 0.389245 0.151582 0.666059
1141 2 0.369546 0.0954204 0.660744
1143 4 0.37512 0.119759 0.65943
44 3 0.476607 0.0854074 0.616717
909 4 0.144908 0.219175 0.591746
907 2 0.160973 0.234195 0.603642
798 4 0.318195 0.22513 0.608182
796 2 0.324853 0.20157 0.613257
797 4 0.331512 0.17801 0.618332
812 4 0.335374 0.235343 0.607542
1026 4 0.401282 0.171215 0.656322
3122 4 0.485454 0.228939 0.658197
947 4 0.183856 0.260921 0.630376
908 4 0.177038 0.249215 0.615537
946 2 0.199322 0.278082 0.639941
948 4 0.214788 0.295243 0.649506
1065 4 0.232802 0.293314 0.641422
1237 2 0.300002 0.281105 0.589765
1238 4 0.310563 0.280305 0.612415
792 4 0.324975 0.289979 0.622624
954 4 0.411865 0.288645 0.585777
790 2 0.34069 0.298785 0.639964
791 4 0.356406 0.307591 0.657303
904 2 0.487631 0.275162 0.598539
1281 4 0.0701655 0.361485 0.656196
894 4 0.0892323 0.364288 0.661133
1039 2 0.0838743 0.401169 0.581968
991 2 0.133514 0.409105 0.607461
992 4 0.15547 0.397178 0.608384
892 2 0.113733 0.363055 0.66597
1135 2 0.183603 0.408515 0.578755
1136 4 0.172642 0.402395 0.600379
1028 4 0.22686 0.379539 0.671591
1027 2 0.25049 0.386623 0.667515
1029 4 0.27412 0.393708 0.663439
1139 4 0.267374 0.411682 0.669111
1910 4 0.453863 0.403459 0.595129
1909 2 0.435395 0.414706 0.607684
1911 4 0.416928 0.425953 0.62024
1938 4 0.0300699 0.469048 0.584701
936 4 0.01735 0.476913 0.597367
2022 4 0.0461897 0.472877 0.662013
2243 4 0.156631 0.491565 0.590107
1040 4 0.0972455 0.418941 0.593392
993 4 0.111558 0.421032 0.606538
1161 4 0.169687 0.484185 0.602539
1159 2 0.190291 0.471877 0.595528
889 2 0.374572 0.494523 0.646916
1269 4 0.410036 0.479767 0.659153
1267 2 0.417082 0.459392 0.646488
890 4 0.389825 0.479452 0.659776
1951 2 0.362132 0.499648 0.592162
1952 4 0.361773 0.49802 0.61711
1268 4 0.424127 0.439016 0.633824
944 4 0.0530588 0.0736889 0.679488
1075 2 0.0770138 0.0750008 0.711525
1077 4 0.0853623 0.066894 0.733656
825 4 0.100199 0.011332 0.664784
1283 4 0.140336 0.0523145 0.70665
1282 2 0.151892 0.0704482 0.719408
1203 4 0.0926968 0.0679658 0.751442
1201 2 0.110123 0.0500626 0.750453
823 2 0.0853949 0.00247497 0.682883
831 4 0.344495 0.0796894 0.708278
1076 4 0.0686653 0.0831076 0.689395
3387 4 0.00745697 0.130992 0.731652
35 3 0.080561 0.169274 0.745544
32 3 0.104967 0.147954 0.727032
31 1 0.0984365 0.155347 0.747813
1284 4 0.163449 0.0885819 0.732167
887 4 0.297296 0.0976993 0.666497
830 4 0.30559 0.110914 0.704798
829 2 0.325042 0.0953016 0.706538
1025 4 0.377208 0.131948 0.675795
1105 2 0.0441704 0.16835 0.74753
851 4 0.00268955 0.179082 0.741601
1107 4 0.0226619 0.180081 0.742538
1208 4 0.0692272 0.239566 0.701389
821 4 0.0886489 0.245567 0.697023
822 4 0.11613 0.226389 0.73414
1278 4 0.126953 0.212218 0.725464
820 2 0.102389 0.235978 0.715582
1276 2 0.148219 0.205146 0.736551
1277 4 0.169485 0.198074 0.747638
1131 4 0.178894 0.180861 0.744178
977 4 0.299106 0.224306 0.726447
916 2 0.31598 0.23352 0.704342
918 4 0.313132 0.212467 0.717527
976 2 0.287345 0.216736 0.747172
3121 2 0.481172 0.249811 0.671282
3357 4 0.489556 0.210576 0.665481
1263 4 0.445039 0.221878 0.754983
1243 2 0.00203978 0.287234 0.709137
3188 4 0.0298075 0.260802 0.734076
1207 2 0.0525632 0.25617 0.709862
1209 4 0.0358992 0.272773 0.718336
1244 4 0.0266987 0.289666 0.712485
1063 2 0.245547 0.294813 0.662881
1240 2 0.249693 0.296077 0.740832
1064 4 0.258291 0.296311 0.684341
1241 4 0.267587 0.28479 0.727505
917 4 0.318827 0.254573 0.691156
1097 4 0.318892 0.272844 0.684018
1096 2 0.2972 0.284007 0.678538
1098 4 0.275508 0.295169 0.673058
1008 4 0.320015 0.262822 0.746175
3123 4 0.47689 0.270683 0.684367
1279 2 0.0523113 0.364267 0.673478
3275 4 0.0346573 0.375308 0.708459
1280 4 0.034457 0.367049 0.69076
3274 2 0.0472438 0.38859 0.7255
816 4 0.0788286 0.411073 0.737974
893 4 0.138233 0.361822 0.670806
940 2 0.160127 0.396962 0.728559
942 4 0.14768 0.417664 0.735015
815 4 0.127909 0.418247 0.731621
814 2 0.103369 0.41466 0.734798
1068 4 0.207848 0.373394 0.677271
1067 4 0.190803 0.367608 0.723926
1066 2 0.199326 0.370501 0.700598
941 4 0.172573 0.37626 0.722103
1229 4 0.364336 0.371823 0.705546
1228 2 0.362548 0.394271 0.694682
2021 4 0.044995 0.471943 0.711997
1981 2 0.0175068 0.49384 0.733459
2020 2 0.0455924 0.47241 0.687005
1983 4 0.0336931 0.489054 0.715012
1138 2 0.278802 0.432064 0.678007
1140 4 0.290231 0.452446 0.686903
1989 4 0.292605 0.44994 0.707866
1987 2 0.301653 0.461709 0.727986
1988 4 0.310702 0.473478 0.748105
1230 4 0.36076 0.41672 0.683817
1100 4 0.435952 0.49278 0.742472
864 4 0.0574877 0.0575285 0.830972
862 2 0.051447 0.0748199 0.813951
2049 4 0.145558 0.0320723 0.757797
2047 2 0.161507 0.0136282 0.763333
1202 4 0.127549 0.0321594 0.749464
1147 2 0.207523 0.0537023 0.814562
1148 4 0.184459 0.0604049 0.82151
1149 4 0.230588 0.0469998 0.807614
1049 4 0.240516 0.0602279 0.820309
1048 2 0.260769 0.0501578 0.830967
817 2 0.330332 0.0779416 0.804314
818 4 0.344896 0.0579283 0.807856
965 4 0.363319 0.0591896 0.816079
964 2 0.379028 0.0739434 0.828757
844 2 0.504882 0.0271875 0.7671
846 4 0.485522 0.0128752 0.760351
1106 4 0.0656789 0.156618 0.752523
863 4 0.0454064 0.0921114 0.796931
832 2 0.0619616 0.12588 0.780953
833 4 0.0510756 0.110494 0.797384
834 4 0.0728476 0.141265 0.764523
33 3 0.0926002 0.137026 0.7608
34 3 0.116126 0.166706 0.757634
1073 4 0.123118 0.161606 0.776151
1227 4 0.175315 0.10218 0.740724
1225 2 0.19 0.109305 0.759665
1226 4 0.204684 0.11643 0.778607
840 4 0.221518 0.125774 0.786778
838 2 0.238666 0.141356 0.796177
839 4 0.255813 0.156938 0.805576
959 4 0.272011 0.164776 0.81355
819 4 0.315768 0.0979548 0.800772
1085 4 0.326619 0.112888 0.806561
1084 2 0.330437 0.136998 0.811978
1086 4 0.334254 0.161108 0.817394
3268 2 0.504797 0.154991 0.786244
3270 4 0.489108 0.152956 0.766882
1146 4 0.471467 0.16259 0.769086
779 4 0.0620244 0.222081 0.82169
1214 4 0.0530485 0.23855 0.817008
1213 2 0.0305421 0.23945 0.806153
1215 4 0.00803562 0.24035 0.795298
3189 4 0.00548526 0.245918 0.775156
1072 2 0.120776 0.170494 0.799403
778 2 0.0822832 0.207444 0.820968