ITEM: TIMESTEP
3310000
ITEM: NUMBER OF ATOMS
4590
ITEM: BOX BOUNDS pp pp pp
-9.9985700000000008e+00 9.9985700000000008e+00
-9.9985700000000008e+00 9.9985700000000008e+00
-9.9985700000000008e+00 9.9985700000000008e+00
ITEM: ATOMS id type xs ys zs
1666 2 0.0672089 0.0611729 0.0760277
701 4 0.0227417 0.0747964 0.99252
1668 4 0.078262 0.0623212 0.0536294
463 2 0.0174169 0.0457523 0.000905317
464 4 0.0128173 0.023647 0.990164
465 4 0.0220165 0.0678575 0.0116469
3290 4 0.0936034 0.0537201 0.0447854
3289 2 0.104116 0.0535874 0.0220995
3291 4 0.114628 0.0534547 0.999414
565 2 0.134197 0.998014 0.999533
490 2 0.303894 0.0169516 0.0468186
491 4 0.312681 0.0397912 0.0416888
492 4 0.295106 0.994112 0.0519485
1475 4 0.320682 0.0595976 0.0916473
986 4 0.293399 0.0532973 0.993653
359 4 0.251813 0.135172 0.980451
462 4 0.317306 0.168235 0.0787021
2808 4 0.00797624 0.265949 0.0488929
505 2 0.14739 0.240104 0.0488833
506 4 0.162975 0.2238 0.059674
915 4 0.134844 0.252938 0.0182336
507 4 0.131804 0.256408 0.0380926
737 4 0.178115 0.210916 0.0602681
736 2 0.199964 0.200486 0.0540233
738 4 0.221814 0.190056 0.0477785
354 4 0.230131 0.187529 0.0300943
460 2 0.308281 0.172712 0.0558178
352 2 0.254385 0.181963 0.0325353
461 4 0.299256 0.177189 0.0329335
353 4 0.278639 0.176398 0.0349763
665 4 0.351402 0.199142 0.0282546
664 2 0.342689 0.18471 0.00978892
2807 4 0.0286849 0.267053 0.00338856
2806 2 0.0183306 0.266501 0.0261407
293 4 0.115421 0.25864 0.0633363
287 4 0.170233 0.291696 0.0290695
286 2 0.158258 0.313521 0.0267265
292 2 0.109656 0.282143 0.0696254
288 4 0.146283 0.335345 0.0243836
294 4 0.103892 0.305647 0.0759144
355 2 0.228718 0.26193 0.0174916
356 4 0.253305 0.261058 0.0219549
483 4 0.262875 0.277762 0.0162834
612 4 0.262753 0.313961 0.0523763
610 2 0.260571 0.298427 0.0718465
609 4 0.268836 0.332966 0.0430825
482 4 0.309344 0.295083 0.0227147
481 2 0.28611 0.286423 0.019499
571 2 0.33662 0.293452 0.998951
573 4 0.36124 0.290674 0.995583
990 4 0.150362 0.350915 0.0331201
988 2 0.168464 0.367759 0.0294099
1289 4 0.186062 0.404731 0.0224927
989 4 0.186566 0.384603 0.0256996
1288 2 0.20261 0.405325 0.00375764
1440 4 0.208105 0.417695 0.0763876
607 2 0.266437 0.356739 0.0504487
250 2 0.295589 0.402199 0.0676014
252 4 0.278668 0.384036 0.070595
608 4 0.264037 0.380512 0.0578149
251 4 0.31251 0.420362 0.0646078
740 4 0.335862 0.326267 0.072609
741 4 0.37026 0.33248 0.0368471
739 2 0.353061 0.329374 0.0547281
226 2 0.394269 0.402745 0.0312131
227 4 0.400502 0.380965 0.020633
1305 4 0.412744 0.36989 0.0109315
1046 4 0.499293 0.365353 0.00192202
1045 2 0.497878 0.366385 0.0268642
280 2 0.467186 0.349004 0.0750196
282 4 0.490028 0.356975 0.0687068
281 4 0.444343 0.341033 0.0813324
1047 4 0.496463 0.367418 0.0518063
551 4 0.0243237 0.49827 0.0227637
552 4 0.00319504 0.483764 0.065704
550 2 0.0137594 0.491017 0.0442339
313 2 0.015867 0.444982 0.0745593
314 4 0.00284323 0.466326 0.0746862
315 4 0.0288907 0.423639 0.0744325
1788 4 0.12883 0.485744 0.0359666
1786 2 0.152585 0.478504 0.0330545
1767 4 0.110668 0.48981 0.0397893
243 4 0.202006 0.419125 0.0573128
241 2 0.191498 0.44135 0.0527496
242 4 0.18099 0.463575 0.0481865
1787 4 0.176339 0.471264 0.0301424
524 4 0.327785 0.430409 0.0549295
271 2 0.290198 0.476016 0.0667248
272 4 0.300365 0.458478 0.0813603
228 4 0.388035 0.424526 0.0417931
525 4 0.377174 0.423846 0.0592148
523 2 0.35248 0.427128 0.0570721
1583 4 0.489368 0.477274 0.0493259
1582 2 0.475168 0.48892 0.0662942
1667 4 0.0561557 0.0600246 0.0984261
16 1 0.0336807 0.0574725 0.120391
19 3 0.0215492 0.0686352 0.13672
17 3 0.0437881 0.0729787 0.106733
20 3 0.0197745 0.0444339 0.107931
18 3 0.0500776 0.044365 0.130278
2480 4 0.0117986 0.0758001 0.152484
1422 4 0.997135 0.0621575 0.1523
1506 4 0.226471 0.0216299 0.165578
652 2 0.26451 0.073739 0.150562
654 4 0.274924 0.0651616 0.129511
1476 4 0.276294 0.0720507 0.111021
1474 2 0.298488 0.0658241 0.101334
486 4 0.330908 0.00561749 0.140404
297 4 0.38519 0.0367956 0.133796
295 2 0.402337 0.0533076 0.126145
484 2 0.349219 0.0201066 0.131462
485 4 0.36753 0.0345958 0.12252
296 4 0.419483 0.0698195 0.118495
745 2 0.493465 0.0284635 0.0918865
746 4 0.48332 0.0466368 0.105743
557 4 0.429826 0.0668364 0.101927
450 4 0.0752725 0.113243 0.102887
236 4 0.123829 0.121367 0.147834
449 4 0.105589 0.127403 0.14005
448 2 0.0904308 0.120323 0.121468
235 2 0.138568 0.136497 0.161215
28 3 0.247452 0.144779 0.16933
580 2 0.306636 0.112961 0.138349
581 4 0.28402 0.122721 0.134058
30 3 0.273905 0.137606 0.143514
26 1 0.261399 0.153974 0.153226
582 4 0.329253 0.103201 0.142639
758 4 0.346071 0.107929 0.153053
556 2 0.449203 0.0806556 0.10959
558 4 0.46858 0.0944749 0.117254
771 4 0.472562 0.105139 0.133381
769 2 0.466948 0.11705 0.154636
477 4 0.239474 0.183146 0.135894
371 4 0.1991 0.237157 0.155491
476 4 0.212076 0.222596 0.149815
475 2 0.225775 0.202871 0.142854
29 3 0.248772 0.164901 0.137115
27 3 0.275375 0.169208 0.163314
756 4 0.354216 0.242634 0.128234
754 2 0.352809 0.224644 0.145542
255 4 0.356221 0.252463 0.110301
624 4 0.433357 0.230075 0.170219
629 4 0.431316 0.221384 0.153284
628 2 0.424443 0.228977 0.130475
456 4 0.0980187 0.316611 0.0917877
611 4 0.25839 0.282892 0.0913167
279 4 0.289159 0.274313 0.150635
277 2 0.275925 0.280261 0.130272
278 4 0.26269 0.286208 0.109909
253 2 0.380557 0.251146 0.104713
254 4 0.404892 0.249829 0.0991246
630 4 0.41757 0.23657 0.107665
619 2 0.0325475 0.36831 0.139806
620 4 0.0274655 0.392179 0.134366
621 4 0.0376296 0.34444 0.145246
454 2 0.110957 0.337635 0.0878193
455 4 0.123895 0.35866 0.0838509
537 4 0.130116 0.401887 0.135515
535 2 0.130503 0.388353 0.114494
536 4 0.130891 0.374818 0.0934743
647 4 0.133082 0.385741 0.148438
625 2 0.206524 0.387617 0.152816
627 4 0.212218 0.406206 0.137094
626 4 0.200831 0.369027 0.168539
1439 4 0.197249 0.409493 0.124508
1438 2 0.202677 0.413594 0.100448
301 2 0.321048 0.409326 0.135138
386 4 0.325756 0.329498 0.0897077
385 2 0.326394 0.349944 0.104086
387 4 0.327032 0.37039 0.118464
302 4 0.326536 0.384983 0.133562
670 2 0.411533 0.352128 0.104934
12 3 0.373996 0.353266 0.130268
11 1 0.368303 0.375519 0.131503
15 3 0.346742 0.378137 0.124654
672 4 0.390612 0.351855 0.118625
13 3 0.370549 0.382629 0.153476
14 3 0.382507 0.387669 0.117754
495 4 0.387639 0.401089 0.105208
671 4 0.432453 0.352402 0.0912434
1431 4 0.146568 0.483015 0.14331
1620 4 0.150923 0.501946 0.13976
1429 2 0.15362 0.466815 0.161002
1574 4 0.250754 0.466457 0.129863
639 4 0.25567 0.455852 0.14567
638 4 0.305118 0.450645 0.140335
637 2 0.280394 0.453248 0.143003
303 4 0.31556 0.433669 0.136714
659 4 0.321755 0.433098 0.155413
1559 4 0.38248 0.494296 0.124212
493 2 0.397244 0.420978 0.116928
494 4 0.406849 0.440866 0.128648
688 2 0.166617 0.0440107 0.207184
690 4 0.155669 0.0662868 0.2102
674 4 0.150645 0.0846712 0.212015
689 4 0.177565 0.0217347 0.204168
1505 4 0.191176 0.00953074 0.198873
1504 2 0.208823 0.0155803 0.182226
722 4 0.192827 0.081519 0.245116
653 4 0.254095 0.0823165 0.171612
693 4 0.264266 0.0881599 0.185772
22 3 0.384313 0.0688065 0.225676
698 4 0.401628 0.0706507 0.235443
697 2 0.404783 0.0475683 0.244522
699 4 0.407939 0.024486 0.253601
349 2 0.480705 0.0672194 0.199544
1518 4 0.412893 0.00513034 0.25225
511 2 0.0127986 0.122795 0.220266
513 4 0.0350008 0.133272 0.225007
578 4 0.0444623 0.149046 0.231465
2479 2 0.00694071 0.0927151 0.170245
237 4 0.153307 0.151626 0.174596
673 2 0.143079 0.108135 0.216186
675 4 0.135513 0.131598 0.220357
546 4 0.119494 0.126208 0.230766
544 2 0.114566 0.142596 0.248995
691 2 0.272571 0.0989702 0.206733
1701 4 0.300772 0.109959 0.231616
692 4 0.280876 0.109781 0.227693
1699 2 0.323863 0.10475 0.223562
757 2 0.352396 0.102993 0.176735
333 4 0.410864 0.0893469 0.230145
21 1 0.380223 0.0908187 0.220396
23 3 0.360765 0.0976007 0.231063
25 3 0.377812 0.0927979 0.197837
1700 4 0.346953 0.0995408 0.215508
759 4 0.358722 0.0980581 0.200416
24 3 0.398116 0.103712 0.227607
350 4 0.459401 0.0788476 0.205551
331 2 0.435619 0.0893647 0.226627
332 4 0.460374 0.0893825 0.223109
770 4 0.461333 0.128961 0.175891
312 4 0.479918 0.12799 0.182813
310 2 0.474887 0.140177 0.204058
311 4 0.469857 0.152364 0.225303
577 2 0.0419919 0.173926 0.231727
529 2 0.0192992 0.224853 0.222897
530 4 0.0431104 0.217541 0.225074
579 4 0.0395216 0.198806 0.231989
338 4 0.0835114 0.250773 0.174527
362 4 0.145907 0.224819 0.200003
370 2 0.180515 0.230032 0.170624
372 4 0.161929 0.222908 0.185757
755 4 0.351402 0.206655 0.162851
622 2 0.441033 0.250302 0.182753
339 4 0.0481166 0.285524 0.168179
704 4 0.0365054 0.287594 0.18398
337 2 0.065814 0.268149 0.171353
703 2 0.0258856 0.309549 0.18949
705 4 0.0152657 0.331505 0.194999
361 2 0.135799 0.246527 0.207198
363 4 0.12569 0.268235 0.214393
395 4 0.108615 0.278212 0.219808
394 2 0.100106 0.269605 0.241687
285 4 0.284922 0.272423 0.170417
283 2 0.274621 0.27166 0.193187
284 4 0.26432 0.270897 0.215957
528 4 0.413928 0.327065 0.20078
526 2 0.428497 0.307733 0.194519
623 4 0.448708 0.27053 0.195288
527 4 0.443065 0.288401 0.188257
542 4 0.41914 0.328491 0.22068
2615 4 0.0105979 0.340854 0.212137
264 4 0.0112548 0.421179 0.231722
263 4 0.060666 0.413535 0.230817
262 2 0.0359604 0.417357 0.23127
648 4 0.102643 0.374443 0.186471
300 4 0.0994505 0.366483 0.205035
646 2 0.117862 0.380092 0.167454
298 2 0.0999924 0.359668 0.229085
734 4 0.145809 0.380558 0.219108
733 2 0.151516 0.390889 0.241151
416 4 0.199765 0.411789 0.21953
290 4 0.208758 0.397808 0.230586
597 4 0.361775 0.394596 0.173967
345 4 0.331769 0.350248 0.211404
596 4 0.331643 0.370229 0.205575
645 4 0.378402 0.401305 0.160094
595 2 0.346709 0.382412 0.189771
343 2 0.342645 0.34391 0.233008
541 2 0.423088 0.335047 0.244483
1430 4 0.160672 0.450615 0.178694
415 2 0.18583 0.427551 0.206018
417 4 0.171896 0.443313 0.192507
438 4 0.264379 0.473372 0.222275
436 2 0.271066 0.471913 0.246323
658 2 0.331776 0.444763 0.175127
643 2 0.389129 0.42004 0.172708
644 4 0.399857 0.438775 0.185322
660 4 0.341797 0.456429 0.194842
231 4 0.35298 0.472053 0.193394
447 4 0.414111 0.439515 0.200698
229 2 0.363169 0.494833 0.19496
445 2 0.423009 0.441852 0.223948
446 4 0.431907 0.444189 0.247197
1402 2 0.037068 0.00339983 0.259832
1403 4 0.0277508 0.0249566 0.268415
233 4 0.0270605 0.0320469 0.286628
232 2 0.043533 0.0455259 0.299748
234 4 0.0600056 0.0590049 0.312869
317 4 0.0625205 0.0754653 0.300591
1405 2 0.208123 0.0290136 0.291056
1406 4 0.199066 0.0509345 0.283143
721 2 0.180979 0.0842495 0.266964
1407 4 0.21718 0.00709264 0.29897
599 4 0.15643 0.0897154 0.302297
1517 4 0.442798 0.999934 0.291992
743 4 0.485505 0.00922963 0.271714
425 4 0.476425 0.0233818 0.281327
424 2 0.482334 0.0402239 0.298837
258 4 0.485953 0.0752426 0.325556
426 4 0.488243 0.057066 0.316347
1516 2 0.427846 0.00253217 0.272121
316 2 0.0706091 0.0970338 0.290868
318 4 0.0786978 0.118602 0.281144
393 4 0.103302 0.131284 0.328661
392 4 0.105234 0.158019 0.286444
545 4 0.109637 0.158984 0.267225
391 2 0.104268 0.144652 0.307552
723 4 0.169131 0.08698 0.288812
403 2 0.219178 0.138632 0.301185
598 2 0.172296 0.0963226 0.320458
404 4 0.228955 0.118653 0.312607
405 4 0.209402 0.15861 0.289763
521 4 0.488411 0.155757 0.234316
401 4 0.205813 0.177764 0.285874
400 2 0.199331 0.196626 0.300954
402 4 0.192849 0.215488 0.316034
763 2 0.452154 0.216277 0.333598
765 4 0.456219 0.191623 0.334522
442 2 0.0667738 0.26256 0.286275
444 4 0.043676 0.254684 0.291719
443 4 0.0898715 0.270437 0.280831
396 4 0.0915973 0.260998 0.263566
497 4 0.305873 0.256952 0.3432
496 2 0.330472 0.254135 0.339717
378 4 0.373945 0.260391 0.337709
366 4 0.0505197 0.359341 0.307884
749 4 0.0645553 0.349392 0.298798
364 2 0.0293674 0.366625 0.319051
748 2 0.0743387 0.345038 0.276204
777 4 0.0775056 0.401175 0.312355
750 4 0.0841221 0.340683 0.25361
299 4 0.100534 0.352852 0.253136
735 4 0.157222 0.401219 0.263193
677 4 0.1695 0.406096 0.278056
289 2 0.215411 0.40067 0.254517
291 4 0.222065 0.403533 0.278449
414 4 0.24099 0.402042 0.280893
412 2 0.245938 0.410993 0.303709
727 2 0.322344 0.406344 0.32437
729 4 0.338423 0.388321 0.317903
344 4 0.35352 0.337573 0.254612
308 4 0.342782 0.385555 0.298434
309 4 0.343755 0.343421 0.271518
307 2 0.343268 0.364488 0.284976
2860 2 0.496531 0.387518 0.260145
118 3 0.49028 0.379074 0.311914
543 4 0.427036 0.341604 0.268287
615 4 0.420972 0.359648 0.275636
614 4 0.441014 0.344203 0.318769
613 2 0.430993 0.351926 0.297202
2862 4 0.482854 0.40416 0.272839
120 3 0.493265 0.411225 0.292547
713 4 0.471801 0.416833 0.285087
116 1 0.490848 0.402228 0.313328
602 4 0.0756353 0.414248 0.327594
775 2 0.0928525 0.408073 0.293859
1757 4 0.114056 0.434652 0.275552
776 4 0.108199 0.414971 0.275364
1756 2 0.121668 0.456914 0.284019
1758 4 0.129281 0.479175 0.292485
1775 4 0.137646 0.48294 0.309558
676 2 0.175165 0.425575 0.292674
678 4 0.180831 0.445054 0.307291
768 4 0.17851 0.460131 0.292366
766 2 0.191488 0.480728 0.286665
413 4 0.250887 0.419943 0.326525
437 4 0.277753 0.470453 0.270372
1437 4 0.293793 0.501758 0.30718
433 2 0.296646 0.452923 0.306734
435 4 0.285815 0.461468 0.28588
434 4 0.307477 0.444379 0.327587
712 2 0.450977 0.423423 0.272918
714 4 0.430152 0.430014 0.260748
2757 4 0.00448174 0.0774173 0.387776
606 4 0.140286 0.0499948 0.330215
730 2 0.0945035 0.0834585 0.403613
604 2 0.12959 0.0630608 0.348656
605 4 0.118894 0.0761269 0.367096
683 4 0.255419 0.0727337 0.372365
249 4 0.283448 0.0206649 0.392947
684 4 0.265742 0.0254011 0.384766
682 2 0.260581 0.0490674 0.378566
247 2 0.307868 0.0246909 0.396505
633 4 0.341742 0.0438184 0.393355
248 4 0.332287 0.0287169 0.400063
631 2 0.350644 0.063059 0.406611
632 4 0.359545 0.0822996 0.419868
1747 2 0.496528 0.999101 0.342488
1749 4 0.505648 0.0218382 0.347491
2586 4 0.00380693 0.144039 0.388055
2584 2 0.00282868 0.119581 0.393158
2585 4 0.00185044 0.0951229 0.39826
399 4 0.0986129 0.132725 0.347639
732 4 0.104416 0.0792831 0.381041
397 2 0.112824 0.140815 0.366553
398 4 0.127036 0.148906 0.385467
600 4 0.188162 0.10293 0.338618
685 2 0.211369 0.120139 0.366608
687 4 0.189918 0.111514 0.357087
686 4 0.23282 0.128763 0.376129
410 4 0.226073 0.144989 0.385502
409 2 0.244105 0.16033 0.393545
321 4 0.256043 0.0859103 0.386618
319 2 0.260917 0.0970309 0.408476
419 4 0.388155 0.154182 0.373567
418 2 0.363689 0.150873 0.377525
420 4 0.339224 0.147563 0.381482
716 4 0.404865 0.163517 0.366042
256 2 0.475403 0.093244 0.339334
762 4 0.469297 0.163561 0.400835
257 4 0.464853 0.111245 0.353112
760 2 0.470477 0.145298 0.383798
761 4 0.471657 0.127035 0.366761
515 4 0.477489 0.0835347 0.41698
390 4 0.0869926 0.211097 0.415133
388 2 0.102493 0.207894 0.395777
274 2 0.152421 0.223902 0.363241
276 4 0.131848 0.209724 0.364192
389 4 0.117992 0.204691 0.37642
473 4 0.224734 0.213529 0.347824
474 4 0.187461 0.246577 0.352218
472 2 0.206097 0.230053 0.350021
275 4 0.172994 0.238081 0.36229
708 4 0.240462 0.203211 0.337945
707 4 0.288499 0.209612 0.35028
651 4 0.252794 0.234222 0.400949
649 2 0.259626 0.211409 0.40857
706 2 0.26448 0.206411 0.344112
650 4 0.266458 0.188597 0.416191
411 4 0.262136 0.175671 0.401589
377 4 0.411641 0.228374 0.345097
717 4 0.402642 0.211072 0.350737
715 2 0.403754 0.187294 0.358389
376 2 0.392793 0.244383 0.341403
764 4 0.44809 0.240931 0.332675
1258 2 0.129244 0.312718 0.389207
1259 4 0.118139 0.310921 0.366877
1260 4 0.140349 0.314515 0.411537
696 4 0.0736075 0.304219 0.43714
509 4 0.220938 0.309222 0.370762
488 4 0.232103 0.293088 0.370555
508 2 0.236453 0.328534 0.367369
487 2 0.239779 0.270968 0.379329
489 4 0.247455 0.248849 0.388102
498 4 0.355071 0.251318 0.336235
267 4 0.361287 0.3254 0.354248
266 4 0.366999 0.280389 0.375275
585 4 0.37725 0.265007 0.38044
583 2 0.375525 0.255562 0.403526
265 2 0.364143 0.302895 0.364761
270 4 0.504139 0.282182 0.379078
304 2 0.487851 0.278574 0.409165
504 4 0.174794 0.407147 0.3372
510 4 0.251968 0.347846 0.363976
374 4 0.269801 0.3524 0.367684
373 2 0.264218 0.375705 0.360552
375 4 0.258635 0.399011 0.35342
3 3 0.263305 0.414796 0.364643
2924 4 0.496276 0.361253 0.325507
119 3 0.471319 0.410047 0.323119
2923 2 0.475117 0.348368 0.328889
2925 4 0.453958 0.335483 0.332272
751 2 0.47824 0.410856 0.366033
752 4 0.485496 0.407791 0.389763
561 4 0.497568 0.412583 0.404443
601 2 0.0755789 0.430587 0.34652
679 2 0.0368058 0.486848 0.381477
680 4 0.0436446 0.463222 0.376982
406 2 0.0306281 0.434242 0.408516
408 4 0.0343212 0.450544 0.389921
603 4 0.0755225 0.446927 0.365445
549 4 0.0916491 0.451819 0.376074
547 2 0.0997882 0.446697 0.399155
548 4 0.107927 0.441575 0.422235
502 2 0.182402 0.422625 0.355304
503 4 0.19001 0.438102 0.373408
634 2 0.193665 0.476563 0.357507
636 4 0.192513 0.451677 0.359644
635 4 0.194818 0.501448 0.355369
728 4 0.306265 0.424366 0.330836
2 3 0.295577 0.42595 0.348934
5 3 0.26314 0.434665 0.332661
1 1 0.273637 0.431771 0.352663
668 4 0.287994 0.453947 0.380669
4 3 0.27308 0.451523 0.364827
667 2 0.303792 0.47326 0.379056
594 4 0.457042 0.4972 0.346509
753 4 0.470984 0.413922 0.342303
731 4 0.084591 0.0876339 0.426185
368 4 0.0661465 0.0810706 0.42639
367 2 0.0462108 0.0852761 0.440884
719 4 0.0224677 0.0731398 0.466953
341 4 0.174752 0.0753405 0.448942
2430 4 0.188309 0.0618342 0.44544
441 4 0.230531 0.0207165 0.453687
2428 2 0.201492 0.0407642 0.442711
2429 4 0.214675 0.0196942 0.439983
468 4 0.363398 0.085762 0.439688
2878 2 0.459858 0.0179788 0.445422
2880 4 0.475361 0.0313925 0.459737
642 4 0.489345 0.0445553 0.465393
640 2 0.490101 0.0629757 0.448502
369 4 0.0262751 0.0894816 0.455377
718 2 0.021808 0.0808772 0.49072
259 2 0.0595693 0.169371 0.488871
1152 4 0.144919 0.130843 0.478246
342 4 0.146897 0.109429 0.472664
340 2 0.160824 0.0923848 0.460803
1150 2 0.162475 0.139905 0.493571
320 4 0.265791 0.108152 0.430333
725 4 0.277808 0.100002 0.443478
724 2 0.271218 0.101267 0.467565
726 4 0.264629 0.102532 0.491651
467 4 0.392628 0.125892 0.445682
466 2 0.378013 0.105827 0.442685
576 4 0.40079 0.141777 0.456541
574 2 0.424174 0.139995 0.447872
3158 4 0.498069 0.0986688 0.437074
575 4 0.447559 0.138213 0.439203
516 4 0.446082 0.120346 0.429599
514 2 0.461786 0.101941 0.42329
260 4 0.0635659 0.184141 0.469096
471 4 0.0619917 0.204353 0.467204
469 2 0.0655607 0.212401 0.443802
470 4 0.0691297 0.220449 0.420399
616 2 0.0147739 0.248481 0.42741
617 4 0.0390277 0.252152 0.432253
2455 2 0.401293 0.217061 0.441116
2456 4 0.385527 0.229463 0.42619
584 4 0.3738 0.246117 0.426613
2457 4 0.41706 0.204659 0.456042
695 4 0.0778792 0.254995 0.444851
694 2 0.0757434 0.279607 0.440996
878 4 0.109937 0.249355 0.472853
326 4 0.135061 0.334167 0.411015
1010 4 0.442877 0.323576 0.461787
1009 2 0.455465 0.303559 0.453659
1011 4 0.468053 0.283543 0.445531
305 4 0.482048 0.289011 0.431133
407 4 0.0269349 0.41794 0.427111
709 2 0.119298 0.411209 0.491301
325 2 0.139142 0.351119 0.428936
327 4 0.143223 0.36807 0.446857
8 3 0.145334 0.378261 0.498698
7 3 0.154126 0.365808 0.464342
6 1 0.160303 0.365398 0.486497
9 3 0.159842 0.343448 0.494007
1191 4 0.20358 0.377158 0.487494
1189 2 0.228126 0.373572 0.484363
10 3 0.181335 0.373882 0.488578
1190 4 0.252672 0.369987 0.481232
803 4 0.262116 0.371676 0.50004
334 2 0.35588 0.415973 0.452764
335 4 0.380216 0.413698 0.458032
238 2 0.376456 0.391651 0.497249
240 4 0.381761 0.405217 0.476927
2507 4 0.458004 0.335925 0.462239
560 4 0.477354 0.389147 0.443722
559 2 0.487461 0.400865 0.424082
2506 2 0.472509 0.35588 0.458169
2508 4 0.487015 0.375835 0.454099
1382 4 0.0340894 0.447061 0.465737
1381 2 0.00909114 0.446623 0.466007
540 4 0.0456301 0.452553 0.481433
710 4 0.11037 0.433691 0.484972
569 4 0.119499 0.455915 0.425808
568 2 0.122103 0.449772 0.449904
570 4 0.124708 0.443629 0.474001
1446 4 0.25186 0.486986 0.491734
1394 4 0.249091 0.505813 0.484657
1444 2 0.27251 0.487776 0.505809
1399 2 0.325018 0.459317 0.438069
1401 4 0.326419 0.43439 0.436706
1400 4 0.323618 0.484244 0.439432
588 4 0.315896 0.500772 0.445878
336 4 0.331543 0.418247 0.447495
1182 4 0.21487 0.0700375 0.572909
1180 2 0.234868 0.0550481 0.573676
950 4 0.215966 0.0780185 0.554661
963 4 0.251603 0.0200476 0.576391
1181 4 0.254866 0.0400588 0.574444
961 2 0.274638 0.0112731 0.572198
841 2 0.338657 0.0790539 0.547877
1216 2 0.38283 0.0661185 0.518092
1218 4 0.394777 0.0454813 0.510571
1217 4 0.370883 0.0867557 0.525613
842 4 0.362764 0.0772024 0.541506
720 4 0.0211483 0.0886147 0.514487
1127 4 0.0161984 0.0819856 0.53403
1033 2 0.0535426 0.139135 0.547766
1034 4 0.0521621 0.141812 0.522945
261 4 0.0555728 0.154601 0.508646
1035 4 0.0549231 0.136459 0.572588
1030 2 0.137067 0.0867158 0.546054
1032 4 0.115027 0.0791473 0.555116
1154 4 0.105179 0.0868673 0.570182
1031 4 0.159107 0.0942843 0.536992
949 2 0.192281 0.0860187 0.55422
951 4 0.168596 0.0940188 0.553779
1151 4 0.18003 0.148967 0.508896
939 4 0.179195 0.137337 0.525688
937 2 0.18433 0.150653 0.546218
843 4 0.31455 0.0809055 0.554248
431 4 0.298894 0.0889684 0.543976
430 2 0.282462 0.0987156 0.527846
432 4 0.26603 0.108463 0.511717
857 4 0.370241 0.149905 0.572809
899 4 0.377988 0.154226 0.554448
1272 4 0.115516 0.247505 0.537341
1270 2 0.125173 0.233029 0.555295
1271 4 0.13483 0.218553 0.57325
938 4 0.189465 0.163969 0.566748
898 2 0.383716 0.174993 0.541757
900 4 0.389444 0.195761 0.529066
872 4 0.387852 0.20815 0.54403
873 4 0.374597 0.254356 0.557815
871 2 0.381225 0.231253 0.550922
813 4 0.357432 0.258189 0.568113
811 2 0.344275 0.246429 0.585827
879 4 0.108763 0.258739 0.521958
877 2 0.10935 0.254047 0.497406
1239 4 0.286729 0.293026 0.568758
1204 2 0.379611 0.309677 0.582177
1206 4 0.355591 0.316211 0.579824
930 4 0.347737 0.327521 0.56432
1205 4 0.403631 0.303144 0.58453
952 2 0.437112 0.288433 0.585305
905 4 0.472336 0.283072 0.587581
953 4 0.458852 0.284722 0.573524
983 4 0.0505953 0.387291 0.56311
982 2 0.0275858 0.396236 0.567077
1041 4 0.064038 0.384475 0.57722
984 4 0.00457625 0.40518 0.571043
711 4 0.128226 0.388728 0.497631
896 4 0.19325 0.372365 0.507182
897 4 0.189627 0.401205 0.547874
895 2 0.191438 0.386785 0.527528
1137 4 0.186799 0.417249 0.560256
802 2 0.284384 0.36412 0.508537
804 4 0.306653 0.356563 0.517033
929 4 0.315383 0.352076 0.535149
928 2 0.33156 0.339798 0.549735
239 4 0.371151 0.378084 0.517571
1001 4 0.46027 0.383945 0.534037
926 4 0.468492 0.368162 0.525698
925 2 0.490385 0.356868 0.521415
1000 2 0.452958 0.38796 0.557608
1002 4 0.445647 0.391976 0.581179
1936 2 0.03472 0.485336 0.563223
1937 4 0.0433411 0.482994 0.53987
539 4 0.0515807 0.469459 0.528118
538 2 0.0486054 0.461006 0.504776
2244 4 0.125695 0.497368 0.550893
383 4 0.124576 0.503227 0.531856
2242 2 0.14038 0.49346 0.570749
1171 2 0.249851 0.450315 0.572459
1173 4 0.226039 0.450534 0.580083
1160 4 0.209949 0.452937 0.590212
882 4 0.293958 0.452678 0.569813
880 2 0.299425 0.471086 0.553799
881 4 0.304891 0.489495 0.537786
1445 4 0.29316 0.488567 0.519885
1172 4 0.273663 0.450095 0.564835
1455 4 0.355497 0.496745 0.555067
1953 4 0.370696 0.49896 0.570063
1185 4 0.00901496 0.0403609 0.647408
945 4 0.0239492 0.0498062 0.639038
943 2 0.0365647 0.0592749 0.658438
1058 4 0.107571 0.0214209 0.654273
1057 2 0.103902 0.0419323 0.640453
1155 4 0.0923455 0.0785049 0.617785
1059 4 0.100233 0.0624436 0.626632
1153 2 0.0987623 0.0826861 0.593984
1142 4 0.362347 0.0707508 0.664882
2282 4 0.479863 0.0372673 0.606311
2281 2 0.464229 0.024357 0.59168
43 3 0.488509 0.0472179 0.621011
41 1 0.49133 0.070217 0.619793
42 3 0.503638 0.0771707 0.63794
45 3 0.502421 0.0756832 0.600668
2283 4 0.448595 0.0114466 0.577048
1082 4 0.0589178 0.129899 0.589776
1081 2 0.0408364 0.140922 0.603071
1083 4 0.022755 0.151945 0.616365
1199 4 0.0053026 0.163043 0.613967
1221 4 0.153352 0.0817977 0.673727
1219 2 0.17181 0.0907256 0.659416
1220 4 0.190267 0.0996535 0.645105
1212 4 0.210215 0.101197 0.639895
1210 2 0.227125 0.113521 0.653583
1211 4 0.244034 0.125846 0.66727
1005 4 0.304966 0.07457 0.609937
1004 4 0.317136 0.0875454 0.656673
1003 2 0.311051 0.0810577 0.633305
888 4 0.261166 0.123362 0.677916
886 2 0.282215 0.111576 0.671343
858 4 0.350111 0.172097 0.612847
856 2 0.360176 0.161001 0.592828
1024 2 0.389537 0.147914 0.665668
1141 2 0.367813 0.0947087 0.669499
1143 4 0.373279 0.118667 0.674116
44 3 0.470669 0.0807677 0.620255
909 4 0.146456 0.222623 0.589588
907 2 0.164409 0.234211 0.602572
798 4 0.317432 0.220978 0.605234
796 2 0.325236 0.198817 0.613788
797 4 0.33304 0.176656 0.622343
812 4 0.331118 0.234668 0.60354
1026 4 0.391644 0.165689 0.64821
3122 4 0.484006 0.230495 0.660562
947 4 0.189999 0.262251 0.62414
908 4 0.182362 0.245798 0.615557
946 2 0.202101 0.276173 0.641019
948 4 0.214203 0.290094 0.657898
1065 4 0.233842 0.293349 0.649942
1237 2 0.298461 0.288186 0.590301
1238 4 0.310193 0.283347 0.611845
792 4 0.322047 0.292282 0.626976
954 4 0.415372 0.292144 0.597086
790 2 0.342986 0.298365 0.639211
791 4 0.363926 0.304449 0.651446
904 2 0.485933 0.26995 0.603955
1281 4 0.0727514 0.357356 0.651902
894 4 0.0891558 0.357199 0.663528
1039 2 0.0836431 0.398926 0.582877
991 2 0.132 0.407435 0.610733
992 4 0.15296 0.394656 0.615482
892 2 0.114005 0.358132 0.666135
1135 2 0.177211 0.407519 0.581199
1136 4 0.167623 0.39779 0.602141
1028 4 0.218771 0.384472 0.674035
1027 2 0.242707 0.388393 0.667966
1029 4 0.266644 0.392315 0.661897
1139 4 0.263834 0.412878 0.661073
1910 4 0.454253 0.40274 0.596285
1909 2 0.438784 0.413965 0.612406
1911 4 0.423314 0.42519 0.628527
1938 4 0.0260989 0.487678 0.586576
936 4 0.0118942 0.478946 0.598943
2022 4 0.0416244 0.460065 0.666251
2243 4 0.155064 0.489552 0.590605
1040 4 0.103248 0.413376 0.588534
993 4 0.111039 0.420213 0.605983
1161 4 0.173257 0.485962 0.598199
1159 2 0.191603 0.469449 0.594206
889 2 0.372438 0.494482 0.647191
1269 4 0.405672 0.480695 0.648229
1267 2 0.417591 0.458853 0.64578
890 4 0.388647 0.47837 0.657334
1951 2 0.364963 0.501212 0.594296
1952 4 0.35923 0.503464 0.618529
1268 4 0.42951 0.43701 0.64333
944 4 0.0491803 0.0687435 0.677839
1075 2 0.0759373 0.075918 0.712716
1077 4 0.0917326 0.0765304 0.732089
825 4 0.0926156 0.00802196 0.658379
1283 4 0.134686 0.0587853 0.713967
1282 2 0.149025 0.0754728 0.725845
1203 4 0.0906886 0.0679354 0.750798
1201 2 0.108144 0.0502155 0.753344
823 2 0.0833607 0.00311613 0.681083
831 4 0.344813 0.0791718 0.710279
1076 4 0.0601419 0.0753056 0.693343
3387 4 0.00780592 0.124368 0.734814
35 3 0.0834549 0.168957 0.742396
32 3 0.104701 0.143293 0.725577
31 1 0.0978028 0.151618 0.745881
1284 4 0.163364 0.0921603 0.737723
887 4 0.303264 0.0997896 0.66477
830 4 0.298493 0.0957336 0.701284
829 2 0.321653 0.0874527 0.705782
1025 4 0.38743 0.13014 0.683127
1105 2 0.0444582 0.170236 0.748294
851 4 0.000508934 0.175404 0.740302
1107 4 0.0210662 0.177647 0.743491
1208 4 0.0769889 0.248337 0.699584
821 4 0.0967343 0.24809 0.695857
822 4 0.110991 0.217023 0.732358
1278 4 0.131014 0.219735 0.732629
820 2 0.103863 0.232557 0.714108
1276 2 0.151009 0.205684 0.737917
1277 4 0.171003 0.191633 0.743206
1131 4 0.182082 0.175341 0.746515
977 4 0.291399 0.215166 0.725666
916 2 0.315781 0.232931 0.703569
918 4 0.310635 0.2135 0.71844
976 2 0.289443 0.212821 0.750482
3121 2 0.480333 0.249393 0.676517
3357 4 0.495016 0.214906 0.665015
1263 4 0.446334 0.22254 0.751236
1243 2 0.00604656 0.28457 0.704414
3188 4 0.0304042 0.261637 0.730566
1207 2 0.0553682 0.258951 0.706297
1209 4 0.0337475 0.269566 0.713009
1244 4 0.0295771 0.289008 0.711611
1063 2 0.250163 0.298409 0.668196
1240 2 0.250928 0.291923 0.748546
1064 4 0.266483 0.30347 0.68645
1241 4 0.268913 0.281729 0.734481
917 4 0.320927 0.252362 0.688699
1097 4 0.32204 0.266735 0.674403
1096 2 0.302361 0.282138 0.675195
1098 4 0.282681 0.297542 0.675988
1008 4 0.324009 0.26794 0.740515
3123 4 0.476659 0.268291 0.692472
1279 2 0.0561971 0.363147 0.669723
3275 4 0.0403007 0.367052 0.708441
1280 4 0.0396428 0.368938 0.687545
3274 2 0.0497919 0.387106 0.719971
816 4 0.0758072 0.41292 0.741103
893 4 0.138855 0.359066 0.668743
940 2 0.16413 0.393338 0.734417
942 4 0.158203 0.41758 0.735959
815 4 0.118829 0.421478 0.717089
814 2 0.0973179 0.417199 0.729096
1068 4 0.208011 0.367408 0.677357
1067 4 0.188931 0.372285 0.723323
1066 2 0.198471 0.369847 0.70034
941 4 0.170058 0.369096 0.732875
1229 4 0.367692 0.374733 0.707482
1228 2 0.366688 0.398871 0.701037
2021 4 0.0503297 0.473936 0.713501
1981 2 0.0245187 0.493066 0.733076
2020 2 0.0459771 0.467001 0.689876
1983 4 0.0400961 0.491868 0.713554
1138 2 0.277189 0.430049 0.673401
1140 4 0.290543 0.447221 0.685729
1989 4 0.294126 0.447423 0.705433
1987 2 0.298938 0.460963 0.725895
1988 4 0.30375 0.474503 0.746357
1230 4 0.365684 0.423008 0.694591
1100 4 0.438748 0.494029 0.74107
864 4 0.0593481 0.0579848 0.829235
862 2 0.0518274 0.0765489 0.814268
2049 4 0.140501 0.0357395 0.767967
2047 2 0.157583 0.0176226 0.765694
1202 4 0.1256 0.0324957 0.75589
1147 2 0.204836 0.0604907 0.810849
1148 4 0.181612 0.0641943 0.81934
1149 4 0.22806 0.056787 0.802358
1049 4 0.243322 0.0566578 0.814072
1048 2 0.262229 0.0454718 0.826013
817 2 0.325696 0.0794887 0.808039
818 4 0.342136 0.0606976 0.809375
965 4 0.362094 0.062685 0.814659
964 2 0.379439 0.0769991 0.825588
844 2 0.507417 0.0281808 0.765104
846 4 0.490964 0.0111366 0.757106
1106 4 0.0678502 0.162825 0.753098
863 4 0.0443067 0.095113 0.799302
832 2 0.0620623 0.128593 0.778838
833 4 0.0544156 0.113523 0.797266
834 4 0.0697089 0.143663 0.76041
33 3 0.087104 0.134735 0.757667
34 3 0.116383 0.158966 0.757679
1073 4 0.11763 0.156005 0.778032
1227 4 0.178498 0.104804 0.743737
1225 2 0.190709 0.109895 0.764954
1226 4 0.202921 0.114986 0.78617
840 4 0.217426 0.123579 0.796104
838 2 0.235063 0.141147 0.798447
839 4 0.252701 0.158714 0.80079
959 4 0.27183 0.159738 0.803561
819 4 0.309255 0.0982797 0.806703
1085 4 0.324175 0.111806 0.802709
1084 2 0.326576 0.134673 0.812534
1086 4 0.328978 0.157539 0.822359
3268 2 0.502009 0.154503 0.789498
3270 4 0.485497 0.154205 0.770725
1146 4 0.474583 0.166008 0.759685
779 4 0.063905 0.221443 0.826645
1214 4 0.056087 0.239966 0.8206
1213 2 0.0356184 0.241202 0.806293
1215 4 0.0151498 0.242438 0.791986
3189 4 0.00913065 0.24796 0.773707