ITEM: TIMESTEP
2790000
ITEM: NUMBER OF ATOMS
4590
ITEM: BOX BOUNDS pp pp pp
-9.9985700000000008e+00 9.9985700000000008e+00
-9.9985700000000008e+00 9.9985700000000008e+00
-9.9985700000000008e+00 9.9985700000000008e+00
ITEM: ATOMS id type xs ys zs
463 2 0.025958 0.0323684 0.00977625
464 4 0.0276581 0.00966177 0.0201056
1668 4 0.0555196 0.0297366 0.0509498
1666 2 0.0400219 0.0251 0.0700155
3290 4 0.0748477 0.0280607 0.0529397
465 4 0.0242578 0.0550751 0.999447
701 4 0.0186812 0.0754038 0.998199
3289 2 0.0898337 0.0265891 0.0329789
565 2 0.155237 0.038391 0.019846
566 4 0.145392 0.0275757 0.999566
3291 4 0.10482 0.0251175 0.0130182
567 4 0.165083 0.0492063 0.0401259
490 2 0.306984 0.00662685 0.0590323
491 4 0.310454 0.0067298 0.0342709
492 4 0.303514 0.0065239 0.0837937
985 2 0.293878 0.0288655 0.00517441
987 4 0.310889 0.0105827 0.00392932
986 4 0.276867 0.0471484 0.00641951
745 2 0.463729 0.0503835 0.0574159
746 4 0.448454 0.0701041 0.0556927
747 4 0.479003 0.0306629 0.059139
1826 4 0.493554 0.028183 0.0746009
460 2 0.318724 0.142307 0.0632651
461 4 0.301122 0.158996 0.0571956
462 4 0.336325 0.125617 0.0693346
2724 4 0.487566 0.0965717 0.061666
422 4 0.0750603 0.194925 0.0370908
421 2 0.0891981 0.187285 0.0179356
505 2 0.149464 0.24663 0.0546348
423 4 0.103336 0.179644 0.99878
506 4 0.172685 0.239676 0.0607668
737 4 0.177555 0.221984 0.0516229
736 2 0.199314 0.210066 0.0547321
738 4 0.221073 0.198147 0.0578413
354 4 0.24043 0.192299 0.0563779
353 4 0.281917 0.164734 0.0608083
352 2 0.261174 0.178517 0.0585931
665 4 0.352012 0.202476 0.0270271
664 2 0.346314 0.192628 0.00476205
323 4 0.485264 0.243121 0.0773798
828 4 0.492411 0.239349 0.015904
322 2 0.471959 0.248527 0.0569124
519 4 0.494004 0.22658 0.0659937
826 2 0.484617 0.222681 0.998974
2807 4 0.0171214 0.249067 0.0114845
836 4 0.0243768 0.261363 0.997092
292 2 0.102506 0.285106 0.0691235
456 4 0.100457 0.320209 0.0798235
293 4 0.113773 0.267037 0.0560185
507 4 0.126243 0.253585 0.0485027
294 4 0.091238 0.303174 0.0822285
612 4 0.275512 0.301561 0.0486852
610 2 0.271106 0.284353 0.0662826
609 4 0.267265 0.313738 0.0623188
611 4 0.2667 0.267146 0.0838799
482 4 0.289518 0.300372 0.0141904
1071 4 0.379527 0.248953 0.0137442
573 4 0.369166 0.266109 0.014901
571 2 0.348704 0.279051 0.00865519
572 4 0.328243 0.291994 0.00240941
324 4 0.458653 0.253933 0.036445
454 2 0.106095 0.34372 0.0861961
1288 2 0.202939 0.412509 0.00524179
1289 4 0.196063 0.391404 0.0167509
988 2 0.176165 0.357121 0.0022086
989 4 0.180944 0.38056 0.00948678
741 4 0.333104 0.34884 0.00263001
739 2 0.334793 0.348847 0.0275765
250 2 0.28936 0.389908 0.0605073
251 4 0.299089 0.409709 0.0487403
252 4 0.279631 0.370108 0.0722742
607 2 0.267471 0.338618 0.0598465
608 4 0.267676 0.363498 0.0573741
740 4 0.336481 0.348854 0.052523
386 4 0.35035 0.352277 0.0664875
226 2 0.386481 0.385513 0.0291524
228 4 0.377173 0.402146 0.0453342
227 4 0.39579 0.368879 0.0129706
1305 4 0.412199 0.359686 0.00663181
523 2 0.335614 0.417895 0.0473582
671 4 0.413147 0.353892 0.0647922
525 4 0.359294 0.410087 0.0454909
670 2 0.408307 0.368445 0.08454
281 4 0.430499 0.350891 0.0581273
280 2 0.455297 0.347744 0.058703
282 4 0.480095 0.344597 0.0592787
1047 4 0.494384 0.341785 0.0444428
1045 2 0.49929 0.337216 0.0203547
104 3 0.483087 0.348469 0.0802
552 4 0.0335689 0.465663 0.0606554
314 4 0.0227332 0.449536 0.064469
550 2 0.0169401 0.475541 0.0448096
551 4 0.000311352 0.485419 0.0289639
243 4 0.238094 0.469924 0.0526955
1440 4 0.235743 0.455386 0.0665832
241 2 0.215632 0.471475 0.0418213
242 4 0.193171 0.473026 0.0309471
1787 4 0.185891 0.488341 0.0398762
524 4 0.311935 0.425703 0.0492254
271 2 0.284625 0.492402 0.0655401
272 4 0.28581 0.468047 0.0710708
1583 4 0.471661 0.449161 0.0641179
1582 2 0.461244 0.469565 0.0741353
1667 4 0.0245242 0.0204634 0.0890812
16 1 0.0367824 0.0370712 0.125237
2480 4 0.0201846 0.0607012 0.154569
18 3 0.0492565 0.0560024 0.120297
19 3 0.0208674 0.0420589 0.141369
17 3 0.0260615 0.0300367 0.106139
20 3 0.050474 0.0204731 0.1327
1422 4 0.0129866 0.0411255 0.162351
652 2 0.246639 0.0419409 0.161579
654 4 0.252275 0.0285591 0.141224
1475 4 0.294323 0.0232327 0.0885084
1476 4 0.263036 0.0350135 0.125698
1474 2 0.278679 0.0291231 0.107103
297 4 0.362803 0.0352897 0.116972
295 2 0.382192 0.048939 0.109037
296 4 0.40158 0.0625884 0.101101
484 2 0.344805 0.00637537 0.112052
485 4 0.354045 0.0270526 0.101457
557 4 0.420227 0.0669198 0.1072
556 2 0.436693 0.0800287 0.120698
2479 2 0.012298 0.0840595 0.158737
2481 4 0.00441139 0.107418 0.162905
450 4 0.101686 0.0886822 0.114227
236 4 0.143255 0.143732 0.122246
449 4 0.132513 0.127706 0.11948
448 2 0.1171 0.108194 0.116854
235 2 0.160874 0.154136 0.107876
580 2 0.309827 0.116991 0.156081
582 4 0.330419 0.102893 0.154535
581 4 0.289235 0.131089 0.157626
758 4 0.347772 0.0925158 0.149692
558 4 0.453159 0.0931375 0.134195
771 4 0.472286 0.0990939 0.141539
769 2 0.474082 0.115967 0.159903
237 4 0.178492 0.16454 0.0935051
372 4 0.139649 0.226413 0.163243
370 2 0.164644 0.22677 0.162683
371 4 0.189639 0.227128 0.162122
279 4 0.270188 0.244816 0.144987
277 2 0.267795 0.247868 0.120286
337 2 0.0702092 0.296548 0.16031
704 4 0.0320736 0.303853 0.165444
339 4 0.0463235 0.295737 0.152962
338 4 0.0940948 0.297359 0.167658
278 4 0.265402 0.250921 0.0955848
285 4 0.285129 0.254994 0.156073
630 4 0.412686 0.260512 0.0825243
254 4 0.392608 0.258545 0.0880257
754 2 0.349327 0.252647 0.156268
756 4 0.353795 0.269103 0.137981
253 2 0.375233 0.25724 0.105958
255 4 0.357858 0.255936 0.123891
624 4 0.446499 0.251652 0.139566
629 4 0.445581 0.253285 0.119489
628 2 0.429133 0.256899 0.101007
622 2 0.435308 0.256593 0.161373
619 2 0.0339868 0.396458 0.128671
620 4 0.0492279 0.388549 0.146846
621 4 0.0187457 0.404368 0.110496
455 4 0.111733 0.367231 0.0925687
647 4 0.13174 0.397912 0.170111
537 4 0.147242 0.39626 0.157796
535 2 0.158519 0.384659 0.138731
536 4 0.169795 0.373059 0.119667
385 2 0.352155 0.366778 0.0867769
387 4 0.353961 0.381278 0.107066
12 3 0.400083 0.387917 0.122699
11 1 0.383451 0.40132 0.131238
15 3 0.364702 0.399035 0.118514
672 4 0.403468 0.382998 0.104288
302 4 0.344416 0.402023 0.111082
13 3 0.379044 0.394816 0.153071
645 4 0.380313 0.413455 0.165825
313 2 0.0226026 0.436824 0.0859997
315 4 0.0224721 0.424112 0.10753
1465 2 0.0312239 0.499734 0.130639
1466 4 0.0142222 0.482549 0.137026
1438 2 0.22833 0.441255 0.0858321
1431 4 0.166872 0.494118 0.161535
625 2 0.222198 0.418786 0.14718
1439 4 0.220916 0.427123 0.105081
627 4 0.221815 0.429887 0.124779
301 2 0.330818 0.417035 0.125742
639 4 0.266213 0.485304 0.126559
638 4 0.279794 0.453533 0.162711
637 2 0.273003 0.469418 0.144635
303 4 0.31722 0.432047 0.140403
659 4 0.32696 0.446035 0.150215
14 3 0.390648 0.423376 0.130843
494 4 0.387953 0.477876 0.0870863
495 4 0.3911 0.437963 0.11705
493 2 0.389527 0.457919 0.102068
1584 4 0.450826 0.489969 0.0841527
1420 2 0.00114351 0.0357813 0.183714
674 4 0.15497 0.065588 0.209521
673 2 0.161216 0.0746704 0.231964
689 4 0.191103 0.0340444 0.168773
690 4 0.174008 0.0654961 0.203691
1505 4 0.197471 0.0167695 0.17766
653 4 0.241003 0.0553227 0.181934
688 2 0.182555 0.0497703 0.186232
693 4 0.256314 0.0647167 0.190118
691 2 0.271838 0.0591025 0.208897
1699 2 0.324402 0.0709249 0.224802
692 4 0.287361 0.0534882 0.227677
1701 4 0.301413 0.0665534 0.233609
1700 4 0.347391 0.0752964 0.215996
22 3 0.387724 0.0561362 0.227592
698 4 0.405505 0.0586486 0.238026
21 1 0.377705 0.0755272 0.220328
333 4 0.40631 0.0786679 0.226645
23 3 0.358661 0.0793412 0.233023
25 3 0.372089 0.0732989 0.19837
759 4 0.352003 0.0736205 0.195798
757 2 0.349888 0.0830681 0.172745
697 2 0.415839 0.0385642 0.248749
349 2 0.476314 0.0701949 0.241971
513 4 0.0163941 0.160142 0.227689
578 4 0.0310853 0.162346 0.241588
29 3 0.241636 0.158988 0.171533
28 3 0.252034 0.127525 0.190144
30 3 0.274448 0.142255 0.163719
27 3 0.269941 0.160003 0.19624
26 1 0.259565 0.147119 0.180256
24 3 0.392619 0.0931099 0.22294
770 4 0.475878 0.132841 0.178267
312 4 0.470811 0.126158 0.195147
310 2 0.481734 0.129476 0.217392
350 4 0.465836 0.0920435 0.235804
331 2 0.428987 0.08902 0.224703
332 4 0.451664 0.0993721 0.222762
311 4 0.492657 0.132794 0.239638
577 2 0.0410338 0.18528 0.242068
529 2 0.0252628 0.237469 0.220198
530 4 0.04036 0.222044 0.232821
579 4 0.0509824 0.208214 0.242547
531 4 0.0101657 0.252893 0.207575
2483 4 0.00701862 0.239578 0.194134
362 4 0.131208 0.234029 0.177715
476 4 0.195196 0.212405 0.174307
475 2 0.212035 0.194021 0.172396
477 4 0.228874 0.175637 0.170486
755 4 0.344859 0.236191 0.174555
703 2 0.0226225 0.312506 0.186914
705 4 0.0131714 0.321159 0.208385
395 4 0.0940833 0.306642 0.185955
396 4 0.0938249 0.293572 0.234224
394 2 0.0939541 0.300107 0.21009
361 2 0.122261 0.255298 0.187346
363 4 0.113314 0.276567 0.196977
283 2 0.291579 0.274085 0.170876
284 4 0.298029 0.293175 0.185679
528 4 0.413071 0.321119 0.216224
542 4 0.410454 0.324215 0.234827
623 4 0.424118 0.261534 0.18318
527 4 0.426335 0.277361 0.195975
526 2 0.419703 0.29924 0.2061
263 4 0.0464982 0.387589 0.229535
2615 4 0.00715346 0.339937 0.212763
300 4 0.0885981 0.36747 0.215202
646 2 0.114952 0.386987 0.185077
648 4 0.0981633 0.376061 0.200042
298 2 0.0948954 0.353167 0.23472
289 2 0.220448 0.404356 0.245152
416 4 0.198264 0.410794 0.222417
596 4 0.332096 0.360059 0.17435
345 4 0.335284 0.352222 0.219123
597 4 0.36416 0.398136 0.169584
595 2 0.348128 0.379098 0.171967
343 2 0.339369 0.353947 0.243731
1430 4 0.160817 0.450741 0.185669
417 4 0.164958 0.432976 0.192428
1429 2 0.163844 0.472429 0.173602
626 4 0.222582 0.407685 0.16958
290 4 0.217433 0.418636 0.224851
415 2 0.181611 0.421885 0.207422
438 4 0.276159 0.454062 0.227179
658 2 0.34188 0.455775 0.167757
643 2 0.390916 0.428998 0.182292
229 2 0.378312 0.492493 0.212065
644 4 0.401519 0.444541 0.198759
660 4 0.3568 0.465516 0.185298
231 4 0.371096 0.47621 0.194516
447 4 0.414667 0.448029 0.213702
445 2 0.41198 0.43841 0.236625
1402 2 0.0209886 0.0024757 0.266431
1403 4 0.00133853 0.0126108 0.254754
233 4 0.0053195 0.0317421 0.264074
232 2 0.00806736 0.0529868 0.276969
234 4 0.0108152 0.0742316 0.289864
317 4 0.0303022 0.0740205 0.29091
316 2 0.0552744 0.074933 0.291767
318 4 0.0802466 0.0758455 0.292624
1407 4 0.24159 0.00620226 0.276074
722 4 0.168469 0.0890621 0.273238
1405 2 0.222424 0.0176803 0.287304
1406 4 0.203259 0.0291584 0.298535
1340 4 0.249381 0.996919 0.293145
684 4 0.300259 0.0633257 0.330716
1518 4 0.412494 0.0135988 0.274333
351 4 0.486793 0.0483464 0.248137
1516 2 0.42894 0.998876 0.286079
699 4 0.426174 0.0184798 0.259473
425 4 0.478233 0.0234742 0.274639
424 2 0.471151 0.0356821 0.295278
258 4 0.472633 0.0663509 0.311142
426 4 0.464069 0.0478901 0.315917
743 4 0.490108 0.0323098 0.259901
256 2 0.481889 0.0847301 0.325345
393 4 0.081683 0.148959 0.311849
675 4 0.167462 0.0837528 0.254407
391 2 0.0865668 0.144305 0.287773
392 4 0.0914505 0.139651 0.263696
544 2 0.133783 0.131821 0.262049
545 4 0.110197 0.135199 0.269627
546 4 0.15737 0.128443 0.25447
399 4 0.0980516 0.156268 0.320348
397 2 0.113158 0.164559 0.338465
721 2 0.189097 0.0916 0.287138
723 4 0.209725 0.0941379 0.301038
599 4 0.22534 0.0882125 0.312431
404 4 0.225566 0.123344 0.249876
403 2 0.222083 0.140323 0.267896
598 2 0.221009 0.0961957 0.335727
405 4 0.218599 0.157303 0.285917
402 4 0.243828 0.210758 0.258054
401 4 0.225902 0.176158 0.289394
400 2 0.234865 0.193458 0.273724
765 4 0.416269 0.182713 0.30924
763 2 0.437284 0.196236 0.308414
764 4 0.4583 0.209758 0.307588
269 4 0.497477 0.242659 0.334641
442 2 0.0764042 0.270658 0.266269
444 4 0.0638271 0.253789 0.279776
366 4 0.0426285 0.330713 0.288192
749 4 0.0593382 0.327189 0.298143
443 4 0.0889814 0.287526 0.252762
496 2 0.34686 0.275853 0.31841
497 4 0.351102 0.289384 0.297816
541 2 0.41786 0.326999 0.258546
543 4 0.425266 0.329784 0.282264
615 4 0.419846 0.319432 0.298968
613 2 0.416892 0.322965 0.323543
262 2 0.0444348 0.403016 0.249104
365 4 0.00678388 0.365412 0.284746
364 2 0.0247062 0.348062 0.286469
748 2 0.079918 0.334673 0.286075
2493 4 0.00898841 0.385507 0.287271
264 4 0.0423714 0.418443 0.268673
299 4 0.101193 0.338865 0.254238
750 4 0.100498 0.342158 0.274007
602 4 0.0885344 0.380129 0.301479
601 2 0.0815332 0.379862 0.325481
777 4 0.0886314 0.400749 0.29873
735 4 0.157327 0.387922 0.285701
677 4 0.151266 0.406308 0.285633
733 2 0.154788 0.363688 0.280094
734 4 0.15225 0.339454 0.274486
291 4 0.223463 0.390076 0.265454
414 4 0.234665 0.402731 0.276852
412 2 0.251837 0.404298 0.294958
413 4 0.269009 0.405865 0.313065
5 3 0.274754 0.412294 0.330978
309 4 0.348028 0.343448 0.282717
344 4 0.343453 0.355672 0.268338
307 2 0.355655 0.362223 0.297363
729 4 0.354231 0.380315 0.329082
308 4 0.363283 0.380997 0.312009
2924 4 0.492395 0.361274 0.31095
2923 2 0.470225 0.354724 0.320478
2925 4 0.448055 0.348173 0.330006
713 4 0.463285 0.407784 0.29612
2862 4 0.474772 0.401723 0.280392
2860 2 0.488502 0.392751 0.26152
1757 4 0.102561 0.457213 0.26983
776 4 0.109625 0.442592 0.281146
775 2 0.099128 0.42167 0.289938
1756 2 0.103915 0.481729 0.274552
767 4 0.22194 0.490442 0.265618
676 2 0.168992 0.422039 0.277664
678 4 0.186718 0.43777 0.269695
768 4 0.190525 0.454182 0.279725
766 2 0.206232 0.472312 0.272671
504 4 0.217176 0.431795 0.322798
1436 4 0.250233 0.487051 0.328897
437 4 0.264992 0.447631 0.275498
436 2 0.270575 0.450847 0.251338
1437 4 0.265727 0.465837 0.286346
1435 2 0.25798 0.476444 0.307622
433 2 0.325111 0.457071 0.32564
434 4 0.318726 0.434544 0.334413
435 4 0.331495 0.479597 0.316867
120 3 0.476954 0.413068 0.308732
446 4 0.409293 0.428791 0.259547
712 2 0.444317 0.418805 0.284123
714 4 0.425348 0.429826 0.272126
2755 2 0.00258165 0.0621134 0.41994
730 2 0.108071 0.0585379 0.395836
604 2 0.157854 0.0710445 0.360997
605 4 0.144311 0.0784425 0.38067
731 4 0.0903781 0.0425449 0.403343
732 4 0.125765 0.0745309 0.38833
606 4 0.171397 0.0636464 0.341324
249 4 0.312851 0.058524 0.3462
682 2 0.28244 0.0716702 0.346144
247 2 0.336113 0.0613885 0.354908
248 4 0.359375 0.064253 0.363616
633 4 0.37858 0.0687468 0.372153
1749 4 0.489977 0.0150772 0.350948
2757 4 0.0104111 0.0858385 0.41894
600 4 0.216679 0.104179 0.359023
685 2 0.205326 0.133224 0.374687
687 4 0.197829 0.113097 0.361886
686 4 0.212824 0.153352 0.387488
410 4 0.229059 0.149064 0.39817
409 2 0.235628 0.166784 0.414541
319 2 0.260783 0.0827545 0.404072
321 4 0.258057 0.0858764 0.379415
683 4 0.26462 0.0800147 0.361571
631 2 0.382913 0.0814637 0.393241
419 4 0.379966 0.152591 0.396572
632 4 0.387245 0.0941806 0.414329
418 2 0.362586 0.146142 0.41335
716 4 0.387383 0.168646 0.389524
257 4 0.491144 0.103109 0.339548
760 2 0.499543 0.13614 0.351342
762 4 0.496107 0.154055 0.368442
390 4 0.0889999 0.227906 0.402316
398 4 0.128265 0.17285 0.356582
388 2 0.10064 0.244004 0.387131
473 4 0.220842 0.198651 0.359771
474 4 0.178654 0.224387 0.352123
472 2 0.199748 0.211519 0.355947
708 4 0.236014 0.203645 0.37173
651 4 0.242809 0.246207 0.406241
649 2 0.238405 0.22476 0.418315
706 2 0.256116 0.191101 0.363747
707 4 0.276218 0.178557 0.355763
377 4 0.37848 0.221061 0.363631
717 4 0.390097 0.206085 0.356483
715 2 0.38874 0.187365 0.373004
376 2 0.357977 0.233933 0.357376
618 4 0.0109841 0.245391 0.407413
274 2 0.153991 0.250378 0.36722
695 4 0.079265 0.274903 0.417505
276 4 0.131912 0.2576 0.376468
389 4 0.112279 0.260101 0.371947
1258 2 0.14655 0.307563 0.395388
1260 4 0.134581 0.305737 0.417264
1259 4 0.158519 0.309388 0.373512
275 4 0.17607 0.243156 0.357972
508 2 0.237717 0.328058 0.361476
509 4 0.238575 0.310064 0.378816
489 4 0.253807 0.260977 0.417322
487 2 0.251586 0.276846 0.398128
488 4 0.249365 0.292715 0.378934
378 4 0.337474 0.246805 0.351121
498 4 0.342619 0.262321 0.339003
266 4 0.354536 0.304989 0.392706
585 4 0.373908 0.299185 0.390597
583 2 0.373329 0.276404 0.400887
584 4 0.372751 0.253624 0.411177
265 2 0.341298 0.318721 0.376539
268 2 0.4868 0.252691 0.354903
270 4 0.476122 0.262722 0.375165
306 4 0.488176 0.256229 0.390214
304 2 0.479991 0.261817 0.41317
614 4 0.413937 0.326499 0.348119
603 4 0.0745319 0.379596 0.349483
547 2 0.0929604 0.405996 0.373711
549 4 0.0908483 0.390066 0.354555
569 4 0.105574 0.409395 0.406881
510 4 0.23686 0.346051 0.344136
375 4 0.227498 0.39938 0.387443
374 4 0.231596 0.363792 0.352552
373 2 0.229547 0.381586 0.369997
3 3 0.281937 0.405148 0.367241
267 4 0.32806 0.332453 0.360372
727 2 0.343041 0.400759 0.338138
752 4 0.484972 0.413171 0.400909
751 2 0.492894 0.416402 0.377414
119 3 0.504294 0.412985 0.33462
407 4 0.0833196 0.44003 0.388966
680 4 0.0480614 0.485624 0.404756
406 2 0.0633525 0.452275 0.397714
408 4 0.0433855 0.464521 0.406463
548 4 0.0950724 0.421926 0.392868
635 4 0.163442 0.483475 0.393687
634 2 0.183053 0.469384 0.387204
636 4 0.202665 0.455293 0.380721
502 2 0.212516 0.446436 0.342524
503 4 0.207855 0.461076 0.362251
669 4 0.296551 0.496424 0.377036
2 3 0.309197 0.417359 0.344428
1 1 0.286743 0.418899 0.349179
668 4 0.296838 0.44762 0.366136
4 3 0.281679 0.440927 0.354426
667 2 0.296694 0.472022 0.371586
728 4 0.331852 0.421203 0.347194
1401 4 0.334589 0.481648 0.401177
336 4 0.332828 0.43629 0.406146
592 2 0.489933 0.498255 0.3385
593 4 0.491971 0.474584 0.346292
368 4 0.0779914 0.0490048 0.417687
718 2 0.0297393 0.0822521 0.474783
719 4 0.0497666 0.0925702 0.463937
369 4 0.0599927 0.0778391 0.454366
720 4 0.00971209 0.071934 0.485628
367 2 0.068992 0.063422 0.436027
341 4 0.1762 0.0677207 0.467494
2430 4 0.188004 0.0541936 0.474672
2428 2 0.196963 0.0342646 0.462516
2429 4 0.205921 0.0143355 0.450361
320 4 0.26351 0.0796325 0.42873
2878 2 0.457247 0.01978 0.421946
2880 4 0.472805 0.0393461 0.422483
642 4 0.488904 0.0370999 0.434183
640 2 0.496362 0.0589723 0.44373
2585 4 0.998484 0.0956075 0.43005
725 4 0.250812 0.0901457 0.441243
340 2 0.177048 0.0927036 0.466934
1152 4 0.194775 0.127186 0.476287
342 4 0.177896 0.117687 0.466375
1150 2 0.19345 0.14479 0.493994
724 2 0.265811 0.0991272 0.459118
432 4 0.296033 0.120825 0.486084
726 4 0.280811 0.108109 0.476994
420 4 0.345205 0.139693 0.430128
467 4 0.37214 0.104105 0.472995
466 2 0.37403 0.0941043 0.450156
468 4 0.375919 0.084103 0.427318
574 2 0.402215 0.146464 0.464055
576 4 0.392628 0.134247 0.483651
575 4 0.411802 0.158681 0.444459
516 4 0.425143 0.160635 0.42881
514 2 0.44942 0.162248 0.434572
515 4 0.473698 0.163861 0.440333
260 4 0.0672481 0.175754 0.464997
259 2 0.0662796 0.182412 0.489078
470 4 0.0736243 0.223635 0.415922
469 2 0.0688496 0.207376 0.434307
471 4 0.0640748 0.191116 0.452692
650 4 0.234 0.203312 0.430389
411 4 0.242197 0.184505 0.430912
2456 4 0.383412 0.243365 0.425317
2455 2 0.383976 0.224697 0.441942
2457 4 0.38454 0.20603 0.458568
616 2 0.0184386 0.26422 0.422078
617 4 0.0258932 0.28305 0.436742
694 2 0.0991451 0.289078 0.422891
696 4 0.119025 0.303254 0.428278
1011 4 0.488631 0.276729 0.441259
305 4 0.471807 0.267405 0.436126
326 4 0.0753084 0.375182 0.450717
325 2 0.0997429 0.373897 0.455863
7 3 0.141879 0.369566 0.470132
327 4 0.124177 0.372613 0.46101
6 1 0.14848 0.371219 0.492105
711 4 0.147733 0.412488 0.493005
8 3 0.152396 0.393538 0.497103
10 3 0.167532 0.359118 0.495145
1190 4 0.250319 0.344901 0.501004
803 4 0.271024 0.345628 0.500621
335 4 0.346251 0.411748 0.447598
238 2 0.364209 0.371261 0.447294
240 4 0.359767 0.395832 0.448615
239 4 0.36865 0.346691 0.445974
2506 2 0.493928 0.350542 0.477407
561 4 0.49062 0.404727 0.417741
559 2 0.493659 0.389781 0.437554
2508 4 0.483038 0.371972 0.470525
540 4 0.0575861 0.48538 0.468979
538 2 0.0615331 0.496854 0.490841
1382 4 0.0459932 0.478937 0.455405
1381 2 0.0217932 0.473198 0.457973
568 2 0.113326 0.42491 0.424891
710 4 0.135366 0.444641 0.456756
384 4 0.136512 0.49579 0.496546
774 4 0.121065 0.469049 0.443687
709 2 0.141549 0.428565 0.47488
772 2 0.125139 0.486046 0.461567
570 4 0.121079 0.440424 0.442902
1394 4 0.232588 0.492655 0.474262
1399 2 0.336779 0.494877 0.422281
1400 4 0.338969 0.508106 0.443385
334 2 0.33954 0.424019 0.426872
1127 4 0.00516952 0.0605452 0.501822
1031 4 0.16487 0.0744383 0.56132
949 2 0.202546 0.0667321 0.554148
950 4 0.226734 0.0655027 0.560362
1182 4 0.243374 0.0555575 0.558609
951 4 0.178358 0.0679616 0.547933
961 2 0.31984 0.00786286 0.56002
1180 2 0.264561 0.0428741 0.55468
963 4 0.301762 0.0209127 0.548704
1181 4 0.285747 0.0301906 0.550751
843 4 0.325845 0.0811301 0.527494
1216 2 0.404632 0.0719546 0.530677
1218 4 0.414269 0.0492497 0.526579
2283 4 0.444393 0.00672685 0.58764
1035 4 0.0622967 0.144629 0.56632
1033 2 0.0650317 0.160647 0.547317
1030 2 0.151796 0.0888394 0.577031
937 2 0.175767 0.167133 0.545287
939 4 0.197193 0.163082 0.533054
1151 4 0.192126 0.162394 0.5117
431 4 0.310563 0.092487 0.52464
857 4 0.305158 0.13011 0.563228
856 2 0.291969 0.145316 0.57806
430 2 0.303298 0.106656 0.505362
899 4 0.322778 0.136123 0.556983
1217 4 0.394995 0.0946595 0.534776
841 2 0.349816 0.0873602 0.530923
842 4 0.373787 0.0935903 0.534352
898 2 0.34435 0.146232 0.564573
900 4 0.365923 0.156341 0.572163
261 4 0.0653112 0.189071 0.51316
1034 4 0.0677667 0.176665 0.528314
938 4 0.15434 0.171184 0.557521
879 4 0.0975789 0.23468 0.557223
877 2 0.0969821 0.240704 0.532963
1272 4 0.0960054 0.23936 0.575656
811 2 0.325273 0.226495 0.570965
812 4 0.300644 0.227756 0.575089
798 4 0.280904 0.228744 0.581366
872 4 0.378218 0.171324 0.573141
813 4 0.349902 0.225233 0.566842
873 4 0.361607 0.214753 0.554739
871 2 0.369912 0.193038 0.56394
878 4 0.0963852 0.246728 0.508703
896 4 0.19376 0.330408 0.51745
1239 4 0.261313 0.288595 0.573287
1205 4 0.403728 0.313815 0.567751
1204 2 0.37878 0.315464 0.567553
954 4 0.407656 0.293531 0.566832
952 2 0.420929 0.277232 0.580373
1206 4 0.353831 0.317113 0.567356
982 2 0.0290787 0.383487 0.582755
984 4 0.00593969 0.377614 0.57532
9 3 0.131578 0.362914 0.50566
1135 2 0.168043 0.379532 0.580279
1137 4 0.168234 0.354777 0.576767
1191 4 0.201352 0.347121 0.510906
1189 2 0.225836 0.346011 0.505955
897 4 0.172824 0.344863 0.560502
895 2 0.183292 0.337636 0.538976
802 2 0.283201 0.350007 0.522015
804 4 0.295379 0.354386 0.543409
929 4 0.311796 0.343911 0.537452
928 2 0.33024 0.339988 0.553872
930 4 0.348684 0.336064 0.570292
1001 4 0.47008 0.373009 0.563815
926 4 0.467365 0.373228 0.5433
925 2 0.487356 0.368501 0.529045
1000 2 0.465955 0.394213 0.576407
934 2 0.0150564 0.487635 0.571256
382 2 0.137516 0.495463 0.521528
2242 2 0.138897 0.499938 0.577385
882 4 0.274274 0.47427 0.560721
880 2 0.269485 0.497046 0.551583
1172 4 0.258876 0.467875 0.570415
1953 4 0.35644 0.498509 0.568711
1155 4 0.0797778 0.0829644 0.598617
1059 4 0.0858199 0.0640006 0.604455
1185 4 0.0192183 0.0676378 0.663407
825 4 0.0892019 0.0167478 0.63541
1058 4 0.101498 0.0316582 0.639224
1057 2 0.0936592 0.0478294 0.621839
1925 4 0.403507 0.0112917 0.655643
2282 4 0.475988 0.0329505 0.616184
2281 2 0.46019 0.0198387 0.601912
43 3 0.465861 0.0493339 0.619598
41 1 0.479484 0.0604712 0.634724
44 3 0.46648 0.0719489 0.650137
45 3 0.493094 0.0750126 0.62368
42 3 0.492368 0.0450325 0.645896
1082 4 0.0640246 0.147318 0.586608
1081 2 0.0426419 0.149752 0.599337
1083 4 0.0212593 0.152187 0.612066
1199 4 0.00594884 0.153346 0.598738
1032 4 0.138722 0.10324 0.592743
1153 2 0.100271 0.0959197 0.592503
1154 4 0.120764 0.108875 0.586389
1221 4 0.174235 0.0813312 0.61824
1219 2 0.180808 0.0997337 0.633839
1220 4 0.187381 0.118136 0.649438
1212 4 0.195904 0.124441 0.66782
858 4 0.278779 0.160522 0.592892
1005 4 0.275913 0.0877171 0.61819
1004 4 0.302307 0.112619 0.652599
1003 2 0.28911 0.100168 0.635394
887 4 0.291772 0.129002 0.658901
1143 4 0.362302 0.156063 0.642138
1141 2 0.355004 0.146343 0.663989
1270 2 0.113476 0.228611 0.589955
1271 4 0.130946 0.217863 0.604253
909 4 0.14891 0.223363 0.602554
907 2 0.15793 0.222062 0.625838
947 4 0.163086 0.239619 0.65492
908 4 0.166951 0.220761 0.649121
796 2 0.277284 0.204657 0.587014
797 4 0.273664 0.18057 0.592662
1025 4 0.363625 0.176818 0.643053
1024 2 0.385518 0.181631 0.631976
1026 4 0.407411 0.186445 0.620899
905 4 0.450974 0.25144 0.601012
1064 4 0.220965 0.330461 0.670026
1237 2 0.275831 0.291302 0.593463
792 4 0.301193 0.282449 0.624872
790 2 0.318811 0.294908 0.637503
1238 4 0.29035 0.294009 0.613639
791 4 0.336429 0.307367 0.650135
953 4 0.434202 0.260933 0.593914
904 2 0.475185 0.252843 0.594925
906 4 0.499395 0.254246 0.588839
983 4 0.0522178 0.389359 0.59019
1041 4 0.0655862 0.38628 0.605606
1039 2 0.0789349 0.40725 0.602914
1136 4 0.167852 0.404287 0.583791
1029 4 0.268062 0.390153 0.665363
1139 4 0.276995 0.407761 0.6664
1002 4 0.461831 0.415417 0.588998
3330 4 0.495627 0.400767 0.652656
992 4 0.159482 0.420425 0.590948
991 2 0.13577 0.426559 0.595978
993 4 0.112058 0.432692 0.601008
1040 4 0.0922836 0.42822 0.600222
2243 4 0.146878 0.489453 0.598635
1161 4 0.166549 0.486221 0.593499
1171 2 0.241778 0.458532 0.586085
1160 4 0.207832 0.458248 0.597238
1159 2 0.18719 0.472234 0.595368
1173 4 0.22468 0.44919 0.601755
1175 4 0.252789 0.497112 0.673367
1910 4 0.455119 0.433783 0.591769
1267 2 0.418657 0.466684 0.657838
1911 4 0.428515 0.44705 0.631981
1909 2 0.441817 0.440416 0.611875
1268 4 0.431669 0.446459 0.650995
4323 4 0.495703 0.497823 0.588353
945 4 0.035422 0.0767121 0.671397
943 2 0.034261 0.0733527 0.696147
1076 4 0.0420808 0.0579392 0.73509
944 4 0.0330999 0.0699932 0.720896
1075 2 0.0624545 0.0457009 0.742856
846 4 0.485911 0.00950244 0.751034
3387 4 0.0133382 0.107057 0.744209
1106 4 0.0740102 0.144927 0.742046
32 3 0.106463 0.106747 0.75268
1284 4 0.163777 0.101133 0.722875
35 3 0.0922643 0.137669 0.737346
1282 2 0.172078 0.110436 0.701202
1227 4 0.170075 0.114232 0.736197
1210 2 0.217721 0.132107 0.67733
1283 4 0.180379 0.119738 0.679529
1211 4 0.239537 0.139773 0.68684
831 4 0.313782 0.0939547 0.718909
830 4 0.305858 0.105911 0.671003
888 4 0.257275 0.145084 0.691337
886 2 0.274523 0.137043 0.675119
829 2 0.30982 0.099933 0.694956
1142 4 0.347706 0.136624 0.685839
1107 4 0.0515226 0.189217 0.736263
851 4 0.0302561 0.186914 0.735456
850 2 0.00897204 0.200026 0.734966
1207 2 0.0743724 0.242624 0.692841
1105 2 0.0627664 0.167072 0.739154
1208 4 0.0883651 0.221929 0.693888
822 4 0.141335 0.202225 0.698409
1278 4 0.139186 0.184838 0.707561
820 2 0.122175 0.215496 0.689357
821 4 0.103015 0.228767 0.680305
1276 2 0.153132 0.184273 0.728306
1277 4 0.167079 0.183707 0.749051
976 2 0.296545 0.188493 0.744503
977 4 0.298158 0.195513 0.72056
916 2 0.320801 0.230951 0.721712
918 4 0.314566 0.207328 0.716396
3122 4 0.481729 0.224711 0.689521
3121 2 0.472226 0.246419 0.681546
1262 4 0.438626 0.250911 0.743884
3357 4 0.49827 0.215978 0.682869
1209 4 0.0603796 0.263319 0.691794
1244 4 0.0432103 0.26975 0.685086
1243 2 0.0212038 0.277448 0.694121
3188 4 0.0107817 0.275879 0.747208
1063 2 0.213456 0.307677 0.677071
946 2 0.17859 0.255149 0.666904
1065 4 0.205946 0.284892 0.684116
948 4 0.194094 0.270679 0.678888
1240 2 0.2409 0.306309 0.728277
1242 4 0.22529 0.318083 0.74386
917 4 0.327035 0.254575 0.727027
1097 4 0.309048 0.260074 0.717413
1241 4 0.256511 0.294534 0.712694
1096 2 0.29166 0.277926 0.719446
1098 4 0.274271 0.295777 0.721479
1008 4 0.337998 0.268697 0.735912
1006 2 0.357585 0.261597 0.749737
3123 4 0.462722 0.268128 0.673571
1194 4 0.435252 0.270451 0.746
1279 2 0.0546601 0.374571 0.700063
3275 4 0.0418146 0.40446 0.727704
1280 4 0.0428827 0.387005 0.71828
1281 4 0.0664376 0.362137 0.681846
3274 2 0.0549521 0.413012 0.747184
893 4 0.130527 0.345443 0.702855
892 2 0.107285 0.351956 0.69633
894 4 0.0840435 0.358469 0.689805
940 2 0.154 0.392932 0.736416
942 4 0.131712 0.403789 0.733169
1028 4 0.229132 0.370371 0.689734
941 4 0.176288 0.382075 0.739663
1068 4 0.2201 0.360968 0.705048
1067 4 0.188206 0.392489 0.727183
1066 2 0.204153 0.376729 0.716116
1027 2 0.248597 0.380262 0.677549
1228 2 0.353387 0.418047 0.705983
1229 4 0.334817 0.415398 0.689451
1230 4 0.371957 0.420697 0.722516
1983 4 0.0385128 0.49569 0.725221
1079 4 0.184015 0.473428 0.749351
1078 2 0.177367 0.449597 0.752963
1138 2 0.283342 0.426872 0.681221
1140 4 0.289689 0.445984 0.696041
1989 4 0.28475 0.462181 0.707678
1987 2 0.297334 0.469631 0.727959
1100 4 0.487992 0.49431 0.729899
1250 4 0.475945 0.486262 0.744606
1077 4 0.0828282 0.0334626 0.750623
1203 4 0.0945896 0.0383009 0.767145
1201 2 0.113013 0.024443 0.776825
2049 4 0.14559 0.0173887 0.773482
1202 4 0.131437 0.0105851 0.786505
2047 2 0.165461 0.00228801 0.771961
1148 4 0.172485 0.0695438 0.77924
1147 2 0.188563 0.053011 0.788903
1149 4 0.20464 0.0364782 0.798565
1049 4 0.224125 0.0352038 0.796071
1048 2 0.243032 0.032952 0.779865
1050 4 0.261939 0.0307001 0.763659
818 4 0.360329 0.0735811 0.81779
965 4 0.374186 0.0670336 0.831589
844 2 0.498717 0.0283599 0.761309
832 2 0.044057 0.126788 0.77129
863 4 0.0201324 0.120068 0.806514
833 4 0.0248059 0.121173 0.786225
33 3 0.0755872 0.122316 0.76741
834 4 0.0633081 0.132403 0.756355
862 2 0.0338309 0.104546 0.820536
31 1 0.0958456 0.126696 0.756978
34 3 0.109302 0.139513 0.770872
1073 4 0.123414 0.148746 0.783926
1225 2 0.179228 0.117969 0.759163
1226 4 0.18838 0.121707 0.782129
840 4 0.207633 0.126852 0.776146
838 2 0.227722 0.130056 0.790683
839 4 0.247811 0.133261 0.80522
959 4 0.263248 0.144067 0.811115
817 2 0.363936 0.0918499 0.801104
819 4 0.367543 0.110119 0.784418
1084 2 0.357133 0.150038 0.791436
1085 4 0.356534 0.125044 0.791086
3268 2 0.486726 0.134074 0.813689
3270 4 0.470207 0.136911 0.795136
1146 4 0.455666 0.143561 0.785373
1144 2 0.451287 0.165568 0.774342
778 2 0.0739949 0.206478 0.810693
779 4 0.0499178 0.213218 0.810897
1214 4 0.0501158 0.230098 0.821024
1213 2 0.0292108 0.241687 0.813686
1072 2 0.119968 0.171901 0.792708
1074 4 0.116523 0.195057 0.801491
780 4 0.0980721 0.199738 0.810489
1131 4 0.166735 0.189783 0.769647
1130 4 0.214433 0.190048 0.784666
1129 2 0.190584 0.189915 0.777156
978 4 0.294932 0.181474 0.768447
960 4 0.285678 0.184912 0.829262
958 2 0.274463 0.164489 0.820188
1086 4 0.357731 0.175032 0.791785
1299 4 0.365115 0.191148 0.782968
1297 2 0.3753 0.199038 0.804397
1298 4 0.385484 0.206928 0.825826
47 3 0.402952 0.211602 0.816564