ITEM: TIMESTEP
3110000
ITEM: NUMBER OF ATOMS
4590
ITEM: BOX BOUNDS pp pp pp
-9.9985700000000008e+00 9.9985700000000008e+00
-9.9985700000000008e+00 9.9985700000000008e+00
-9.9985700000000008e+00 9.9985700000000008e+00
ITEM: ATOMS id type xs ys zs
463 2 0.0251175 0.0449936 0.022167
464 4 0.033518 0.022593 0.0148991
465 4 0.0167171 0.0673943 0.0294349
701 4 0.0191225 0.0807584 0.0137404
1668 4 0.0870242 0.050059 0.0735415
3290 4 0.0869623 0.0496769 0.0537377
3289 2 0.0921768 0.0439953 0.0299531
3291 4 0.0973914 0.0383136 0.00616854
566 4 0.1367 0.0317041 0.0307265
565 2 0.161238 0.0289584 0.0267877
567 4 0.185776 0.0262128 0.0228489
490 2 0.309058 0.999545 0.0613949
491 4 0.314163 0.0140616 0.0416871
985 2 0.302948 0.0322983 0.00906812
987 4 0.319596 0.0217994 0.024489
2144 4 0.332732 0.00804223 0.0179354
460 2 0.280288 0.161347 0.0493608
462 4 0.298752 0.152643 0.0637998
422 4 0.065232 0.207721 0.00131607
836 4 0.0576795 0.226114 0.00497039
505 2 0.141162 0.247148 0.0705732
737 4 0.163011 0.2131 0.0649122
506 4 0.161688 0.232954 0.0690308
736 2 0.181266 0.19637 0.0614453
738 4 0.199521 0.17964 0.0579784
354 4 0.210621 0.195736 0.0537884
352 2 0.23268 0.192149 0.042576
461 4 0.261823 0.170051 0.0349217
353 4 0.254739 0.188562 0.0313636
665 4 0.361619 0.183641 0.00819812
1071 4 0.355755 0.2493 0.00783241
517 2 0.495511 0.245575 0.0756264
3339 4 0.0248096 0.290915 0.0104456
2807 4 0.00588984 0.285263 0.0180507
293 4 0.100737 0.263275 0.0671371
507 4 0.120635 0.261343 0.0721156
287 4 0.144206 0.284694 0.0183852
286 2 0.142538 0.309411 0.0150022
292 2 0.0957552 0.285247 0.0779824
356 4 0.236379 0.26736 0.00636592
483 4 0.24824 0.282102 0.000828155
612 4 0.26661 0.304838 0.0474911
610 2 0.276823 0.296133 0.0685888
609 4 0.259504 0.319784 0.0362113
571 2 0.328862 0.277746 0.00176706
572 4 0.305139 0.285644 0.00156389
573 4 0.352585 0.269849 0.00197024
741 4 0.353598 0.325871 0.0350425
1304 4 0.396458 0.313436 0.0026736
990 4 0.140731 0.350134 0.0218117
288 4 0.140869 0.334129 0.0116192
988 2 0.156105 0.36959 0.025016
1289 4 0.183944 0.401698 0.0191036
989 4 0.17148 0.389046 0.0282204
1288 2 0.197761 0.409227 0.999672
607 2 0.264595 0.343649 0.041665
250 2 0.288032 0.3955 0.044064
252 4 0.267872 0.383072 0.0360455
608 4 0.269685 0.367513 0.0471188
251 4 0.308192 0.407928 0.0520826
739 2 0.346874 0.336405 0.0566994
386 4 0.342555 0.366242 0.0742337
740 4 0.340151 0.346938 0.0783563
226 2 0.385691 0.38996 0.0310403
228 4 0.368185 0.403827 0.0422839
227 4 0.403196 0.376092 0.0197967
1305 4 0.412201 0.357952 0.0191424
1303 2 0.40433 0.335694 0.010908
1046 4 0.477999 0.351293 0.00499621
1045 2 0.486751 0.347532 0.0281139
280 2 0.463782 0.344943 0.0776995
282 4 0.486988 0.349681 0.0696877
1047 4 0.495503 0.343771 0.0512317
552 4 0.00666386 0.457958 0.0734773
550 2 0.0045479 0.470452 0.0519228
551 4 0.00243195 0.482947 0.0303683
1956 4 0.0138864 0.49904 0.0303155
1786 2 0.163844 0.488774 0.0544592
1767 4 0.126711 0.496946 0.063313
243 4 0.221994 0.434983 0.0646881
1440 4 0.242428 0.431018 0.0691884
241 2 0.209391 0.455695 0.0585752
242 4 0.196788 0.476407 0.0524623
1787 4 0.181222 0.478078 0.0400095
524 4 0.317706 0.425616 0.0488556
271 2 0.277685 0.469363 0.0731494
272 4 0.276037 0.445509 0.0804616
273 4 0.279333 0.493216 0.0658373
525 4 0.364869 0.420002 0.0332084
523 2 0.341287 0.422809 0.041032
1583 4 0.478485 0.462295 0.0369443
1582 2 0.470463 0.48396 0.0465074
1666 2 0.0661899 0.0559227 0.0860607
1667 4 0.0453556 0.0617863 0.0985799
16 1 0.0343687 0.0427976 0.131055
19 3 0.0164558 0.0535633 0.141137
17 3 0.0346377 0.0481626 0.108688
20 3 0.0321627 0.0202456 0.133334
18 3 0.0542738 0.0498191 0.140693
2480 4 0.00410336 0.0635844 0.157261
652 2 0.261075 0.0466304 0.15473
654 4 0.269879 0.0425352 0.131689
1476 4 0.26976 0.0511739 0.112611
1475 4 0.314713 0.0670741 0.0975412
1474 2 0.292236 0.059124 0.105076
486 4 0.329964 0.0235165 0.134973
1661 4 0.32526 0.00768377 0.145298
297 4 0.385756 0.0338434 0.14125
295 2 0.404641 0.048462 0.133847
484 2 0.352631 0.033601 0.131863
485 4 0.375298 0.0436855 0.128753
745 2 0.474376 0.0379768 0.0864238
746 4 0.464386 0.0606858 0.0833121
296 4 0.423527 0.0630805 0.126443
557 4 0.426104 0.0809631 0.1172
556 2 0.450398 0.07844 0.122547
558 4 0.474693 0.0759169 0.127894
747 4 0.484366 0.0152677 0.0895355
450 4 0.0759475 0.119706 0.0881333
236 4 0.129717 0.143861 0.122751
449 4 0.119103 0.132912 0.109671
448 2 0.0975255 0.126309 0.0989022
235 2 0.141114 0.138257 0.144288
237 4 0.152512 0.132653 0.165826
477 4 0.22588 0.161643 0.136185
29 3 0.242244 0.151803 0.141624
580 2 0.31098 0.113097 0.143484
581 4 0.290041 0.126417 0.146534
30 3 0.278958 0.143453 0.141833
582 4 0.331919 0.0997767 0.140434
26 1 0.261566 0.151007 0.154447
758 4 0.351218 0.0937037 0.134788
757 2 0.359681 0.0904388 0.158088
771 4 0.476097 0.0834863 0.147025
769 2 0.479216 0.104797 0.159725
371 4 0.202034 0.214498 0.14091
476 4 0.206091 0.205713 0.123265
475 2 0.215986 0.183678 0.129725
370 2 0.181219 0.220992 0.153146
27 3 0.266342 0.172196 0.162022
756 4 0.358264 0.241314 0.118656
754 2 0.35052 0.244915 0.142156
755 4 0.342776 0.248516 0.165656
518 4 0.485526 0.22662 0.0885176
294 4 0.0907739 0.307218 0.0888277
456 4 0.10381 0.322117 0.0876081
611 4 0.287035 0.287429 0.0896865
279 4 0.2774 0.273103 0.145179
277 2 0.279514 0.270778 0.120374
278 4 0.281627 0.268453 0.0955686
285 4 0.281469 0.27073 0.164658
255 4 0.37013 0.255308 0.112284
253 2 0.394523 0.257635 0.107308
624 4 0.46817 0.257421 0.14453
254 4 0.418916 0.259962 0.102332
629 4 0.474508 0.262474 0.12511
628 2 0.452781 0.269391 0.114849
630 4 0.431054 0.276308 0.104589
671 4 0.425474 0.331637 0.0962213
619 2 0.0427393 0.369402 0.127385
620 4 0.0630727 0.380724 0.118245
621 4 0.0224059 0.35808 0.136525
2694 4 0.00561684 0.401711 0.123062
455 4 0.116337 0.352985 0.124903
454 2 0.110073 0.337551 0.106256
537 4 0.113016 0.39362 0.141236
535 2 0.132561 0.380725 0.132468
536 4 0.152106 0.36783 0.123699
647 4 0.120543 0.401104 0.15947
625 2 0.21579 0.381295 0.138857
627 4 0.220658 0.399461 0.122381
626 4 0.210923 0.363128 0.155333
1439 4 0.236554 0.409289 0.113843
301 2 0.32481 0.414348 0.134388
670 2 0.406736 0.344294 0.106892
385 2 0.346517 0.371738 0.0983019
387 4 0.350479 0.377233 0.12237
12 3 0.392402 0.374385 0.126742
11 1 0.384605 0.395655 0.130733
15 3 0.363107 0.397265 0.12339
672 4 0.387998 0.356951 0.117563
302 4 0.341986 0.396878 0.129392
13 3 0.385512 0.39982 0.153542
14 3 0.398007 0.410812 0.119374
281 4 0.440575 0.340205 0.0857114
104 3 0.497599 0.353952 0.0865334
315 4 0.00533159 0.415744 0.106666
313 2 0.000564472 0.438899 0.0985253
1618 2 0.158195 0.493411 0.110612
1431 4 0.16448 0.485481 0.150451
1619 4 0.145892 0.496082 0.0890093
1620 4 0.170497 0.49074 0.132215
1438 2 0.239491 0.420154 0.0915159
639 4 0.279892 0.491433 0.139205
638 4 0.304998 0.449208 0.148552
637 2 0.292445 0.470321 0.143879
303 4 0.307635 0.431818 0.139383
659 4 0.318298 0.448452 0.164698
1574 4 0.273976 0.492861 0.121108
1559 4 0.381627 0.497684 0.130961
495 4 0.400092 0.427684 0.129113
493 2 0.410855 0.449261 0.122497
494 4 0.421617 0.470838 0.115882
674 4 0.157004 0.0659263 0.216211
688 2 0.150609 0.0427168 0.189358
689 4 0.155554 0.0201778 0.179728
690 4 0.145665 0.0652557 0.198987
1505 4 0.173574 0.0118427 0.177135
1504 2 0.198394 0.00900042 0.176105
1506 4 0.223214 0.00615815 0.175076
693 4 0.260386 0.0681726 0.185995
653 4 0.25227 0.0507257 0.177771
691 2 0.278276 0.0773852 0.200835
22 3 0.389104 0.06086 0.218772
698 4 0.407956 0.0625916 0.225449
697 2 0.408116 0.0403931 0.236954
25 3 0.385016 0.0744535 0.184255
21 1 0.385693 0.0799201 0.206353
333 4 0.412734 0.0812161 0.221192
699 4 0.408277 0.0181946 0.24846
351 4 0.48912 0.0420576 0.184948
349 2 0.483477 0.0613022 0.19988
742 2 0.495541 0.0100031 0.242604
350 4 0.477833 0.0805468 0.214813
513 4 0.0141861 0.150406 0.229431
578 4 0.0310369 0.153721 0.23831
511 2 0.00395228 0.132351 0.215485
673 2 0.153459 0.0849083 0.232095
675 4 0.149915 0.10389 0.247978
546 4 0.134863 0.116005 0.247885
28 3 0.258384 0.137052 0.17271
1699 2 0.332604 0.0929354 0.207626
1701 4 0.311224 0.0969781 0.219945
692 4 0.296166 0.0865979 0.215676
1700 4 0.353983 0.0888927 0.195307
759 4 0.368143 0.0871738 0.181389
23 3 0.36557 0.0895396 0.212749
24 3 0.403147 0.0946844 0.210325
770 4 0.482335 0.126108 0.172426
331 2 0.437407 0.0847166 0.223225
312 4 0.475251 0.115266 0.189026
310 2 0.475648 0.13099 0.208463
332 4 0.462081 0.0882171 0.225258
311 4 0.476045 0.146713 0.2279
521 4 0.482765 0.149062 0.247506
577 2 0.0355728 0.178277 0.239565
529 2 0.0146237 0.219441 0.209136
530 4 0.032743 0.21075 0.224013
579 4 0.0401087 0.202834 0.24082
372 4 0.160403 0.227486 0.165382
362 4 0.158426 0.246208 0.172656
361 2 0.135924 0.249643 0.183003
339 4 0.0368612 0.286603 0.174028
704 4 0.0292031 0.305136 0.171732
337 2 0.060356 0.281031 0.180519
703 2 0.0247096 0.32248 0.189173
2615 4 0.0089216 0.326421 0.21693
363 4 0.113423 0.253078 0.193351
338 4 0.0838507 0.27546 0.187011
395 4 0.0981642 0.263886 0.19783
396 4 0.0976755 0.267923 0.247672
394 2 0.0979199 0.265905 0.222751
283 2 0.289254 0.275743 0.187884
284 4 0.297039 0.280757 0.211109
622 2 0.458385 0.256731 0.167529
528 4 0.4177 0.315073 0.202
623 4 0.4486 0.256041 0.190528
527 4 0.434407 0.268154 0.197505
526 2 0.426053 0.291613 0.199752
542 4 0.42225 0.327662 0.217593
541 2 0.424689 0.32667 0.242457
705 4 0.0202162 0.339824 0.206613
263 4 0.0293098 0.398026 0.248727
300 4 0.110255 0.368821 0.213104
646 2 0.11602 0.394072 0.183035
648 4 0.111497 0.387041 0.206599
298 2 0.101166 0.362399 0.235495
289 2 0.22478 0.403062 0.233171
416 4 0.204047 0.403349 0.198168
290 4 0.217951 0.396719 0.209969
597 4 0.37467 0.390965 0.170079
345 4 0.351771 0.349814 0.214521
596 4 0.349844 0.35622 0.196101
645 4 0.379983 0.413759 0.168719
595 2 0.362257 0.373593 0.18309
343 2 0.360362 0.352875 0.237802
262 2 0.033743 0.422624 0.248074
264 4 0.0381762 0.447223 0.24742
1429 2 0.160831 0.467782 0.167732
1430 4 0.157181 0.450084 0.185013
415 2 0.188651 0.421289 0.190027
417 4 0.173254 0.439229 0.181886
438 4 0.268038 0.463469 0.215244
436 2 0.267522 0.468 0.239829
658 2 0.340868 0.458702 0.167973
643 2 0.394735 0.426727 0.184191
644 4 0.409488 0.439695 0.199663
660 4 0.363438 0.468953 0.171247
231 4 0.379405 0.469998 0.181514
447 4 0.410102 0.455335 0.212973
445 2 0.414882 0.446917 0.236027
229 2 0.375327 0.488791 0.197496
1403 4 0.0248558 0.019525 0.26908
233 4 0.034693 0.0313135 0.279183
232 2 0.043475 0.0543278 0.274894
234 4 0.0522569 0.077342 0.270604
1402 2 0.0383008 0.999918 0.261336
606 4 0.148391 0.0728159 0.325968
1407 4 0.242648 0.00275616 0.283992
722 4 0.196404 0.0510749 0.269701
1405 2 0.231878 0.025225 0.286076
1406 4 0.221108 0.0476938 0.28816
721 2 0.189328 0.0721859 0.281078
1518 4 0.420915 0.0119065 0.261625
743 4 0.496296 0.0217855 0.264644
425 4 0.488659 0.0197173 0.284257
424 2 0.475759 0.037083 0.296796
258 4 0.449181 0.0687811 0.308462
426 4 0.46286 0.0544487 0.309334
317 4 0.0415201 0.0944043 0.275276
316 2 0.0636925 0.105958 0.274991
318 4 0.0858648 0.117511 0.274707
392 4 0.0888566 0.161846 0.271359
544 2 0.119758 0.133877 0.256694
545 4 0.104652 0.151749 0.265503
723 4 0.182252 0.0932969 0.292455
599 4 0.193954 0.0907936 0.306839
403 2 0.248464 0.133397 0.292883
405 4 0.228703 0.148184 0.288886
401 4 0.225318 0.165065 0.300446
598 2 0.201407 0.104253 0.326549
404 4 0.268226 0.118609 0.29688
256 2 0.455032 0.0878745 0.323508
391 2 0.0926742 0.168061 0.295275
393 4 0.0964917 0.174277 0.319191
400 2 0.212863 0.186576 0.303156
402 4 0.200408 0.208087 0.305866
763 2 0.448331 0.195971 0.313574
764 4 0.450875 0.175164 0.299944
765 4 0.445788 0.216778 0.327204
442 2 0.0673865 0.278879 0.271507
444 4 0.0475021 0.27551 0.286286
443 4 0.087271 0.282248 0.256727
497 4 0.311887 0.284117 0.334999
543 4 0.427129 0.325678 0.267322
2493 4 0.00962316 0.376169 0.306746
749 4 0.0673845 0.337051 0.301317
366 4 0.0540923 0.35013 0.296413
365 4 0.00596144 0.355909 0.308691
364 2 0.0300269 0.353019 0.302552
602 4 0.0728915 0.399336 0.318476
777 4 0.0830176 0.408375 0.303513
748 2 0.0860657 0.34545 0.286978
299 4 0.0920765 0.355978 0.257885
750 4 0.104747 0.35385 0.272638
735 4 0.154191 0.393513 0.294988
733 2 0.156239 0.376414 0.27686
734 4 0.158287 0.359316 0.258732
677 4 0.159772 0.412307 0.29161
291 4 0.231609 0.409404 0.256373
414 4 0.226278 0.402051 0.273212
412 2 0.242871 0.407297 0.291166
504 4 0.200616 0.395664 0.332143
413 4 0.259463 0.412543 0.30912
727 2 0.327136 0.402657 0.329785
344 4 0.368952 0.355936 0.261083
308 4 0.352371 0.37892 0.313746
729 4 0.345872 0.386234 0.331889
615 4 0.415728 0.332909 0.281994
309 4 0.351309 0.361627 0.266836
307 2 0.35184 0.370274 0.290291
614 4 0.431032 0.345432 0.327925
613 2 0.42338 0.33917 0.30496
2924 4 0.498531 0.356061 0.326549
2923 2 0.474997 0.347817 0.328384
2862 4 0.49035 0.407062 0.275386
120 3 0.481357 0.405277 0.296064
118 3 0.495234 0.375149 0.31388
713 4 0.468995 0.41419 0.280393
2925 4 0.451463 0.339573 0.330219
116 1 0.495577 0.398305 0.31243
775 2 0.0952824 0.424844 0.289247
1757 4 0.116207 0.459912 0.273508
776 4 0.107547 0.441313 0.274981
1756 2 0.112558 0.479418 0.288719
1758 4 0.108908 0.498924 0.303931
1775 4 0.108213 0.497712 0.324763
1545 4 0.23373 0.499724 0.301083
676 2 0.177878 0.428151 0.284803
678 4 0.195983 0.443995 0.277997
768 4 0.18361 0.457299 0.269907
766 2 0.194398 0.479834 0.270894
728 4 0.308399 0.419079 0.327681
437 4 0.267007 0.472531 0.264413
1437 4 0.289419 0.492444 0.284683
433 2 0.305064 0.454366 0.30379
435 4 0.294852 0.474185 0.292473
434 4 0.315276 0.434546 0.315108
5 3 0.263963 0.422913 0.327597
446 4 0.419662 0.438499 0.25908
712 2 0.447408 0.426734 0.279047
714 4 0.425821 0.439278 0.277701
731 4 0.0696867 0.0796018 0.40964
730 2 0.0909247 0.0785378 0.396487
604 2 0.137 0.0703805 0.348093
605 4 0.125609 0.0679451 0.370217
732 4 0.112163 0.0774738 0.383334
683 4 0.24624 0.0666358 0.364868
321 4 0.236853 0.0768631 0.379263
249 4 0.303652 0.0400891 0.348803
684 4 0.284612 0.0418478 0.344525
682 2 0.265426 0.0542418 0.354697
247 2 0.32629 0.0469047 0.356943
248 4 0.348927 0.0537204 0.365083
633 4 0.345192 0.0570278 0.384794
631 2 0.345144 0.0742854 0.402887
1747 2 0.469285 0.00854979 0.34771
480 4 0.496603 0.0341202 0.351912
1749 4 0.485114 0.0252776 0.337974
399 4 0.0980152 0.163867 0.337011
397 2 0.104907 0.141425 0.345616
398 4 0.111798 0.118983 0.354221
600 4 0.208859 0.117712 0.346259
685 2 0.201402 0.141044 0.378377
687 4 0.195609 0.12767 0.358061
686 4 0.207196 0.154419 0.398692
410 4 0.223718 0.14816 0.407808
319 2 0.249078 0.0894825 0.397053
320 4 0.261303 0.102102 0.414843
419 4 0.371831 0.16182 0.38162
418 2 0.358608 0.14295 0.391328
420 4 0.345385 0.12408 0.401036
716 4 0.375689 0.160152 0.362448
257 4 0.460883 0.106968 0.338554
760 2 0.48855 0.125768 0.354478
761 4 0.474787 0.104969 0.352696
515 4 0.477114 0.120084 0.409727
388 2 0.0964002 0.236344 0.404175
274 2 0.153267 0.232735 0.375942
276 4 0.12936 0.23994 0.377266
389 4 0.111101 0.241361 0.384582
473 4 0.23014 0.225735 0.348629
474 4 0.18305 0.213346 0.360021
472 2 0.206595 0.21954 0.354325
275 4 0.177173 0.225531 0.374618
707 4 0.281271 0.190104 0.344586
708 4 0.252878 0.229018 0.358015
651 4 0.253787 0.234082 0.388969
649 2 0.256948 0.214194 0.403791
706 2 0.267075 0.209561 0.3513
489 4 0.25759 0.24456 0.371736
377 4 0.402375 0.216406 0.352937
717 4 0.403871 0.197142 0.34406
715 2 0.38978 0.178647 0.353254
376 2 0.388586 0.237197 0.351264
1258 2 0.128704 0.311634 0.398568
1259 4 0.144122 0.312138 0.378891
509 4 0.227239 0.305147 0.362189
488 4 0.237381 0.288098 0.35771
508 2 0.228531 0.327612 0.37309
487 2 0.247485 0.266329 0.364723
378 4 0.374798 0.257988 0.34959
496 2 0.334676 0.274205 0.337757
267 4 0.346071 0.319176 0.358521
498 4 0.357464 0.264294 0.340516
266 4 0.382951 0.294374 0.381443
585 4 0.383039 0.274003 0.378853
583 2 0.379404 0.263882 0.401426
265 2 0.364511 0.306775 0.369982
268 2 0.49894 0.264518 0.364601
270 4 0.483466 0.27243 0.382577
306 4 0.493598 0.283538 0.396901
407 4 0.0208264 0.405495 0.404184
601 2 0.0884952 0.398698 0.338003
603 4 0.104099 0.398061 0.357529
549 4 0.0973392 0.417071 0.360909
502 2 0.197898 0.415402 0.34725
510 4 0.229823 0.350077 0.383991
374 4 0.240223 0.366484 0.389842
373 2 0.245358 0.384898 0.373726
375 4 0.250492 0.403313 0.35761
3 3 0.270766 0.405299 0.360172
751 2 0.481963 0.410891 0.374476
119 3 0.489407 0.407608 0.332771
753 4 0.482993 0.402041 0.351114
561 4 0.493781 0.407059 0.405687
3672 4 0.0514357 0.486769 0.343757
679 2 0.0256028 0.490725 0.374074
680 4 0.028416 0.473799 0.392262
406 2 0.0232283 0.429716 0.398462
408 4 0.0256302 0.453938 0.392741
547 2 0.110592 0.429831 0.377841
569 4 0.110489 0.448112 0.408158
548 4 0.123846 0.442591 0.394774
503 4 0.19518 0.43514 0.362357
635 4 0.177493 0.497428 0.360667
634 2 0.184081 0.473803 0.355805
636 4 0.190669 0.450178 0.350943
669 4 0.281896 0.49676 0.391384
2 3 0.297704 0.425402 0.343354
1 1 0.275096 0.424196 0.347423
668 4 0.260471 0.455506 0.37295
4 3 0.268528 0.443219 0.358974
667 2 0.271183 0.476133 0.382167
1401 4 0.331053 0.447475 0.416569
752 4 0.480934 0.41974 0.397839
368 4 0.063815 0.0628779 0.418718
718 2 0.0420292 0.0637452 0.491796
719 4 0.0456112 0.0627317 0.467071
369 4 0.031712 0.0709163 0.456208
367 2 0.0477635 0.0668971 0.437463
2430 4 0.159617 0.056228 0.44892
341 4 0.167549 0.0698843 0.46086
441 4 0.210942 0.0110925 0.459285
2428 2 0.178432 0.0411806 0.455609
2429 4 0.197247 0.0261333 0.462299
1218 4 0.376992 0.0419281 0.496369
2878 2 0.4679 0.00879937 0.465497
2880 4 0.480272 0.0305276 0.465503
642 4 0.476754 0.047314 0.455854
640 2 0.481471 0.0690887 0.444506
340 2 0.160928 0.0923338 0.469655
1152 4 0.156183 0.134227 0.48026
342 4 0.154307 0.114783 0.478451
409 2 0.239232 0.164219 0.419059
1150 2 0.171237 0.146371 0.496105
725 4 0.26565 0.11144 0.432803
724 2 0.274794 0.107556 0.455748
726 4 0.283939 0.103672 0.478693
432 4 0.276184 0.109529 0.495714
632 4 0.345095 0.0915431 0.42098
468 4 0.350118 0.0939078 0.439692
467 4 0.366996 0.140543 0.446094
466 2 0.358557 0.117225 0.442893
574 2 0.410824 0.138459 0.441735
576 4 0.385828 0.138483 0.441111
641 4 0.486189 0.0908634 0.433157
3158 4 0.492004 0.123306 0.423288
575 4 0.43582 0.138435 0.442359
516 4 0.449451 0.152157 0.436313
514 2 0.463282 0.13612 0.42302
260 4 0.0751987 0.17816 0.477743
469 2 0.0750754 0.206941 0.452783
471 4 0.0646068 0.186167 0.461951
390 4 0.0816991 0.231327 0.423768
470 4 0.085544 0.227714 0.443615
650 4 0.260109 0.194307 0.418612
411 4 0.254746 0.180279 0.43031
2455 2 0.406822 0.23111 0.434547
2456 4 0.393674 0.245081 0.418512
2457 4 0.419971 0.21714 0.450582
616 2 0.0213369 0.271116 0.430715
617 4 0.045923 0.273843 0.434358
695 4 0.0806455 0.260662 0.431196
1260 4 0.113285 0.311129 0.418246
694 2 0.0912224 0.283309 0.431865
696 4 0.101799 0.305955 0.432534
878 4 0.116423 0.267011 0.489989
584 4 0.375769 0.253762 0.423999
304 2 0.484401 0.273122 0.417688
1010 4 0.459906 0.317495 0.470391
1009 2 0.462965 0.293628 0.463592
1011 4 0.466023 0.269762 0.456793
305 4 0.475204 0.262706 0.438475
2507 4 0.471537 0.332894 0.47523
709 2 0.135116 0.414539 0.473355
326 4 0.105723 0.360481 0.443533
325 2 0.129882 0.355197 0.44722
327 4 0.15404 0.349913 0.450908
8 3 0.152898 0.377427 0.49031
9 3 0.160881 0.341374 0.499305
711 4 0.144719 0.394597 0.484986
7 3 0.168741 0.35459 0.465009
6 1 0.167909 0.359982 0.487356
10 3 0.188647 0.366311 0.494322
1191 4 0.203382 0.34966 0.497448
1189 2 0.226439 0.359328 0.497736
1190 4 0.249496 0.368997 0.498023
335 4 0.356087 0.401859 0.456308
238 2 0.357661 0.398231 0.496711
240 4 0.367329 0.39787 0.473655
560 4 0.485608 0.389373 0.451743
559 2 0.489695 0.398216 0.428715
2506 2 0.470631 0.355416 0.464408
2508 4 0.469726 0.377939 0.453587
540 4 0.0398246 0.460243 0.469705
1381 2 0.000111148 0.439941 0.471355
1382 4 0.0218911 0.452042 0.473452
538 2 0.043868 0.46906 0.492751
772 2 0.112861 0.492009 0.459383
774 4 0.0978959 0.499486 0.4408
384 4 0.115628 0.493416 0.491509
568 2 0.108774 0.441378 0.432176
570 4 0.107058 0.434645 0.456195
710 4 0.125513 0.434481 0.461724
773 4 0.127827 0.484533 0.477966
1394 4 0.246102 0.496151 0.478541
586 2 0.322333 0.499167 0.471007
1399 2 0.328468 0.471047 0.424497
1400 4 0.325884 0.494619 0.432426
588 4 0.314966 0.489805 0.449024
1446 4 0.254424 0.47914 0.486688
336 4 0.343266 0.443712 0.432128
334 2 0.349676 0.422786 0.444218
1127 4 0.0325686 0.0607823 0.535929
720 4 0.0384472 0.0647588 0.516521
1126 2 0.0105606 0.055982 0.546782
1031 4 0.163128 0.0797819 0.54619
949 2 0.193004 0.0780168 0.567704
1182 4 0.224721 0.0644876 0.576366
1180 2 0.240718 0.0473037 0.567765
963 4 0.275493 0.0245614 0.565321
1181 4 0.256715 0.0301198 0.559163
961 2 0.287874 0.00283982 0.565096
1216 2 0.371412 0.0605452 0.5121
1217 4 0.365833 0.0791623 0.52783
842 4 0.35744 0.0705904 0.543797
810 4 0.496102 0.0654155 0.574985
2283 4 0.434903 0.00934161 0.579595
1035 4 0.0731483 0.137874 0.582186
1033 2 0.0734905 0.146651 0.558776
1034 4 0.0738326 0.155427 0.535366
1030 2 0.140021 0.0891214 0.548203
1032 4 0.116915 0.0984608 0.550216
1154 4 0.109563 0.0991097 0.568777
951 4 0.178925 0.0906077 0.55132
1151 4 0.186291 0.158515 0.51195
939 4 0.193843 0.148264 0.528514
937 2 0.186309 0.157586 0.550457
938 4 0.178774 0.166908 0.572401
843 4 0.315135 0.0963273 0.550768
431 4 0.300712 0.096939 0.537434
430 2 0.288448 0.103234 0.516574
841 2 0.336288 0.0834589 0.547282
857 4 0.351253 0.132441 0.575865
898 2 0.375882 0.163899 0.568481
808 2 0.499844 0.0837829 0.558438
261 4 0.0619863 0.16756 0.524794
259 2 0.0685925 0.17286 0.501269
1272 4 0.101051 0.244202 0.548386
1270 2 0.107802 0.227648 0.565867
900 4 0.389267 0.18018 0.555029
872 4 0.403126 0.193265 0.546592
873 4 0.376874 0.235188 0.553941
871 2 0.39 0.214227 0.550267
813 4 0.361178 0.241689 0.562529
811 2 0.345591 0.235417 0.581047
879 4 0.115669 0.250866 0.537312
877 2 0.116046 0.258938 0.513651
1239 4 0.273689 0.270391 0.568669
1237 2 0.293079 0.277115 0.582952
1205 4 0.404821 0.299669 0.577177
1204 2 0.384842 0.314 0.581721
930 4 0.348192 0.330343 0.574718
905 4 0.479685 0.253472 0.579842
953 4 0.462549 0.261636 0.582883
983 4 0.0567902 0.398583 0.576385
982 2 0.0330237 0.39403 0.582678
896 4 0.192833 0.35901 0.515707
897 4 0.177978 0.355729 0.563344
895 2 0.185406 0.35737 0.539526
1137 4 0.188648 0.366224 0.577067
802 2 0.280893 0.363737 0.527702
804 4 0.301466 0.358104 0.540748
929 4 0.319441 0.361153 0.547794
803 4 0.260319 0.36937 0.514657
928 2 0.333817 0.345748 0.561256
239 4 0.347992 0.398592 0.519767
1001 4 0.463507 0.386966 0.550063
926 4 0.464331 0.375365 0.534017
925 2 0.481592 0.365188 0.519062
1000 2 0.463165 0.386659 0.575062
927 4 0.498854 0.355011 0.504107
1938 4 0.042686 0.474572 0.577117
1936 2 0.0517738 0.475895 0.553861
1937 4 0.0608616 0.477217 0.530605
539 4 0.0479113 0.477878 0.515796
382 2 0.122288 0.492317 0.515584
383 4 0.128947 0.491218 0.539659
2242 2 0.142291 0.497182 0.579852
1039 2 0.0885529 0.421621 0.579843
1040 4 0.11111 0.429536 0.572514
1171 2 0.243373 0.461664 0.578954
1173 4 0.220158 0.468361 0.57252
882 4 0.284367 0.455675 0.573593
880 2 0.292579 0.464865 0.551838
881 4 0.300792 0.474055 0.530083
1445 4 0.290202 0.462219 0.517255
1444 2 0.272313 0.47068 0.501971
1455 4 0.334701 0.496426 0.554767
1953 4 0.339078 0.491956 0.573779
1185 4 0.0156288 0.044978 0.645495
945 4 0.0337453 0.0383281 0.653467
1058 4 0.0969095 0.0152113 0.639904
1057 2 0.096925 0.0376889 0.628952
1155 4 0.0902544 0.0653711 0.600235
1059 4 0.0969405 0.0601665 0.618001
1153 2 0.0999087 0.0822404 0.584506
950 4 0.207083 0.065426 0.584089
1004 4 0.311907 0.0755654 0.663487
1925 4 0.386385 0.00491102 0.640849
2282 4 0.478387 0.0238527 0.599578
2281 2 0.456645 0.0165972 0.589586
43 3 0.470271 0.0412064 0.606453
41 1 0.478503 0.0626748 0.609575
44 3 0.461481 0.0781805 0.606708
45 3 0.495323 0.0667755 0.594778
42 3 0.486663 0.064467 0.631008
1163 4 0.490089 0.0753888 0.64718
1082 4 0.06175 0.136173 0.598172
1081 2 0.0394729 0.145652 0.604422
1083 4 0.0171958 0.155131 0.610672
1221 4 0.139083 0.0854205 0.642442
1219 2 0.156793 0.102998 0.640846
1220 4 0.174503 0.120576 0.63925
1212 4 0.192889 0.126364 0.63205
1210 2 0.216766 0.119447 0.634736
1211 4 0.240643 0.112529 0.637422
1005 4 0.306356 0.0935048 0.61714
1003 2 0.309132 0.0845351 0.640313
856 2 0.329161 0.140615 0.58425
858 4 0.307069 0.148789 0.592635
888 4 0.254662 0.126653 0.647434
886 2 0.275358 0.128087 0.661391
899 4 0.362497 0.147619 0.581934
1143 4 0.377154 0.155543 0.659769
1141 2 0.361174 0.136399 0.661595
1142 4 0.345195 0.117254 0.663421
1271 4 0.114554 0.211094 0.583347
909 4 0.135 0.206041 0.586031
907 2 0.153194 0.211761 0.602201
947 4 0.164461 0.233641 0.628909
908 4 0.171388 0.21748 0.61837
946 2 0.181863 0.248922 0.638333
812 4 0.330005 0.229144 0.599564
798 4 0.316268 0.216209 0.605278
796 2 0.312933 0.191607 0.60231
797 4 0.309599 0.167005 0.599341
1025 4 0.363238 0.168902 0.653268
1024 2 0.375956 0.179202 0.634364
1026 4 0.388673 0.189501 0.615461
948 4 0.199265 0.264204 0.647758
1065 4 0.213922 0.273316 0.657671
792 4 0.326256 0.281254 0.613341
790 2 0.325659 0.304029 0.623643
1238 4 0.31247 0.283839 0.597234
791 4 0.325061 0.326804 0.633944
1206 4 0.364863 0.328332 0.586264
954 4 0.424304 0.293846 0.583609
952 2 0.443427 0.277741 0.583246
1041 4 0.0659961 0.413705 0.587172
984 4 0.00925724 0.389477 0.588971
893 4 0.126597 0.339919 0.661778
992 4 0.16832 0.414871 0.604658
1135 2 0.179993 0.3809 0.595367
1136 4 0.171337 0.395575 0.613667
1910 4 0.448545 0.39162 0.613272
1002 4 0.462824 0.386352 0.600062
1909 2 0.440132 0.411431 0.625996
936 4 0.0250637 0.478604 0.583365
2022 4 0.036759 0.482327 0.665079
991 2 0.146752 0.423675 0.595575
993 4 0.125185 0.432478 0.586492
2243 4 0.153278 0.494155 0.602108
1160 4 0.218897 0.480339 0.588745
1159 2 0.195771 0.487732 0.594718
1161 4 0.172645 0.495126 0.600692
1172 4 0.266588 0.454967 0.585387
1951 2 0.347607 0.492227 0.597281
889 2 0.382794 0.488904 0.652137
1952 4 0.356136 0.492499 0.620783
891 4 0.371071 0.498697 0.632342
1267 2 0.417819 0.446234 0.664116
1911 4 0.43172 0.431243 0.638721
1268 4 0.438037 0.432911 0.657877
943 2 0.0441439 0.028849 0.674136
1076 4 0.0491096 0.025385 0.71253
944 4 0.0545426 0.0193699 0.694804
1075 2 0.064779 0.0389821 0.726485
1077 4 0.0804484 0.0525791 0.740441
1283 4 0.170812 0.0768395 0.696073
1113 4 0.480045 0.00284373 0.745799
32 3 0.101828 0.132576 0.726754
35 3 0.0835412 0.159193 0.745463
31 1 0.0955109 0.139938 0.747612
1282 2 0.171057 0.0893907 0.717696
1284 4 0.171303 0.101942 0.73932
1227 4 0.188875 0.107785 0.736149
830 4 0.296926 0.109446 0.677081
887 4 0.296054 0.12952 0.675348
829 2 0.313293 0.10485 0.695416
831 4 0.32966 0.100254 0.71375
1105 2 0.0473832 0.16813 0.742245
851 4 0.00934266 0.185739 0.737502
1107 4 0.0293434 0.183024 0.733418
3188 4 0.0189405 0.249218 0.736805
822 4 0.13207 0.219711 0.706738
1278 4 0.144065 0.21149 0.721477
820 2 0.111334 0.232914 0.711307
821 4 0.0905978 0.246117 0.715876
1276 2 0.152796 0.202337 0.743045
977 4 0.300722 0.224776 0.731989
916 2 0.31381 0.239963 0.703441
918 4 0.31535 0.220627 0.719218
3122 4 0.488154 0.245896 0.690112
3121 2 0.463394 0.248406 0.687699
1145 4 0.456065 0.207652 0.74733
3357 4 0.499455 0.242793 0.672722
1263 4 0.45551 0.224138 0.734263
1261 2 0.446442 0.243843 0.7467
1208 4 0.0783279 0.250371 0.700276
1207 2 0.0619416 0.267942 0.707198
1209 4 0.0455553 0.285513 0.714121
1244 4 0.0339246 0.295996 0.700559
1243 2 0.0102196 0.288042 0.700519
1063 2 0.235991 0.278362 0.668284
1240 2 0.246231 0.296126 0.741114
1241 4 0.246282 0.318523 0.729998
1064 4 0.258061 0.283408 0.678898
917 4 0.31227 0.2593 0.687664
1097 4 0.308861 0.279293 0.687566
1096 2 0.285251 0.286153 0.692116
1098 4 0.261641 0.293012 0.696667
1008 4 0.349802 0.249679 0.709704
1006 2 0.362832 0.259186 0.728809
1007 4 0.375862 0.268692 0.747915
1193 4 0.414074 0.312779 0.752046
3123 4 0.438634 0.250916 0.685286
1279 2 0.0574946 0.35888 0.703314
3275 4 0.041596 0.383679 0.733101
1280 4 0.0401831 0.369164 0.718137
1281 4 0.0748061 0.348596 0.688491
894 4 0.0906869 0.361126 0.689372
892 2 0.108642 0.350523 0.675575
940 2 0.158236 0.387954 0.745096
1028 4 0.231324 0.360925 0.669129
1068 4 0.220392 0.360052 0.685851
1067 4 0.180805 0.377936 0.710625
1066 2 0.200599 0.368994 0.698238
941 4 0.168256 0.373339 0.727456
1029 4 0.272113 0.389789 0.671093
1139 4 0.286507 0.399135 0.68104
1027 2 0.251719 0.375357 0.670111
1229 4 0.359459 0.39685 0.711975
2021 4 0.0501186 0.494579 0.711685
1981 2 0.0299083 0.495116 0.743364
2020 2 0.0434388 0.488453 0.688382
2172 4 0.193371 0.493577 0.674176
1138 2 0.292899 0.423214 0.683166
1140 4 0.299291 0.447293 0.685291
1989 4 0.292711 0.462587 0.696741
1987 2 0.300534 0.472315 0.718405
1988 4 0.308356 0.482044 0.740069
1269 4 0.397602 0.459557 0.670356
890 4 0.394517 0.479112 0.671933
1228 2 0.369193 0.418112 0.703124
1230 4 0.378927 0.439375 0.694274
1250 4 0.461844 0.476006 0.744096
1100 4 0.44617 0.486015 0.734738
1895 4 0.0493525 0.00173656 0.817845
862 2 0.046875 0.0720439 0.80971
864 4 0.0584715 0.061504 0.829194
863 4 0.0352784 0.0825837 0.790227
2047 2 0.162144 0.0100127 0.768528
1203 4 0.094897 0.0438613 0.750065
1202 4 0.124264 0.0214593 0.783776
1201 2 0.10958 0.0326603 0.76692
2049 4 0.142212 0.0234986 0.775312
1147 2 0.218536 0.0646693 0.808015
1149 4 0.241925 0.0627747 0.799383
1148 4 0.195146 0.0665638 0.816647
1049 4 0.253237 0.0596856 0.814874
1048 2 0.271499 0.0431444 0.819124
1050 4 0.289761 0.0266031 0.823373
818 4 0.364772 0.0663327 0.807277
965 4 0.367064 0.0557006 0.826284
846 4 0.488696 0.0187942 0.755639
1106 4 0.065423 0.153237 0.751072
832 2 0.051707 0.118704 0.773107
833 4 0.0366195 0.101523 0.783224
33 3 0.0824846 0.123603 0.757705
834 4 0.0667945 0.135885 0.762989
34 3 0.114558 0.143829 0.76028
1073 4 0.125326 0.150899 0.77609
1225 2 0.194365 0.118558 0.758035
1226 4 0.199855 0.129331 0.77992
840 4 0.212429 0.128122 0.79502
838 2 0.233877 0.131972 0.807282