ITEM: TIMESTEP
210000
ITEM: NUMBER OF ATOMS
4590
ITEM: BOX BOUNDS pp pp pp
-9.9985700000000008e+00 9.9985700000000008e+00
-9.9985700000000008e+00 9.9985700000000008e+00
-9.9985700000000008e+00 9.9985700000000008e+00
ITEM: ATOMS id type xs ys zs
463 2 0.0319044 0.0432393 0.0238024
465 4 0.0440728 0.065014 0.0220781
464 4 0.0197361 0.0214646 0.0255266
1666 2 0.0688806 0.0143088 0.0852724
1668 4 0.0597975 0.00197314 0.105034
1667 4 0.0779638 0.0266444 0.0655112
532 2 0.198278 0.0580284 0.995033
534 4 0.208499 0.0713602 0.0135534
490 2 0.279585 0.0518353 0.0451183
491 4 0.273115 0.0612915 0.067342
492 4 0.286055 0.042379 0.0228945
295 2 0.364187 0.0483065 0.0858696
296 4 0.375256 0.0406577 0.0647944
557 4 0.366321 0.085692 0.0307985
745 2 0.45409 0.0710588 0.0328758
746 4 0.452068 0.0829771 0.0547629
747 4 0.456111 0.0591404 0.0109887
2975 4 0.472211 0.0467529 0.0110591
589 2 0.032438 0.118684 0.0726862
590 4 0.0298903 0.141876 0.0636954
3233 4 0.014209 0.131605 0.0123776
701 4 0.0854784 0.0875146 0.0378328
700 2 0.0904845 0.0844217 0.062134
422 4 0.132877 0.126784 0.0195305
565 2 0.198527 0.119889 0.0356243
566 4 0.185935 0.114079 0.0148186
567 4 0.211119 0.125698 0.05643
358 2 0.276619 0.131663 0.0231159
359 4 0.298239 0.123788 0.013332
360 4 0.254999 0.139539 0.0328997
556 2 0.366943 0.106454 0.0447172
558 4 0.367565 0.127216 0.058636
553 2 0.0478573 0.225 0.0197267
555 4 0.0646742 0.206779 0.0229424
554 4 0.0310403 0.243222 0.0165111
571 2 0.321875 0.241621 0.0535851
573 4 0.301577 0.248451 0.0664902
666 4 0.321729 0.228334 0.00621449
572 4 0.342172 0.234791 0.04068
1071 4 0.379151 0.255518 0.0253436
324 4 0.399648 0.23079 0.058542
255 4 0.356894 0.178762 0.105163
771 4 0.445929 0.19579 0.0518672
770 4 0.487844 0.170311 0.0615937
769 2 0.466886 0.183051 0.0567305
322 2 0.416406 0.246222 0.0688481
1014 4 0.473523 0.197486 0.00629358
292 2 0.136612 0.315006 0.0238613
294 4 0.115981 0.316182 0.00978426
293 4 0.157243 0.313829 0.0379383
483 4 0.218851 0.303067 0.067316
505 2 0.176886 0.272366 0.0409741
507 4 0.167157 0.295151 0.0376064
506 4 0.186614 0.24958 0.0443418
481 2 0.238995 0.308758 0.0536409
357 4 0.248169 0.267224 0.00991681
482 4 0.259139 0.314449 0.0399658
1069 2 0.399952 0.264439 0.0147197
1070 4 0.420754 0.273361 0.00409589
281 4 0.46274 0.338065 0.0513943
323 4 0.433164 0.261654 0.0791542
671 4 0.458968 0.323894 0.0639628
330 4 0.0137217 0.385101 0.0268185
621 4 0.0215515 0.349001 0.0695053
454 2 0.122692 0.377112 0.0824821
455 4 0.117463 0.383649 0.0589214
287 4 0.181783 0.36365 0.0207732
288 4 0.157118 0.407127 0.0193043
286 2 0.169451 0.385388 0.0200388
252 4 0.285695 0.37376 0.0551125
250 2 0.280017 0.38824 0.0355358
251 4 0.274339 0.402721 0.0159591
956 4 0.382865 0.331951 0.00278755
280 2 0.463919 0.328361 0.0283807
282 4 0.465098 0.318657 0.00536718
552 4 0.082558 0.424571 0.0572282
550 2 0.0658484 0.442107 0.051026
551 4 0.0491387 0.459642 0.0448237
315 4 0.0132967 0.432957 0.068736
241 2 0.166798 0.4927 0.0729281
242 4 0.15478 0.487635 0.0515954
245 4 0.227548 0.447363 0.019826
244 2 0.248345 0.460497 0.0243164
246 4 0.269142 0.473632 0.0288069
272 4 0.286279 0.479346 0.0362938
271 2 0.298107 0.491092 0.0176575
524 4 0.325972 0.483306 0.0770495
564 4 0.432197 0.500483 0.0546335
227 4 0.480616 0.438912 0.0382211
562 2 0.44115 0.486514 0.0359285
563 4 0.450104 0.472545 0.0172236
226 2 0.496523 0.457275 0.0441336
16 1 0.0542963 0.0551001 0.169303
19 3 0.0440651 0.045021 0.151079
20 3 0.0749817 0.0626042 0.163434
17 3 0.0414368 0.0729043 0.176144
702 4 0.0954907 0.0813288 0.0864353
448 2 0.166822 0.0760833 0.142546
450 4 0.155675 0.0538593 0.139899
652 2 0.306078 0.0367527 0.147838
654 4 0.295403 0.024135 0.1666
653 4 0.316753 0.0493704 0.129076
297 4 0.353119 0.0559554 0.106945
1760 4 0.482642 0.0175524 0.172828
758 4 0.415145 0.0634698 0.1635
591 4 0.0349858 0.0954924 0.0816771
476 4 0.135246 0.16902 0.111841
449 4 0.17797 0.0983073 0.145194
237 4 0.164454 0.153029 0.14667
475 2 0.116559 0.172953 0.127982
477 4 0.0978718 0.176885 0.144122
235 2 0.175835 0.131395 0.151929
236 4 0.187216 0.109762 0.157188
693 4 0.228037 0.0909552 0.151131
582 4 0.297342 0.102858 0.150647
628 2 0.430547 0.168625 0.124633
629 4 0.4514 0.163049 0.137252
380 4 0.00434976 0.154584 0.146355
737 4 0.180554 0.216156 0.111473
736 2 0.196948 0.197286 0.112052
738 4 0.213343 0.178416 0.112631
354 4 0.25948 0.213269 0.105565
284 4 0.277485 0.228889 0.154523
352 2 0.272613 0.234535 0.106238
460 2 0.328028 0.207464 0.0974986
461 4 0.308046 0.218886 0.0877288
462 4 0.34801 0.196043 0.107268
630 4 0.409694 0.174201 0.112014
254 4 0.405259 0.180052 0.0925165
253 2 0.381076 0.179407 0.0988396
517 2 0.491859 0.242966 0.0975083
518 4 0.485531 0.221529 0.108716
337 2 0.0891636 0.248398 0.148612
339 4 0.0855937 0.258766 0.126141
353 4 0.285745 0.255802 0.106911
754 2 0.280523 0.30377 0.121347
755 4 0.269213 0.284012 0.131684
756 4 0.291834 0.323528 0.11101
741 4 0.340094 0.312655 0.0854676
278 4 0.264621 0.275666 0.149407
622 2 0.384426 0.266807 0.149389
624 4 0.387772 0.256346 0.171851
739 2 0.353406 0.333043 0.091152
623 4 0.38108 0.277267 0.126926
528 4 0.463323 0.253564 0.153349
672 4 0.43217 0.319793 0.105984
670 2 0.445569 0.321844 0.0849734
619 2 0.0214327 0.348991 0.0945086
620 4 0.0213138 0.348981 0.119512
456 4 0.12792 0.370575 0.106043
537 4 0.162276 0.336584 0.146687
535 2 0.182455 0.341272 0.160687
626 4 0.22275 0.404038 0.12128
609 4 0.295898 0.35745 0.096973
608 4 0.32174 0.399939 0.0917227
607 2 0.308819 0.378694 0.0943479
612 4 0.282627 0.347823 0.134319
610 2 0.273549 0.343062 0.157125
740 4 0.366718 0.353431 0.0968364
387 4 0.341509 0.3802 0.148126
15 3 0.392923 0.348116 0.141342
385 2 0.356746 0.369805 0.131244
386 4 0.371983 0.359411 0.114363
11 1 0.412969 0.358678 0.143632
14 3 0.414138 0.376691 0.129052
12 3 0.429911 0.343945 0.138623
495 4 0.428674 0.390156 0.130183
2652 4 0.503843 0.337873 0.0985876
493 2 0.435061 0.413746 0.124901
313 2 0.00888542 0.448191 0.0880663
314 4 0.00447417 0.463424 0.107397
243 4 0.178817 0.497765 0.0942608
625 2 0.22338 0.423056 0.105059
627 4 0.224009 0.442073 0.0888379
639 4 0.245648 0.507193 0.121742
637 2 0.253274 0.493084 0.140925
525 4 0.330359 0.474674 0.12611
523 2 0.328166 0.47899 0.10158
658 2 0.377384 0.457988 0.158056
659 4 0.353082 0.453769 0.162154
660 4 0.401686 0.462207 0.153958
494 4 0.441448 0.437336 0.11962
18 3 0.0560385 0.0399483 0.18679
1422 4 0.00183148 0.0259265 0.177336
579 4 0.0798072 0.0797109 0.219446
1420 2 0.0115466 0.00407743 0.184644
673 2 0.120879 0.0470246 0.229548
674 4 0.144434 0.0554075 0.229736
675 4 0.0973229 0.0386417 0.22936
1505 4 0.213293 0.0360292 0.172783
689 4 0.209197 0.0298737 0.224712
1504 2 0.231177 0.0200955 0.165608
688 2 0.208546 0.0196786 0.247534
1784 4 0.391819 0.995961 0.170849
21 1 0.371972 0.0506959 0.22705
23 3 0.373863 0.0321926 0.240923
24 3 0.35002 0.0582094 0.226814
25 3 0.378559 0.0452805 0.205933
759 4 0.39858 0.0406181 0.204781
22 3 0.385485 0.0674643 0.235136
757 2 0.406862 0.0520439 0.18414
742 2 0.457441 0.0583305 0.221319
743 4 0.475037 0.0753106 0.226539
744 4 0.439846 0.0413503 0.216099
379 2 0.0187643 0.159458 0.166195
381 4 0.0331788 0.164333 0.186035
511 2 0.0367873 0.161022 0.224857
513 4 0.0424846 0.149624 0.246369
512 4 0.03109 0.17242 0.203344
577 2 0.0940196 0.100264 0.218583
578 4 0.108232 0.120818 0.21772
692 4 0.22995 0.0852578 0.200776
723 4 0.192476 0.0901742 0.227564
691 2 0.228993 0.0881065 0.175954
721 2 0.182233 0.107771 0.242077
580 2 0.280275 0.114786 0.164489
581 4 0.263208 0.126714 0.178332
30 3 0.296774 0.132429 0.209918
26 1 0.306432 0.120904 0.227022
28 3 0.300379 0.098532 0.225907
27 3 0.329312 0.122514 0.225276
312 4 0.413991 0.119971 0.164108
310 2 0.428543 0.108456 0.180866
311 4 0.443095 0.0969418 0.197624
395 4 0.0487367 0.249 0.220725
338 4 0.0927334 0.23803 0.171083
363 4 0.085565 0.247513 0.187483
283 2 0.263229 0.210597 0.16387
285 4 0.248973 0.192306 0.173218
764 4 0.367485 0.221344 0.175771
763 2 0.380931 0.229405 0.195249
765 4 0.394376 0.237467 0.214727
520 2 0.474345 0.211204 0.240545
521 4 0.450388 0.204804 0.237342
522 4 0.498303 0.217603 0.243749
396 4 0.00870683 0.255443 0.249996
394 2 0.0287218 0.252221 0.23536
370 2 0.16206 0.262476 0.216334
361 2 0.102947 0.253102 0.204566
362 4 0.120328 0.258691 0.221649
372 4 0.13745 0.266638 0.214844
300 4 0.125912 0.33227 0.217565
371 4 0.186669 0.258314 0.217825
279 4 0.222027 0.276153 0.175603
277 2 0.243324 0.275909 0.162505
343 2 0.253287 0.2782 0.247102
344 4 0.272853 0.266918 0.236374
307 2 0.310078 0.278324 0.220293
309 4 0.29304 0.292046 0.208186
308 4 0.327116 0.264603 0.232401
611 4 0.264472 0.338302 0.179931
526 2 0.483431 0.267002 0.159693
647 4 0.0599921 0.356834 0.170696
263 4 0.0583856 0.407855 0.211009
298 2 0.130341 0.343137 0.239643
648 4 0.108642 0.356255 0.15914
646 2 0.0843171 0.356545 0.164918
417 4 0.140319 0.421651 0.174934
536 4 0.202634 0.345959 0.174687
303 4 0.313869 0.385738 0.188506
13 3 0.41561 0.365996 0.165492
301 2 0.326383 0.405592 0.179881
597 4 0.468813 0.392344 0.164799
643 2 0.455088 0.38083 0.19945
644 4 0.451427 0.36339 0.216989
645 4 0.45875 0.398269 0.18191
447 4 0.452835 0.363332 0.236202
262 2 0.0463865 0.424486 0.225313
264 4 0.0343874 0.441117 0.239617
415 2 0.160597 0.430717 0.186414
416 4 0.180875 0.439783 0.197894
291 4 0.19888 0.435542 0.203096
289 2 0.223086 0.431599 0.207965
290 4 0.247292 0.427656 0.212833
768 4 0.239585 0.474356 0.214309
766 2 0.255827 0.474902 0.195308
638 4 0.2609 0.478975 0.160107
767 4 0.272069 0.475449 0.176306
302 4 0.338897 0.425446 0.171255
229 2 0.404439 0.487943 0.225896
231 4 0.393235 0.47007 0.212473
232 2 0.0200864 0.0461652 0.29812
233 4 0.021283 0.0245415 0.285623
1402 2 0.0740785 0.0202064 0.269252
1403 4 0.0853059 0.040171 0.279279
234 4 0.0188898 0.0677889 0.310617
690 4 0.207895 0.0094835 0.270355
248 4 0.212399 0.079324 0.288571
1701 4 0.240623 0.0120676 0.327533
1699 2 0.256455 0.00985622 0.308307
478 2 0.479985 0.0366868 0.318276
480 4 0.476319 0.0200561 0.299969
351 4 0.442331 0.0681174 0.288454
479 4 0.483651 0.0533176 0.336583
349 2 0.444844 0.0891287 0.301773
529 2 0.00627555 0.13411 0.268205
530 4 0.0218252 0.151626 0.276955
531 4 0.990726 0.116594 0.259454
731 4 0.140672 0.103915 0.316179
546 4 0.163984 0.137026 0.269856
722 4 0.17199 0.125368 0.25659
392 4 0.106654 0.166203 0.278361
544 2 0.157775 0.161194 0.268267
249 4 0.239164 0.118871 0.303417
247 2 0.225781 0.0990976 0.295994
403 2 0.230848 0.15673 0.295883
600 4 0.205053 0.150894 0.329349
29 3 0.299811 0.129898 0.247361
404 4 0.246279 0.138197 0.302486
632 4 0.34273 0.129105 0.291048
631 2 0.360754 0.121982 0.306847
633 4 0.378777 0.114859 0.322646
333 4 0.424231 0.129823 0.24028
331 2 0.442833 0.142303 0.251388
332 4 0.461436 0.154782 0.262495
350 4 0.447357 0.11014 0.315091
762 4 0.457787 0.172903 0.271892
444 4 0.0282226 0.256053 0.317304
391 2 0.0992378 0.189594 0.27356
393 4 0.0918214 0.212984 0.26876
545 4 0.151567 0.185363 0.266678
405 4 0.215417 0.175262 0.289281
706 2 0.316081 0.174632 0.304971
708 4 0.31591 0.166504 0.328616
707 4 0.316251 0.18276 0.281326
418 2 0.426153 0.223541 0.297649
419 4 0.434554 0.200054 0.299363
761 4 0.483967 0.178558 0.314121
760 2 0.470877 0.17573 0.293007
443 4 0.0135331 0.255742 0.269504
750 4 0.0565608 0.287538 0.241657
442 2 0.0208778 0.255898 0.293404
390 4 0.0865644 0.279183 0.323183
748 2 0.0785971 0.277683 0.248172
749 4 0.100633 0.267827 0.254687
345 4 0.233722 0.289481 0.25783
400 2 0.201323 0.265936 0.311841
402 4 0.22063 0.264145 0.327627
401 4 0.182016 0.267726 0.296055
676 2 0.177051 0.336322 0.333304
496 2 0.299407 0.298555 0.29313
497 4 0.321738 0.293742 0.303296
498 4 0.277077 0.303368 0.282964
543 4 0.397041 0.293173 0.317093
615 4 0.389872 0.312375 0.322499
613 2 0.373069 0.329297 0.330013
420 4 0.417752 0.247028 0.295935
541 2 0.417406 0.304418 0.307928
542 4 0.43777 0.315664 0.298763
364 2 0.0216605 0.345207 0.279729
365 4 0.0360065 0.34776 0.300048
602 4 0.068237 0.402012 0.285452
299 4 0.13477 0.354004 0.261722
601 2 0.0879096 0.388056 0.292039
603 4 0.107582 0.3741 0.298627
734 4 0.147528 0.369881 0.258746
733 2 0.161616 0.364636 0.278725
677 4 0.180862 0.356087 0.318471
735 4 0.175705 0.35939 0.298705
509 4 0.24898 0.35002 0.328461
727 2 0.324124 0.390669 0.2562
728 4 0.334555 0.403691 0.274822
433 2 0.320444 0.396314 0.329981
729 4 0.313693 0.377646 0.237579
614 4 0.356265 0.346219 0.337527
434 4 0.337595 0.392553 0.312179
445 2 0.453783 0.376996 0.25712
446 4 0.454732 0.39066 0.278038
1757 4 0.0694604 0.492523 0.255949
777 4 0.0839162 0.438531 0.286445
549 4 0.0418516 0.429367 0.317898
775 2 0.0965575 0.45118 0.30392
776 4 0.109199 0.463829 0.321395
414 4 0.145193 0.479832 0.27671
412 2 0.161281 0.469821 0.293023
413 4 0.177369 0.459809 0.309336
436 2 0.286877 0.448386 0.285903
437 4 0.293991 0.451654 0.262157
438 4 0.279763 0.445117 0.30965
713 4 0.409336 0.463902 0.288792
712 2 0.434298 0.463084 0.289974
714 4 0.45926 0.462265 0.291156
316 2 0.0400879 0.0758435 0.34843
317 4 0.0304191 0.057953 0.362977
318 4 0.0497567 0.093734 0.333883
428 4 0.0654983 0.0395312 0.360109
427 2 0.0810593 0.0252431 0.346735
429 4 0.0966202 0.010955 0.33336
732 4 0.13344 0.083863 0.361415
606 4 0.163937 0.0533792 0.361282
604 2 0.188389 0.0550385 0.366237
605 4 0.21284 0.0566977 0.371191
441 4 0.265052 0.0369719 0.423298
439 2 0.277776 0.0159968 0.41847
683 4 0.301119 0.0673378 0.37206
682 2 0.28535 0.081086 0.385753
698 4 0.382375 0.0477528 0.343206
697 2 0.364538 0.0302435 0.342547
699 4 0.3467 0.0127343 0.341889
256 2 0.415452 0.0602786 0.349436
257 4 0.397144 0.0554036 0.33312
258 4 0.43376 0.0651535 0.365752
426 4 0.421661 0.0355348 0.407367
398 4 0.0659414 0.137411 0.327883
730 2 0.137056 0.0938891 0.338797
397 2 0.085759 0.12392 0.334983
399 4 0.105577 0.110428 0.342083
687 4 0.134683 0.13472 0.422203
685 2 0.152633 0.151254 0.416757
598 2 0.191984 0.158544 0.349245
599 4 0.178915 0.166194 0.369141
684 4 0.26958 0.0948343 0.399446
467 4 0.373275 0.168288 0.417294
451 2 0.479813 0.144577 0.378914
453 4 0.459375 0.157804 0.38462
514 2 0.428039 0.152391 0.413035
515 4 0.440756 0.152585 0.391508
452 4 0.50025 0.13135 0.373209
2654 4 0.027309 0.210583 0.34664
474 4 0.232308 0.198008 0.350776
274 2 0.197381 0.243896 0.390309
276 4 0.22102 0.250125 0.395562
275 4 0.173742 0.237667 0.385056
472 2 0.256551 0.203175 0.347492
473 4 0.280793 0.208342 0.344208
488 4 0.288887 0.224057 0.387964
487 2 0.290432 0.242914 0.40431
715 2 0.351704 0.237029 0.360849
716 4 0.333416 0.222519 0.369803
616 2 0.0735609 0.330144 0.371083
618 4 0.0603369 0.314524 0.385447
347 4 0.0417484 0.31108 0.391192
346 2 0.0487067 0.298548 0.411678
389 4 0.118258 0.258945 0.356148
388 2 0.102411 0.269064 0.339666
678 4 0.173241 0.316558 0.348137
375 4 0.178801 0.326228 0.384562
373 2 0.198077 0.320531 0.399434
510 4 0.223711 0.30737 0.335035
508 2 0.236346 0.328695 0.331748
376 2 0.287544 0.292887 0.350446
377 4 0.309584 0.281078 0.350405
378 4 0.265505 0.304695 0.350487
489 4 0.291977 0.261771 0.420657
717 4 0.369992 0.25154 0.351896
268 2 0.490851 0.262084 0.393828
270 4 0.47475 0.256249 0.412046
408 4 0.0627258 0.413275 0.409422
406 2 0.0731329 0.407789 0.387359
407 4 0.08354 0.402304 0.365296
617 4 0.0867848 0.345764 0.356719
502 2 0.245491 0.403818 0.419354
503 4 0.250077 0.418038 0.399306
435 4 0.303293 0.400074 0.347782
336 4 0.366165 0.36197 0.400942
561 4 0.453268 0.392135 0.402468
752 4 0.459949 0.401682 0.387081
751 2 0.443174 0.417757 0.377841
548 4 0.0706662 0.413907 0.355732
547 2 0.0562589 0.421637 0.336815
680 4 0.0501588 0.456491 0.412465
499 2 0.113473 0.475921 0.376834
500 4 0.121478 0.487165 0.355986
501 4 0.105467 0.464676 0.397683
570 4 0.17046 0.482993 0.413357
5 3 0.298264 0.442022 0.360613
1 1 0.315089 0.456114 0.366694
2 3 0.306255 0.476767 0.371651
4 3 0.32591 0.447876 0.385495
3 3 0.330194 0.458412 0.349231
594 4 0.372782 0.478757 0.345806
592 2 0.394523 0.490159 0.35055
753 4 0.426399 0.433832 0.368601
2237 4 0.046879 0.0223563 0.489743
718 2 0.0489347 0.0649796 0.476559
720 4 0.0303287 0.0516256 0.486592
367 2 0.128636 0.0471701 0.461684
369 4 0.136187 0.058921 0.482422
368 4 0.121084 0.0354191 0.440946
342 4 0.190849 0.0752701 0.485245
340 2 0.187214 0.051051 0.490286
341 4 0.18358 0.026832 0.495326
1181 4 0.243784 0.0555804 0.483658
2430 4 0.201993 0.0198525 0.493431
724 2 0.340669 0.0767181 0.449146
726 4 0.318501 0.0700067 0.439727
424 2 0.398215 0.0373126 0.415869
425 4 0.374768 0.0390905 0.424371
719 4 0.0675407 0.0783336 0.466526
457 2 0.00920337 0.165086 0.433718
458 4 0.0129434 0.142452 0.443661
686 4 0.170582 0.167787 0.411312
1180 2 0.252206 0.0788581 0.487179
321 4 0.284049 0.142639 0.434218
319 2 0.272098 0.122877 0.424636
320 4 0.260148 0.103115 0.415053
468 4 0.326807 0.1662 0.435655
1182 4 0.260628 0.102136 0.4907
466 2 0.350041 0.167244 0.426475
725 4 0.362837 0.0834296 0.458565
574 2 0.398331 0.160872 0.461548
575 4 0.406995 0.169331 0.439672
516 4 0.415322 0.152197 0.434562
2878 2 0.492813 0.0845658 0.449561
642 4 0.466306 0.112322 0.471071
2880 4 0.475489 0.0998426 0.459135
640 2 0.469363 0.125709 0.491967
469 2 0.0270024 0.183131 0.48772
470 4 0.0351672 0.206045 0.481935
260 4 0.101075 0.21074 0.416834
261 4 0.109865 0.183297 0.457704
259 2 0.10547 0.197018 0.437269
1035 4 0.123822 0.178703 0.472551
1033 2 0.120334 0.179524 0.497297
695 4 0.112333 0.235098 0.483569
411 4 0.276525 0.208483 0.476927
409 2 0.297608 0.20366 0.46438
410 4 0.31869 0.198838 0.451832
576 4 0.389667 0.152414 0.483424
267 4 0.357546 0.247319 0.441036
306 4 0.493007 0.220143 0.416545
304 2 0.490382 0.19644 0.42406
305 4 0.487758 0.172737 0.431574
348 4 0.0556651 0.286016 0.432165
327 4 0.112504 0.329489 0.478749
694 2 0.114816 0.25836 0.492395
696 4 0.117299 0.281622 0.501222
325 2 0.100539 0.330432 0.456814
326 4 0.0885751 0.331375 0.434879
10 3 0.154473 0.320106 0.477472
374 4 0.217352 0.314834 0.414306
651 4 0.252454 0.27339 0.459032
649 2 0.262368 0.296323 0.458045
650 4 0.272283 0.319256 0.457058
265 2 0.344394 0.268234 0.437192
266 4 0.331242 0.289149 0.433349
812 4 0.339573 0.312006 0.491617
583 2 0.4725 0.278887 0.469212
584 4 0.492587 0.265964 0.461818
585 4 0.452412 0.291809 0.476606
6 1 0.15347 0.331498 0.497166
7 3 0.136815 0.347317 0.495929
711 4 0.163809 0.388134 0.468378
504 4 0.240905 0.389598 0.439402
709 2 0.186063 0.388687 0.456992
710 4 0.208317 0.38924 0.445606
668 4 0.316903 0.432836 0.432812
334 2 0.362207 0.369011 0.424605
238 2 0.380454 0.381125 0.48085
240 4 0.362254 0.386554 0.464588
335 4 0.358249 0.376051 0.448268
239 4 0.398654 0.375696 0.497112
559 2 0.47366 0.380557 0.411144
560 4 0.494053 0.368979 0.41982
1383 4 0.0387215 0.48779 0.431265
681 4 0.0365667 0.421201 0.445185
679 2 0.0433628 0.438846 0.428825
383 4 0.0687897 0.430709 0.462059
935 4 0.999888 0.425613 0.4754
539 4 0.0840973 0.466395 0.493287
540 4 0.121594 0.499471 0.494122
568 2 0.161383 0.466739 0.430047
569 4 0.152305 0.450484 0.446737
382 2 0.0935142 0.427872 0.464473
384 4 0.118239 0.425034 0.466886
538 2 0.102845 0.482933 0.493704
636 4 0.240879 0.461038 0.43398
634 2 0.240297 0.44648 0.4543
635 4 0.239715 0.431922 0.47462
774 4 0.239521 0.412911 0.47851
667 2 0.304328 0.433721 0.454405
669 4 0.291753 0.434607 0.475998
586 2 0.4163 0.428492 0.430036
588 4 0.394233 0.427106 0.418361
663 4 0.44081 0.466519 0.480041
661 2 0.454244 0.467087 0.501122
1332 4 0.487183 0.502173 0.492908
587 4 0.438367 0.429878 0.441712
1126 2 0.0401005 0.0544808 0.534039
1127 4 0.0368496 0.0304971 0.527762
2238 4 0.0211765 0.987623 0.514916
2236 2 0.0340277 0.00498988 0.502329
1058 4 0.128107 0.068621 0.561533
1057 2 0.140883 0.0803661 0.579534
1030 2 0.24459 0.0763938 0.566948
961 2 0.284974 0.0369123 0.517173
963 4 0.289893 0.0611649 0.513596
962 4 0.280055 0.0126598 0.52075
432 4 0.300705 0.0737225 0.501974
1032 4 0.247177 0.0809178 0.542494
1217 4 0.405 0.0591725 0.555442
1216 2 0.408586 0.0357039 0.563288
841 2 0.372119 0.073594 0.538677
842 4 0.393852 0.0612805 0.53978
1060 2 0.501862 0.0180512 0.543602
1062 4 0.481992 0.0296219 0.53378
1128 4 0.0433515 0.0784644 0.540315
938 4 0.0877711 0.124475 0.559223
471 4 0.0188376 0.160217 0.493504
937 2 0.105511 0.127274 0.541826
939 4 0.123251 0.130072 0.52443
1154 4 0.165867 0.155365 0.581166
1151 4 0.179512 0.1231 0.520943
1150 2 0.190741 0.10317 0.510848
1152 4 0.20197 0.0832409 0.500753
430 2 0.321687 0.0841698 0.510679
899 4 0.317674 0.139229 0.544968
843 4 0.350385 0.0859076 0.537574
431 4 0.342669 0.0946171 0.519384
641 4 0.47242 0.139096 0.512862
877 2 0.0716688 0.207349 0.572475
878 4 0.0486999 0.200631 0.565231
1199 4 0.0167726 0.190285 0.555615
1034 4 0.116846 0.180346 0.522042
879 4 0.0946377 0.214067 0.579719
1272 4 0.100579 0.224238 0.595368
856 2 0.236243 0.22387 0.541374
858 4 0.242216 0.205343 0.557066
1221 4 0.182142 0.180397 0.582342
857 4 0.23027 0.242398 0.525682
791 4 0.314729 0.232122 0.586684
898 2 0.327223 0.161508 0.538833
900 4 0.336772 0.183787 0.532697
871 2 0.403963 0.253379 0.516179
3065 4 0.50751 0.24531 0.53324
3159 4 0.498347 0.176954 0.550752
872 4 0.414994 0.23138 0.511758
983 4 0.0475433 0.323032 0.559009
1258 2 0.14895 0.284536 0.526573
1260 4 0.126432 0.277807 0.51804
9 3 0.148655 0.31688 0.514531
1259 4 0.171469 0.291266 0.535105
792 4 0.310837 0.281291 0.578438
790 2 0.312783 0.256707 0.582561
813 4 0.329692 0.287249 0.533928
873 4 0.392931 0.275378 0.5206
811 2 0.334632 0.299627 0.512773
954 4 0.433048 0.272763 0.598047
982 2 0.0334419 0.333955 0.576531
8 3 0.173676 0.342177 0.501174
1189 2 0.221104 0.366768 0.565042
773 4 0.243555 0.38971 0.522624
1190 4 0.233307 0.364441 0.543344
772 2 0.241538 0.401311 0.500567
802 2 0.277757 0.348025 0.544846
803 4 0.275976 0.351377 0.56956
804 4 0.279538 0.344673 0.520132
928 2 0.366732 0.377642 0.572117
929 4 0.365652 0.39425 0.553458
925 2 0.455307 0.388879 0.530962
927 4 0.467179 0.400777 0.549474
926 4 0.443436 0.376982 0.51245
1161 4 0.159372 0.458041 0.555194
1159 2 0.163779 0.455794 0.579703
1171 2 0.235027 0.445495 0.567421
1173 4 0.216469 0.451177 0.551656
1172 4 0.253584 0.439814 0.583185
882 4 0.319263 0.462416 0.53091
880 2 0.343195 0.4687 0.527306
881 4 0.367126 0.474984 0.523703
1952 4 0.349091 0.476252 0.576784
1002 4 0.411646 0.431139 0.571049
1000 2 0.435648 0.437981 0.572543
1001 4 0.459651 0.444824 0.574037
662 4 0.467677 0.467655 0.522202
1909 2 0.443682 0.505403 0.564392
1911 4 0.418732 0.505856 0.565969
1185 4 0.00961657 0.0493942 0.650924
2319 4 0.067575 0.00071744 0.654369
1059 4 0.153658 0.0921113 0.597534
825 4 0.136211 0.0301063 0.638266
823 2 0.154647 0.0132545 0.639411
824 4 0.173083 0.996403 0.640556
1031 4 0.242002 0.0718698 0.591403
949 2 0.265611 0.0245691 0.599425
951 4 0.257182 0.0450668 0.58785
950 4 0.27404 0.0040714 0.610999
1005 4 0.33257 0.0828552 0.654263
1218 4 0.412171 0.0122353 0.571133
809 4 0.469652 0.0615562 0.611175
808 2 0.462261 0.077912 0.628583
1083 4 0.066261 0.0865859 0.618127
1082 4 0.0389772 0.101935 0.657123
1076 4 0.0322936 0.0916526 0.672361
1081 2 0.0526191 0.0942606 0.637625
1153 2 0.156693 0.133071 0.587796
1155 4 0.147518 0.110776 0.594425
909 4 0.151983 0.160215 0.658799
1284 4 0.175301 0.0892802 0.638564
1283 4 0.211384 0.122834 0.630025
1282 2 0.193343 0.106057 0.634295
810 4 0.454871 0.0942679 0.645992
1270 2 0.124286 0.216445 0.596923
1271 4 0.147993 0.208652 0.598479
1209 4 0.102244 0.251495 0.653991
1210 2 0.238981 0.185775 0.653369
1212 4 0.216506 0.187967 0.642633
1219 2 0.194455 0.181877 0.604053
1220 4 0.206769 0.183356 0.625764
796 2 0.229157 0.23834 0.603614
798 4 0.241424 0.233138 0.624771
1211 4 0.261455 0.183583 0.664106
904 2 0.477115 0.232164 0.593367
906 4 0.453985 0.22404 0.588452
1024 2 0.441383 0.194833 0.659576
1025 4 0.442653 0.197745 0.634775
905 4 0.500246 0.240287 0.598282
1243 2 0.0540387 0.266248 0.620987
1244 4 0.0445416 0.254322 0.601169
1245 4 0.0635359 0.278175 0.640805
797 4 0.21689 0.243541 0.582456
946 2 0.189687 0.272516 0.627707
947 4 0.200012 0.250087 0.63165
948 4 0.179363 0.294944 0.623765
1238 4 0.303746 0.291053 0.595546
1239 4 0.297068 0.338933 0.608335
1237 2 0.300407 0.314993 0.60194
952 2 0.452261 0.288309 0.601835
953 4 0.471474 0.303856 0.605622
984 4 0.0193405 0.344878 0.594053
1040 4 0.0751194 0.410248 0.632149
1039 2 0.0527644 0.40027 0.627062
1041 4 0.0304093 0.390293 0.621976
1137 4 0.114199 0.395805 0.584222
897 4 0.157502 0.39052 0.590703
1136 4 0.11511 0.351605 0.607594
1135 2 0.114655 0.373705 0.595908
992 4 0.143393 0.414411 0.6438
991 2 0.119027 0.409331 0.641418
1191 4 0.2089 0.369096 0.586741
896 4 0.201852 0.372984 0.605744
895 2 0.179677 0.381752 0.598223
806 4 0.339678 0.352788 0.659442
930 4 0.367813 0.361033 0.590777
1204 2 0.398361 0.405303 0.627818
1206 4 0.381449 0.423719 0.627705
1205 4 0.415273 0.386887 0.627932
993 4 0.0946607 0.404252 0.639036
1187 4 0.21118 0.488788 0.605732
1160 4 0.168187 0.453548 0.604213
1186 2 0.213216 0.500592 0.62768
889 2 0.318944 0.45656 0.600848
891 4 0.295347 0.461662 0.607355
890 4 0.34254 0.451457 0.594341
1951 2 0.355151 0.497873 0.587783
1267 2 0.438749 0.48364 0.669812
1269 4 0.424035 0.465849 0.660211
944 4 0.0638281 0.0619094 0.674762
943 2 0.0667785 0.0371847 0.672489
945 4 0.0697288 0.01246 0.670216
1147 2 0.207352 0.0678515 0.729937
1149 4 0.201364 0.0438168 0.733351
1091 4 0.339961 0.999404 0.701964
1163 4 0.463988 0.0486514 0.670599
1162 2 0.484929 0.0446055 0.683648
1164 4 0.505869 0.0405596 0.696698
42 3 0.441999 0.0714377 0.702879
2320 2 0.487017 0.00534267 0.736877
2283 4 0.430523 0.000500129 0.682249
862 2 0.0564912 0.124971 0.743244
864 4 0.0544486 0.12103 0.718637
1075 2 0.0359384 0.100252 0.695554
1077 4 0.0395833 0.10885 0.718748
907 2 0.151669 0.15075 0.68194
908 4 0.151356 0.141285 0.70508
1148 4 0.213341 0.0918861 0.726524
1225 2 0.180569 0.119269 0.72512
1226 4 0.195688 0.100502 0.73178
1227 4 0.165449 0.138037 0.71846
829 2 0.328823 0.150124 0.716776
1003 2 0.336012 0.0844354 0.678978
831 4 0.338622 0.131884 0.730793
1004 4 0.339454 0.0860156 0.703693
43 3 0.418241 0.100354 0.699408
45 3 0.426204 0.0784883 0.669808
41 1 0.434692 0.0879961 0.688682
1142 4 0.418152 0.145386 0.715891
44 3 0.452624 0.101691 0.683271
851 4 0.0698606 0.171729 0.710017
852 4 0.0267983 0.191181 0.693646
850 2 0.0483295 0.181455 0.701832
1213 2 0.0236118 0.215941 0.746964
1107 4 0.0760896 0.187332 0.72162
1178 4 0.00533756 0.238898 0.718846
1105 2 0.089804 0.193314 0.741653
1207 2 0.109776 0.244346 0.676736
1277 4 0.209604 0.233175 0.760983
1129 2 0.192328 0.197567 0.747001
1131 4 0.198185 0.221812 0.748758
830 4 0.319024 0.168363 0.702758
886 2 0.288006 0.192075 0.684559
888 4 0.270053 0.200753 0.669474
887 4 0.305959 0.183397 0.699644
976 2 0.289482 0.195597 0.747129
978 4 0.277199 0.174152 0.743326
1193 4 0.375604 0.216085 0.672184
1143 4 0.428782 0.187989 0.739822
1192 2 0.361812 0.206495 0.690704
1194 4 0.34802 0.196906 0.709224
1298 4 0.332266 0.20318 0.761733
1141 2 0.423467 0.166688 0.727856
1026 4 0.440113 0.191921 0.684377
1261 2 0.439154 0.234374 0.721604
1263 4 0.455672 0.235829 0.702889
1262 4 0.422637 0.232918 0.740318
1177 2 0.999895 0.260843 0.708171
1179 4 0.994452 0.282789 0.697496
1208 4 0.117307 0.237197 0.699481
822 4 0.167056 0.273516 0.7588
820 2 0.17009 0.273967 0.733986
821 4 0.173125 0.274419 0.709171
1065 4 0.229626 0.290401 0.699914
1063 2 0.251349 0.292414 0.687698
1064 4 0.273072 0.294428 0.675482
807 4 0.325444 0.324119 0.697863
805 2 0.332561 0.338454 0.678653
3123 4 0.480052 0.275812 0.666223
3121 2 0.500311 0.265327 0.67646
892 2 0.0569917 0.373817 0.700529
893 4 0.0707878 0.366616 0.680959
894 4 0.0431955 0.381018 0.720099
3276 4 0.0220152 0.37777 0.719939
940 2 0.137833 0.390793 0.741668
1067 4 0.155934 0.393486 0.707395
941 4 0.157984 0.390335 0.726872
1028 4 0.219949 0.401754 0.682528
1066 2 0.179868 0.396926 0.701029
1068 4 0.203801 0.400367 0.694662
1027 2 0.244529 0.403687 0.678369
1029 4 0.269108 0.40562 0.67421
1019 4 0.394145 0.371948 0.725479
1018 2 0.387849 0.378815 0.748682
1281 4 0.0231839 0.450936 0.692813
1280 4 0.0715934 0.441749 0.701348
1279 2 0.0473886 0.446342 0.697081
1983 4 0.0300532 0.46741 0.720514
1981 2 0.0329964 0.48689 0.73591
1176 4 0.197001 0.489813 0.722238
1139 4 0.283259 0.420953 0.732594
1138 2 0.290685 0.435895 0.713972
1140 4 0.29811 0.450836 0.695349
1228 2 0.35902 0.464404 0.71135
1229 4 0.354284 0.488865 0.713449
1230 4 0.363756 0.439943 0.709252
1268 4 0.453462 0.501431 0.679413
1100 4 0.429193 0.454029 0.710226
1099 2 0.449966 0.442734 0.718356
1101 4 0.470739 0.431439 0.726486
1295 4 0.994468 0.0207941 0.790276
1294 2 0.00745384 0.0293578 0.809851
1203 4 0.113739 0.0786305 0.768435
1201 2 0.113347 0.0539866 0.764228
1202 4 0.112954 0.0293427 0.76002
2049 4 0.102652 0.0129124 0.766545
1255 2 0.286171 0.0644793 0.807661
1256 4 0.301849 0.0768094 0.82274
1257 4 0.270494 0.0521491 0.792583
975 4 0.366905 0.00162145 0.80937
1112 4 0.426218 0.0613032 0.810361
846 4 0.479928 0.0654481 0.753627
1113 4 0.422212 0.023084 0.778361
844 2 0.480761 0.0510635 0.774061
1111 2 0.424215 0.0421936 0.794361
845 4 0.481594 0.0366788 0.794496
863 4 0.0585338 0.128912 0.76785
832 2 0.0110505 0.133254 0.791819
833 4 0.0316949 0.143927 0.782595
34 3 0.102923 0.13586 0.821518
31 1 0.109115 0.154752 0.809553
33 3 0.117799 0.14858 0.788941
32 3 0.125301 0.166057 0.821359
839 4 0.256918 0.135439 0.790839
838 2 0.270452 0.134091 0.81182
960 4 0.319434 0.155156 0.838669
1084 2 0.358865 0.136295 0.790195
1085 4 0.371812 0.131321 0.810999
1086 4 0.345918 0.14127 0.769391
819 4 0.373486 0.119118 0.827294
1214 4 0.0359232 0.196814 0.757345
1073 4 0.0749818 0.230866 0.777097
1106 4 0.103518 0.199295 0.761685
35 3 0.0910853 0.168355 0.806631
1072 2 0.0988846 0.235216 0.783006
1074 4 0.122787 0.239567 0.788914
1130 4 0.186472 0.173323 0.745244
1276 2 0.207466 0.252969 0.77611
977 4 0.301764 0.217041 0.750932
918 4 0.300771 0.230532 0.766638
916 2 0.289223 0.250825 0.775584
47 3 0.413962 0.197906 0.80065
1299 4 0.367745 0.172583 0.779217