ITEM: TIMESTEP
830000
ITEM: NUMBER OF ATOMS
4590
ITEM: BOX BOUNDS pp pp pp
-9.9985700000000008e+00 9.9985700000000008e+00
-9.9985700000000008e+00 9.9985700000000008e+00
-9.9985700000000008e+00 9.9985700000000008e+00
ITEM: ATOMS id type xs ys zs
463 2 0.0393486 0.0634906 0.0460438
465 4 0.0399063 0.0816484 0.063224
464 4 0.0387908 0.0453328 0.0288635
3290 4 0.0420528 0.0269191 0.020621
1666 2 0.0846475 0.0371987 0.0836703
1667 4 0.0723051 0.0579971 0.0773247
3289 2 0.0621008 0.0237376 0.00602186
3291 4 0.0821488 0.0205562 0.991423
1668 4 0.0969899 0.0164002 0.0900159
1476 4 0.199817 0.0118507 0.0512547
1474 2 0.22079 0.0186807 0.0394789
1475 4 0.241763 0.0255108 0.0277031
490 2 0.277217 0.0306671 0.0125045
491 4 0.293342 0.0338819 0.993667
492 4 0.261093 0.0274524 0.0313419
557 4 0.383853 0.0746243 0.0788216
745 2 0.458644 0.052968 0.0261566
1826 4 0.454635 0.0049464 0.0515126
746 4 0.436425 0.0527861 0.0376222
747 4 0.480863 0.0531499 0.0146911
591 4 0.0304532 0.0887663 0.0809926
701 4 0.0673182 0.136711 0.0118629
700 2 0.0745505 0.123269 0.031667
589 2 0.0498276 0.104503 0.0824669
423 4 0.0710738 0.157241 0.0142351
2760 4 0.995378 0.129681 0.0606928
3234 4 0.0519941 0.129367 0.00212246
702 4 0.0817828 0.109828 0.051471
567 4 0.156706 0.116939 0.0724071
565 2 0.178044 0.116676 0.0854378
358 2 0.266015 0.140372 0.0112293
359 4 0.27779 0.133672 0.0322445
556 2 0.371 0.0932353 0.0681636
558 4 0.358146 0.111846 0.0575056
421 2 0.0556207 0.175199 0.022227
553 2 0.0111697 0.216062 0.0537527
554 4 0.997374 0.231373 0.0679101
422 4 0.0401676 0.193158 0.0302189
555 4 0.0249655 0.200751 0.0395954
506 4 0.183792 0.217891 0.0736117
1133 4 0.217641 0.186876 0.0145653
505 2 0.177061 0.239684 0.0633685
354 4 0.239183 0.210754 0.0792776
353 4 0.287758 0.219749 0.071515
352 2 0.263471 0.215251 0.0753963
461 4 0.307438 0.214299 0.0738909
665 4 0.416961 0.180096 0.00806719
1069 2 0.396621 0.239447 0.0264053
1071 4 0.378227 0.240338 0.0433183
664 2 0.392195 0.179776 0.00464595
1070 4 0.415014 0.238556 0.0094923
324 4 0.439103 0.229394 0.0795478
771 4 0.483989 0.166664 0.0571231
769 2 0.492197 0.162018 0.0802795
292 2 0.157838 0.291335 0.0397875
294 4 0.13798 0.306382 0.0376799
456 4 0.139316 0.325922 0.0374332
293 4 0.177696 0.276288 0.041895
507 4 0.170331 0.261478 0.0531253
481 2 0.216815 0.289434 0.0411472
482 4 0.22453 0.298141 0.0632799
483 4 0.2091 0.280728 0.0190144
573 4 0.37396 0.261627 0.0427501
572 4 0.352311 0.29102 0.0769275
571 2 0.363136 0.276324 0.0598388
281 4 0.443135 0.328167 0.0851956
322 2 0.427703 0.251359 0.083122
323 4 0.416304 0.273324 0.0866961
280 2 0.459634 0.331358 0.0666818
1168 2 0.0312148 0.33206 0.99709
1169 4 0.0434676 0.353017 0.00307896
328 2 0.0153956 0.383137 0.00243997
329 4 0.0321218 0.366919 0.993363
454 2 0.141586 0.340041 0.0579436
455 4 0.143857 0.35416 0.078454
287 4 0.147091 0.4018 0.0103329
252 4 0.271741 0.3847 0.0645693
250 2 0.274962 0.395739 0.0423672
608 4 0.276209 0.376524 0.08257
282 4 0.476134 0.33455 0.0481679
227 4 0.449255 0.417824 0.0307248
551 4 0.078531 0.467383 0.0506848
314 4 0.0267699 0.450991 0.0591464
550 2 0.0547113 0.474009 0.0544124
552 4 0.0308915 0.480635 0.0581401
244 2 0.208259 0.460462 0.0305246
246 4 0.228757 0.468715 0.0422244
245 4 0.18776 0.452209 0.0188247
242 4 0.178375 0.513915 0.0600859
251 4 0.278183 0.406779 0.0201651
272 4 0.247509 0.473288 0.0501444
271 2 0.258776 0.494531 0.0432916
226 2 0.465413 0.429912 0.0159604
19 3 0.0461347 0.0329509 0.147755
20 3 0.0729035 0.0296922 0.121478
1422 4 0.0333874 0.0135329 0.153689
16 1 0.0647756 0.0428941 0.138161
17 3 0.0586575 0.0632656 0.129402
18 3 0.0811311 0.0462629 0.154271
2480 4 0.0245568 0.0347471 0.151849
693 4 0.25154 0.0719772 0.158137
652 2 0.273144 0.0459371 0.129351
654 4 0.288688 0.0294527 0.118775
653 4 0.257601 0.0624214 0.139926
296 4 0.371349 0.0686272 0.094288
295 2 0.355626 0.0517263 0.103898
297 4 0.339904 0.0348255 0.113508
485 4 0.347949 0.0212894 0.124779
758 4 0.375685 0.0636662 0.160696
484 2 0.331299 0.00616921 0.135703
1759 2 0.468637 0.0111853 0.149195
1760 4 0.486059 0.0291146 0.149626
2723 4 0.49146 0.0437645 0.0943347
1784 4 0.436379 0.000277556 0.16048
590 4 0.0692019 0.12024 0.0839412
566 4 0.199382 0.116412 0.0984686
582 4 0.261281 0.0886999 0.152796
339 4 0.0888088 0.250286 0.104368
337 2 0.0895704 0.253047 0.129207
477 4 0.164571 0.17931 0.138964
475 2 0.153358 0.184494 0.160702
737 4 0.188771 0.208001 0.0897934
738 4 0.237907 0.207915 0.0990863
736 2 0.213339 0.207958 0.0944399
460 2 0.314305 0.209235 0.0973937
462 4 0.321171 0.204171 0.120897
277 2 0.256096 0.253241 0.155568
755 4 0.282319 0.257725 0.128323
255 4 0.327245 0.203947 0.139869
254 4 0.376717 0.200748 0.133313
630 4 0.39012 0.193414 0.119185
253 2 0.351981 0.202347 0.136591
628 2 0.40638 0.212141 0.122363
770 4 0.500405 0.157371 0.103436
629 4 0.42264 0.230868 0.125541
2590 2 0.491991 0.213232 0.149287
2591 4 0.477515 0.194941 0.15829
338 4 0.090332 0.255807 0.154046
362 4 0.142215 0.28653 0.170547
611 4 0.233497 0.320079 0.157413
756 4 0.308669 0.287169 0.0976724
754 2 0.295494 0.272447 0.112998
278 4 0.263564 0.263579 0.134061
610 2 0.245455 0.335234 0.141523
741 4 0.362428 0.295959 0.092492
622 2 0.412332 0.269533 0.13753
623 4 0.396923 0.287629 0.145296
739 2 0.35278 0.311645 0.109405
624 4 0.427741 0.251438 0.129764
671 4 0.423745 0.333337 0.0831071
527 4 0.449042 0.235369 0.15651
526 2 0.455937 0.254862 0.170569
621 4 0.0386341 0.398355 0.0972977
619 2 0.0524998 0.387768 0.11521
620 4 0.0663655 0.377182 0.133122
647 4 0.0752417 0.387003 0.148664
315 4 0.0266393 0.412651 0.0912508
646 2 0.0874923 0.379055 0.168961
537 4 0.158972 0.380697 0.153053
535 2 0.183913 0.382457 0.152959
626 4 0.203465 0.417495 0.134168
536 4 0.208855 0.384216 0.152865
609 4 0.275617 0.344448 0.120931
607 2 0.275913 0.360486 0.10175
612 4 0.257414 0.350389 0.125633
386 4 0.33413 0.342597 0.134272
385 2 0.332875 0.362626 0.149187
387 4 0.33162 0.382654 0.164103
740 4 0.343132 0.327332 0.126317
495 4 0.396276 0.400295 0.145526
672 4 0.403414 0.345113 0.127251
12 3 0.417016 0.355749 0.137179
302 4 0.334481 0.401982 0.165072
14 3 0.413416 0.393111 0.139115
11 1 0.418313 0.373927 0.151215
670 2 0.413579 0.339225 0.105179
13 3 0.439829 0.375254 0.159801
595 2 0.47859 0.353452 0.154049
596 4 0.497418 0.340776 0.14356
597 4 0.459762 0.366128 0.164537
313 2 0.0267046 0.431821 0.0751986
625 2 0.216449 0.435044 0.121978
627 4 0.229433 0.452594 0.109788
639 4 0.233473 0.476645 0.142175
1439 4 0.23273 0.494078 0.130407
637 2 0.236334 0.486625 0.164922
1438 2 0.236363 0.50174 0.106885
493 2 0.399779 0.424083 0.138666
524 4 0.361002 0.48512 0.107575
523 2 0.353632 0.471307 0.12707
525 4 0.346262 0.457494 0.146566
303 4 0.357524 0.445792 0.157968
494 4 0.403281 0.44787 0.131805
301 2 0.346002 0.423887 0.16152
690 4 0.145309 0.0233977 0.257705
688 2 0.154239 0.0130647 0.236761
674 4 0.140851 0.0408192 0.248745
1504 2 0.193439 0.998448 0.197988
450 4 0.191909 0.0748505 0.184001
1505 4 0.180113 0.0113948 0.21472
689 4 0.16317 0.0027318 0.215817
691 2 0.237866 0.0600297 0.175325
692 4 0.224191 0.0480822 0.192514
723 4 0.200141 0.0728555 0.24571
1700 4 0.325082 0.0139363 0.253668
21 1 0.365144 0.0687627 0.236009
23 3 0.349145 0.0540568 0.244143
24 3 0.35483 0.0874594 0.226928
25 3 0.377852 0.0584409 0.220178
759 4 0.390256 0.0519451 0.207075
757 2 0.38297 0.0578056 0.183885
381 4 0.994544 0.158829 0.185545
513 4 0.0432888 0.169826 0.219918
511 2 0.0277003 0.167885 0.200465
577 2 0.0822031 0.165621 0.239877
449 4 0.146773 0.0944787 0.192844
235 2 0.144707 0.137793 0.205239
237 4 0.142416 0.162557 0.207828
236 4 0.146998 0.11303 0.202649
448 2 0.169341 0.0846646 0.188422
721 2 0.19807 0.0975679 0.248902
580 2 0.280855 0.0951512 0.166953
581 4 0.300428 0.101603 0.181111
30 3 0.292851 0.109138 0.198174
26 1 0.291052 0.113547 0.220445
29 3 0.278007 0.13245 0.223745
28 3 0.281597 0.095391 0.231371
27 3 0.312008 0.117364 0.22913
311 4 0.469839 0.119821 0.184009
312 4 0.425544 0.0967848 0.186836
310 2 0.447691 0.108303 0.185423
578 4 0.0626286 0.165722 0.22432
512 4 0.0121117 0.165943 0.181012
476 4 0.142144 0.189679 0.18244
279 4 0.248628 0.242904 0.177075
285 4 0.272809 0.232237 0.246568
284 4 0.232166 0.212753 0.224907
283 2 0.252487 0.222495 0.235738
764 4 0.439336 0.218977 0.248024
763 2 0.422171 0.227444 0.231936
521 4 0.457797 0.218195 0.240804
394 2 0.0770054 0.272497 0.204268
396 4 0.0642924 0.282513 0.223326
443 4 0.0470238 0.289025 0.232014
749 4 0.0773624 0.330915 0.228334
363 4 0.0947651 0.270983 0.167804
361 2 0.11849 0.278756 0.169175
395 4 0.0897184 0.262481 0.185209
372 4 0.152894 0.27483 0.183725
370 2 0.160474 0.273066 0.207486
371 4 0.168055 0.271301 0.231247
345 4 0.258464 0.274522 0.200027
343 2 0.26585 0.294278 0.213455
344 4 0.273236 0.314035 0.226882
309 4 0.288997 0.319924 0.239168
765 4 0.405005 0.235911 0.215847
528 4 0.462833 0.274355 0.184628
748 2 0.0857298 0.35205 0.217919
750 4 0.0940973 0.373185 0.207504
300 4 0.110062 0.382956 0.216509
648 4 0.0997429 0.371107 0.189257
298 2 0.127062 0.391249 0.232861
289 2 0.201145 0.40921 0.210839
290 4 0.220391 0.402881 0.225491
15 3 0.403322 0.371397 0.168172
643 2 0.446553 0.368127 0.204703
644 4 0.449647 0.373766 0.228865
645 4 0.443459 0.362488 0.180541
447 4 0.437005 0.384184 0.240445
263 4 0.0452193 0.491666 0.203439
262 2 0.0466844 0.477336 0.223877
264 4 0.0481494 0.463007 0.244315
417 4 0.153109 0.465567 0.194705
415 2 0.15772 0.440999 0.194164
1430 4 0.165843 0.477338 0.186229
291 4 0.181898 0.415539 0.196186
416 4 0.162331 0.41643 0.193622
766 2 0.219242 0.478891 0.220117
768 4 0.205738 0.476358 0.241007
767 4 0.232746 0.481425 0.199227
1429 2 0.179609 0.497503 0.180839
638 4 0.239195 0.496604 0.187668
414 4 0.194528 0.461824 0.249386
659 4 0.367678 0.458996 0.167567
660 4 0.370751 0.49377 0.203373
658 2 0.369215 0.476383 0.18547
231 4 0.364956 0.486318 0.222343
234 4 0.00839141 0.0348143 0.329137
232 2 0.025837 0.022532 0.316099
233 4 0.0432825 0.0102496 0.303062
1403 4 0.0627145 0.0102328 0.305055
731 4 0.0887769 0.0565208 0.328293
673 2 0.139895 0.0577481 0.267121
730 2 0.0998607 0.0786714 0.33171
428 4 0.0968785 0.0506022 0.346171
605 4 0.167352 0.0426201 0.316752
1701 4 0.29538 0.0517425 0.267425
1699 2 0.310231 0.0328394 0.260546
1407 4 0.279886 0.00731895 0.318815
22 3 0.378645 0.0754281 0.2534
1518 4 0.353065 0.0184783 0.308782
697 2 0.378447 0.0452246 0.297047
699 4 0.355658 0.036268 0.302107
698 4 0.401236 0.0541812 0.291986
1747 2 0.458619 0.0004094 0.315019
742 2 0.463755 0.0174113 0.250092
1749 4 0.478702 0.0125824 0.306435
743 4 0.475358 0.03954 0.251036
257 4 0.426837 0.0829071 0.308787
351 4 0.472023 0.0581482 0.258512
349 2 0.459593 0.073674 0.273665
480 4 0.480897 0.0326053 0.311002
478 2 0.491526 0.0469361 0.328518
350 4 0.447163 0.0891999 0.288818
256 2 0.440022 0.0738868 0.328022
579 4 0.101778 0.16552 0.255433
675 4 0.138939 0.074677 0.285497
399 4 0.117504 0.165415 0.317557
397 2 0.119097 0.141103 0.323178
398 4 0.12069 0.116792 0.328799
732 4 0.110945 0.100822 0.335127
544 2 0.168025 0.15418 0.266374
545 4 0.150836 0.171378 0.272203
546 4 0.185213 0.136982 0.260545
722 4 0.195998 0.12228 0.252093
403 2 0.236826 0.166042 0.28825
599 4 0.222437 0.132576 0.30239
404 4 0.239379 0.144462 0.300617
598 2 0.202618 0.124539 0.315343
600 4 0.182798 0.116503 0.328296
249 4 0.271866 0.110352 0.315456
248 4 0.320527 0.110505 0.303931
247 2 0.296197 0.110428 0.309693
632 4 0.381517 0.0932999 0.324639
333 4 0.388119 0.0878857 0.267655
331 2 0.408929 0.0923101 0.28079
332 4 0.429739 0.0967344 0.293926
762 4 0.43156 0.112309 0.310168
760 2 0.450085 0.125449 0.299712
761 4 0.468611 0.13859 0.289256
530 4 0.0106504 0.194827 0.278759
393 4 0.108435 0.17844 0.305864
390 4 0.0864248 0.251752 0.308121
392 4 0.133435 0.176129 0.262617
391 2 0.120935 0.177284 0.28424
388 2 0.110617 0.251266 0.301824
405 4 0.234272 0.187622 0.275882
401 4 0.225757 0.203707 0.284531
400 2 0.213493 0.216155 0.302415
402 4 0.201228 0.228602 0.320298
707 4 0.296657 0.192223 0.326916
418 2 0.395308 0.230752 0.317991
419 4 0.413138 0.248082 0.320627
420 4 0.377478 0.213421 0.315356
520 2 0.482101 0.214438 0.245321
444 4 0.0610219 0.314091 0.272958
442 2 0.0540229 0.301558 0.252486
389 4 0.13481 0.25078 0.295527
307 2 0.303612 0.323839 0.259074
308 4 0.318228 0.327754 0.27898
497 4 0.327075 0.337667 0.293322
496 2 0.334152 0.321018 0.310582
498 4 0.341229 0.30437 0.327843
615 4 0.412955 0.33997 0.332614
543 4 0.424168 0.322972 0.329057
541 2 0.441787 0.312802 0.314519
542 4 0.459405 0.302632 0.299981
365 4 0.0176779 0.386531 0.305574
2491 2 0.0164995 0.385021 0.344134
2493 4 0.0287784 0.388174 0.322583
364 2 0.0200465 0.377046 0.282561
366 4 0.022415 0.367561 0.259548
299 4 0.144063 0.399542 0.249213
603 4 0.106009 0.357788 0.32647
601 2 0.106037 0.382745 0.328
734 4 0.143497 0.385647 0.264241
733 2 0.147907 0.379838 0.288157
602 4 0.106065 0.407701 0.329531
735 4 0.152318 0.374028 0.312073
777 4 0.116747 0.422638 0.321041
677 4 0.166654 0.360742 0.310306
676 2 0.190551 0.353416 0.31094
678 4 0.214449 0.346089 0.311574
729 4 0.313063 0.351636 0.298113
727 2 0.308476 0.371263 0.312908
434 4 0.321255 0.398187 0.335445
728 4 0.303888 0.39089 0.327704
613 2 0.388023 0.338332 0.33167
614 4 0.363091 0.336694 0.330726
433 2 0.343149 0.410199 0.334208
435 4 0.365043 0.422211 0.332971
445 2 0.442543 0.392667 0.263305
446 4 0.448081 0.401149 0.286164
1756 2 0.0790883 0.47427 0.273714
549 4 0.0376767 0.448305 0.313095
1757 4 0.0801496 0.452345 0.285687
547 2 0.0514683 0.432689 0.32692
776 4 0.0951669 0.440951 0.279814
501 4 0.141065 0.494728 0.344558
775 2 0.105957 0.431794 0.300428
413 4 0.185166 0.470118 0.297804
412 2 0.189847 0.465971 0.273595
438 4 0.30668 0.503584 0.315082
437 4 0.273491 0.488977 0.280646
436 2 0.290085 0.496281 0.297864
3 3 0.286795 0.440603 0.323914
5 3 0.262488 0.452615 0.35004
713 4 0.402936 0.455141 0.309756
712 2 0.419672 0.456089 0.291203
714 4 0.436407 0.457037 0.27265
119 3 0.490359 0.424508 0.329572
2757 4 0.977201 0.0556661 0.367583
317 4 0.0418823 0.0698601 0.327153
429 4 0.0932623 0.000749687 0.344632
427 2 0.0950704 0.0256759 0.345401
606 4 0.157424 0.0297366 0.36404
604 2 0.162388 0.0361783 0.340396
683 4 0.244299 0.0370365 0.417455
682 2 0.258724 0.0569164 0.412777
725 4 0.292068 0.0759643 0.401823
684 4 0.27315 0.0767964 0.4081
2879 4 0.479674 0.0310511 0.41294
424 2 0.443932 0.0528431 0.388387
426 4 0.452035 0.0584306 0.365402
258 4 0.453207 0.0648665 0.347256
425 4 0.435829 0.0472557 0.411372
316 2 0.040252 0.0850144 0.346973
318 4 0.0386217 0.100169 0.366794
686 4 0.166399 0.144377 0.385289
685 2 0.178352 0.136624 0.364741
687 4 0.190305 0.128871 0.344194
631 2 0.360946 0.0986783 0.337794
633 4 0.340374 0.104057 0.350949
514 2 0.465783 0.167625 0.404162
453 4 0.47272 0.157418 0.367966
451 2 0.488618 0.154181 0.348942
2654 4 0.00266425 0.234806 0.338331
275 4 0.175993 0.215363 0.352889
474 4 0.191619 0.204047 0.353192
472 2 0.216285 0.205813 0.356886
473 4 0.240951 0.207579 0.360581
274 2 0.162879 0.235421 0.360022
708 4 0.251126 0.204315 0.343691
706 2 0.273892 0.198269 0.335303
716 4 0.366116 0.23145 0.376645
715 2 0.351296 0.242777 0.393295
515 4 0.476006 0.171366 0.381652
618 4 0.0583999 0.295237 0.396838
616 2 0.0509529 0.289412 0.373691
617 4 0.0435059 0.283586 0.350544
347 4 0.0485331 0.288989 0.414391
276 4 0.149766 0.255479 0.367155
510 4 0.249083 0.319982 0.389218
508 2 0.24417 0.298636 0.377162
509 4 0.239257 0.277289 0.365105
488 4 0.311553 0.285918 0.397146
376 2 0.335651 0.288345 0.369476
377 4 0.33076 0.284422 0.393681
487 2 0.298419 0.266312 0.405409
374 4 0.26648 0.323909 0.398321
378 4 0.340541 0.292268 0.345271
717 4 0.336475 0.254103 0.409945
267 4 0.343903 0.27248 0.405151
269 4 0.479661 0.274339 0.36979
268 2 0.463573 0.267296 0.387587
270 4 0.447485 0.260253 0.405385
406 2 0.0739167 0.41901 0.384285
408 4 0.0764328 0.42002 0.409141
710 4 0.142891 0.402297 0.415189
502 2 0.232421 0.401115 0.410862
504 4 0.255651 0.391868 0.410691
373 2 0.261334 0.348127 0.401813
335 4 0.366894 0.401558 0.424624
561 4 0.465002 0.407293 0.402383
752 4 0.459819 0.417085 0.385628
559 2 0.441923 0.411362 0.4111
751 2 0.475445 0.423848 0.367318
407 4 0.0714007 0.418 0.359429
548 4 0.06526 0.417073 0.340744
499 2 0.116646 0.493358 0.33936
500 4 0.0922272 0.491988 0.334163
1435 2 0.233801 0.477067 0.339539
503 4 0.209191 0.410363 0.411032
1437 4 0.247141 0.46381 0.356015
668 4 0.293027 0.443082 0.378866
1 1 0.284111 0.453585 0.342958
2 3 0.289461 0.475381 0.337914
4 3 0.298279 0.446072 0.359728
667 2 0.316335 0.447291 0.386876
334 2 0.360346 0.419657 0.408663
669 4 0.339644 0.451501 0.394886
593 4 0.402758 0.481385 0.372466
336 4 0.353798 0.437755 0.392702
592 2 0.425492 0.491457 0.369838
594 4 0.448226 0.501528 0.367211
753 4 0.491071 0.430612 0.349007
718 2 0.0614293 0.0597675 0.486916
719 4 0.0720507 0.0391563 0.477559
368 4 0.122144 0.0382969 0.435886
367 2 0.136002 0.0590777 0.437025
2429 4 0.246791 0.00469892 0.469625
2428 2 0.224514 0.0160457 0.46919
341 4 0.196966 0.0430052 0.479572
340 2 0.188837 0.0658161 0.485798
2430 4 0.202238 0.0273925 0.468755
1182 4 0.22035 0.0624147 0.498089
1180 2 0.243925 0.056074 0.503489
439 2 0.274866 0.00815099 0.44464
441 4 0.259838 0.0180358 0.462007
724 2 0.312455 0.0797894 0.415783
430 2 0.326221 0.0653293 0.483487
432 4 0.321114 0.0418171 0.476685
431 4 0.331328 0.0888415 0.490289
2878 2 0.487876 0.0506745 0.426087
1033 2 0.0930375 0.152157 0.487571
369 4 0.14986 0.0798584 0.438163
1034 4 0.0821411 0.132663 0.476327
342 4 0.180708 0.088627 0.492023
1152 4 0.172848 0.107683 0.487991
320 4 0.271591 0.0938062 0.418239
321 4 0.238945 0.131628 0.420347
319 2 0.255268 0.112717 0.419293
726 4 0.332843 0.0836144 0.429744
410 4 0.296081 0.174619 0.490175
468 4 0.35798 0.149537 0.455488
576 4 0.41479 0.141575 0.462017
843 4 0.345686 0.102583 0.491156
2880 4 0.496078 0.0702978 0.439233
574 2 0.436958 0.149319 0.453427
642 4 0.489575 0.0901989 0.438009
516 4 0.455561 0.163884 0.426672
641 4 0.461899 0.114165 0.472075
640 2 0.475737 0.102182 0.455042
575 4 0.459126 0.157063 0.444837
3158 4 0.458502 0.122403 0.490418
458 4 0.994029 0.172984 0.416145
471 4 0.0521084 0.209237 0.480325
1035 4 0.103934 0.171651 0.498815
261 4 0.113506 0.195744 0.498556
260 4 0.0973777 0.220567 0.458251
259 2 0.105442 0.208155 0.478404
467 4 0.315064 0.168504 0.438191
411 4 0.260519 0.196379 0.46256
409 2 0.2783 0.185499 0.476367
651 4 0.272788 0.256519 0.428195
466 2 0.336522 0.15902 0.44684
306 4 0.461051 0.251239 0.416653
305 4 0.48328 0.219209 0.447968
304 2 0.472166 0.235224 0.43231
3065 4 0.501026 0.249254 0.496396
346 2 0.028497 0.294849 0.428153
348 4 0.00846095 0.300709 0.441915
2814 4 0.994543 0.313745 0.446308
695 4 0.0923177 0.296314 0.482508
694 2 0.115809 0.299577 0.490426
10 3 0.169606 0.328982 0.470256
650 4 0.264017 0.26828 0.476001
489 4 0.285284 0.246707 0.413673
649 2 0.268402 0.262399 0.452098
266 4 0.35026 0.298833 0.447173
265 2 0.347081 0.285656 0.426162
585 4 0.417633 0.283023 0.434059
2455 2 0.490501 0.313635 0.462546
2456 4 0.477878 0.305428 0.442583
583 2 0.441525 0.287237 0.440107
584 4 0.465418 0.291451 0.446154
7 3 0.133258 0.337168 0.472429
327 4 0.117893 0.341801 0.486217
326 4 0.0791798 0.361425 0.461379
325 2 0.0985363 0.351613 0.473798
6 1 0.15456 0.345104 0.475946
709 2 0.154011 0.391003 0.434528
8 3 0.157806 0.363953 0.462809
711 4 0.16513 0.379709 0.453866
375 4 0.256187 0.372345 0.405305
804 4 0.278275 0.386773 0.484421
802 2 0.266167 0.384877 0.506215
238 2 0.360419 0.371908 0.447663
240 4 0.374172 0.382982 0.42996
239 4 0.346665 0.360835 0.465366
560 4 0.418844 0.415432 0.419817
927 4 0.464654 0.409985 0.497874
681 4 0.0278426 0.477564 0.405814
540 4 0.0501944 0.484773 0.482088
680 4 0.0216942 0.481246 0.455305
1383 4 0.00365482 0.474581 0.458448
679 2 0.0247684 0.479405 0.43056
384 4 0.13422 0.442233 0.494003
569 4 0.12519 0.434883 0.477604
568 2 0.122575 0.441106 0.453529
570 4 0.119961 0.44733 0.429454
636 4 0.18593 0.452528 0.430146
774 4 0.218592 0.442571 0.472215
772 2 0.219257 0.434385 0.495831
635 4 0.227633 0.451699 0.457731
634 2 0.206781 0.452114 0.443939
1399 2 0.344396 0.477628 0.466658
586 2 0.400894 0.458978 0.449464
588 4 0.383892 0.463236 0.467296
1400 4 0.365142 0.464212 0.462811
587 4 0.417897 0.45472 0.431632
1126 2 0.0281072 0.0838335 0.531426
1127 4 0.0364011 0.0767353 0.508931
1128 4 0.0198132 0.0909317 0.55392
720 4 0.0508078 0.0803788 0.496272
1058 4 0.103587 0.0374632 0.547886
1057 2 0.116121 0.0517558 0.564128
1059 4 0.128655 0.0660484 0.58037
1030 2 0.239977 0.0805363 0.591257
1031 4 0.22895 0.0614394 0.603042
961 2 0.301856 0.0265376 0.520786
962 4 0.322496 0.0189336 0.532676
963 4 0.281216 0.0341415 0.508897
1181 4 0.267501 0.0497333 0.508889
1217 4 0.394278 0.0737803 0.527027
842 4 0.385636 0.0893484 0.518167
1216 2 0.414239 0.0815959 0.539897
1153 2 0.156253 0.0979088 0.576917
939 4 0.147589 0.142889 0.531766
1155 4 0.144443 0.0765289 0.571569
937 2 0.1336 0.161259 0.522172
938 4 0.119611 0.179628 0.512577
1150 2 0.177567 0.114189 0.511668
1151 4 0.182286 0.120694 0.535344
1032 4 0.251005 0.0996332 0.579472
898 2 0.331067 0.157307 0.555832
899 4 0.309247 0.145102 0.555578
857 4 0.289281 0.145309 0.552109
841 2 0.365661 0.0959659 0.504662
1218 4 0.4342 0.0894115 0.552768
3157 2 0.455795 0.142306 0.505309
878 4 0.0669341 0.251776 0.563394
470 4 0.0114114 0.199305 0.507634
1199 4 0.995384 0.193129 0.581171
469 2 0.0317599 0.204271 0.493979
877 2 0.0853096 0.236664 0.571084
879 4 0.103685 0.221551 0.578775
858 4 0.258663 0.183791 0.561184
797 4 0.251751 0.197614 0.574782
856 2 0.273972 0.16455 0.556646
796 2 0.261849 0.220367 0.577133
798 4 0.271948 0.243119 0.579484
900 4 0.352888 0.169513 0.556087
871 2 0.377731 0.232938 0.520422
872 4 0.385053 0.21663 0.537904
3159 4 0.453088 0.162209 0.5202
1260 4 0.156689 0.292838 0.498318
696 4 0.1393 0.30284 0.498344
1258 2 0.166425 0.303444 0.518761
1259 4 0.176161 0.31405 0.539204
1239 4 0.219933 0.325229 0.597995
792 4 0.285611 0.308996 0.588379
812 4 0.316962 0.284752 0.519397
811 2 0.338258 0.271652 0.51923
873 4 0.37041 0.249246 0.50294
813 4 0.359554 0.258551 0.519064
897 4 0.150716 0.359358 0.584215
1137 4 0.142442 0.368907 0.568903
1135 2 0.117915 0.364195 0.570083
383 4 0.136919 0.403962 0.526077
1136 4 0.0933874 0.359483 0.571263
9 3 0.156919 0.350575 0.498371
895 2 0.174127 0.362508 0.576021
1189 2 0.22609 0.377324 0.545816
896 4 0.197539 0.365659 0.567827
1191 4 0.215736 0.377544 0.568574
1190 4 0.236444 0.377105 0.523058
803 4 0.254059 0.382981 0.528009
929 4 0.343645 0.383429 0.550974
928 2 0.361937 0.368978 0.560014
930 4 0.38023 0.354527 0.569054
925 2 0.455164 0.396373 0.516578
926 4 0.445674 0.38276 0.535282
1001 4 0.429636 0.406061 0.565024
382 2 0.13557 0.423097 0.51004
1173 4 0.225321 0.440626 0.566838
773 4 0.219923 0.426199 0.519447
1171 2 0.244262 0.445566 0.551281
1172 4 0.263203 0.450506 0.535724
882 4 0.278346 0.44739 0.522496
880 2 0.299423 0.45915 0.515966
881 4 0.3205 0.47091 0.509436
1000 2 0.424666 0.428835 0.57407
661 2 0.483713 0.470237 0.511177
663 4 0.481159 0.447913 0.500207
1002 4 0.419695 0.451609 0.583115
1185 4 0.0130351 0.0404318 0.640395
945 4 0.0450991 0.0418744 0.649336
2319 4 0.0377963 0.028471 0.661786
943 2 0.0535372 0.0580178 0.666464
1183 2 0.999515 0.0608745 0.645343
825 4 0.131918 0.0279752 0.608262
951 4 0.217911 0.0451473 0.608838
949 2 0.195746 0.0359271 0.601844
950 4 0.173582 0.026707 0.59485
1004 4 0.387719 0.0717894 0.645342
2283 4 0.459008 0.0254396 0.607047
2282 4 0.440715 0.0561751 0.641995
2281 2 0.449861 0.0408074 0.624521
45 3 0.486642 0.0708019 0.659621
810 4 0.487737 0.055093 0.648392
43 3 0.451554 0.057151 0.659282
808 2 0.502503 0.0562983 0.62825
1082 4 0.0611144 0.126659 0.646984
1081 2 0.0714779 0.105494 0.638629
1083 4 0.0818414 0.0843288 0.630274
1154 4 0.168063 0.119289 0.582265
1283 4 0.164503 0.105364 0.647974
1221 4 0.183709 0.128999 0.575699
1219 2 0.194163 0.133369 0.597988
1220 4 0.204616 0.137739 0.620277
1212 4 0.217875 0.152511 0.623784
1210 2 0.234505 0.156876 0.641938
1003 2 0.365652 0.076555 0.634594
1005 4 0.343585 0.0813206 0.623846
1272 4 0.11376 0.222604 0.595545
1270 2 0.115281 0.211128 0.617708
1271 4 0.116802 0.199652 0.63987
1207 2 0.0858381 0.257479 0.643167
1209 4 0.106835 0.248456 0.633023
909 4 0.189887 0.216042 0.654873
1211 4 0.251135 0.161241 0.660092
1026 4 0.43017 0.231679 0.640505
1024 2 0.422571 0.212435 0.654544
1208 4 0.0648411 0.266501 0.653311
1244 4 0.0463949 0.317681 0.631806
1243 2 0.0318193 0.298738 0.639148
1245 4 0.0172438 0.279796 0.646491
1237 2 0.244357 0.322574 0.593345
948 4 0.175489 0.29516 0.653564
946 2 0.176317 0.291121 0.628903
947 4 0.177144 0.287081 0.604242
1238 4 0.268781 0.319919 0.588696
791 4 0.305655 0.263928 0.580148
790 2 0.295633 0.286462 0.584264
953 4 0.434554 0.27322 0.614873
952 2 0.432461 0.295116 0.602983
954 4 0.430368 0.317011 0.591092
3123 4 0.485606 0.29742 0.665361
983 4 0.0323115 0.366994 0.640026
1039 2 0.0557546 0.372305 0.612179
1041 4 0.033617 0.363279 0.619503
982 2 0.0127607 0.358008 0.652762
1040 4 0.0778921 0.381331 0.604855
993 4 0.0899627 0.390708 0.618211
991 2 0.0997926 0.397381 0.640211
890 4 0.326796 0.414997 0.611609
1204 2 0.405933 0.368275 0.594287
1206 4 0.383309 0.367972 0.583646
1205 4 0.428557 0.368579 0.604928
3182 4 0.503212 0.404579 0.666635
2129 4 0.0156904 0.493431 0.65812
992 4 0.109623 0.404054 0.662212
2170 2 0.112827 0.489221 0.642471
2172 4 0.109277 0.476692 0.663815
1160 4 0.18548 0.442094 0.603887
1159 2 0.197441 0.460549 0.615785
1161 4 0.209401 0.479004 0.627683
891 4 0.337252 0.461717 0.597165
889 2 0.332024 0.438357 0.604387
1952 4 0.334598 0.47324 0.6121
1951 2 0.352144 0.490239 0.606778
1910 4 0.430422 0.469448 0.583547
1909 2 0.443002 0.490414 0.58878
2318 4 0.0164829 0.99031 0.68608
2317 2 0.0271396 0.00939024 0.673933
944 4 0.0619754 0.0741612 0.683592
1075 2 0.0617728 0.0688565 0.721392
1077 4 0.0518583 0.0726321 0.744033
41 1 0.46853 0.0658365 0.672502
1163 4 0.488717 0.0438255 0.702803
42 3 0.474487 0.0501334 0.688221
44 3 0.461099 0.0849221 0.683408
1076 4 0.0716873 0.0650809 0.69875
1106 4 0.0826326 0.151121 0.739595
1282 2 0.174351 0.109583 0.670567
1284 4 0.184198 0.113801 0.693159
1227 4 0.191335 0.129488 0.702876
1225 2 0.207024 0.12327 0.721324
1226 4 0.222714 0.117052 0.739773
1148 4 0.215362 0.0990546 0.746933
830 4 0.3272 0.166291 0.699042
886 2 0.288924 0.163947 0.679589
887 4 0.307305 0.163342 0.696528
1142 4 0.389344 0.146339 0.686552
1105 2 0.0759608 0.172278 0.72806
1107 4 0.0692891 0.193434 0.716525
851 4 0.0626077 0.207096 0.705944
852 4 0.0151695 0.214016 0.691716
850 2 0.0388886 0.210556 0.69883
1178 4 0.000888396 0.226744 0.686015
1177 2 0.00436699 0.248693 0.674554
907 2 0.190426 0.19218 0.662324
908 4 0.190965 0.168319 0.669775
888 4 0.270543 0.164552 0.662649
829 2 0.325992 0.183197 0.717424
1064 4 0.247228 0.242773 0.722356
831 4 0.324784 0.200103 0.735806
1193 4 0.361734 0.209099 0.678559
1192 2 0.373505 0.222335 0.696206
1194 4 0.385275 0.235571 0.713854
1262 4 0.405449 0.236532 0.716108
1141 2 0.4063 0.16465 0.685008
1143 4 0.423256 0.182961 0.683463
1025 4 0.414972 0.193191 0.668583
3356 4 0.469184 0.220015 0.717231
3355 2 0.478664 0.22978 0.696257
1261 2 0.429734 0.232708 0.720667
1263 4 0.454019 0.228884 0.725225
1145 4 0.461541 0.20168 0.724912
3357 4 0.488144 0.239546 0.675282
1144 2 0.475553 0.191564 0.742982
1179 4 0.00784557 0.270641 0.663094
821 4 0.137477 0.251707 0.742395
1242 4 0.190222 0.324109 0.745398
1065 4 0.250163 0.288404 0.702111
1063 2 0.248696 0.265588 0.712234
806 4 0.355356 0.320585 0.686903
3121 2 0.494406 0.274022 0.66585
892 2 0.0689567 0.39032 0.714948
894 4 0.0446691 0.396223 0.715617
3276 4 0.0375032 0.392804 0.734865
893 4 0.0932443 0.384417 0.714279
1028 4 0.215117 0.409388 0.673776
1027 2 0.2382 0.41894 0.674821
1029 4 0.261283 0.428492 0.675867
807 4 0.37442 0.358011 0.714043
805 2 0.364888 0.339298 0.700473
1020 4 0.391896 0.36908 0.715621
1018 2 0.39635 0.377856 0.738606
1280 4 0.041139 0.415011 0.711894
1281 4 0.02449 0.458701 0.729634
1279 2 0.0328145 0.436856 0.720764
1983 4 0.0266706 0.477958 0.722074
1981 2 0.0115087 0.494642 0.732888
1067 4 0.160742 0.412889 0.712716
941 4 0.141358 0.418819 0.7096
940 2 0.133502 0.426992 0.731886
1068 4 0.202884 0.418761 0.686443
1066 2 0.181813 0.415825 0.69958
1139 4 0.278928 0.426148 0.685091
1138 2 0.302933 0.429952 0.690961
1140 4 0.326938 0.433756 0.696831
1987 2 0.319115 0.491887 0.729661
1989 4 0.329515 0.475445 0.713954
1229 4 0.337227 0.457312 0.7135
1228 2 0.358428 0.451796 0.725553
1230 4 0.379629 0.44628 0.737606
1269 4 0.463095 0.510454 0.69261
1100 4 0.480331 0.46713 0.724268
1099 2 0.486071 0.486515 0.709555
1267 2 0.446872 0.507243 0.673857
1203 4 0.0588922 0.0588564 0.769993
1201 2 0.0732926 0.0386508 0.766904
1202 4 0.087693 0.0184453 0.763815
911 4 0.0871419 0.0584434 0.794495
2049 4 0.106312 0.0136042 0.766787
910 2 0.0901889 0.0741382 0.813719
1147 2 0.211254 0.0761493 0.756079
1149 4 0.207146 0.053244 0.765225
1256 4 0.292055 0.0693392 0.792781
1050 4 0.287175 0.00049783 0.794422
817 2 0.356475 0.084196 0.827093
1112 4 0.414119 0.0461995 0.787794
846 4 0.473549 0.0351121 0.818423
1113 4 0.456421 0.0445626 0.814413
844 2 0.493401 0.0403313 0.804147
1111 2 0.43527 0.0453811 0.801104
845 4 0.513254 0.0455505 0.789871
864 4 0.0505441 0.0760427 0.763587
862 2 0.0383429 0.0928919 0.777458
863 4 0.0261417 0.109741 0.79133
833 4 0.00624866 0.113587 0.793382
35 3 0.0983099 0.153299 0.750833
33 3 0.0938409 0.127521 0.77791
31 1 0.102724 0.14829 0.772607
34 3 0.0936696 0.164551 0.786464
32 3 0.1255 0.147665 0.77577
912 4 0.0932359 0.089833 0.832943
1130 4 0.219909 0.13837 0.787721
840 4 0.216344 0.123528 0.800398
838 2 0.241187 0.12125 0.802071
1255 2 0.288147 0.0922471 0.802008
1257 4 0.28424 0.115155 0.811235
839 4 0.26603 0.118972 0.803744
958 2 0.287907 0.14628 0.816561
959 4 0.273554 0.136341 0.798661
819 4 0.360084 0.0960181 0.805358