ITEM: TIMESTEP
2530000
ITEM: NUMBER OF ATOMS
4590
ITEM: BOX BOUNDS pp pp pp
-9.9985700000000008e+00 9.9985700000000008e+00
-9.9985700000000008e+00 9.9985700000000008e+00
-9.9985700000000008e+00 9.9985700000000008e+00
ITEM: ATOMS id type xs ys zs
463 2 0.0488062 0.0531134 0.0231507
464 4 0.0536338 0.031671 0.0350711
465 4 0.0439786 0.0745558 0.0112303
1668 4 0.0679085 0.0323077 0.0478537
1666 2 0.0596254 0.0250457 0.0702999
3290 4 0.0858169 0.0326719 0.0390663
3289 2 0.0993102 0.0346992 0.018114
565 2 0.146627 0.0374222 0.0494254
567 4 0.126595 0.0497234 0.0579443
566 4 0.166659 0.025121 0.0409065
490 2 0.288225 0.99109 0.0455983
491 4 0.2663 0.994024 0.0339433
297 4 0.361154 0.0273946 0.0791692
2144 4 0.344468 0.031415 0.00997328
2143 2 0.354769 0.00875219 0.0123119
295 2 0.383817 0.0379266 0.0799562
296 4 0.406481 0.0484586 0.0807432
745 2 0.473189 0.0643946 0.0510115
746 4 0.4522 0.0746509 0.0599241
747 4 0.494178 0.0541383 0.0420988
701 4 0.0590198 0.0822705 0.000895593
555 4 0.0354227 0.141551 0.0181162
358 2 0.229642 0.164699 0.99937
462 4 0.325365 0.164271 0.0688694
359 4 0.240673 0.157072 0.0204729
422 4 0.0772259 0.203701 0.0491219
421 2 0.0917543 0.199386 0.0292351
423 4 0.106283 0.195071 0.00934827
505 2 0.155239 0.248964 0.0699261
3234 4 0.115448 0.178572 0.00519414
737 4 0.177663 0.221587 0.0614501
736 2 0.200453 0.216962 0.0706373
738 4 0.223243 0.212336 0.0798245
352 2 0.251791 0.188905 0.0788147
506 4 0.170317 0.230509 0.0774922
354 4 0.235306 0.20336 0.0667946
665 4 0.332036 0.204483 0.0296881
664 2 0.330775 0.185552 0.0134033
1071 4 0.40007 0.246972 0.0182472
1069 2 0.411684 0.231349 0.00255487
828 4 0.50022 0.22102 0.0240027
826 2 0.48245 0.215579 0.00727471
324 4 0.469028 0.249815 0.0395659
2807 4 0.035554 0.268073 0.0110741
2806 2 0.0130497 0.276236 0.0182929
294 4 0.10777 0.310017 0.0409576
292 2 0.127427 0.295174 0.0452538
456 4 0.0961721 0.322352 0.0513581
293 4 0.147085 0.280331 0.04955
507 4 0.140161 0.267419 0.06236
739 2 0.316856 0.334807 0.0467882
741 4 0.312937 0.326036 0.0237038
611 4 0.271714 0.250313 0.0797838
573 4 0.389264 0.255946 0.00449889
254 4 0.384226 0.262644 0.0896213
630 4 0.401948 0.258262 0.0845347
956 4 0.340592 0.299368 0.995305
571 2 0.371 0.272917 0.00639594
322 2 0.481658 0.249851 0.0611451
454 2 0.103786 0.341163 0.0659646
455 4 0.1114 0.359975 0.0805711
1223 4 0.123035 0.420694 0.00255405
250 2 0.292006 0.378037 0.0722489
251 4 0.307477 0.394631 0.0617397
524 4 0.313982 0.391385 0.0427939
740 4 0.320776 0.343578 0.0698726
252 4 0.276534 0.361443 0.0827581
523 2 0.336845 0.401055 0.0457911
226 2 0.387549 0.382097 0.031733
228 4 0.375103 0.399133 0.0451519
227 4 0.399994 0.365061 0.0183142
1305 4 0.412554 0.364989 0.00290853
525 4 0.359707 0.410724 0.0487883
386 4 0.328854 0.353896 0.0857662
281 4 0.441096 0.364206 0.0711655
280 2 0.464697 0.356921 0.0750522
282 4 0.488298 0.349635 0.0789389
671 4 0.43081 0.375118 0.0842169
552 4 0.0376752 0.45435 0.0539666
314 4 0.0501023 0.439718 0.0570479
550 2 0.0214213 0.470546 0.0440334
551 4 0.00516745 0.486743 0.0341002
313 2 0.0473134 0.429338 0.0796236
243 4 0.226198 0.468424 0.0506736
1440 4 0.221601 0.46339 0.0709683
1290 4 0.222062 0.442071 0.0160613
241 2 0.213147 0.489529 0.0476046
245 4 0.236824 0.450229 0.00432107
1288 2 0.205886 0.423883 0.0103424
273 4 0.255247 0.503181 0.0430406
271 2 0.268098 0.493915 0.0623835
272 4 0.28095 0.484648 0.0817264
1583 4 0.444097 0.476903 0.0552479
1582 2 0.438935 0.481955 0.0791857
1667 4 0.0513422 0.0177837 0.0927461
16 1 0.0329097 0.037579 0.120587
2480 4 0.00985419 0.0614823 0.147685
18 3 0.0478241 0.0553008 0.119208
19 3 0.0111988 0.045605 0.122207
2479 2 0.0123475 0.0836497 0.15898
17 3 0.0347228 0.024833 0.101524
20 3 0.0378048 0.0246962 0.138717
450 4 0.140235 0.0807877 0.143544
652 2 0.248364 0.0476179 0.142079
653 4 0.236182 0.0584152 0.161058
654 4 0.260546 0.0368207 0.1231
1476 4 0.264307 0.0464412 0.106011
1474 2 0.273857 0.0249282 0.0975759
1475 4 0.283408 0.00341515 0.0891408
484 2 0.337003 0.00783696 0.112304
485 4 0.351878 0.0205019 0.0966993
557 4 0.421117 0.0525576 0.093674
556 2 0.419201 0.0668276 0.114116
558 4 0.417285 0.0810975 0.134558
2481 4 0.0148408 0.105817 0.170274
236 4 0.147394 0.142568 0.109539
449 4 0.144007 0.12367 0.118096
448 2 0.142121 0.102229 0.13082
235 2 0.148416 0.1608 0.126619
460 2 0.305494 0.167428 0.083713
580 2 0.309798 0.135874 0.165013
581 4 0.287123 0.139189 0.15501
771 4 0.422341 0.0994882 0.130146
769 2 0.437421 0.10758 0.148376
770 4 0.452501 0.115671 0.166605
370 2 0.162904 0.211928 0.160662
372 4 0.141114 0.223962 0.158306
237 4 0.149438 0.179031 0.143699
279 4 0.24781 0.229817 0.13505
461 4 0.285622 0.170586 0.0985567
353 4 0.268276 0.17445 0.0908349
277 2 0.25592 0.231847 0.111485
278 4 0.264031 0.233877 0.0879209
285 4 0.248077 0.234388 0.154465
755 4 0.328558 0.243421 0.163848
283 2 0.267953 0.247637 0.161853
624 4 0.450501 0.250419 0.13105
338 4 0.0445671 0.273358 0.121142
337 2 0.0622883 0.276527 0.138494
703 2 0.00548703 0.325584 0.159349
704 4 0.0213457 0.328685 0.140268
339 4 0.0800096 0.279697 0.155846
612 4 0.270234 0.300192 0.083049
609 4 0.265089 0.313112 0.0976675
610 2 0.270974 0.275253 0.0814164
754 2 0.327663 0.251906 0.140345
756 4 0.326769 0.260392 0.116843
607 2 0.26062 0.336062 0.0888057
253 2 0.35971 0.26156 0.0944138
255 4 0.335194 0.260477 0.0992064
323 4 0.494288 0.249887 0.0827243
629 4 0.442616 0.249181 0.112181
628 2 0.422282 0.253721 0.0983578
622 2 0.441851 0.25714 0.153526
621 4 0.0392933 0.412617 0.121007
619 2 0.0538142 0.395615 0.132198
620 4 0.0683351 0.378612 0.143389
647 4 0.123488 0.381745 0.146983
537 4 0.136509 0.392253 0.137009
535 2 0.153362 0.400938 0.120707
646 2 0.110238 0.367955 0.16309
536 4 0.170215 0.409622 0.104406
608 4 0.256151 0.359011 0.0799438
385 2 0.34129 0.366449 0.103457
387 4 0.353726 0.379002 0.121147
12 3 0.388214 0.372665 0.132743
11 1 0.379571 0.390945 0.14371
15 3 0.357708 0.393542 0.137885
672 4 0.40746 0.373852 0.12842
302 4 0.341659 0.398437 0.124191
14 3 0.391681 0.409773 0.137604
104 3 0.494235 0.348984 0.0965023
670 2 0.419135 0.374485 0.106318
315 4 0.0445245 0.418958 0.102199
1438 2 0.215836 0.462026 0.0952598
625 2 0.219825 0.440662 0.156261
1439 4 0.21007 0.460662 0.119551
627 4 0.220452 0.453878 0.135045
638 4 0.258469 0.459716 0.144143
637 2 0.26458 0.483926 0.142841
303 4 0.325797 0.439404 0.148084
301 2 0.333728 0.41892 0.136138
659 4 0.339294 0.453805 0.149849
494 4 0.376766 0.469264 0.101929
495 4 0.38694 0.426886 0.126452
493 2 0.381853 0.448075 0.114191
1674 4 0.423651 0.483705 0.120606
1584 4 0.433773 0.487007 0.103123
674 4 0.162081 0.0571082 0.21371
690 4 0.157144 0.0446069 0.199326
673 2 0.16507 0.0726734 0.233048
689 4 0.20026 0.0192806 0.199899
688 2 0.178702 0.0319437 0.199612
1505 4 0.210611 0.0100866 0.185038
693 4 0.249589 0.0557582 0.176301
691 2 0.256069 0.0702187 0.195642
1699 2 0.307753 0.0792307 0.215715
1701 4 0.284043 0.0863422 0.21219
1700 4 0.331463 0.0721192 0.219241
692 4 0.262549 0.0846793 0.214983
22 3 0.377794 0.0501769 0.229415
698 4 0.3876 0.0553772 0.245229
21 1 0.373119 0.0720588 0.224079
333 4 0.395022 0.0735691 0.251815
25 3 0.380985 0.0765285 0.203179
23 3 0.350137 0.0751915 0.224726
2744 4 0.496758 0.00183822 0.175408
351 4 0.493341 0.0635161 0.228821
743 4 0.502724 0.0548994 0.244808
349 2 0.473133 0.0754891 0.237392
1760 4 0.484251 0.999413 0.159205
511 2 0.00213323 0.142822 0.212918
578 4 0.0422776 0.156016 0.217182
513 4 0.0271029 0.144119 0.212805
28 3 0.246395 0.123874 0.166906
29 3 0.244467 0.15927 0.180611
26 1 0.257005 0.139752 0.180086
27 3 0.258921 0.131567 0.201498
30 3 0.277781 0.144082 0.171824
582 4 0.332472 0.132559 0.175016
758 4 0.352883 0.12857 0.173226
759 4 0.382042 0.0950336 0.196156
24 3 0.383442 0.0859245 0.239557
757 2 0.367463 0.111802 0.184691
312 4 0.459933 0.117576 0.18386
311 4 0.487881 0.132258 0.222642
310 2 0.473907 0.124917 0.203251
521 4 0.493154 0.140805 0.240332
350 4 0.452925 0.087462 0.245963
577 2 0.0427489 0.175567 0.232762
529 2 0.0101002 0.221523 0.236346
530 4 0.0310004 0.208598 0.240961
362 4 0.128363 0.229421 0.172025
371 4 0.184694 0.199893 0.163018
476 4 0.18802 0.188767 0.180043
477 4 0.234981 0.17408 0.17112
475 2 0.211501 0.181424 0.175582
402 4 0.237455 0.202545 0.244981
395 4 0.0778587 0.293812 0.169962
396 4 0.072487 0.308236 0.217541
443 4 0.0633796 0.300845 0.232859
394 2 0.0751728 0.301024 0.193751
442 2 0.0655038 0.287307 0.253773
361 2 0.119229 0.252558 0.174562
363 4 0.110094 0.275695 0.177098
284 4 0.287829 0.260886 0.169242
345 4 0.305456 0.325555 0.243195
528 4 0.430325 0.308105 0.222026
623 4 0.433202 0.263861 0.176003
527 4 0.421203 0.26919 0.191973
526 2 0.425764 0.288648 0.207
542 4 0.442258 0.30622 0.238496
299 4 0.0993067 0.341343 0.248963
648 4 0.096987 0.354165 0.179197
300 4 0.0977935 0.352346 0.200205
298 2 0.0985501 0.346844 0.224584
290 4 0.225953 0.401217 0.223907
289 2 0.228935 0.395059 0.247956
13 3 0.381312 0.387483 0.166587
597 4 0.383195 0.373752 0.18546
596 4 0.337846 0.354343 0.193673
595 2 0.36052 0.364047 0.189566
645 4 0.402273 0.383185 0.176008
643 2 0.413195 0.400387 0.190498
644 4 0.424117 0.417589 0.204988
416 4 0.211832 0.41527 0.229862
1429 2 0.176833 0.484942 0.179034
626 4 0.219199 0.427447 0.177478
1430 4 0.179297 0.465357 0.194382
417 4 0.188922 0.447332 0.199074
415 2 0.200377 0.431301 0.214468
658 2 0.353257 0.464036 0.167893
660 4 0.367219 0.474267 0.185936
231 4 0.370299 0.488829 0.199016
447 4 0.416642 0.430277 0.21976
445 2 0.417921 0.429949 0.244728
1403 4 0.0153754 0.00149572 0.264291
233 4 0.00956707 0.0198976 0.257185
232 2 0.0171458 0.04003 0.26993
234 4 0.0247245 0.0601624 0.282675
317 4 0.0333424 0.077049 0.276837
1406 4 0.177742 0.997324 0.314073
606 4 0.164934 0.0448436 0.333023
1518 4 0.41169 0.0187426 0.288644
697 2 0.394641 0.0352019 0.258212
699 4 0.401683 0.0150265 0.271195
425 4 0.439604 0.0320613 0.276778
424 2 0.448904 0.0524414 0.287883
258 4 0.473413 0.0702143 0.311401
426 4 0.458205 0.0728215 0.298989
331 2 0.417331 0.084427 0.254916
1749 4 0.485789 0.0170959 0.320602
316 2 0.056443 0.0803862 0.285804
318 4 0.0795436 0.0837234 0.294771
391 2 0.105743 0.153918 0.290948
392 4 0.115164 0.155633 0.267851
393 4 0.0963214 0.152204 0.314045
544 2 0.159217 0.158181 0.264223
545 4 0.134224 0.158606 0.264811
675 4 0.16806 0.0882387 0.252386
546 4 0.18421 0.157756 0.263636
723 4 0.230767 0.0969742 0.267855
722 4 0.181196 0.0988413 0.261534
721 2 0.205981 0.0979078 0.264694
599 4 0.22346 0.115545 0.314245
404 4 0.21503 0.132313 0.304379
403 2 0.218614 0.157045 0.30519
256 2 0.477827 0.0946212 0.314564
332 4 0.439639 0.0952849 0.258018
761 4 0.482211 0.136271 0.327036
257 4 0.48224 0.119028 0.317726
579 4 0.0432202 0.195117 0.248342
405 4 0.222197 0.181777 0.306002
401 4 0.217291 0.186723 0.28792
400 2 0.227373 0.194634 0.26645
765 4 0.432752 0.210276 0.297559
763 2 0.452931 0.211877 0.312236
764 4 0.47311 0.213478 0.326914
444 4 0.067628 0.273769 0.274687
750 4 0.0966843 0.324716 0.259462
496 2 0.351733 0.295729 0.328869
497 4 0.353422 0.31914 0.320252
541 2 0.437558 0.314065 0.261767
543 4 0.432858 0.32191 0.285038
615 4 0.430855 0.317296 0.303419
366 4 0.0651539 0.352604 0.297602
262 2 0.0559932 0.415968 0.26517
263 4 0.0425763 0.395033 0.267797
365 4 0.020132 0.366758 0.314137
749 4 0.0778052 0.338092 0.303794
364 2 0.0426429 0.359681 0.305869
748 2 0.0872448 0.331404 0.281628
602 4 0.101772 0.395855 0.300359
777 4 0.113774 0.397227 0.284538
735 4 0.155167 0.387976 0.285736
601 2 0.106899 0.386167 0.322832
677 4 0.167206 0.405525 0.284935
733 2 0.162995 0.364305 0.283843
734 4 0.170823 0.340634 0.28195
291 4 0.231917 0.388902 0.272006
414 4 0.233672 0.400856 0.288369
343 2 0.322328 0.340642 0.25382
412 2 0.25349 0.413795 0.296434
344 4 0.3392 0.355729 0.264445
309 4 0.347453 0.342251 0.276598
613 2 0.417962 0.338325 0.307508
614 4 0.40507 0.359355 0.311597
307 2 0.357451 0.353173 0.296746
727 2 0.346898 0.403025 0.323578
729 4 0.361633 0.382985 0.321038
308 4 0.367449 0.364096 0.316893
2924 4 0.491476 0.380027 0.312432
2537 4 0.493516 0.367295 0.295722
2923 2 0.46764 0.373666 0.316499
2925 4 0.443804 0.367305 0.320566
264 4 0.0694101 0.436902 0.262544
1757 4 0.113586 0.454529 0.287932
776 4 0.129278 0.44457 0.28019
775 2 0.121526 0.420899 0.282364
1756 2 0.105193 0.478019 0.28965
1545 4 0.250797 0.504902 0.336651
676 2 0.18222 0.418216 0.300384
678 4 0.197234 0.430907 0.315834
768 4 0.197165 0.461409 0.278336
766 2 0.195564 0.48213 0.264434
504 4 0.212261 0.420867 0.32958
413 4 0.273307 0.426733 0.304498
438 4 0.301396 0.456401 0.248658
437 4 0.279659 0.433544 0.287463
436 2 0.290527 0.444973 0.26806
1437 4 0.27517 0.441764 0.319885
5 3 0.279416 0.419846 0.325955
1435 2 0.265301 0.463401 0.327605
433 2 0.331797 0.457585 0.315115
1436 4 0.255431 0.485038 0.335326
434 4 0.333078 0.443848 0.335968
435 4 0.330515 0.471322 0.294263
2862 4 0.491769 0.418087 0.271537
446 4 0.4192 0.429622 0.269697
714 4 0.431268 0.431153 0.285683
713 4 0.479409 0.418061 0.289122
712 2 0.455338 0.424607 0.287402
119 3 0.4953 0.431131 0.328161
1782 4 0.0756956 0.998888 0.364662
427 2 0.0452201 0.00423574 0.338702
429 4 0.0613334 0.0107598 0.356674
730 2 0.118844 0.0663422 0.385475
604 2 0.152647 0.0640914 0.343207
731 4 0.103017 0.0514712 0.397865
732 4 0.134671 0.0812131 0.373084
319 2 0.24271 0.0666669 0.413575
249 4 0.317266 0.0773737 0.34981
684 4 0.297225 0.0774259 0.352437
683 4 0.260543 0.0564683 0.379193
682 2 0.278884 0.0669471 0.365815
321 4 0.255656 0.0517905 0.398204
247 2 0.3421 0.0776381 0.346915
248 4 0.366934 0.0779025 0.34402
633 4 0.375101 0.085214 0.360006
2585 4 0.0168498 0.090708 0.418975
605 4 0.140359 0.0833392 0.353392
399 4 0.0984194 0.144903 0.333869
398 4 0.104461 0.155837 0.382291
397 2 0.10144 0.15037 0.35808
598 2 0.230521 0.110984 0.337793
600 4 0.237581 0.106423 0.361341
685 2 0.222062 0.12106 0.392062
687 4 0.218427 0.109672 0.370101
707 4 0.257808 0.161199 0.349973
631 2 0.380325 0.089278 0.384118
632 4 0.38555 0.093342 0.408229
418 2 0.378185 0.139745 0.405152
419 4 0.382418 0.156644 0.387217
760 2 0.469405 0.146846 0.345727
762 4 0.456599 0.157421 0.364418
470 4 0.067079 0.206354 0.400263
390 4 0.0723592 0.223544 0.408315
388 2 0.0867325 0.238026 0.393862
473 4 0.20827 0.207828 0.348816
474 4 0.170007 0.239571 0.354201
472 2 0.189139 0.2237 0.351508
708 4 0.219158 0.192425 0.355617
706 2 0.238483 0.176812 0.352795
651 4 0.22258 0.228536 0.391411
649 2 0.227585 0.210118 0.407564
489 4 0.233544 0.2444 0.397522
377 4 0.352457 0.230457 0.383113
717 4 0.350691 0.213969 0.370564
716 4 0.377523 0.172055 0.37546
715 2 0.364107 0.193012 0.373012
376 2 0.345266 0.245221 0.364259
268 2 0.500021 0.233424 0.369254
515 4 0.456307 0.194233 0.409334
270 4 0.484421 0.243627 0.385918
617 4 0.0531854 0.278727 0.420448
389 4 0.101106 0.252507 0.37941
275 4 0.156067 0.250506 0.344
276 4 0.110582 0.246442 0.36438
274 2 0.133324 0.248474 0.35419
695 4 0.100198 0.332712 0.416321
488 4 0.25151 0.281979 0.369849
508 2 0.240316 0.325352 0.364611
509 4 0.251083 0.30281 0.365667
487 2 0.242527 0.26319 0.383685
378 4 0.338074 0.259984 0.345404
2456 4 0.383906 0.260234 0.415902
498 4 0.350044 0.272318 0.337486
266 4 0.339253 0.314554 0.387928
585 4 0.358959 0.309954 0.390906
583 2 0.36179 0.287995 0.402523
584 4 0.364622 0.266036 0.41414
2455 2 0.406613 0.25197 0.409478
304 2 0.485026 0.270014 0.409736
306 4 0.471259 0.257111 0.39333
2457 4 0.429321 0.243705 0.403055
407 4 0.0697659 0.42286 0.386275
547 2 0.0931899 0.390833 0.377541
549 4 0.102538 0.373369 0.362283
603 4 0.112025 0.37648 0.345305
548 4 0.0838416 0.408296 0.3928
510 4 0.229548 0.347893 0.363555
375 4 0.216527 0.399768 0.339972
374 4 0.210968 0.354134 0.359652
373 2 0.213747 0.376951 0.349812
3 3 0.30468 0.397091 0.342128
265 2 0.331638 0.335661 0.376896
267 4 0.324024 0.356767 0.365863
561 4 0.463314 0.409186 0.404647
752 4 0.47908 0.409497 0.392265
679 2 0.0331233 0.496338 0.392801
680 4 0.0561497 0.486596 0.392543
406 2 0.0611752 0.446242 0.384109
408 4 0.0525845 0.469623 0.381944
569 4 0.0988977 0.421744 0.392905
568 2 0.111202 0.428699 0.41353
635 4 0.147568 0.464958 0.394206
502 2 0.209306 0.433886 0.350722
503 4 0.206352 0.446905 0.371863
636 4 0.194327 0.46314 0.37657
634 2 0.170947 0.464049 0.385388
2 3 0.31343 0.432781 0.334236
1 1 0.296485 0.418769 0.340993
1401 4 0.308493 0.482884 0.401055
668 4 0.299183 0.441345 0.365992
4 3 0.289049 0.425533 0.361906
667 2 0.29544 0.456678 0.385385
669 4 0.291697 0.47201 0.404778
728 4 0.332163 0.423066 0.326119
592 2 0.479115 0.493601 0.357167
593 4 0.483904 0.469063 0.357534
753 4 0.48976 0.428876 0.347419
751 2 0.48442 0.419187 0.369842
2755 2 0.00130169 0.0499304 0.41981
2757 4 0.0129371 0.0720182 0.421197
718 2 0.0232826 0.0673381 0.468471
719 4 0.0436283 0.0549699 0.460838
369 4 0.0572611 0.06199 0.447824
367 2 0.0767476 0.0588037 0.432484
720 4 0.00293684 0.0797063 0.476103
368 4 0.096234 0.0556173 0.417144
441 4 0.212237 0.014133 0.451516
2430 4 0.183158 0.0618196 0.432288
2428 2 0.188856 0.0413488 0.445466
2429 4 0.194554 0.0208779 0.458644
320 4 0.229764 0.0815433 0.428946
2879 4 0.43068 0.0154268 0.44322
2878 2 0.447581 0.0296572 0.454926
2880 4 0.464482 0.0438877 0.466632
642 4 0.470815 0.0587435 0.45434
640 2 0.494192 0.0670883 0.45735
725 4 0.234943 0.0912589 0.445509
686 4 0.225698 0.132449 0.414022
341 4 0.18923 0.0800483 0.432329
410 4 0.222678 0.140303 0.431397
409 2 0.233848 0.162458 0.434481
340 2 0.190111 0.0973838 0.450326
1152 4 0.201659 0.118996 0.485659
342 4 0.190992 0.114719 0.468322
1150 2 0.191879 0.137687 0.499081
430 2 0.303479 0.0926073 0.489556
432 4 0.289309 0.106249 0.47412
724 2 0.252331 0.100698 0.460797
726 4 0.26972 0.110137 0.476084
467 4 0.366983 0.0821044 0.465782
466 2 0.375634 0.0931755 0.445099
420 4 0.373953 0.122845 0.423087
468 4 0.384285 0.104247 0.424416
576 4 0.395362 0.14081 0.48496
574 2 0.413101 0.154877 0.474347
516 4 0.444115 0.166936 0.449421
469 2 0.0618475 0.192781 0.4206
260 4 0.064335 0.185944 0.45758
471 4 0.056616 0.179208 0.440937
259 2 0.0707147 0.17728 0.48015
650 4 0.23259 0.191701 0.423718
411 4 0.245019 0.184614 0.437565
575 4 0.43084 0.168944 0.463733
514 2 0.450211 0.180585 0.429378
616 2 0.0320649 0.265344 0.420474
618 4 0.0109444 0.251961 0.420501
696 4 0.142372 0.315912 0.437294
694 2 0.121285 0.324312 0.426808
1260 4 0.158814 0.309678 0.44623
1258 2 0.177854 0.321554 0.435203
1259 4 0.196894 0.333431 0.424175
2507 4 0.4978 0.327638 0.46166
305 4 0.498794 0.282916 0.426141
326 4 0.0773067 0.371288 0.423673
325 2 0.0909782 0.374213 0.444402
10 3 0.157129 0.356486 0.470745
7 3 0.122287 0.369616 0.473315
327 4 0.10465 0.377138 0.465132
6 1 0.142876 0.368805 0.483542
8 3 0.150972 0.39043 0.485831
711 4 0.148848 0.402845 0.471204
335 4 0.327845 0.41161 0.446484
238 2 0.355613 0.390521 0.469895
240 4 0.345738 0.405587 0.452555
239 4 0.365488 0.375454 0.487235
2506 2 0.49554 0.35251 0.460453
559 2 0.474938 0.39634 0.422677
2508 4 0.49328 0.377382 0.459245
560 4 0.486561 0.383495 0.440706
538 2 0.0668388 0.472743 0.490797
540 4 0.055387 0.463543 0.470563
1381 2 0.0216255 0.470565 0.451982
1382 4 0.0407966 0.477363 0.466523
570 4 0.123507 0.435654 0.434156
710 4 0.136781 0.444041 0.445553
772 2 0.143652 0.48444 0.45004
709 2 0.142815 0.423443 0.458379
774 4 0.134819 0.463595 0.439428
1399 2 0.325597 0.490352 0.417694
588 4 0.3579 0.506687 0.444514
336 4 0.343869 0.454069 0.42548
334 2 0.335857 0.432839 0.435982
949 2 0.229576 0.0803944 0.54359
950 4 0.246631 0.0644517 0.534637
1182 4 0.250806 0.0458567 0.536208
961 2 0.328007 0.0218707 0.559052
1180 2 0.275269 0.0457404 0.541377
963 4 0.320284 0.0407432 0.544583
1181 4 0.299732 0.0456242 0.546547
431 4 0.317648 0.078965 0.504993
1217 4 0.400461 0.054126 0.510892
841 2 0.357809 0.0615181 0.506743
843 4 0.334653 0.0693486 0.501484
842 4 0.380965 0.0536875 0.512003
1216 2 0.410763 0.074313 0.521453
4467 4 0.43622 0.0197301 0.56751
2283 4 0.425701 0.0325582 0.579827
939 4 0.162346 0.158926 0.509316
937 2 0.138764 0.158203 0.517593
938 4 0.115181 0.15748 0.52587
1032 4 0.154337 0.0862128 0.58606
951 4 0.212522 0.096337 0.552544
1031 4 0.198386 0.0896295 0.562633
1151 4 0.1821 0.156379 0.512503
1030 2 0.176362 0.0879211 0.574346
898 2 0.364552 0.15696 0.573533
899 4 0.346914 0.139238 0.57339
1218 4 0.421064 0.0944999 0.532015
1035 4 0.075853 0.177633 0.567925
261 4 0.0770944 0.168617 0.50272
1033 2 0.0889064 0.17516 0.546743
1034 4 0.10196 0.172686 0.525561
1272 4 0.106461 0.238183 0.580667
879 4 0.0969421 0.244384 0.563953
811 2 0.322818 0.236244 0.565947
812 4 0.298452 0.233265 0.570702
796 2 0.279697 0.197145 0.57851
798 4 0.281297 0.221496 0.573067
813 4 0.347183 0.239223 0.561192
900 4 0.38219 0.174682 0.573676
872 4 0.389545 0.19272 0.567413
873 4 0.361077 0.230191 0.550496
871 2 0.375311 0.211455 0.558954
878 4 0.0857159 0.247067 0.515296
877 2 0.091329 0.245726 0.539625
1190 4 0.241745 0.321118 0.533581
803 4 0.260401 0.328366 0.532088
1239 4 0.258041 0.290437 0.585006
954 4 0.395522 0.284959 0.578112
952 2 0.420055 0.280214 0.577217
953 4 0.444589 0.27547 0.576322
1137 4 0.163169 0.366294 0.559792
9 3 0.140495 0.358986 0.504431
1135 2 0.160791 0.383842 0.577444
897 4 0.149302 0.365479 0.544804
1191 4 0.201878 0.339835 0.509897
1189 2 0.221811 0.330477 0.521739
896 4 0.185094 0.338401 0.522748
895 2 0.167198 0.35194 0.533776
802 2 0.278461 0.340819 0.544084
804 4 0.296522 0.353272 0.55608
929 4 0.3143 0.36169 0.552963
928 2 0.336285 0.35113 0.558468
930 4 0.358271 0.34057 0.563973
1001 4 0.452084 0.385446 0.548553
926 4 0.470641 0.385413 0.541393
925 2 0.484966 0.380514 0.521494
1000 2 0.446429 0.400727 0.567519
539 4 0.0782906 0.481943 0.511031
934 2 0.00716771 0.492105 0.566187
936 4 0.0298049 0.501948 0.570169
1172 4 0.271235 0.464808 0.558478
882 4 0.289039 0.460992 0.548808
880 2 0.289274 0.482922 0.5368
1171 2 0.257828 0.469544 0.579046
1058 4 0.0620562 0.00314523 0.624086
1057 2 0.0737277 0.0228568 0.614065
1059 4 0.0853992 0.0425683 0.604045
1183 2 0.996875 0.0628233 0.668429
1155 4 0.0922798 0.0598178 0.61292
1004 4 0.317757 0.0798465 0.648652
45 3 0.49217 0.0646498 0.636211
2282 4 0.453261 0.0411824 0.620654
2281 2 0.439481 0.0368703 0.600241
43 3 0.462729 0.0412811 0.638392
41 1 0.476487 0.0558 0.650153
44 3 0.463828 0.072783 0.659625
1199 4 0.0103689 0.155037 0.59049
1083 4 0.0260304 0.145813 0.598544
1153 2 0.0973806 0.0842353 0.614636
1154 4 0.102481 0.108653 0.616352
1221 4 0.122963 0.108078 0.621142
1219 2 0.141371 0.116673 0.635718
1220 4 0.159778 0.125268 0.650294
1283 4 0.159461 0.119669 0.668935
1212 4 0.228827 0.139586 0.636799
1210 2 0.242863 0.148129 0.655646
1003 2 0.294551 0.0830645 0.639917
1005 4 0.271345 0.0862825 0.631182
858 4 0.288269 0.157273 0.588273
856 2 0.30936 0.144267 0.58493
857 4 0.330452 0.131261 0.581586
1082 4 0.0582088 0.174856 0.573608
1081 2 0.0421196 0.160334 0.586076
1270 2 0.12614 0.231271 0.594456
1271 4 0.145819 0.224359 0.608245
909 4 0.154903 0.206446 0.615562
907 2 0.156764 0.208625 0.640401
908 4 0.158624 0.210804 0.66524
797 4 0.278096 0.172793 0.583953
1025 4 0.36613 0.198402 0.641772
1024 2 0.382354 0.216947 0.64602
1026 4 0.398579 0.235491 0.650267
1143 4 0.35654 0.189317 0.65744
906 4 0.471828 0.229252 0.620352
904 2 0.462467 0.243681 0.602204
3122 4 0.487888 0.225534 0.654985
3123 4 0.438121 0.227342 0.659535
3121 2 0.463005 0.226438 0.65726
1064 4 0.211423 0.322875 0.669648
1237 2 0.281865 0.298008 0.585551
792 4 0.308269 0.307366 0.60692
790 2 0.316314 0.302402 0.630068
1238 4 0.305689 0.305578 0.586096
791 4 0.32436 0.297439 0.653215
1205 4 0.385293 0.29702 0.592474
1204 2 0.37876 0.320284 0.58605
905 4 0.453106 0.25811 0.584056
983 4 0.0407437 0.389208 0.623807
1041 4 0.051675 0.385417 0.64008
1039 2 0.0736608 0.396922 0.637009
982 2 0.0182806 0.394608 0.614245
893 4 0.101749 0.341336 0.644601
992 4 0.148039 0.398307 0.612236
892 2 0.100962 0.357013 0.664064
1136 4 0.158413 0.401391 0.595095
1040 4 0.0956466 0.408428 0.633938
991 2 0.128178 0.410321 0.621529
1028 4 0.221576 0.378818 0.67377
1206 4 0.372226 0.343548 0.579625
1002 4 0.440775 0.416008 0.586485
1910 4 0.434816 0.412581 0.606305
993 4 0.108317 0.422336 0.630823
1161 4 0.181467 0.492386 0.594269
1160 4 0.224444 0.466993 0.597254
1159 2 0.202955 0.479689 0.595761
1173 4 0.244421 0.47428 0.599613
2172 4 0.206734 0.483791 0.646338
2170 2 0.184137 0.494293 0.648397
1175 4 0.257434 0.479283 0.614266
1174 2 0.275777 0.488186 0.628738
1911 4 0.421437 0.436094 0.648363
1909 2 0.428127 0.424338 0.627334
1268 4 0.428508 0.4548 0.64532
1267 2 0.427885 0.477674 0.655397
3330 4 0.490264 0.419878 0.657
1185 4 0.0201805 0.0678549 0.675959
945 4 0.0393234 0.0625991 0.677915
943 2 0.0441862 0.0719001 0.700609
1076 4 0.0433187 0.0686435 0.737264
831 4 0.31515 0.071383 0.735057
42 3 0.487006 0.044115 0.666945
1163 4 0.492602 0.0406115 0.685727
944 4 0.0490489 0.0812011 0.723303
3385 2 0.00115786 0.129067 0.740156
1282 2 0.174009 0.116701 0.689052
1284 4 0.188557 0.113733 0.70917
1227 4 0.180405 0.10956 0.727105
1225 2 0.194106 0.1215 0.744279
1211 4 0.256899 0.156672 0.674492
888 4 0.276303 0.15767 0.678513
886 2 0.293521 0.140783 0.685112
887 4 0.310739 0.123896 0.69171
829 2 0.312321 0.0887139 0.717258
830 4 0.309492 0.106045 0.699458
976 2 0.299584 0.148595 0.74089
977 4 0.299213 0.16758 0.724623
1142 4 0.34141 0.15738 0.692821
1107 4 0.0368942 0.193539 0.748418
851 4 0.0205661 0.185221 0.740927
850 2 0.00690085 0.204744 0.733357
1105 2 0.0467009 0.171226 0.753996
947 4 0.168869 0.215699 0.683791
1208 4 0.0874375 0.254235 0.66643
822 4 0.124257 0.212147 0.708878
1278 4 0.141294 0.214757 0.720488
820 2 0.111471 0.226886 0.693242
821 4 0.098686 0.241625 0.677606
1276 2 0.147355 0.219276 0.744321
946 2 0.179664 0.238119 0.686239
916 2 0.315022 0.204638 0.71748
918 4 0.315993 0.181116 0.725902
917 4 0.314052 0.22816 0.709058
1097 4 0.309362 0.243588 0.723321
1008 4 0.320038 0.251617 0.738348
1141 2 0.348975 0.173348 0.675131
1261 2 0.430077 0.225688 0.74123
1263 4 0.43909 0.202366 0.741263
1145 4 0.451384 0.188656 0.73477
1207 2 0.066003 0.260562 0.677642
1209 4 0.0445685 0.266888 0.688855
1244 4 0.0221283 0.32135 0.712179
948 4 0.190458 0.260539 0.688686
1065 4 0.200742 0.275247 0.680517
1063 2 0.206083 0.299061 0.675083
1240 2 0.236287 0.293818 0.724249
1242 4 0.213638 0.30441 0.72432
1096 2 0.288356 0.255818 0.729182
1241 4 0.258936 0.283225 0.724177
1098 4 0.26735 0.268047 0.735043
1262 4 0.421064 0.249011 0.741196
1192 2 0.42758 0.286978 0.736229
1194 4 0.419343 0.264838 0.728035
1193 4 0.435816 0.309118 0.744423
1279 2 0.0696944 0.384124 0.705623
3275 4 0.0424193 0.406062 0.734274
1280 4 0.0580801 0.397479 0.723285
1281 4 0.0813087 0.370769 0.687962
894 4 0.100175 0.37269 0.683527
940 2 0.153593 0.406827 0.735842
942 4 0.129844 0.414435 0.73766
815 4 0.114158 0.401448 0.741632
1027 2 0.246291 0.382383 0.672492
941 4 0.177341 0.399218 0.734024
1068 4 0.216992 0.394777 0.68294
1067 4 0.185145 0.386023 0.720489
1066 2 0.201069 0.3904 0.701714
1029 4 0.271006 0.385949 0.671213
1139 4 0.273353 0.400021 0.683924
1138 2 0.280424 0.420622 0.696204
1230 4 0.369425 0.409454 0.733713
1228 2 0.362437 0.389994 0.719654
1229 4 0.355448 0.370535 0.705594
3183 4 0.479505 0.412079 0.673875
1140 4 0.287495 0.441223 0.708483
1989 4 0.301526 0.445291 0.722716
1987 2 0.308209 0.453046 0.745528
1100 4 0.464086 0.475238 0.730333
1099 2 0.46742 0.497268 0.718987
1250 4 0.471782 0.462151 0.742518
1075 2 0.0473924 0.0529359 0.756286
1077 4 0.0514661 0.0372283 0.775309
1203 4 0.0709358 0.0376675 0.776672
1201 2 0.0929904 0.0263081 0.773551
2049 4 0.125166 0.022516 0.753537
1202 4 0.115045 0.0149487 0.770431
1148 4 0.160648 0.051913 0.793608
2047 2 0.141743 0.00383647 0.752324
1147 2 0.18545 0.050019 0.791075
1149 4 0.210253 0.048125 0.788542
1049 4 0.22692 0.0377516 0.793158
1048 2 0.246836 0.0445704 0.779667
1050 4 0.266753 0.0513891 0.766176
818 4 0.380724 0.0751339 0.825007
844 2 0.497256 0.0327984 0.766779
846 4 0.475398 0.0211735 0.770287
862 2 0.0289919 0.082504 0.822685
35 3 0.0737738 0.146987 0.75155
3387 4 0.0238557 0.135406 0.74851
832 2 0.0341759 0.127294 0.790427
863 4 0.0145412 0.0968778 0.808202
833 4 0.0160568 0.116666 0.803989
33 3 0.0685724 0.128449 0.783906
834 4 0.052295 0.137921 0.776864
1106 4 0.0565077 0.148912 0.759574
31 1 0.0840496 0.134838 0.767843
32 3 0.0933108 0.11596 0.758515
34 3 0.100912 0.147407 0.777646
1073 4 0.112884 0.155663 0.791247
1226 4 0.207806 0.133439 0.761452
840 4 0.215538 0.143691 0.777207
838 2 0.223943 0.148796 0.800195
839 4 0.232348 0.153901 0.823184
978 4 0.299955 0.129609 0.757156
817 2 0.37304 0.0893616 0.805936
819 4 0.365356 0.103589 0.786865
1084 2 0.370215 0.145212 0.780802
1085 4 0.363299 0.121562 0.776559
3268 2 0.48692 0.160837 0.812067
3270 4 0.477504 0.16322 0.789028
1146 4 0.473929 0.160848 0.769686
778 2 0.0631166 0.217724 0.816887
779 4 0.0394663 0.222503 0.81033
1214 4 0.0380723 0.23741 0.795658
1074 4 0.119361 0.204304 0.781613
780 4 0.0867668 0.212944 0.823444
1277 4 0.153416 0.223795 0.768154
1072 2 0.116123 0.179983 0.78643
1131 4 0.172887 0.223059 0.77382
1130 4 0.214276 0.195667 0.779935
1129 2 0.193581 0.209363 0.776877
1086 4 0.377131 0.168862 0.785046
1299 4 0.363586 0.183891 0.788873
1297 2 0.375639 0.199711 0.804026
1298 4 0.387693 0.215531 0.819179
49 3 0.411582 0.252163 0.835512
1044 4 0.374056 0.261435 0.776041
1144 2 0.462657 0.174752 0.752228
1213 2 0.0179198 0.251466 0.800293
1006 2 0.342122 0.25726 0.748627
1007 4 0.364205 0.262903 0.758906
1043 4 0.39678 0.258811 0.820509
1042 2 0.385418 0.260123 0.798275
806 4 0.432788 0.317091 0.763696
805 2 0.415791 0.333597 0.771686
1166 4 0.419756 0.263587 0.819031
1167 4 0.464989 0.280215 0.805681
1165 2 0.442373 0.271901 0.812356
1307 4 0.470901 0.277826 0.826177
3274 2 0.0449792 0.394857 0.756479
3276 4 0.047539 0.383651 0.778684
816 4 0.0969052 0.409003 0.787957
814 2 0.105532 0.405226 0.764795
801 4 0.318794 0.352781 0.82185
1016 4 0.329221 0.370147 0.819489