ITEM: TIMESTEP
280000
ITEM: NUMBER OF ATOMS
4590
ITEM: BOX BOUNDS pp pp pp
-9.9985700000000008e+00 9.9985700000000008e+00
-9.9985700000000008e+00 9.9985700000000008e+00
-9.9985700000000008e+00 9.9985700000000008e+00
ITEM: ATOMS id type xs ys zs
463 2 0.0191383 0.0526477 0.0415198
465 4 0.0272228 0.0726715 0.0541241
464 4 0.0110538 0.0326239 0.0289156
1667 4 0.0682508 0.0193953 0.0702421
534 4 0.190008 0.0567983 0.0206983
490 2 0.28158 0.0439509 0.0488596
491 4 0.284458 0.0680551 0.0548497
492 4 0.278702 0.0198466 0.0428696
296 4 0.361353 0.0585732 0.0603049
557 4 0.363666 0.0688965 0.0426771
295 2 0.377292 0.0454796 0.0744362
745 2 0.459543 0.0692345 0.0414875
746 4 0.45711 0.0784185 0.0646157
747 4 0.461977 0.0600505 0.0183593
589 2 0.0274163 0.118243 0.0705619
590 4 0.027003 0.136692 0.0536914
3233 4 0.999633 0.131556 0.99805
701 4 0.0601222 0.0960182 0.0387282
702 4 0.108152 0.0890974 0.0508097
700 2 0.084137 0.0925578 0.0447689
422 4 0.109255 0.153979 0.0062162
421 2 0.0884007 0.142183 0.0133653
565 2 0.194341 0.111457 0.0505491
566 4 0.176718 0.0937578 0.0493943
567 4 0.211965 0.129157 0.0517038
358 2 0.285902 0.12331 0.0282648
359 4 0.302429 0.121693 0.00957239
360 4 0.269374 0.124927 0.0469571
556 2 0.368751 0.0932121 0.045518
558 4 0.373837 0.117528 0.0483589
553 2 0.0379756 0.219419 0.0203095
555 4 0.0579509 0.210563 0.00815473
554 4 0.0180003 0.228275 0.0324642
666 4 0.316645 0.222261 0.0249093
664 2 0.332449 0.207666 0.0121652
572 4 0.340122 0.257831 0.0426929
324 4 0.404961 0.237671 0.0549182
322 2 0.413777 0.252749 0.0728097
771 4 0.44606 0.171828 0.0496318
770 4 0.492049 0.16646 0.0685238
769 2 0.469055 0.169144 0.0590778
292 2 0.133235 0.325131 0.0320927
294 4 0.11653 0.336505 0.0173697
293 4 0.14994 0.313757 0.0468157
506 4 0.176778 0.25471 0.0375031
483 4 0.225081 0.297394 0.0677575
505 2 0.172034 0.278571 0.0432789
507 4 0.167289 0.302431 0.0490548
481 2 0.244108 0.307888 0.055386
357 4 0.230859 0.271169 0.0112813
571 2 0.318042 0.268456 0.0476657
573 4 0.295961 0.279082 0.0526384
482 4 0.263134 0.318383 0.0430145
1071 4 0.375835 0.24937 0.0243079
1069 2 0.395789 0.264407 0.0233505
956 4 0.351797 0.321054 0.0227453
1070 4 0.415742 0.279445 0.0223931
280 2 0.458035 0.332452 0.0269475
281 4 0.453718 0.331641 0.0515621
330 4 0.0359007 0.412218 0.036366
328 2 0.0230989 0.394569 0.0241258
455 4 0.108214 0.369247 0.0746667
286 2 0.153288 0.390345 0.00320822
287 4 0.151098 0.365483 0.00170447
552 4 0.0916315 0.417535 0.0455577
252 4 0.307292 0.381523 0.0490077
250 2 0.286693 0.393798 0.041923
251 4 0.266095 0.406074 0.0348383
608 4 0.298486 0.3726 0.0632474
671 4 0.466032 0.334102 0.0666408
550 2 0.0712942 0.425311 0.0578503
551 4 0.0509569 0.433087 0.0701429
315 4 0.998487 0.415497 0.0851285
1788 4 0.0830642 0.505383 0.0690689
288 4 0.155477 0.415207 0.00471197
242 4 0.149826 0.492881 0.0557259
1786 2 0.107445 0.502004 0.064674
1787 4 0.131827 0.498625 0.060279
245 4 0.217621 0.450858 0.0391162
244 2 0.241999 0.451422 0.0446474
246 4 0.266376 0.451985 0.0501787
272 4 0.278564 0.467268 0.053238
271 2 0.29052 0.486232 0.0421646
273 4 0.302476 0.505196 0.0310912
227 4 0.467286 0.435122 0.0512013
562 2 0.444958 0.48713 0.0176422
563 4 0.450476 0.491788 0.993704
226 2 0.485129 0.452205 0.0473349
564 4 0.43944 0.482472 0.0415803
1666 2 0.07303 0.0196208 0.0947837
19 3 0.0352253 0.0356762 0.149218
20 3 0.0666601 0.0470461 0.131891
1422 4 0.00574787 0.0123787 0.158076
1668 4 0.0778092 0.0198463 0.119325
450 4 0.1716 0.0568182 0.146267
448 2 0.175889 0.0813169 0.143698
1506 4 0.24195 0.0066408 0.159759
652 2 0.300692 0.0330451 0.156706
653 4 0.314382 0.0516932 0.147218
297 4 0.39323 0.032386 0.0885675
758 4 0.428361 0.056285 0.162965
1760 4 0.486126 0.0084283 0.168368
591 4 0.0278296 0.0997927 0.0874323
476 4 0.126561 0.164412 0.106965
237 4 0.167695 0.159889 0.139677
449 4 0.180178 0.105816 0.141129
235 2 0.176715 0.138301 0.148496
236 4 0.185735 0.116713 0.157315
693 4 0.228809 0.0816597 0.165924
582 4 0.284684 0.0943204 0.156196
312 4 0.410476 0.120845 0.172381
475 2 0.106256 0.166808 0.121358
477 4 0.0859508 0.169205 0.13575
737 4 0.183234 0.200644 0.117873
736 2 0.207547 0.205694 0.114953
738 4 0.231861 0.210745 0.112034
354 4 0.241477 0.223828 0.123932
352 2 0.265451 0.21988 0.118026
460 2 0.332494 0.199014 0.103473
461 4 0.324047 0.222072 0.0987677
353 4 0.289424 0.215932 0.112121
255 4 0.359742 0.181148 0.101945
462 4 0.340941 0.175956 0.108179
630 4 0.409041 0.177211 0.119516
254 4 0.401438 0.159404 0.118955
253 2 0.38059 0.170276 0.11045
629 4 0.458196 0.172003 0.127086
628 2 0.433618 0.174607 0.123301
517 2 0.497348 0.234458 0.101475
518 4 0.492078 0.21131 0.109324
339 4 0.0711784 0.26063 0.123683
620 4 0.0120923 0.326196 0.112454
337 2 0.0805483 0.251979 0.14519
277 2 0.243426 0.268963 0.151962
754 2 0.275725 0.291405 0.113952
755 4 0.271577 0.26835 0.122697
756 4 0.279872 0.314459 0.105207
278 4 0.260241 0.258193 0.136913
741 4 0.335074 0.311578 0.0934496
622 2 0.37804 0.261519 0.156546
624 4 0.402709 0.257867 0.154743
739 2 0.349195 0.332095 0.0956464
623 4 0.35337 0.265171 0.158348
323 4 0.422592 0.267828 0.0907012
672 4 0.438824 0.334954 0.10859
670 2 0.452428 0.334528 0.0876152
621 4 0.00562005 0.373337 0.097074
619 2 0.00885619 0.349766 0.104764
647 4 0.0599482 0.368976 0.157564
454 2 0.115457 0.355258 0.0940842
456 4 0.122699 0.34127 0.113502
537 4 0.163374 0.325467 0.137728
535 2 0.17119 0.34508 0.151124
626 4 0.21867 0.401972 0.129283
536 4 0.179005 0.364692 0.16452
609 4 0.299988 0.349291 0.107465
607 2 0.299237 0.360945 0.085356
612 4 0.292861 0.344419 0.125805
610 2 0.28274 0.336677 0.147318
740 4 0.363316 0.352613 0.0978431
387 4 0.354806 0.39278 0.148497
15 3 0.391721 0.353677 0.125545
385 2 0.35358 0.380378 0.126821
386 4 0.352353 0.367976 0.105145
11 1 0.412439 0.361908 0.130202
13 3 0.416631 0.360378 0.152972
12 3 0.428214 0.349565 0.11889
302 4 0.337871 0.40343 0.152808
14 3 0.413894 0.384028 0.123348
495 4 0.433022 0.393737 0.120722
493 2 0.427532 0.417974 0.117966
595 2 0.488117 0.403984 0.156085
313 2 0.00372951 0.439574 0.0893696
314 4 0.0089719 0.463651 0.0936107
625 2 0.220657 0.41924 0.111309
627 4 0.222644 0.436507 0.0933357
637 2 0.250692 0.486599 0.147267
638 4 0.259998 0.467236 0.160057
525 4 0.352202 0.477612 0.109162
523 2 0.345151 0.489841 0.0885242
658 2 0.3848 0.455837 0.149461
659 4 0.360605 0.450835 0.145621
660 4 0.408996 0.460838 0.153301
494 4 0.422042 0.442211 0.115209
16 1 0.0547348 0.0480694 0.151266
17 3 0.0492096 0.0699718 0.155614
18 3 0.0674887 0.0399172 0.168852
2480 4 0.996722 0.0298026 0.164363
673 2 0.131173 0.0456315 0.217857
674 4 0.143396 0.0516309 0.238828
675 4 0.11895 0.039632 0.196886
1505 4 0.212298 0.0350024 0.188345
1504 2 0.227124 0.0208216 0.174052
689 4 0.213045 0.0302957 0.207735
688 2 0.209899 0.0231654 0.231493
692 4 0.2367 0.0849413 0.215195
654 4 0.287002 0.014397 0.166193
1784 4 0.408329 0.00834982 0.175819
21 1 0.381098 0.0442528 0.225125
23 3 0.393239 0.0248387 0.22137
24 3 0.359926 0.0389562 0.233006
25 3 0.379434 0.0562324 0.205828
759 4 0.384905 0.0562261 0.18771
22 3 0.391986 0.0568842 0.24097
757 2 0.406633 0.0562556 0.175337
742 2 0.442625 0.0556048 0.22646
743 4 0.454963 0.0734361 0.23891
744 4 0.430288 0.0377734 0.214009
379 2 0.00835781 0.146691 0.179414
381 4 0.0247983 0.163299 0.188306
511 2 0.042497 0.15915 0.226851
513 4 0.0490423 0.162262 0.250782
579 4 0.0880144 0.0854862 0.207824
577 2 0.0921432 0.109864 0.211545
578 4 0.096272 0.134242 0.215266
723 4 0.212032 0.105739 0.238338
691 2 0.232755 0.0833005 0.19056
721 2 0.19478 0.118995 0.25066
722 4 0.177528 0.132252 0.262981
580 2 0.290179 0.10782 0.176512
581 4 0.295675 0.121319 0.196828
30 3 0.298019 0.126652 0.215575
26 1 0.305453 0.112998 0.232217
28 3 0.291166 0.094865 0.234556
27 3 0.326453 0.105279 0.226873
29 3 0.306643 0.12477 0.252177
333 4 0.417776 0.120675 0.258545
310 2 0.432504 0.123916 0.183806
311 4 0.454531 0.126988 0.195231
512 4 0.0359516 0.156039 0.202921
338 4 0.0899182 0.243327 0.166697
284 4 0.266963 0.237342 0.173333
283 2 0.272183 0.212897 0.172736
285 4 0.277404 0.188451 0.172139
764 4 0.360749 0.212893 0.194289
763 2 0.381465 0.22547 0.200443
765 4 0.402181 0.238046 0.206596
520 2 0.469379 0.220265 0.24136
521 4 0.448161 0.222133 0.228265
522 4 0.490597 0.218397 0.254456
395 4 0.0290403 0.25693 0.20033
394 2 0.0194608 0.260647 0.223125
750 4 0.0792213 0.299359 0.234675
396 4 0.00988137 0.264365 0.245919
363 4 0.0901669 0.237829 0.185591
361 2 0.108342 0.248467 0.19907
362 4 0.126517 0.259105 0.212549
372 4 0.138581 0.272028 0.222713
300 4 0.111697 0.328689 0.218477
370 2 0.163105 0.267964 0.225403
371 4 0.187629 0.263899 0.228092
279 4 0.226611 0.279732 0.16701
343 2 0.260009 0.294752 0.23884
344 4 0.280951 0.285598 0.2287
307 2 0.318441 0.273903 0.216841
309 4 0.308888 0.290761 0.201038
308 4 0.327994 0.257045 0.232643
528 4 0.463973 0.246172 0.186835
526 2 0.471598 0.26664 0.174666
263 4 0.0568142 0.429724 0.20453
646 2 0.0783445 0.358296 0.170704
648 4 0.0967409 0.347615 0.183845
298 2 0.124881 0.345621 0.231309
611 4 0.272619 0.328936 0.168831
303 4 0.319379 0.4 0.199144
301 2 0.328625 0.401715 0.175976
729 4 0.316421 0.37807 0.25275
597 4 0.470683 0.395057 0.171626
643 2 0.450376 0.381994 0.195601
644 4 0.448392 0.376827 0.219984
645 4 0.452361 0.387161 0.171217
447 4 0.464444 0.379611 0.232021
262 2 0.0434045 0.447824 0.215382
264 4 0.0299947 0.465923 0.226233
417 4 0.132324 0.443164 0.197987
415 2 0.156469 0.437867 0.20175
416 4 0.180614 0.432571 0.205512
291 4 0.19806 0.437437 0.198189
289 2 0.220843 0.43394 0.207879
290 4 0.243625 0.430442 0.21757
768 4 0.243015 0.487211 0.220764
766 2 0.254266 0.477079 0.200866
767 4 0.265516 0.466947 0.180967
229 2 0.405333 0.49832 0.225397
231 4 0.406232 0.498236 0.200409
108 3 0.501899 0.394132 0.225075
232 2 0.0250603 0.0477087 0.294272
233 4 0.0438494 0.0312296 0.295036
1402 2 0.0678764 0.0051182 0.288547
1403 4 0.0622842 0.0294779 0.289261
234 4 0.00627111 0.0641879 0.293508
429 4 0.0885614 0.00733258 0.339505
731 4 0.144376 0.0761195 0.322768
690 4 0.206754 0.0160352 0.255251
1701 4 0.238373 0.0175343 0.317754
1699 2 0.257734 0.020706 0.302253
1700 4 0.277094 0.0238777 0.286752
257 4 0.407721 0.0643302 0.329031
698 4 0.387561 0.0597544 0.333238
478 2 0.478979 0.047953 0.326049
480 4 0.470011 0.0281494 0.313697
351 4 0.449322 0.0609662 0.266359
349 2 0.446225 0.079972 0.282308
529 2 0.998955 0.145447 0.284626
530 4 0.0149332 0.147945 0.303695
398 4 0.0667959 0.130017 0.301738
397 2 0.0858226 0.123698 0.316679
546 4 0.161352 0.139855 0.272641
544 2 0.150238 0.161434 0.266636
399 4 0.104849 0.11738 0.33162
248 4 0.223409 0.0881615 0.29294
249 4 0.242622 0.132897 0.304355
247 2 0.233015 0.110529 0.298647
403 2 0.225307 0.163956 0.289552
600 4 0.194187 0.126201 0.340997
404 4 0.242149 0.145519 0.288299
632 4 0.357843 0.11694 0.305771
631 2 0.382169 0.117023 0.311554
633 4 0.406494 0.117107 0.317336
331 2 0.431918 0.140888 0.26262
332 4 0.44606 0.161102 0.266694
350 4 0.443128 0.0989779 0.298257
444 4 0.0186072 0.251433 0.305822
392 4 0.123355 0.190317 0.272475
391 2 0.10489 0.188352 0.28922
393 4 0.0864253 0.186386 0.305964
545 4 0.139125 0.183012 0.260631
405 4 0.208464 0.182393 0.290805
401 4 0.199737 0.24684 0.284719
706 2 0.312851 0.187528 0.304841
708 4 0.310506 0.178475 0.328029
707 4 0.315196 0.196582 0.281652
762 4 0.466469 0.163782 0.268771
418 2 0.42408 0.207775 0.323229
419 4 0.443171 0.194594 0.332555
761 4 0.492155 0.173714 0.310512
760 2 0.479312 0.168748 0.289641
420 4 0.40499 0.220956 0.313903
443 4 0.0215742 0.255729 0.256088
442 2 0.0200907 0.253581 0.280955
390 4 0.0677838 0.265136 0.335168
748 2 0.0851709 0.276356 0.242463
749 4 0.0911204 0.253353 0.25025
388 2 0.0924824 0.261344 0.334284
345 4 0.239067 0.303906 0.24898
400 2 0.22049 0.251151 0.297981
402 4 0.241243 0.255462 0.311244
508 2 0.231735 0.309439 0.333105
510 4 0.217593 0.291335 0.342974
496 2 0.306945 0.29017 0.295931
497 4 0.327349 0.280457 0.285229
498 4 0.286542 0.299883 0.306633
543 4 0.406273 0.312211 0.320706
615 4 0.392462 0.321176 0.311537
541 2 0.429238 0.312618 0.310824
542 4 0.452202 0.313025 0.300942
366 4 0.00379429 0.353891 0.270927
364 2 0.0244115 0.35194 0.284938
365 4 0.0450288 0.349989 0.298949
602 4 0.077843 0.419972 0.295268
601 2 0.0822779 0.395513 0.292574
299 4 0.138066 0.362552 0.244142
603 4 0.0867128 0.371054 0.28988
734 4 0.140074 0.370573 0.262356
733 2 0.155526 0.371145 0.282005
735 4 0.170977 0.371716 0.301655
677 4 0.183507 0.37163 0.318462
509 4 0.245878 0.327544 0.323237
433 2 0.323461 0.385428 0.33211
613 2 0.380495 0.338499 0.325023
727 2 0.328817 0.387062 0.272516
728 4 0.341213 0.396053 0.292281
434 4 0.333343 0.389812 0.309564
445 2 0.453727 0.370448 0.25267
446 4 0.443011 0.361285 0.273319
549 4 0.0370951 0.452305 0.324862
547 2 0.054259 0.439224 0.33749
777 4 0.0860358 0.4374 0.2863
775 2 0.0885047 0.45824 0.299894
776 4 0.0909735 0.479079 0.313489
414 4 0.165926 0.482165 0.264494
412 2 0.169745 0.46644 0.283555
413 4 0.173563 0.450714 0.302615
436 2 0.297184 0.456755 0.277713
437 4 0.275936 0.460751 0.265155
438 4 0.318433 0.452758 0.290271
713 4 0.420187 0.453203 0.278544
230 4 0.404435 0.498404 0.250384
2861 4 0.503646 0.466993 0.2683
712 2 0.441612 0.457468 0.290708
714 4 0.463036 0.461734 0.302872
316 2 0.0470731 0.0755333 0.343555
317 4 0.052286 0.0522995 0.351184
428 4 0.056425 0.0374271 0.363218
427 2 0.0724932 0.0223798 0.351362
1782 4 0.128342 0.0257045 0.390702
1780 2 0.126216 0.000810824 0.391682
606 4 0.175229 0.0545999 0.379851
604 2 0.19721 0.063542 0.371973
605 4 0.219191 0.0724841 0.364095
683 4 0.296176 0.0748855 0.371516
682 2 0.281395 0.0788258 0.391295
697 2 0.368482 0.0439595 0.329819
699 4 0.349403 0.0281645 0.326401
256 2 0.414589 0.0588292 0.352435
424 2 0.398021 0.0334925 0.40043
479 4 0.487947 0.0677566 0.338401
258 4 0.421457 0.0533282 0.375839
426 4 0.415849 0.0353078 0.382993
318 4 0.0418603 0.0987671 0.335926
732 4 0.128304 0.0959834 0.365755
730 2 0.13634 0.0860514 0.344261
685 2 0.164104 0.155899 0.408937
598 2 0.191239 0.15101 0.339978
686 4 0.184408 0.167468 0.417828
684 4 0.266615 0.0827662 0.411073
452 4 0.498622 0.170534 0.359893
451 2 0.478163 0.164938 0.373133
453 4 0.457705 0.159342 0.386374
514 2 0.436372 0.151887 0.408875
515 4 0.445214 0.144067 0.386833
2653 2 0.0121337 0.224665 0.372946
2654 4 0.0367711 0.222351 0.376528
599 4 0.188291 0.175818 0.338959
474 4 0.244201 0.189248 0.353054
274 2 0.197916 0.243944 0.393147
275 4 0.174201 0.244817 0.385272
472 2 0.265264 0.202541 0.355247
473 4 0.286327 0.215834 0.357441
488 4 0.290073 0.214464 0.395575
487 2 0.286617 0.229261 0.415431
715 2 0.369517 0.232626 0.363986
716 4 0.3522 0.214685 0.365832
304 2 0.492521 0.216067 0.418788
305 4 0.50338 0.208743 0.39749
616 2 0.0784178 0.31842 0.370529
618 4 0.0599376 0.311379 0.385829
347 4 0.0470248 0.305078 0.400505
389 4 0.117181 0.257552 0.3334
375 4 0.180354 0.311831 0.382238
276 4 0.221631 0.243071 0.401021
373 2 0.203752 0.307331 0.389817
374 4 0.227151 0.302831 0.397396
376 2 0.304492 0.292258 0.353232
377 4 0.322296 0.275784 0.359299
378 4 0.286688 0.308731 0.347166
489 4 0.283162 0.244059 0.435287
717 4 0.386834 0.250568 0.362141
268 2 0.48466 0.264543 0.394754
408 4 0.0659765 0.418305 0.406249
548 4 0.0714229 0.426143 0.350119
617 4 0.096898 0.325461 0.355229
676 2 0.198324 0.353672 0.32758
678 4 0.213141 0.335715 0.336699
503 4 0.25267 0.403528 0.407454
435 4 0.31358 0.381045 0.354655
614 4 0.368528 0.355822 0.33851
336 4 0.379003 0.359898 0.396009
561 4 0.45509 0.383212 0.391023
752 4 0.448392 0.400313 0.383694
559 2 0.466248 0.374244 0.411523
751 2 0.440681 0.415709 0.365565
406 2 0.0769924 0.421767 0.384071
407 4 0.0880083 0.425229 0.361894
499 2 0.118813 0.477505 0.374561
500 4 0.125996 0.501332 0.372141
501 4 0.11163 0.453678 0.376981
570 4 0.157233 0.476385 0.422218
5 3 0.292301 0.456519 0.371239
1 1 0.313816 0.46136 0.365554
2 3 0.319616 0.48174 0.374506
4 3 0.328081 0.445124 0.373999
3 3 0.315848 0.462457 0.342466
594 4 0.379854 0.491985 0.344344
592 2 0.402321 0.489558 0.333644
117 3 0.503298 0.425246 0.348903
593 4 0.424789 0.487131 0.322943
753 4 0.43297 0.431106 0.347435
718 2 0.0573012 0.0611467 0.47493
720 4 0.0407239 0.058269 0.493425
719 4 0.0738786 0.0640243 0.456434
367 2 0.122161 0.042387 0.445717
369 4 0.113348 0.0657339 0.447274
368 4 0.130975 0.0190401 0.444161
1181 4 0.245164 0.0526942 0.48477
441 4 0.264683 0.0157886 0.443332
439 2 0.284191 0.00566013 0.431413
726 4 0.321156 0.0683273 0.469964
1180 2 0.237816 0.073793 0.495996
425 4 0.380193 0.0316773 0.417867
2878 2 0.493226 0.0794226 0.449473
458 4 0.0323831 0.156919 0.428271
687 4 0.143799 0.14433 0.400045
1152 4 0.190878 0.0900119 0.500684
320 4 0.273166 0.100047 0.420018
321 4 0.24476 0.140544 0.427354
319 2 0.258963 0.120296 0.423686
1182 4 0.230467 0.0948917 0.507222
724 2 0.341098 0.0811097 0.461958
725 4 0.361041 0.0938921 0.453951
574 2 0.392281 0.158981 0.454274
575 4 0.40938 0.165364 0.437184
516 4 0.42753 0.159708 0.430917
576 4 0.375182 0.152599 0.471364
642 4 0.472277 0.113663 0.461661
2880 4 0.478165 0.0943314 0.462743
640 2 0.475262 0.126125 0.483131
457 2 0.013368 0.170842 0.436623
471 4 0.0273048 0.169007 0.477388
469 2 0.0345956 0.192073 0.483713
470 4 0.0418864 0.215138 0.490037
260 4 0.0993314 0.208155 0.414083
261 4 0.106795 0.197721 0.462416
259 2 0.103063 0.202938 0.438249
1035 4 0.112516 0.200292 0.481966
695 4 0.115921 0.243486 0.473391
468 4 0.326863 0.185232 0.412644
411 4 0.259863 0.203648 0.468042
409 2 0.283494 0.204392 0.476179
410 4 0.307125 0.205137 0.484317
467 4 0.373653 0.181719 0.429939
466 2 0.350258 0.183475 0.421292
306 4 0.481661 0.223391 0.440086
346 2 0.0486135 0.301235 0.425161
348 4 0.0502022 0.297392 0.449816
327 4 0.0959416 0.34799 0.488219
694 2 0.124229 0.260497 0.489724
10 3 0.176758 0.336332 0.477201
651 4 0.248262 0.266488 0.427448
649 2 0.262234 0.283614 0.439139
650 4 0.276207 0.300739 0.45083
266 4 0.306618 0.292831 0.443182
812 4 0.317231 0.306045 0.497599
267 4 0.353728 0.280457 0.454508
265 2 0.330173 0.286644 0.448845
2456 4 0.513692 0.29779 0.449148
270 4 0.467382 0.257084 0.411217
583 2 0.472589 0.285966 0.461456
584 4 0.496522 0.289321 0.45504
585 4 0.448657 0.282612 0.467873
681 4 0.0480114 0.406092 0.435892
383 4 0.0779653 0.425479 0.470923
325 2 0.0930489 0.350168 0.463479
6 1 0.160086 0.344499 0.490393
326 4 0.0901563 0.352346 0.438739
7 3 0.140347 0.333967 0.485046
711 4 0.173133 0.379168 0.485749
504 4 0.243088 0.393005 0.455393
709 2 0.182716 0.387782 0.464321
710 4 0.192299 0.396396 0.442893
774 4 0.235583 0.425763 0.478222
8 3 0.157628 0.367296 0.486839
772 2 0.239394 0.40558 0.492481
502 2 0.247879 0.398267 0.431424
334 2 0.371253 0.36849 0.418174
238 2 0.39332 0.363791 0.471422
240 4 0.375028 0.366737 0.454632
335 4 0.363502 0.377082 0.440339
239 4 0.411613 0.360845 0.488211
560 4 0.477405 0.365277 0.432024
934 2 0.00755999 0.452414 0.493075
680 4 0.0334026 0.45231 0.448189
1381 2 0.0267636 0.492817 0.450859
1383 4 0.0214558 0.469297 0.44424
679 2 0.040707 0.429201 0.442041
539 4 0.0800162 0.48315 0.503981
540 4 0.121267 0.488283 0.476182
568 2 0.137116 0.46737 0.434018
569 4 0.117 0.458354 0.445817
382 2 0.100061 0.436068 0.465941
384 4 0.122157 0.446658 0.460959
538 2 0.100641 0.485717 0.490082
1557 4 0.22873 0.512928 0.434473
636 4 0.252178 0.480814 0.439466
634 2 0.244593 0.461148 0.452917
635 4 0.237007 0.441483 0.466367
669 4 0.300874 0.425713 0.469799
667 2 0.302228 0.439818 0.449199
668 4 0.303581 0.453924 0.428598
1401 4 0.351932 0.497562 0.456871
586 2 0.403339 0.440308 0.439307
588 4 0.381445 0.452381 0.439076
663 4 0.43991 0.464579 0.505877
587 4 0.425234 0.428235 0.439538
1126 2 0.0310642 0.0599662 0.523116
1127 4 0.0227758 0.0500206 0.501725
1128 4 0.0393527 0.0699118 0.544507
2237 4 0.00746572 0.027058 0.522917
2236 2 0.0158299 0.00567182 0.513025
1058 4 0.125258 0.0661479 0.551703
1057 2 0.134264 0.0760188 0.572836
342 4 0.184667 0.0723359 0.507854
340 2 0.183766 0.0481845 0.501445
341 4 0.182865 0.0240331 0.495036
2430 4 0.19558 0.0225885 0.51219
1030 2 0.256102 0.0767449 0.573361
961 2 0.295163 0.0346804 0.507067
963 4 0.295285 0.0577728 0.497481
962 4 0.29504 0.0115881 0.516654
432 4 0.295988 0.0754946 0.505526
430 2 0.314739 0.0848244 0.519184
1217 4 0.400963 0.0515191 0.548436
1216 2 0.410717 0.0339594 0.563325
841 2 0.368118 0.0749506 0.531955
842 4 0.386734 0.060474 0.540266
1218 4 0.420471 0.0163997 0.578215
1062 4 0.484688 0.00519771 0.550628
938 4 0.0869816 0.153155 0.573397
937 2 0.101176 0.146941 0.553773
939 4 0.11537 0.140728 0.534149
1032 4 0.25953 0.0986086 0.561725
1151 4 0.166466 0.126885 0.524032
1150 2 0.178672 0.108448 0.512358
899 4 0.306483 0.143792 0.562716
898 2 0.330531 0.149787 0.559413
843 4 0.349503 0.0894272 0.523644
431 4 0.333489 0.0941543 0.532843
900 4 0.354579 0.155783 0.55611
641 4 0.478248 0.138587 0.504601
877 2 0.0756864 0.20251 0.571861
878 4 0.0545841 0.204322 0.558573
1199 4 0.015053 0.191737 0.569624
1034 4 0.107301 0.172155 0.522977
1033 2 0.109908 0.186224 0.502471
856 2 0.25098 0.224451 0.538775
1221 4 0.195804 0.174343 0.583131
857 4 0.237176 0.217311 0.519187
797 4 0.214535 0.222207 0.581637
858 4 0.264784 0.23159 0.558362
872 4 0.400663 0.231593 0.511458
3159 4 0.48726 0.176349 0.53805
1258 2 0.154634 0.287051 0.529162
1260 4 0.13331 0.293441 0.517776
696 4 0.132537 0.277509 0.506057
9 3 0.164947 0.34044 0.512715
1259 4 0.175958 0.280661 0.540548
813 4 0.340501 0.269844 0.523069
811 2 0.328866 0.287944 0.510334
792 4 0.300247 0.278169 0.585519
790 2 0.315413 0.259488 0.578723
871 2 0.400288 0.256553 0.510025
873 4 0.399912 0.281512 0.508592
983 4 0.0311451 0.354541 0.567973
982 2 0.0176198 0.341226 0.584251
1137 4 0.109304 0.384312 0.581733
1189 2 0.224115 0.345057 0.56137
773 4 0.243204 0.385398 0.506741
1190 4 0.245796 0.344069 0.548953
896 4 0.186157 0.345537 0.563083
802 2 0.268025 0.368556 0.531577
803 4 0.276878 0.362985 0.554287
804 4 0.259171 0.374128 0.508867
928 2 0.363001 0.381803 0.572571
929 4 0.358877 0.386793 0.54842
925 2 0.472848 0.379316 0.517009
927 4 0.465239 0.402907 0.520289
926 4 0.480456 0.355725 0.513728
936 4 0.0222101 0.465967 0.508138
1161 4 0.161116 0.425475 0.573207
1159 2 0.162631 0.449545 0.579804
2243 4 0.158271 0.509615 0.563763
1171 2 0.232174 0.441636 0.562023
1173 4 0.225911 0.463943 0.552624
1172 4 0.238437 0.419329 0.571423
882 4 0.326564 0.444107 0.521817
880 2 0.333157 0.468225 0.521777
881 4 0.339749 0.492344 0.521737
1952 4 0.347829 0.480891 0.554438
1002 4 0.402927 0.439717 0.568356
1951 2 0.348854 0.492723 0.576441
1000 2 0.425221 0.437551 0.557245
1001 4 0.447515 0.435386 0.546134
662 4 0.485693 0.483967 0.511236
661 2 0.462802 0.474273 0.508557
1910 4 0.467374 0.500674 0.560927
1909 2 0.442692 0.496941 0.562364
945 4 0.0765563 0.0163167 0.661257
2319 4 0.0789983 0.00494774 0.64633
825 4 0.153436 0.0215819 0.656284
823 2 0.15131 0.000986216 0.642267
1031 4 0.252673 0.0548812 0.584997
949 2 0.264571 0.0208478 0.596485
951 4 0.253934 0.0429193 0.601473
950 4 0.275208 0.998776 0.591496
809 4 0.48471 0.086166 0.611341
808 2 0.467227 0.0818723 0.628693
810 4 0.449743 0.0775787 0.646044
1083 4 0.0587901 0.100152 0.603897
1082 4 0.0596559 0.0838597 0.651168
1081 2 0.059223 0.0920058 0.627532
1154 4 0.158945 0.143677 0.584749
1059 4 0.14327 0.0858896 0.59397
1153 2 0.161601 0.122125 0.597143
1155 4 0.164258 0.100572 0.609538
909 4 0.156004 0.166267 0.654344
1284 4 0.177046 0.102853 0.625095
1283 4 0.213692 0.108235 0.658693
1282 2 0.195369 0.105544 0.641894
1005 4 0.323322 0.0981745 0.665636
45 3 0.451273 0.0811995 0.665784
879 4 0.0967888 0.200698 0.58515
1272 4 0.105943 0.219185 0.588872
1270 2 0.118578 0.212924 0.60952
1271 4 0.131212 0.206664 0.630169
1210 2 0.220707 0.174133 0.659213
1212 4 0.201571 0.163266 0.647343
1219 2 0.192565 0.170948 0.607691
1220 4 0.189327 0.167554 0.63225
796 2 0.225459 0.231405 0.602161
798 4 0.236383 0.240604 0.622685
791 4 0.330579 0.240807 0.571926
904 2 0.486942 0.226879 0.6085
906 4 0.463403 0.229223 0.600402
1024 2 0.445917 0.202781 0.656586
1025 4 0.447552 0.226995 0.650569
1026 4 0.444281 0.178568 0.662603
1243 2 0.0623308 0.258913 0.621218
1244 4 0.0761053 0.245693 0.605073
1245 4 0.0485562 0.272132 0.637364
984 4 0.00409456 0.327911 0.600528
1209 4 0.10481 0.265189 0.656109
948 4 0.170606 0.289877 0.622438
946 2 0.187031 0.271248 0.619549
947 4 0.203456 0.252619 0.61666
1238 4 0.310291 0.29245 0.592306
1237 2 0.296483 0.306402 0.607793
1239 4 0.282675 0.320354 0.62328
954 4 0.431355 0.282995 0.607993
952 2 0.447027 0.291894 0.590663
953 4 0.4627 0.300794 0.573333
1040 4 0.0858331 0.395657 0.629086
1039 2 0.0618994 0.395577 0.621851
1041 4 0.0379656 0.395497 0.614616
3263 4 0.0117119 0.337941 0.616116
897 4 0.149786 0.371224 0.585844
1136 4 0.115373 0.340367 0.604815
1135 2 0.112339 0.36234 0.593274
992 4 0.146546 0.417883 0.646081
991 2 0.123697 0.407876 0.644355
993 4 0.100849 0.397869 0.64263
1191 4 0.202435 0.346044 0.573786
895 2 0.167971 0.358381 0.574464
806 4 0.347096 0.338913 0.661294
930 4 0.367124 0.376814 0.596722
1204 2 0.392475 0.400977 0.62993
1206 4 0.375848 0.415683 0.618422
1205 4 0.409103 0.38627 0.641438
1160 4 0.164147 0.473615 0.5864
1187 4 0.209813 0.487459 0.601895
889 2 0.322625 0.453651 0.611322
891 4 0.299986 0.462796 0.616708
890 4 0.345265 0.444506 0.605936
1269 4 0.432182 0.466746 0.642832
944 4 0.0618318 0.0640964 0.660258
943 2 0.0691941 0.0402066 0.660757
1147 2 0.211794 0.0748658 0.743836
1090 2 0.341564 0.00104911 0.677026
1091 4 0.349199 0.00650523 0.700201
1004 4 0.36405 0.0976035 0.694647
1163 4 0.477444 0.0433235 0.689809
1162 2 0.501413 0.0502004 0.691643
42 3 0.429553 0.0679841 0.693106
2320 2 0.505563 0.00476357 0.746138
2283 4 0.422069 0.00774438 0.667371
1076 4 0.0464839 0.0823181 0.665942
862 2 0.0462447 0.10391 0.742914
864 4 0.0449245 0.0976705 0.718738
1075 2 0.0375905 0.0926227 0.686916
1077 4 0.0286971 0.102927 0.70789
907 2 0.158759 0.148407 0.671624
908 4 0.161513 0.130548 0.688905
1227 4 0.15807 0.120076 0.70663
1148 4 0.216721 0.0963603 0.732051
1225 2 0.180447 0.115698 0.71689
1226 4 0.202824 0.111321 0.727151
829 2 0.334659 0.162755 0.719109
1003 2 0.343686 0.097889 0.680141
831 4 0.348935 0.146965 0.732226
43 3 0.414856 0.0906866 0.667005
41 1 0.433815 0.0860865 0.679567
1142 4 0.407612 0.1606 0.726039
44 3 0.439111 0.104333 0.692887
851 4 0.0626754 0.183795 0.723456
852 4 0.0290336 0.202046 0.691271
850 2 0.0458545 0.19292 0.707363
1213 2 0.0146504 0.214689 0.751739
1107 4 0.0688722 0.195796 0.738542
1178 4 0.0238829 0.240295 0.720192
1215 4 0.0152205 0.233903 0.735749
1207 2 0.0967123 0.243493 0.665537
1208 4 0.0886145 0.221797 0.674965
1211 4 0.239843 0.185 0.671084
1129 2 0.198166 0.184486 0.753377
1131 4 0.212804 0.204756 0.753535
1130 4 0.183527 0.164216 0.753218
830 4 0.320383 0.178545 0.705993
886 2 0.282513 0.182324 0.682105
888 4 0.260417 0.183881 0.670507
887 4 0.30461 0.180767 0.693702
1193 4 0.379361 0.242101 0.678084
1192 2 0.372569 0.224744 0.694751
1194 4 0.365778 0.207388 0.711419
1143 4 0.431131 0.201657 0.709857
1141 2 0.419371 0.181129 0.717948
1261 2 0.431731 0.242392 0.718023
1262 4 0.416482 0.238395 0.737431
1145 4 0.506602 0.21735 0.750287
820 2 0.168032 0.26451 0.738135
821 4 0.156842 0.266407 0.715855
1065 4 0.242487 0.268409 0.69252
1063 2 0.254963 0.289996 0.690642
1064 4 0.267439 0.311583 0.688764
807 4 0.349456 0.335159 0.711104
1263 4 0.44698 0.24639 0.698615
3123 4 0.476633 0.285669 0.669893
3121 2 0.494511 0.268203 0.669191
3274 2 0.014221 0.38984 0.732691
892 2 0.0591818 0.389584 0.69484
893 4 0.0738956 0.406218 0.683351
894 4 0.044468 0.372949 0.706329
3276 4 0.0290447 0.378544 0.716022
940 2 0.139446 0.38654 0.733208
1067 4 0.165062 0.404932 0.715389
941 4 0.159977 0.400797 0.733853
942 4 0.118916 0.372283 0.732563
1028 4 0.218197 0.380629 0.680953
1066 2 0.183132 0.396495 0.700307
1068 4 0.201203 0.388057 0.685226
1027 2 0.239671 0.393106 0.678058
1029 4 0.261145 0.405582 0.675163
805 2 0.348276 0.337036 0.686199
1019 4 0.404913 0.377432 0.720222
1018 2 0.383608 0.37441 0.732956
1281 4 0.0215131 0.45931 0.720823
1280 4 0.0462457 0.425981 0.692927
1279 2 0.0338794 0.442646 0.706875
1983 4 0.030194 0.477226 0.718323
1981 2 0.0353041 0.493022 0.73702
885 4 0.0551259 0.424568 0.743598
2016 4 0.149552 0.484545 0.742128
1176 4 0.187456 0.502507 0.722864
1139 4 0.265542 0.425612 0.715646
1138 2 0.287575 0.434831 0.723043
1140 4 0.309609 0.44405 0.73044
1228 2 0.360037 0.457724 0.716752
1229 4 0.361905 0.482389 0.720398
1230 4 0.358169 0.433058 0.713106
1267 2 0.445937 0.472907 0.662783
1100 4 0.446994 0.45727 0.739588
1099 2 0.453478 0.457669 0.715443
1101 4 0.459962 0.458068 0.691298
1268 4 0.459692 0.479067 0.682733
1294 2 0.000533874 0.0319884 0.806391
911 4 0.0716822 0.0486683 0.824973
1296 4 0.00578232 0.0443398 0.827488
910 2 0.0850131 0.0692258 0.829958
1295 4 0.995285 0.0196371 0.785294
1203 4 0.10021 0.0767279 0.766184
1201 2 0.0934864 0.0526485 0.766571
1202 4 0.0867624 0.0285692 0.766959
2049 4 0.0928933 0.0100427 0.765212
1149 4 0.206867 0.0533713 0.755621
1255 2 0.27315 0.0610996 0.826826
1256 4 0.295789 0.064459 0.836895
1257 4 0.250512 0.0577402 0.816756
1048 2 0.332958 0.00485323 0.761024
975 4 0.333631 0.00367936 0.821474
1050 4 0.348879 0.018457 0.774685
1112 4 0.436229 0.0757157 0.827325
846 4 0.487763 0.0524995 0.769107
1113 4 0.424725 0.0413286 0.792888
844 2 0.471344 0.0369285 0.779745
1111 2 0.430477 0.0585221 0.810107
845 4 0.454926 0.0213575 0.790382
863 4 0.0475649 0.11015 0.767091
832 2 0.0155957 0.119278 0.795078
833 4 0.0367191 0.116266 0.782044
34 3 0.106046 0.155414 0.816162
31 1 0.119819 0.163475 0.799317
33 3 0.131362 0.145932 0.789449
912 4 0.0983441 0.0897833 0.834944
839 4 0.258337 0.139547 0.786428
838 2 0.269468 0.127225 0.805121
840 4 0.280599 0.114904 0.823815
1084 2 0.351723 0.131724 0.800067
1085 4 0.36365 0.112163 0.810082
1086 4 0.339795 0.151284 0.790052
819 4 0.377087 0.0982861 0.808149