ITEM: TIMESTEP
520000
ITEM: NUMBER OF ATOMS
4590
ITEM: BOX BOUNDS pp pp pp
-9.9985700000000008e+00 9.9985700000000008e+00
-9.9985700000000008e+00 9.9985700000000008e+00
-9.9985700000000008e+00 9.9985700000000008e+00
ITEM: ATOMS id type xs ys zs
463 2 0.019263 0.0522353 0.0472354
465 4 0.0119486 0.0664341 0.0664727
464 4 0.0265774 0.0380365 0.0279982
3290 4 0.0125754 0.0417584 0.0142704
3289 2 0.0107459 0.018367 0.00562897
591 4 0.0150068 0.0854591 0.0695529
702 4 0.0990238 0.0869385 0.0357091
534 4 0.187218 0.0155688 0.0135466
1476 4 0.219815 0.0139744 0.057581
567 4 0.182518 0.0862237 0.0658618
490 2 0.290227 0.0423253 0.0335578
491 4 0.297622 0.0424264 0.00967274
492 4 0.282833 0.0422242 0.0574428
557 4 0.371468 0.0720608 0.0728663
296 4 0.363543 0.0531542 0.0705783
745 2 0.464768 0.0764142 0.0209907
747 4 0.478662 0.0714224 0.000811174
746 4 0.450874 0.0814059 0.0411701
1826 4 0.459858 0.00258817 0.0549959
701 4 0.0632025 0.121794 0.0373271
700 2 0.0811132 0.104366 0.0365181
423 4 0.0741625 0.148304 0.00563509
566 4 0.170939 0.13427 0.0734885
565 2 0.176728 0.110247 0.0696752
358 2 0.281571 0.134469 0.014101
360 4 0.271207 0.143353 0.0350493
556 2 0.376661 0.0943033 0.0626933
558 4 0.381853 0.116546 0.0525203
828 4 0.429648 0.176732 0.0145612
421 2 0.0682165 0.172437 0.0083618
553 2 0.0267227 0.211411 0.0296747
554 4 0.00963539 0.227681 0.0379511
422 4 0.0622706 0.19657 0.0110885
555 4 0.04381 0.195141 0.0213982
506 4 0.179491 0.248391 0.0812886
1133 4 0.198896 0.196032 0.00455864
353 4 0.282024 0.222894 0.0833471
665 4 0.365955 0.210025 0.0177843
664 2 0.359908 0.195998 0.997989
770 4 0.435268 0.175388 0.0694341
771 4 0.447664 0.170407 0.0212446
769 2 0.441466 0.172898 0.0453394
292 2 0.146205 0.301214 0.0334038
293 4 0.160919 0.287004 0.047783
294 4 0.131491 0.315423 0.0190247
507 4 0.180801 0.285224 0.0474903
505 2 0.180146 0.266808 0.0643895
481 2 0.243593 0.310705 0.0738144
483 4 0.248779 0.288042 0.0830165
572 4 0.32718 0.25331 0.0650372
756 4 0.292801 0.294729 0.0788417
571 2 0.349239 0.262258 0.057386
573 4 0.371297 0.271206 0.0497348
1071 4 0.367939 0.273573 0.0299066
1069 2 0.385552 0.269719 0.0125838
280 2 0.448362 0.315293 0.0496965
281 4 0.427811 0.311163 0.063327
671 4 0.424053 0.32587 0.0752411
282 4 0.468913 0.319422 0.0360659
323 4 0.443836 0.26457 0.0902964
328 2 0.0243402 0.402629 0.0239911
329 4 0.0318363 0.386727 0.0062114
330 4 0.016844 0.418531 0.0417707
621 4 0.0192884 0.399223 0.0691194
619 2 0.0267018 0.380359 0.0837614
455 4 0.0801741 0.347747 0.0732678
454 2 0.104193 0.349544 0.066557
456 4 0.128212 0.35134 0.0598461
482 4 0.238408 0.333368 0.0646123
252 4 0.302574 0.388086 0.0615964
250 2 0.29734 0.396954 0.0388116
251 4 0.292107 0.405822 0.0160267
608 4 0.305429 0.380821 0.0797833
551 4 0.0701611 0.455797 0.0796987
315 4 0.0179195 0.418571 0.0610963
550 2 0.0884242 0.455105 0.0626352
552 4 0.106687 0.454413 0.0455718
245 4 0.215996 0.468483 0.0366129
244 2 0.238857 0.464936 0.0271269
246 4 0.261717 0.461388 0.0176408
272 4 0.281128 0.464693 0.0159595
271 2 0.288564 0.487773 0.0220551
227 4 0.466359 0.417223 0.0310965
562 2 0.460958 0.491359 0.0429821
564 4 0.457142 0.498458 0.0666512
563 4 0.464773 0.484259 0.0193131
226 2 0.48016 0.437697 0.0271545
1667 4 0.0712933 0.0659774 0.0825001
19 3 0.032451 0.0446587 0.149393
20 3 0.0652078 0.0401335 0.131388
1422 4 0.0351334 0.021117 0.146666
16 1 0.0554324 0.0476514 0.150534
2480 4 0.0166302 0.0287766 0.151668
17 3 0.0598966 0.0700801 0.153019
1666 2 0.0786855 0.0452633 0.0943939
1668 4 0.0860777 0.0245493 0.106288
652 2 0.292638 0.0577417 0.137746
654 4 0.291362 0.044467 0.116595
653 4 0.293913 0.0710165 0.158896
295 2 0.360079 0.0428408 0.0930909
297 4 0.356616 0.0325273 0.115603
485 4 0.359574 0.0162608 0.127482
484 2 0.339922 0.00350664 0.136217
758 4 0.426697 0.0652853 0.163847
1759 2 0.478902 0.0155321 0.157784
1761 4 0.456921 0.00650142 0.165559
589 2 0.0346383 0.0975478 0.07923
590 4 0.0542698 0.109637 0.0889071
476 4 0.137725 0.18755 0.101234
475 2 0.13666 0.188362 0.126202
477 4 0.135596 0.189175 0.151169
737 4 0.182921 0.195257 0.119056
736 2 0.203154 0.200174 0.105213
738 4 0.223387 0.205092 0.0913704
354 4 0.232558 0.223806 0.0906289
352 2 0.257291 0.22335 0.086988
461 4 0.302263 0.2231 0.0883012
460 2 0.312957 0.204343 0.100909
462 4 0.323651 0.185585 0.113518
255 4 0.331908 0.1776 0.130343
324 4 0.397092 0.251519 0.0782373
254 4 0.381068 0.170811 0.124179
630 4 0.400992 0.17398 0.126036
253 2 0.356488 0.174205 0.127261
622 2 0.370107 0.238612 0.137629
628 2 0.410786 0.196587 0.121774
624 4 0.393046 0.238862 0.147576
623 4 0.347169 0.238361 0.127682
629 4 0.42058 0.219194 0.117512
337 2 0.0733534 0.253531 0.137836
339 4 0.0517748 0.247626 0.12667
338 4 0.0949321 0.259437 0.149002
363 4 0.100318 0.263358 0.16705
279 4 0.225954 0.27839 0.159315
277 2 0.244855 0.269008 0.145902
754 2 0.284393 0.282686 0.0990769
755 4 0.275985 0.270644 0.119312
278 4 0.263757 0.259627 0.132489
741 4 0.359572 0.31344 0.0845626
322 2 0.420464 0.258044 0.0842668
620 4 0.0341152 0.361496 0.0984033
647 4 0.0599356 0.38751 0.148565
646 2 0.0736574 0.381661 0.168632
537 4 0.15294 0.380043 0.128734
535 2 0.165785 0.381754 0.150118
626 4 0.211957 0.379912 0.10603
625 2 0.20516 0.40361 0.110199
611 4 0.243198 0.34849 0.138796
609 4 0.307618 0.349256 0.118508
607 2 0.306524 0.365039 0.0991455
612 4 0.291505 0.340905 0.128329
610 2 0.267352 0.344698 0.133562
387 4 0.342983 0.390197 0.156895
302 4 0.324787 0.396328 0.151369
739 2 0.35783 0.332623 0.100504
385 2 0.35481 0.37139 0.145423
740 4 0.356088 0.351807 0.116445
15 3 0.395462 0.348262 0.1493
386 4 0.366637 0.352583 0.133951
14 3 0.409125 0.381268 0.137403
670 2 0.42259 0.343029 0.0933684
495 4 0.409249 0.398185 0.145393
672 4 0.421126 0.360188 0.111496
11 1 0.414492 0.360041 0.145084
12 3 0.426717 0.349155 0.128923
595 2 0.471826 0.361608 0.154376
313 2 0.0126434 0.433828 0.0801901
314 4 0.00736728 0.449085 0.0992838
627 4 0.198362 0.427308 0.114367
637 2 0.243224 0.489506 0.163857
639 4 0.237396 0.485227 0.139921
1438 2 0.233333 0.484212 0.106104
1439 4 0.249137 0.480409 0.125102
241 2 0.178614 0.505895 0.0945848
243 4 0.202952 0.500328 0.0959449
523 2 0.329521 0.482912 0.0965843
301 2 0.327816 0.417977 0.163508
525 4 0.345343 0.46566 0.105372
493 2 0.417795 0.413785 0.12782
494 4 0.426341 0.429385 0.110248
18 3 0.0640101 0.0362254 0.168818
450 4 0.153663 0.0700237 0.169806
673 2 0.134455 0.0430334 0.247754
675 4 0.116397 0.0557999 0.25942
690 4 0.170395 0.0281284 0.244043
674 4 0.152513 0.030267 0.236088
1505 4 0.201408 0.00933032 0.197389
1504 2 0.216048 0.996455 0.181733
689 4 0.20872 0.0134363 0.215476
688 2 0.189558 0.0207823 0.229759
693 4 0.218014 0.0639077 0.186416
691 2 0.238997 0.0760592 0.192518
582 4 0.30378 0.0867175 0.167219
692 4 0.25998 0.0882106 0.19862
21 1 0.386269 0.061114 0.23008
23 3 0.398399 0.0440732 0.240123
24 3 0.367948 0.0666014 0.243219
25 3 0.379321 0.0545635 0.209405
759 4 0.385746 0.0532805 0.189918
757 2 0.406222 0.0592829 0.176883
742 2 0.464061 0.0371652 0.246747
744 4 0.455675 0.0263869 0.225802
379 2 0.00158554 0.145493 0.19189
381 4 0.0105445 0.16278 0.207577
511 2 0.041695 0.159933 0.229952
513 4 0.0657489 0.155002 0.234672
578 4 0.0712695 0.135523 0.237486
237 4 0.159458 0.160426 0.187994
577 2 0.0800793 0.120567 0.219489
579 4 0.0888891 0.105611 0.201492
448 2 0.169658 0.0870322 0.178753
235 2 0.174284 0.14106 0.182487
449 4 0.185653 0.104041 0.1877
236 4 0.18911 0.121693 0.176981
546 4 0.180667 0.160491 0.231174
722 4 0.184201 0.141122 0.238305
580 2 0.301019 0.103834 0.185235
581 4 0.298258 0.120951 0.20325
30 3 0.289707 0.130643 0.220073
26 1 0.301213 0.124893 0.238866
27 3 0.312786 0.105393 0.234995
29 3 0.316329 0.141629 0.244327
22 3 0.39976 0.0796322 0.228025
333 4 0.414817 0.0868723 0.239145
312 4 0.416216 0.119365 0.188779
311 4 0.464695 0.126812 0.179031
310 2 0.440455 0.123089 0.183905
512 4 0.0176411 0.164864 0.225232
544 2 0.164402 0.171945 0.246321
285 4 0.291794 0.229873 0.195418
284 4 0.248878 0.209611 0.21118
283 2 0.270336 0.219742 0.203299
764 4 0.409052 0.207555 0.208622
763 2 0.424279 0.225268 0.217543
765 4 0.439505 0.24298 0.226464
522 4 0.498213 0.234159 0.230733
395 4 0.0663925 0.265478 0.202085
394 2 0.0479212 0.267724 0.218787
396 4 0.02945 0.269971 0.235488
749 4 0.078638 0.300194 0.235781
361 2 0.11191 0.262138 0.18917
750 4 0.1194 0.321697 0.216371
362 4 0.123502 0.260917 0.211291
372 4 0.140071 0.265141 0.201384
748 2 0.0990192 0.310945 0.226076
370 2 0.157531 0.274463 0.216663
371 4 0.174991 0.283785 0.231941
345 4 0.228588 0.284104 0.228603
343 2 0.250844 0.292535 0.220936
344 4 0.273099 0.300966 0.21327
307 2 0.301021 0.304781 0.239607
309 4 0.289932 0.309459 0.217691
527 4 0.455179 0.246791 0.167726
528 4 0.475345 0.281567 0.19747
526 2 0.465262 0.264179 0.182598
300 4 0.122271 0.334961 0.230119
648 4 0.0873792 0.375813 0.188699
298 2 0.122959 0.359362 0.235532
299 4 0.123646 0.383763 0.240945
536 4 0.17863 0.383466 0.171501
290 4 0.244525 0.39942 0.237694
289 2 0.234808 0.413164 0.219204
13 3 0.427278 0.361598 0.164384
597 4 0.449042 0.365053 0.164082
643 2 0.442898 0.354023 0.207539
644 4 0.447256 0.350463 0.231902
645 4 0.43854 0.357583 0.183177
263 4 0.0288728 0.469366 0.18131
262 2 0.0439053 0.454742 0.194924
264 4 0.0589378 0.440118 0.208539
417 4 0.169282 0.451959 0.202925
415 2 0.188544 0.436738 0.198183
638 4 0.249052 0.493784 0.187793
416 4 0.207805 0.421517 0.193441
291 4 0.225091 0.426907 0.200715
768 4 0.210758 0.477712 0.241442
766 2 0.221839 0.48451 0.220084
767 4 0.232921 0.491308 0.198726
437 4 0.274218 0.462193 0.251968
1574 4 0.304657 0.497586 0.197512
303 4 0.330846 0.439625 0.175646
660 4 0.367688 0.485319 0.188273
658 2 0.358838 0.464215 0.1782
659 4 0.349988 0.44311 0.168126
232 2 0.0393154 0.0304366 0.297887
233 4 0.0556294 0.0125812 0.291546
1403 4 0.0751939 0.00988069 0.29467
234 4 0.0230015 0.0482921 0.304229
2756 4 0.0255919 0.055621 0.322467
429 4 0.0938012 0.0141897 0.316578
1701 4 0.30455 0.049508 0.297838
1699 2 0.295499 0.0263655 0.295068
1700 4 0.286447 0.00322303 0.292298
1516 2 0.357172 0.0065502 0.275507
1518 4 0.354863 0.0300346 0.283773
697 2 0.377058 0.04617 0.309227
699 4 0.365367 0.0470198 0.287141
1747 2 0.457539 0.0119122 0.301393
1749 4 0.47773 0.0121301 0.316139
743 4 0.472448 0.0479434 0.267692
257 4 0.438073 0.0687457 0.32919
480 4 0.491618 0.0233098 0.325109
351 4 0.456065 0.0567441 0.273611
349 2 0.450489 0.0690077 0.294674
1748 4 0.437348 0.0116943 0.286646
350 4 0.444913 0.0812713 0.315738
530 4 0.00791319 0.14549 0.264919
399 4 0.0769083 0.160128 0.304952
397 2 0.0872669 0.138236 0.311167
398 4 0.0976255 0.116344 0.317382
732 4 0.111534 0.104792 0.326225
721 2 0.18903 0.122364 0.254117
723 4 0.193859 0.103606 0.269929
404 4 0.240068 0.144283 0.295916
403 2 0.230368 0.166801 0.300822
599 4 0.217078 0.134997 0.326319
28 3 0.286462 0.121495 0.256452
249 4 0.249013 0.133607 0.309442
248 4 0.290672 0.113287 0.290672
247 2 0.269842 0.123447 0.300057
632 4 0.34867 0.116815 0.285515
631 2 0.36283 0.124069 0.304803
633 4 0.37699 0.131324 0.324092
331 2 0.426681 0.103253 0.253845
332 4 0.438545 0.119634 0.268545
762 4 0.431386 0.125715 0.286078
760 2 0.452502 0.137179 0.292993
761 4 0.473619 0.148644 0.299909
390 4 0.0755978 0.232311 0.310028
392 4 0.140721 0.201498 0.26861
391 2 0.119967 0.196016 0.281433
393 4 0.0992141 0.190535 0.294257
545 4 0.148137 0.183399 0.261468
388 2 0.0975507 0.240532 0.318726
405 4 0.220669 0.189318 0.305727
706 2 0.289893 0.189803 0.322799
707 4 0.311595 0.179256 0.329353
708 4 0.268191 0.200349 0.316244
420 4 0.396135 0.19189 0.319756
520 2 0.477179 0.225613 0.241206
521 4 0.456144 0.217067 0.251679
418 2 0.412934 0.209122 0.326539
419 4 0.429733 0.226355 0.333321
443 4 0.0340607 0.270789 0.254663
444 4 0.0319639 0.306306 0.289803
442 2 0.0330123 0.288548 0.272233
401 4 0.195596 0.252392 0.272415
400 2 0.208465 0.254168 0.293778
402 4 0.221334 0.255944 0.315142
308 4 0.31211 0.300104 0.261524
496 2 0.312461 0.313064 0.300763
497 4 0.304244 0.308736 0.277548
498 4 0.320679 0.317393 0.323977
615 4 0.400477 0.328907 0.299643
543 4 0.418197 0.320227 0.297654
541 2 0.442982 0.32284 0.295634
542 4 0.467766 0.325453 0.293613
2493 4 0.00626488 0.381595 0.305814
364 2 0.00688847 0.372514 0.268241
365 4 0.0178608 0.375647 0.290489
603 4 0.0909696 0.371756 0.335106
601 2 0.0918626 0.383441 0.313018
734 4 0.126732 0.390946 0.258711
733 2 0.137308 0.387797 0.281148
602 4 0.0927557 0.395125 0.290931
735 4 0.147884 0.384648 0.303585
677 4 0.157577 0.381204 0.321878
777 4 0.0905579 0.414419 0.282648
676 2 0.181385 0.376485 0.315867
678 4 0.205192 0.371767 0.309856
729 4 0.286653 0.385703 0.25642
433 2 0.335452 0.396456 0.322264
727 2 0.293127 0.390624 0.280064
434 4 0.319782 0.391776 0.30335
728 4 0.299602 0.395546 0.303708
613 2 0.383517 0.339625 0.314565
614 4 0.366557 0.350343 0.329487
447 4 0.444747 0.361983 0.248286
445 2 0.441416 0.379727 0.265585
446 4 0.438085 0.39747 0.282884
2463 4 0.990977 0.498674 0.321852
1756 2 0.0719368 0.493933 0.281375
1757 4 0.0649799 0.470517 0.286714
776 4 0.0834402 0.462776 0.293218
775 2 0.086999 0.438597 0.287933
413 4 0.154357 0.475957 0.283941
414 4 0.196374 0.475114 0.256837
412 2 0.175365 0.475535 0.270389
1435 2 0.248506 0.507439 0.325782
436 2 0.290748 0.475942 0.264731
438 4 0.307279 0.489692 0.277494
713 4 0.402306 0.436778 0.288318
120 3 0.494257 0.429114 0.300398
119 3 0.48886 0.416621 0.335505
712 2 0.423716 0.449272 0.291587
714 4 0.445126 0.461767 0.294856
2755 2 0.00634302 0.0529219 0.338195
317 4 0.057163 0.0540538 0.363529
428 4 0.0695738 0.0430424 0.349461
427 2 0.0816875 0.028616 0.333019
316 2 0.0505182 0.0780408 0.361153
1782 4 0.105779 0.00743006 0.37287
606 4 0.183019 0.0696809 0.349506
604 2 0.197748 0.0678384 0.369627
605 4 0.212476 0.0659959 0.389748
683 4 0.307379 0.0549911 0.375386
682 2 0.290885 0.0732656 0.379766
698 4 0.388749 0.0453202 0.331312
425 4 0.406174 0.0409995 0.414106
478 2 0.50164 0.0444614 0.333905
424 2 0.426385 0.0417066 0.399402
426 4 0.446596 0.0424137 0.384699
256 2 0.447539 0.0560607 0.348546
258 4 0.457006 0.0433757 0.367902
2586 4 0.0156238 0.0985561 0.379395
318 4 0.0438735 0.102028 0.358776
731 4 0.116982 0.0934828 0.374631
730 2 0.114258 0.0991373 0.350428
686 4 0.151402 0.147277 0.40959
685 2 0.166379 0.132326 0.396274
687 4 0.181357 0.117376 0.382957
600 4 0.195122 0.118981 0.368298
598 2 0.2061 0.126989 0.347309
684 4 0.274392 0.0915401 0.384146
320 4 0.277579 0.0919389 0.403983
319 2 0.276293 0.115422 0.412472
468 4 0.372617 0.157621 0.403834
2653 2 0.000580879 0.218959 0.390266
2654 4 0.0255443 0.218147 0.389104
389 4 0.119504 0.248754 0.327423
474 4 0.229914 0.189956 0.371308
472 2 0.241741 0.197781 0.350715
276 4 0.195297 0.23496 0.377503
473 4 0.253568 0.205606 0.330122
514 2 0.44844 0.163473 0.405621
515 4 0.46364 0.162551 0.385789
451 2 0.489162 0.174876 0.366066
453 4 0.464517 0.174082 0.370211
304 2 0.497638 0.213139 0.413363
516 4 0.433241 0.164395 0.425453
616 2 0.0840106 0.298847 0.396179
618 4 0.06044 0.29687 0.404285
347 4 0.0458583 0.293261 0.416878
617 4 0.107581 0.300824 0.388074
275 4 0.173214 0.279255 0.384641
274 2 0.184256 0.257108 0.381072
508 2 0.244871 0.305891 0.359804
510 4 0.235856 0.312037 0.382301
374 4 0.227425 0.312719 0.400356
509 4 0.253887 0.299745 0.337306
488 4 0.307293 0.26782 0.382524
376 2 0.320117 0.286362 0.352939
377 4 0.323839 0.271556 0.372741
378 4 0.316395 0.301168 0.333138
487 2 0.29795 0.267468 0.405714
716 4 0.398071 0.260298 0.375652
715 2 0.376899 0.259253 0.388913
717 4 0.355728 0.258207 0.402174
270 4 0.475172 0.246314 0.410867
269 4 0.479641 0.291286 0.38946
268 2 0.477406 0.2688 0.400163
406 2 0.0602347 0.401429 0.375382
407 4 0.0521218 0.413476 0.35503
408 4 0.0683477 0.389382 0.395735
373 2 0.218163 0.334925 0.407158
502 2 0.219907 0.396629 0.402836
435 4 0.351121 0.401135 0.341178
336 4 0.350181 0.406873 0.400438
334 2 0.353358 0.385406 0.412858
561 4 0.451504 0.393424 0.403398
752 4 0.465356 0.403328 0.393427
751 2 0.479666 0.405947 0.373092
753 4 0.493977 0.408567 0.352756
549 4 0.0250119 0.471965 0.327938
681 4 0.0476046 0.419768 0.409792
547 2 0.0338414 0.45104 0.338395
548 4 0.042671 0.430115 0.348853
501 4 0.145214 0.492471 0.342989
503 4 0.220809 0.418792 0.391295
1437 4 0.268939 0.49849 0.337077
668 4 0.291483 0.443701 0.392523
5 3 0.272696 0.471622 0.350668
1 1 0.291882 0.459639 0.353301
2 3 0.309887 0.47286 0.347806
4 3 0.294017 0.452863 0.37539
3 3 0.291631 0.441119 0.339324
667 2 0.307366 0.447838 0.411385
592 2 0.398737 0.500465 0.338294
593 4 0.374788 0.494342 0.334537
718 2 0.0479453 0.0596646 0.484652
719 4 0.0706144 0.0600024 0.474108
720 4 0.0252762 0.0593269 0.495196
368 4 0.0909093 0.0434786 0.446363
367 2 0.112742 0.0546929 0.441594
369 4 0.134575 0.0659072 0.436825
341 4 0.196685 0.028047 0.469805
340 2 0.188768 0.0510807 0.475457
2430 4 0.205783 0.00990515 0.464384
342 4 0.180851 0.0741145 0.481109
1152 4 0.169779 0.0744418 0.498952
1180 2 0.251017 0.0724099 0.479702
1181 4 0.266829 0.0571613 0.491645
441 4 0.264545 0.00899342 0.454668
726 4 0.305338 0.0876494 0.453655
724 2 0.31547 0.0729402 0.436158
432 4 0.288108 0.0648579 0.49289
963 4 0.28781 0.0434223 0.497695
430 2 0.309437 0.0778667 0.491878
725 4 0.325601 0.0582309 0.41866
2878 2 0.495729 0.0663321 0.444467
2880 4 0.474413 0.073804 0.45519
459 4 0.997636 0.147768 0.437881
1034 4 0.106453 0.139826 0.479016
1182 4 0.235205 0.0876586 0.467758
321 4 0.275008 0.138905 0.420961
574 2 0.400098 0.147659 0.447226
576 4 0.385786 0.136563 0.464467
431 4 0.330766 0.0908754 0.490866
843 4 0.346917 0.0843865 0.49884
641 4 0.471673 0.127374 0.494169
642 4 0.483593 0.0874826 0.466468
640 2 0.477633 0.107428 0.480319
458 4 0.00877796 0.19177 0.458866
457 2 0.0032072 0.169769 0.448373
470 4 0.0188265 0.207087 0.492377
260 4 0.078719 0.22056 0.4341
469 2 0.034492 0.187706 0.494411
261 4 0.0972163 0.20817 0.478878
259 2 0.0879677 0.214365 0.456489
1035 4 0.101606 0.189298 0.484466
1033 2 0.104029 0.164562 0.481741
411 4 0.250547 0.226805 0.488409
409 2 0.267117 0.209264 0.481856
410 4 0.283687 0.191724 0.475304
575 4 0.414409 0.158754 0.429986
466 2 0.35628 0.173254 0.414507
467 4 0.339943 0.188886 0.425179
306 4 0.485011 0.232641 0.422604
346 2 0.0410508 0.283592 0.43943
348 4 0.0362434 0.273923 0.461982
695 4 0.0941965 0.263725 0.470989
694 2 0.11819 0.261733 0.477736
696 4 0.142184 0.25974 0.484483
10 3 0.168822 0.322277 0.491587
650 4 0.245464 0.28903 0.459045
489 4 0.288607 0.267117 0.428904
651 4 0.287317 0.263199 0.45
649 2 0.26639 0.276114 0.454523
812 4 0.331767 0.304416 0.479821
267 4 0.360873 0.265102 0.42018
266 4 0.37589 0.290922 0.460287
265 2 0.368381 0.278012 0.440234
2456 4 0.497207 0.288824 0.439738
583 2 0.456951 0.277158 0.455062
584 4 0.477029 0.284044 0.441847
585 4 0.436873 0.270272 0.468277
2814 4 0.00099578 0.359066 0.48855
7 3 0.13687 0.340937 0.496468
326 4 0.104121 0.346609 0.43994
327 4 0.124889 0.350603 0.485255
325 2 0.114505 0.348606 0.462597
6 1 0.159803 0.3427 0.496082
711 4 0.163068 0.373177 0.46763
709 2 0.166812 0.371746 0.44295
710 4 0.170556 0.370316 0.41827
8 3 0.165885 0.357844 0.479587
375 4 0.2089 0.357131 0.41396
504 4 0.219004 0.374467 0.414376
773 4 0.269067 0.421802 0.496423
588 4 0.393646 0.414908 0.430329
238 2 0.380176 0.377443 0.462925
240 4 0.363914 0.371729 0.444812
335 4 0.356534 0.363939 0.425279
239 4 0.396438 0.383158 0.481038
559 2 0.446353 0.376538 0.421104
560 4 0.441201 0.359652 0.438809
1382 4 0.00802849 0.501927 0.450077
383 4 0.0721868 0.421416 0.48999
680 4 0.0237801 0.439257 0.449204
1381 2 0.00988389 0.477365 0.454374
1383 4 0.0117393 0.452804 0.458671
679 2 0.0356923 0.429513 0.429498
570 4 0.132139 0.478857 0.419773
568 2 0.119359 0.472828 0.4404
384 4 0.107473 0.447134 0.465614
382 2 0.0898297 0.434275 0.477802
569 4 0.106579 0.4668 0.461028
774 4 0.230124 0.442737 0.473059
635 4 0.211356 0.448915 0.472324
772 2 0.249595 0.43227 0.484741
636 4 0.214667 0.464 0.424761
634 2 0.213012 0.456458 0.448543
669 4 0.323249 0.451975 0.430247
587 4 0.409636 0.462191 0.433383
586 2 0.401641 0.43855 0.431856
1126 2 0.0193453 0.0633826 0.533681
1127 4 0.015136 0.0534787 0.511112
1128 4 0.0235547 0.0732865 0.55625
2237 4 0.00856255 0.0171887 0.501907
1058 4 0.131382 0.0567242 0.54244
1057 2 0.141089 0.0777262 0.55192
961 2 0.28729 0.0218148 0.510266
962 4 0.286771 0.000207253 0.522836
1217 4 0.391865 0.0508753 0.520126
841 2 0.36242 0.0728683 0.51472
842 4 0.377923 0.0613502 0.5306
1216 2 0.405269 0.042278 0.539403
1218 4 0.418673 0.0336806 0.55868
1060 2 0.503869 0.00326395 0.541097
1062 4 0.484619 0.00671123 0.556676
937 2 0.110067 0.156363 0.566851
1059 4 0.150796 0.0987283 0.5614
1155 4 0.143825 0.116313 0.570528
1151 4 0.170477 0.122244 0.513622
1150 2 0.170128 0.0983427 0.506287
1032 4 0.255668 0.0957154 0.570308
898 2 0.316568 0.142427 0.564813
899 4 0.29322 0.150973 0.562161
900 4 0.339915 0.133881 0.567466
3158 4 0.477696 0.139125 0.508604
3157 2 0.477217 0.164123 0.508844
878 4 0.0580244 0.187062 0.567891
471 4 0.0501574 0.168324 0.496444
877 2 0.0734226 0.204549 0.576962
938 4 0.0936779 0.166063 0.550651
797 4 0.231467 0.213359 0.576784
856 2 0.242273 0.190164 0.549267
857 4 0.239078 0.170216 0.534533
858 4 0.245467 0.210111 0.564
791 4 0.319102 0.264661 0.573081
3159 4 0.476738 0.189121 0.509083
1258 2 0.159564 0.281748 0.517802
1260 4 0.151829 0.268053 0.498366
1136 4 0.0985888 0.345538 0.560229
1259 4 0.167299 0.295444 0.537239
873 4 0.375728 0.25988 0.502588
871 2 0.38712 0.255473 0.524405
813 4 0.357271 0.265324 0.497768
872 4 0.398511 0.251065 0.546222
811 2 0.344519 0.28487 0.488795
953 4 0.444351 0.305745 0.592963
983 4 0.0226594 0.366136 0.591634
1135 2 0.117993 0.346885 0.57594
9 3 0.1671 0.350193 0.516794
1189 2 0.225514 0.358589 0.541675
896 4 0.191451 0.370296 0.560162
1191 4 0.20132 0.357801 0.547937
895 2 0.173628 0.362895 0.57606
1190 4 0.249708 0.359377 0.535413
802 2 0.263698 0.39246 0.520883
803 4 0.264885 0.368575 0.52818
804 4 0.26251 0.416346 0.513586
929 4 0.338004 0.393825 0.542845
928 2 0.354539 0.394735 0.561579
930 4 0.371073 0.395644 0.580313
925 2 0.481556 0.372878 0.511785
927 4 0.494258 0.394097 0.5081
926 4 0.468853 0.351659 0.515469
1001 4 0.449996 0.403673 0.565545
935 4 0.00867684 0.453017 0.508224
1171 2 0.237212 0.440684 0.54002
1173 4 0.218264 0.452822 0.550922
1172 4 0.256159 0.428546 0.529118
882 4 0.327511 0.428798 0.520359
880 2 0.32227 0.446165 0.537567
881 4 0.31703 0.463533 0.554774
1952 4 0.321788 0.463535 0.574678
1000 2 0.444664 0.428059 0.566974
661 2 0.487635 0.479435 0.518466
663 4 0.488766 0.454974 0.513411
662 4 0.486505 0.503896 0.523522
1002 4 0.439332 0.452446 0.568404
2319 4 0.0541886 0.00585045 0.650843
1185 4 0.00224144 0.0297219 0.64081
1183 2 0.0138145 0.0478533 0.653557
1184 4 0.0253877 0.0659846 0.666305
823 2 0.138782 0.996637 0.606035
825 4 0.117807 0.00892811 0.611877
1030 2 0.242751 0.078589 0.583155
951 4 0.233499 0.0487269 0.612204
1031 4 0.229835 0.0614626 0.596001
949 2 0.232256 0.0264798 0.600859
1283 4 0.190434 0.0942404 0.625743
1082 4 0.0376868 0.113971 0.645678
1083 4 0.0738208 0.089149 0.621617
1081 2 0.0557538 0.10156 0.633647
1153 2 0.158342 0.134652 0.579366
939 4 0.126457 0.146662 0.583052
1154 4 0.17286 0.152991 0.588203
1284 4 0.174223 0.113206 0.669081
1282 2 0.182329 0.103723 0.647412
1221 4 0.185548 0.168218 0.586483
1212 4 0.210535 0.174889 0.646966
1005 4 0.331552 0.108479 0.614589
1003 2 0.339234 0.101848 0.637441
1004 4 0.346916 0.0952183 0.660293
808 2 0.475547 0.0908696 0.623718
810 4 0.457488 0.0831159 0.639175
45 3 0.459441 0.088172 0.65791
809 4 0.493607 0.0986233 0.608261
1208 4 0.0635537 0.248058 0.644775
909 4 0.158299 0.172667 0.668507
879 4 0.0888207 0.222036 0.586034
1272 4 0.0945076 0.21232 0.603266
1270 2 0.111643 0.201208 0.617691
1271 4 0.128778 0.190096 0.632116
1219 2 0.191714 0.174283 0.609943
1220 4 0.197879 0.180348 0.633403
796 2 0.23675 0.237723 0.578707
1210 2 0.226496 0.185809 0.662815
1025 4 0.416622 0.186767 0.666537
906 4 0.512344 0.213635 0.62812
1024 2 0.424433 0.197259 0.645227
1026 4 0.432243 0.207752 0.623918
1244 4 0.0257961 0.264631 0.620884
1243 2 0.0259274 0.280994 0.639789
1245 4 0.0260587 0.297357 0.658695
1207 2 0.0828264 0.261742 0.65293
948 4 0.163649 0.298522 0.601941
798 4 0.242032 0.262086 0.580629
946 2 0.182106 0.294584 0.618342
947 4 0.200563 0.290646 0.634744
1239 4 0.242461 0.328221 0.60541
790 2 0.301647 0.278583 0.584335
792 4 0.284191 0.292505 0.595589
1238 4 0.284306 0.309558 0.585375
1237 2 0.263384 0.318889 0.595392
954 4 0.440481 0.334178 0.633918
952 2 0.442416 0.319961 0.613441
3123 4 0.500648 0.279743 0.636598
3121 2 0.495539 0.268148 0.658153
1039 2 0.0566938 0.408944 0.613216
1041 4 0.0322074 0.406051 0.617366
984 4 0.00460255 0.329745 0.620795
1040 4 0.0811803 0.411837 0.609066
982 2 0.013631 0.347941 0.606214
897 4 0.155805 0.355495 0.591959
1137 4 0.137396 0.348232 0.591652
993 4 0.0928914 0.413387 0.623781
992 4 0.128817 0.400034 0.655902
991 2 0.110854 0.40671 0.639841
1204 2 0.384739 0.383136 0.606161
1206 4 0.372681 0.375903 0.585485
1205 4 0.396797 0.390368 0.626836
2129 4 0.0155622 0.501875 0.640156
2128 2 0.0241809 0.506796 0.663105
1159 2 0.165602 0.438361 0.620775
1160 4 0.142009 0.433372 0.614167
1188 4 0.212087 0.486895 0.650748
1161 4 0.189195 0.44335 0.627383
889 2 0.303675 0.435212 0.597093
891 4 0.28782 0.452548 0.588534
890 4 0.31953 0.417875 0.605652
1951 2 0.337641 0.478137 0.587353
1910 4 0.423071 0.457116 0.579704
1909 2 0.430034 0.480962 0.576868
4338 4 0.0021397 0.00786669 0.707625
945 4 0.0622043 0.017238 0.665077
943 2 0.0704522 0.0401441 0.670775
944 4 0.0787001 0.0630501 0.676473
1076 4 0.0659405 0.0648814 0.691174
43 3 0.435666 0.0621923 0.671232
1163 4 0.485223 0.0457271 0.683908
42 3 0.472626 0.0591762 0.677359
41 1 0.455201 0.074047 0.675264
864 4 0.0602508 0.0926488 0.75051
1075 2 0.0671832 0.0793386 0.711537
1077 4 0.0684259 0.0937959 0.731899
1105 2 0.078347 0.15079 0.727967
1106 4 0.0886845 0.145828 0.750186
1227 4 0.19771 0.165074 0.714196
1148 4 0.22472 0.109814 0.727595
1225 2 0.214307 0.146731 0.717834
1226 4 0.230903 0.128387 0.721473
1147 2 0.224619 0.0939243 0.746899
829 2 0.326548 0.169135 0.723979
831 4 0.343758 0.162013 0.74066
44 3 0.453221 0.0861086 0.694987
1142 4 0.438169 0.149209 0.695993
1107 4 0.0680096 0.155752 0.705748
851 4 0.0624053 0.173833 0.71057
852 4 0.0426464 0.215502 0.691231
850 2 0.0525258 0.194667 0.700901
1215 4 0.993282 0.243325 0.738508
1178 4 0.040867 0.225023 0.673837
1177 2 0.0212231 0.240205 0.676803
1179 4 0.00157925 0.255387 0.67977
907 2 0.177627 0.175533 0.684108
908 4 0.196954 0.178399 0.699709
1211 4 0.242457 0.196729 0.678664
830 4 0.309337 0.176256 0.707297
886 2 0.284125 0.195554 0.690432
888 4 0.259774 0.198373 0.685507
887 4 0.308476 0.192734 0.695357
1193 4 0.354336 0.222191 0.66158
1192 2 0.353968 0.21323 0.684919
1194 4 0.353599 0.204269 0.708259
1262 4 0.407367 0.216623 0.718788
1143 4 0.40681 0.186252 0.683943
1141 2 0.422489 0.16773 0.689968
3356 4 0.485448 0.217398 0.736746
3355 2 0.488331 0.232348 0.716913
1261 2 0.431429 0.223028 0.721062
3357 4 0.491213 0.247297 0.697079
1263 4 0.455491 0.229433 0.723336
821 4 0.149928 0.26545 0.734268
1209 4 0.102099 0.275426 0.661084
820 2 0.161439 0.257758 0.755089
1065 4 0.236253 0.28105 0.71838
1064 4 0.283981 0.274299 0.73169
1063 2 0.260117 0.277674 0.725035
3122 4 0.49043 0.256553 0.679708
3274 2 0.0208489 0.385793 0.743966
892 2 0.0626416 0.407653 0.707001
894 4 0.0467907 0.390368 0.71567
3276 4 0.0362525 0.399505 0.729827
1067 4 0.154873 0.414379 0.689957
1028 4 0.2229 0.403875 0.687132
1066 2 0.178894 0.407486 0.689138
1068 4 0.202914 0.400593 0.688319
1027 2 0.247421 0.402374 0.682483
1029 4 0.271943 0.400873 0.677833
1139 4 0.275882 0.41949 0.677837
806 4 0.360504 0.331915 0.67314
807 4 0.359209 0.367909 0.707832
805 2 0.359857 0.349912 0.690486
1019 4 0.403877 0.397771 0.728877
1018 2 0.383242 0.383661 0.72834
1020 4 0.362606 0.369552 0.727803
893 4 0.0784926 0.424939 0.698333
1281 4 0.0114726 0.45876 0.72051
1279 2 0.0180674 0.439314 0.706244
1983 4 0.0160087 0.477726 0.713131
1981 2 0.0246084 0.49034 0.732933
1280 4 0.0246622 0.419867 0.691979
2172 4 0.121949 0.480546 0.666122
940 2 0.140027 0.419214 0.732413
941 4 0.143983 0.417503 0.707784
1176 4 0.191796 0.501796 0.734228
1174 2 0.211043 0.492681 0.721126
1175 4 0.230289 0.483565 0.708025
1987 2 0.330016 0.491991 0.75195
1138 2 0.295751 0.431818 0.686691
1140 4 0.31562 0.444147 0.695545
1228 2 0.337932 0.438579 0.748253
1229 4 0.338677 0.461517 0.738331
1989 4 0.347075 0.473817 0.749983
3329 4 0.501407 0.464353 0.749816
1100 4 0.474993 0.454879 0.702494
1099 2 0.485073 0.472969 0.688482
1101 4 0.495153 0.491059 0.67447
1203 4 0.0903766 0.068894 0.749125
1201 2 0.0869325 0.0466797 0.760072
1202 4 0.0834883 0.0244654 0.771019
911 4 0.0994244 0.0710018 0.790337
2049 4 0.0946524 0.0139513 0.758803
910 2 0.0972505 0.0736385 0.815106
1149 4 0.224517 0.078034 0.766204
1048 2 0.32378 0.00151482 0.753597
1255 2 0.295803 0.0776187 0.802394
1256 4 0.311551 0.0594834 0.809345
1050 4 0.330824 0.0251467 0.749463
817 2 0.370401 0.0851702 0.82924
845 4 0.500109 0.0231305 0.745898
846 4 0.468865 0.0230621 0.784943
1113 4 0.461932 0.0370366 0.796606
844 2 0.484487 0.0230963 0.76542
1111 2 0.440827 0.0503596 0.795102
1112 4 0.419722 0.0636826 0.793598
980 4 0.42382 0.0402613 0.826414
862 2 0.0412517 0.105283 0.760738
863 4 0.0222526 0.117916 0.770966
833 4 0.00445903 0.111845 0.77957
33 3 0.118388 0.13374 0.778779
31 1 0.114294 0.156498 0.776845
35 3 0.0984484 0.160216 0.760916
34 3 0.107192 0.165028 0.797221
1130 4 0.202425 0.153135 0.782
838 2 0.258374 0.119067 0.815249
1257 4 0.280056 0.0957539 0.795443
839 4 0.268296 0.112788 0.793174
958 2 0.304061 0.154648 0.820573
959 4 0.303023 0.133274 0.807641
1084 2 0.340626 0.116927 0.787819
1085 4 0.336215 0.0989601 0.804639
1086 4 0.345037 0.134894 0.770999
819 4 0.354943 0.0951196 0.812292