ITEM: TIMESTEP
2710000
ITEM: NUMBER OF ATOMS
4590
ITEM: BOX BOUNDS pp pp pp
-9.9985700000000008e+00 9.9985700000000008e+00
-9.9985700000000008e+00 9.9985700000000008e+00
-9.9985700000000008e+00 9.9985700000000008e+00
ITEM: ATOMS id type xs ys zs
1247 4 0.0551586 0.0667547 0.0164815
490 2 0.29411 0.0116144 0.0613369
492 4 0.301952 0.0336633 0.0525322
486 4 0.305035 0.0315711 0.0332948
484 2 0.318543 0.0291805 0.01239
2467 2 0.39174 0.06576 0.0142847
2469 4 0.405445 0.0712209 0.0344723
1760 4 0.421412 0.0680722 0.0453359
1759 2 0.436393 0.0653599 0.0651705
1761 4 0.451373 0.0626476 0.0850051
380 4 0.0613342 0.101003 0.0676513
358 2 0.247879 0.126142 0.0420167
359 4 0.249033 0.1063 0.057188
665 4 0.319488 0.0897378 0.0631292
360 4 0.246726 0.145983 0.0268454
2723 4 0.406762 0.0827672 0.0499559
664 2 0.333718 0.101191 0.046055
666 4 0.347947 0.112644 0.0289808
866 4 0.356364 0.127087 0.0378513
865 2 0.375141 0.142762 0.0326615
867 4 0.393917 0.158437 0.0274717
2722 2 0.38779 0.0965748 0.0585927
2724 4 0.368818 0.110382 0.0672295
2624 4 0.0681306 0.246776 0.0351001
555 4 0.141882 0.178219 0.0185059
553 2 0.156751 0.196186 0.0275227
1133 4 0.179128 0.229706 0.0256977
554 4 0.171619 0.214153 0.0365396
507 4 0.175698 0.232209 0.0459854
505 2 0.166867 0.242186 0.0671432
353 4 0.270874 0.228193 0.0668497
311 4 0.271987 0.193845 0.06507
310 2 0.293091 0.186696 0.0764137
770 4 0.434862 0.220914 0.0657506
769 2 0.431977 0.200876 0.0804246
2623 2 0.0671127 0.252573 0.0107993
655 2 0.00991433 0.325826 0.0626403
836 4 0.0328814 0.331293 0.0302445
338 4 0.133171 0.299814 0.0668242
337 2 0.119458 0.286404 0.0828644
1132 2 0.177825 0.248385 0.00912731
755 4 0.268572 0.273612 0.0501915
754 2 0.278086 0.295477 0.057716
756 4 0.2876 0.317341 0.0652405
740 4 0.304852 0.326157 0.0647594
624 4 0.391138 0.319134 0.0647737
1303 2 0.504629 0.280443 0.0732073
837 4 0.0790337 0.339923 0.0130339
835 2 0.0559575 0.335608 0.0216392
2807 4 0.0156541 0.3569 0.050333
656 4 0.0191622 0.338258 0.0430164
314 4 0.0613698 0.409497 0.0439014
705 4 0.0467558 0.339404 0.0843077
2806 2 0.00754455 0.380517 0.0490387
288 4 0.0810435 0.405052 0.0319328
286 2 0.0828893 0.381077 0.0250794
287 4 0.084735 0.357102 0.0182261
357 4 0.160051 0.336821 0.0657461
482 4 0.0992421 0.344461 0.0117874
355 2 0.135196 0.339278 0.064581
356 4 0.11034 0.341735 0.063416
1659 4 0.191147 0.394577 0.0145178
38 3 0.238734 0.367506 0.0623696
40 3 0.232043 0.389262 0.0323775
36 1 0.238965 0.389174 0.0540737
39 3 0.225109 0.402699 0.0668597
251 4 0.331996 0.420718 0.076622
37 3 0.260439 0.397343 0.0552086
1512 4 0.27295 0.410671 0.0668687
901 2 0.337173 0.397649 0.999257
2841 4 0.482492 0.348482 0.0549475
2840 4 0.439818 0.335453 0.0323672
2839 2 0.461155 0.341968 0.0436573
914 4 0.0695694 0.419891 0.029315
313 2 0.0514193 0.420347 0.0641114
913 2 0.0765832 0.439228 0.0151009
293 4 0.0988587 0.500629 0.0705316
292 2 0.109525 0.479269 0.0631037
550 2 0.161402 0.451368 0.0505781
552 4 0.139107 0.45628 0.0607743
294 4 0.120192 0.45791 0.0556759
1439 4 0.128761 0.453572 0.0773014
1709 4 0.233984 0.462788 0.0543648
551 4 0.183698 0.446456 0.0403819
1708 2 0.245197 0.440501 0.0560229
1710 4 0.256409 0.418214 0.0576811
250 2 0.332045 0.424143 0.0518542
1289 4 0.335505 0.436325 0.00995025
902 4 0.328579 0.418389 0.0102646
252 4 0.332093 0.427568 0.0270863
1288 2 0.339503 0.460245 0.00386663
4304 4 0.421654 0.486973 0.0651054
671 4 0.483761 0.440964 0.0615079
670 2 0.47991 0.43259 0.0847506
2481 4 0.0533904 0.0438349 0.106237
381 4 0.054299 0.0626766 0.0989924
2479 2 0.0318134 0.0342173 0.11443
379 2 0.0578166 0.08184 0.0833218
2480 4 0.0102364 0.0245996 0.122622
579 4 0.170791 0.00596603 0.139196
577 2 0.176001 0.0264894 0.125898
578 4 0.181211 0.0470127 0.1126
423 4 0.193993 0.056178 0.0996446
652 2 0.241285 0.0340548 0.15243
654 4 0.21851 0.0384589 0.161761
581 4 0.204599 0.0477593 0.150542
421 2 0.200809 0.0794153 0.0934191
580 2 0.197345 0.0666343 0.165249
653 4 0.264061 0.0296508 0.143099
24 3 0.381314 0.0371345 0.127293
21 1 0.372087 0.0573258 0.134044
25 3 0.369726 0.0576035 0.156694
23 3 0.351447 0.0603904 0.123894
22 3 0.386114 0.0744101 0.127679
759 4 0.356061 0.0716221 0.15915
2464 2 0.457185 0.00996412 0.135442
2591 4 0.431192 0.0452695 0.145373
2592 4 0.443781 0.0669645 0.102112
2590 2 0.437487 0.056117 0.123743
2466 4 0.442051 0.0267203 0.146183
2894 4 0.428053 0.0312925 0.161997
529 2 0.0236091 0.0975885 0.152795
531 4 0.0460468 0.105547 0.145154
530 4 0.00117144 0.0896295 0.160436
236 4 0.0944135 0.145653 0.122749
235 2 0.1107 0.164554 0.121107
534 4 0.224334 0.111266 0.0859756
422 4 0.207624 0.102653 0.0871936
532 2 0.241664 0.126136 0.0961608
533 4 0.258994 0.141005 0.106346
297 4 0.381432 0.0849492 0.112008
295 2 0.393189 0.106378 0.117277
296 4 0.404947 0.127806 0.122546
629 4 0.413922 0.131089 0.138356
628 2 0.418281 0.126156 0.162477
558 4 0.425003 0.134863 0.12237
556 2 0.435086 0.152688 0.108025
557 4 0.44517 0.170512 0.0936795
237 4 0.126987 0.183454 0.119465
477 4 0.129913 0.202191 0.107918
475 2 0.135303 0.226382 0.104606
476 4 0.140692 0.250572 0.101295
284 4 0.244393 0.220597 0.153597
283 2 0.248666 0.236817 0.135054
506 4 0.158036 0.252163 0.0883011
738 4 0.156419 0.261684 0.110024
352 2 0.262571 0.246137 0.082155
312 4 0.314195 0.179547 0.0877574
771 4 0.429091 0.180838 0.0950986
363 4 0.0418993 0.294807 0.155921
648 4 0.0561902 0.295169 0.141019
646 2 0.0760766 0.288952 0.127197
647 4 0.095963 0.282734 0.113375
339 4 0.105744 0.272995 0.0989047
455 4 0.124823 0.318011 0.133308
737 4 0.198175 0.272939 0.135132
736 2 0.177297 0.267311 0.122578
372 4 0.198359 0.279566 0.154758
285 4 0.252939 0.253037 0.116512
739 2 0.315236 0.325881 0.0875031
354 4 0.254268 0.264081 0.0974603
764 4 0.265189 0.26827 0.113384
763 2 0.27424 0.28451 0.130103
765 4 0.28329 0.30075 0.146822
612 4 0.296465 0.316125 0.149501
610 2 0.304893 0.33478 0.163858
741 4 0.32562 0.325605 0.110247
622 2 0.395923 0.32808 0.0876267
728 4 0.400406 0.323958 0.142803
386 4 0.339802 0.323641 0.123815
1304 4 0.484015 0.272483 0.084906
518 4 0.477767 0.281573 0.138847
517 2 0.492164 0.270133 0.155789
703 2 0.0675132 0.352161 0.0899256
1758 4 0.0396604 0.411615 0.150356
454 2 0.112554 0.33634 0.12153
704 4 0.0882706 0.364919 0.0955434
456 4 0.100285 0.354669 0.109752
417 4 0.108831 0.369292 0.100756
415 2 0.110523 0.391218 0.112655
416 4 0.112214 0.413143 0.124554
303 4 0.293992 0.415692 0.165827
609 4 0.324208 0.394895 0.158153
727 2 0.407354 0.347914 0.141065
729 4 0.414301 0.37187 0.139328
623 4 0.400707 0.337026 0.11048
385 2 0.353625 0.344442 0.125006
15 3 0.401647 0.375519 0.100037
12 3 0.411304 0.392511 0.131832
387 4 0.367449 0.365242 0.126197
11 1 0.395343 0.391182 0.11532
494 4 0.384709 0.406977 0.151017
13 3 0.375095 0.385171 0.124927
608 4 0.371964 0.39174 0.143658
308 4 0.385773 0.363819 0.167387
607 2 0.348086 0.393318 0.150905
14 3 0.393406 0.41191 0.105074
498 4 0.428518 0.388698 0.145427
104 3 0.489708 0.355377 0.0969654
101 1 0.494109 0.362247 0.118687
102 3 0.492799 0.385193 0.11964
103 3 0.478396 0.353229 0.133185
496 2 0.45051 0.376867 0.146672
497 4 0.472502 0.365035 0.147917
563 4 0.495131 0.392635 0.137681
1756 2 0.0413051 0.421419 0.127413
315 4 0.0414688 0.431197 0.0843213
1757 4 0.0429499 0.431223 0.104471
1440 4 0.120666 0.43061 0.120982
1438 2 0.124714 0.442091 0.0991415
1510 2 0.286825 0.424304 0.0825791
1511 4 0.3007 0.437936 0.0982895
246 4 0.277644 0.428294 0.12627
244 2 0.281944 0.436958 0.149327
493 2 0.38994 0.426186 0.166145
956 4 0.465691 0.42214 0.147671
955 2 0.445102 0.431845 0.15802
672 4 0.47606 0.424215 0.107993
3781 2 0.034703 0.0148215 0.178429
3783 4 0.0358228 0.0396063 0.175325
512 4 0.0654497 0.0753396 0.214471
690 4 0.195275 0.013418 0.208074
675 4 0.20732 0.0308527 0.205342
673 2 0.210058 0.044828 0.225894
674 4 0.212796 0.0588033 0.246446
757 2 0.349041 0.0751578 0.182885
2893 2 0.424337 0.0108268 0.175872
511 2 0.075884 0.0862329 0.234412
582 4 0.19009 0.0855093 0.179955
567 4 0.172095 0.0867209 0.188811
466 2 0.228063 0.0920254 0.250937
565 2 0.180159 0.0994215 0.208782
566 4 0.188223 0.112122 0.228753
598 2 0.215828 0.141319 0.228132
600 4 0.193315 0.130769 0.230783
599 4 0.238342 0.151869 0.225482
468 4 0.237545 0.113569 0.242503
758 4 0.34202 0.0786936 0.206621
630 4 0.42264 0.121223 0.186599
323 4 0.425992 0.215924 0.218577
322 2 0.42453 0.233068 0.236719
361 2 0.0505908 0.307625 0.17555
750 4 0.0714917 0.317475 0.211582
362 4 0.0592822 0.320443 0.19518
371 4 0.169384 0.297948 0.191134
370 2 0.183872 0.288757 0.172946
1318 2 0.0263172 0.409442 0.242728
748 2 0.0864354 0.337521 0.211508
749 4 0.101379 0.357568 0.211434
603 4 0.233025 0.342385 0.234218
601 2 0.241327 0.359865 0.250053
611 4 0.313322 0.353436 0.178215
301 2 0.296066 0.391197 0.170397
302 4 0.29814 0.366702 0.174966
309 4 0.359655 0.335092 0.198905
645 4 0.412559 0.378938 0.18118
307 2 0.372714 0.349456 0.183146
643 2 0.417473 0.375922 0.20551
644 4 0.422387 0.372905 0.22984
109 3 0.468163 0.409952 0.228466
1320 4 0.0316742 0.417798 0.219779
3715 2 0.0409583 0.497717 0.190263
3717 4 0.0640538 0.497321 0.199835
639 4 0.227283 0.432123 0.237981
245 4 0.286243 0.445622 0.172384
1627 2 0.298428 0.487733 0.167578
1629 4 0.288363 0.466039 0.174872
1575 4 0.279729 0.454012 0.189909
1574 4 0.261866 0.465206 0.235255
1573 2 0.270798 0.459609 0.212582
495 4 0.395172 0.445394 0.181273
525 4 0.34622 0.483166 0.195945
523 2 0.357059 0.460634 0.196154
524 4 0.367898 0.438103 0.196364
659 4 0.415019 0.447044 0.184061
957 4 0.424514 0.441549 0.16837
1582 2 0.450103 0.492636 0.235823
658 2 0.42871 0.455202 0.203327
660 4 0.442401 0.463359 0.222593
1583 4 0.458062 0.469041 0.233563
2476 2 0.0160943 0.0395469 0.325563
2478 4 0.0256585 0.0166454 0.322524
2738 4 0.0101123 0.081325 0.327982
233 4 0.0964766 0.0044373 0.276035
605 4 0.120739 0.0665849 0.308788
604 2 0.138421 0.072474 0.325456
467 4 0.218582 0.0704814 0.259372
429 4 0.204536 0.0561684 0.264065
427 2 0.196851 0.0387099 0.28023
428 4 0.189166 0.0212514 0.296396
440 4 0.228128 0.019946 0.317558
1517 4 0.387499 0.0132873 0.291161
1496 4 0.373898 0.00223236 0.303367
1516 2 0.389725 0.0267815 0.312093
478 2 0.479585 0.0533657 0.279284
479 4 0.461171 0.0422875 0.292065
2739 4 0.0408143 0.11194 0.303067
2737 2 0.0254633 0.0966326 0.315524
513 4 0.0863183 0.0971262 0.254353
683 4 0.227884 0.122538 0.287808
682 2 0.232767 0.145216 0.297138
684 4 0.237649 0.167894 0.306467
2482 2 0.0776737 0.192815 0.322353
2483 4 0.0550324 0.186501 0.330878
2484 4 0.100315 0.199129 0.313828
393 4 0.123801 0.215999 0.253705
391 2 0.116577 0.213903 0.27755
392 4 0.109352 0.211806 0.301395
249 4 0.118971 0.203292 0.318335
726 4 0.236127 0.187562 0.317746
474 4 0.223771 0.180695 0.301382
633 4 0.242188 0.186851 0.297584
279 4 0.182324 0.218256 0.288013
277 2 0.19034 0.240977 0.281328
473 4 0.178537 0.198225 0.289244
472 2 0.201154 0.18946 0.295313
631 2 0.252124 0.189035 0.274744
724 2 0.255258 0.185589 0.333723
632 4 0.26206 0.191219 0.251904
254 4 0.398432 0.170249 0.249847
253 2 0.398319 0.188168 0.267286
255 4 0.398206 0.206086 0.284724
304 2 0.384806 0.22139 0.313631
305 4 0.380398 0.20253 0.329444
306 4 0.389213 0.24025 0.297818
29 3 0.417305 0.208941 0.279451
324 4 0.423067 0.250211 0.254862
30 3 0.436686 0.241101 0.282228
28 3 0.455036 0.208269 0.283955
26 1 0.435454 0.219497 0.289328
27 3 0.432723 0.219172 0.312166
278 4 0.198357 0.263697 0.274644
536 4 0.215735 0.263255 0.266022
535 2 0.224963 0.286459 0.267289
537 4 0.234191 0.309663 0.268557
678 4 0.238585 0.317899 0.285079
402 4 0.245074 0.305691 0.298983
400 2 0.256104 0.293272 0.317672
345 4 0.283002 0.315418 0.269768
343 2 0.295414 0.329968 0.285875
418 2 0.387605 0.277744 0.315328
420 4 0.396042 0.255096 0.30892
419 4 0.379169 0.300392 0.321736
377 4 0.38743 0.332318 0.324347
462 4 0.431645 0.256832 0.271767
461 4 0.439215 0.303457 0.255351
460 2 0.43543 0.280145 0.263559
2954 4 0.00775822 0.39294 0.27938
2463 4 0.0524726 0.353968 0.295559
2461 2 0.0354615 0.367404 0.283098
2462 4 0.0184504 0.38084 0.270637
500 4 0.0701254 0.382931 0.310228
1319 4 0.0209602 0.401087 0.265677
3959 4 0.0224371 0.405692 0.286804
499 2 0.0730559 0.394154 0.332379
299 4 0.157821 0.366764 0.297996
637 2 0.235893 0.414319 0.25328
638 4 0.244503 0.396515 0.268579
676 2 0.223617 0.334027 0.296954
677 4 0.208649 0.350155 0.308829
298 2 0.176869 0.357297 0.311138
300 4 0.195918 0.34783 0.32428
414 4 0.184031 0.404966 0.333153
767 4 0.211885 0.342013 0.337883
602 4 0.24963 0.377344 0.265887
290 4 0.249977 0.383664 0.286122
289 2 0.262673 0.395751 0.303951
344 4 0.307826 0.344518 0.301982
436 2 0.320744 0.401615 0.295466
291 4 0.27537 0.407838 0.32178
437 4 0.303168 0.417738 0.30297
438 4 0.33832 0.385491 0.287963
106 1 0.459966 0.414095 0.249774
110 3 0.438853 0.405785 0.25173
107 3 0.473625 0.403769 0.265134
3958 2 0.0326993 0.427454 0.293607
3960 4 0.0429615 0.449216 0.30041
108 3 0.459907 0.436922 0.253939
316 2 0.00712927 0.0832494 0.366304
317 4 1.85669e-05 0.0726313 0.344813
545 4 0.0580424 0.0401228 0.370918
544 2 0.0799135 0.0281155 0.372547
546 4 0.101785 0.0161081 0.374176
731 4 0.117584 0.0150319 0.386263
606 4 0.156104 0.0783631 0.342124
730 2 0.129712 0.0283663 0.403592
399 4 0.171959 0.0819639 0.354093
441 4 0.212291 0.0406046 0.360256
439 2 0.22021 0.0302753 0.338907
1818 4 0.215821 0.00528751 0.411567
1670 4 0.307171 0.0335488 0.397674
1669 2 0.331357 0.0272365 0.397047
1518 4 0.391951 0.0402757 0.333025
1671 4 0.355542 0.0209243 0.39642
744 4 0.378729 0.047388 0.345073
699 4 0.394408 0.0355829 0.350362
697 2 0.398535 0.0259826 0.373077
742 2 0.366547 0.0667748 0.355119
698 4 0.402661 0.0163822 0.395793
318 4 0.01424 0.0938676 0.387795
397 2 0.170028 0.106705 0.35104
398 4 0.168097 0.131446 0.347987
706 2 0.276688 0.126874 0.40261
707 4 0.277444 0.114263 0.381033
432 4 0.309643 0.16261 0.391187
425 4 0.329853 0.145738 0.416868
717 4 0.318778 0.161496 0.408398
430 2 0.29893 0.165187 0.368742
743 4 0.354365 0.0861616 0.365165
351 4 0.351342 0.114008 0.374642
349 2 0.368552 0.126125 0.388139
350 4 0.385762 0.138243 0.401636
452 4 0.404825 0.150097 0.407264
516 4 0.387746 0.159281 0.397229
451 2 0.419881 0.147238 0.387507
453 4 0.434937 0.144379 0.367751
2653 2 0.0557636 0.200262 0.382528
2654 4 0.0776268 0.210908 0.376711
2655 4 0.0339003 0.189616 0.388345
348 4 0.0252339 0.198193 0.403948
369 4 0.0324523 0.180556 0.407962
247 2 0.126943 0.207405 0.341674
248 4 0.134915 0.211518 0.365013
431 4 0.288218 0.167764 0.346297
725 4 0.274389 0.183616 0.3497
508 2 0.280648 0.224346 0.390543
488 4 0.305002 0.234057 0.352389
509 4 0.29266 0.229 0.369114
487 2 0.325264 0.221109 0.359242
510 4 0.268635 0.219693 0.411972
514 2 0.375318 0.177969 0.386208
489 4 0.345527 0.208161 0.366095
515 4 0.362889 0.196657 0.375187
1581 4 0.399361 0.194075 0.387837
1579 2 0.422668 0.20305 0.386652
1580 4 0.445975 0.212026 0.385467
267 4 0.462921 0.213171 0.397859
618 4 0.0517989 0.318627 0.398991
407 4 0.0559739 0.307291 0.381416
406 2 0.0632815 0.291594 0.363378
408 4 0.0705891 0.275897 0.345339
768 4 0.246862 0.32079 0.366639
401 4 0.267135 0.280853 0.33636
1260 4 0.276678 0.288829 0.352198
1258 2 0.270772 0.295079 0.375676
1259 4 0.264865 0.30133 0.399155
710 4 0.267923 0.310422 0.41691
584 4 0.483117 0.331387 0.372903
548 4 0.0473111 0.325341 0.381177
547 2 0.0334614 0.343317 0.370677
549 4 0.0196118 0.361292 0.360177
501 4 0.0759863 0.405377 0.354529
734 4 0.193875 0.349507 0.343779
733 2 0.186393 0.362741 0.36363
766 2 0.229373 0.331401 0.352261
735 4 0.178911 0.375975 0.383481
504 4 0.188022 0.393048 0.386741
502 2 0.172325 0.41244 0.388391
594 4 0.334498 0.403464 0.391648
592 2 0.344522 0.384029 0.379524
593 4 0.354545 0.364594 0.367401
378 4 0.363179 0.367526 0.350289
376 2 0.375305 0.349922 0.337318
433 2 0.413024 0.396622 0.363412
583 2 0.506678 0.338202 0.368043
588 4 0.488289 0.392787 0.351596
586 2 0.466278 0.381481 0.355181
435 4 0.424988 0.374707 0.364746
587 4 0.444267 0.370174 0.358767
3670 2 0.0170508 0.483681 0.338857
3671 4 0.0324496 0.47201 0.354726
777 4 0.0486414 0.468595 0.345776
776 4 0.0658534 0.421709 0.34826
775 2 0.0572474 0.445152 0.347018
503 4 0.156628 0.431832 0.390042
412 2 0.201164 0.421888 0.339882
1436 4 0.231389 0.441585 0.363025
1435 2 0.234815 0.440992 0.387785
413 4 0.218298 0.43881 0.34661
1557 4 0.219174 0.456534 0.354147
1555 2 0.221888 0.481365 0.353041
1437 4 0.238241 0.440399 0.412546
434 4 0.401061 0.418537 0.362078
1058 4 0.0172161 0.0589103 0.456375
937 2 0.99928 0.0194454 0.455985
938 4 0.0149312 0.0383928 0.451379
1602 4 0.033259 0.0488952 0.446995
1600 2 0.0575853 0.0436467 0.449417
1601 4 0.0819115 0.0383981 0.451839
732 4 0.141839 0.0417007 0.420921
1478 4 0.0980732 0.0281614 0.445999
1477 2 0.109712 0.00754644 0.454045
1816 2 0.223065 0.0151743 0.43336
1817 4 0.23031 0.0250611 0.455153
961 2 0.226289 0.0253328 0.490125
962 4 0.241926 0.0212727 0.471042
89 3 0.496816 0.0182445 0.458052
1427 4 0.459926 0.0684587 0.437864
1426 2 0.473877 0.0515215 0.449851
1428 4 0.487828 0.0345842 0.461837
1057 2 0.0124183 0.0833316 0.458775
1059 4 0.00762051 0.107753 0.461175
368 4 0.034466 0.151687 0.448745
259 2 0.150107 0.161124 0.481522
260 4 0.158922 0.149987 0.460944
276 4 0.226788 0.109915 0.429512
274 2 0.232017 0.133853 0.434492
275 4 0.237246 0.157791 0.439473
686 4 0.243167 0.160681 0.458484
708 4 0.275932 0.139485 0.424187
685 2 0.255055 0.15347 0.479265
424 2 0.328986 0.12545 0.431458
426 4 0.328118 0.105163 0.446047
687 4 0.266944 0.146259 0.500046
257 4 0.394309 0.144471 0.422754
256 2 0.391584 0.161034 0.441286
346 2 0.00877261 0.213597 0.414761
367 2 0.0334591 0.166122 0.428353
375 4 0.234265 0.175397 0.448573
715 2 0.331876 0.179261 0.420146
374 4 0.266435 0.204051 0.423182
1151 4 0.256638 0.21144 0.487506
373 2 0.25035 0.189724 0.435878
1150 2 0.281594 0.21277 0.488279
649 2 0.328484 0.226791 0.449636
650 4 0.310675 0.244208 0.451785
1152 4 0.30655 0.214099 0.489052
258 4 0.388858 0.177597 0.459817
651 4 0.346294 0.209373 0.447487
716 4 0.344974 0.197026 0.431895
411 4 0.364183 0.209655 0.457051
409 2 0.383885 0.218758 0.469466
410 4 0.403588 0.22786 0.481881
320 4 0.345977 0.187867 0.505928
265 2 0.462319 0.2171 0.422544
266 4 0.461718 0.221029 0.44723
575 4 0.461803 0.19025 0.497983
616 2 0.0415043 0.317811 0.421762
617 4 0.0312098 0.316996 0.444534
2812 2 0.0366923 0.337144 0.475026
2813 4 0.020286 0.324397 0.461114
1041 4 0.10089 0.306362 0.486055
1039 2 0.086444 0.326135 0.491104
1135 2 0.163585 0.283739 0.483735
1136 4 0.177257 0.270665 0.467385
802 2 0.266795 0.282237 0.492351
803 4 0.274942 0.283871 0.468769
709 2 0.275763 0.294153 0.434203
711 4 0.283604 0.277885 0.451495
2814 4 0.0530987 0.34989 0.488937
1040 4 0.0719976 0.345908 0.496153
1160 4 0.0633068 0.365695 0.495611
753 4 0.487492 0.37716 0.421344
3601 2 0.498275 0.393951 0.492031
384 4 0.0367896 0.436473 0.478787
1190 4 0.137764 0.431902 0.496154
1189 2 0.15416 0.441698 0.480018
636 4 0.198324 0.503641 0.493176
1191 4 0.170557 0.451494 0.463882
824 4 0.0999375 0.0632929 0.549061
1128 4 0.12405 0.0185195 0.534456
823 2 0.0942645 0.0445396 0.564595
2428 2 0.116044 0.0802746 0.530428
2430 4 0.126204 0.0787847 0.50763
825 4 0.0885914 0.0257862 0.580129
1180 2 0.22577 0.042918 0.547828
963 4 0.210653 0.029393 0.509209
1181 4 0.222656 0.0359791 0.524009
1182 4 0.228883 0.0498568 0.571646
1032 4 0.24133 0.0141449 0.583228
843 4 0.302913 0.0349943 0.530092
951 4 0.29385 0.0272986 0.547723
949 2 0.277514 0.0206894 0.565461
950 4 0.261179 0.0140801 0.583199
841 2 0.323525 0.0336542 0.544182
93 3 0.39985 0.0173211 0.534819
842 4 0.344138 0.0323142 0.558272
1003 2 0.379991 0.0390607 0.559618
1005 4 0.361231 0.0227846 0.55673
2333 4 0.34604 0.0100464 0.559225
1004 4 0.398751 0.0553367 0.562506
95 3 0.411704 4.0895e-05 0.503538
91 1 0.417064 0.00520139 0.525062
1723 2 0.471423 0.0152913 0.525384
94 3 0.436717 0.0175246 0.52559
1724 4 0.450843 0.00109666 0.525017
1725 4 0.492004 0.029486 0.525751
4239 4 0.497172 0.0273955 0.54491
877 2 0.0294415 0.143974 0.558727
878 4 0.0109462 0.13447 0.544842
470 4 0.0177263 0.115511 0.544831
469 2 0.0103358 0.0923134 0.550526
1272 4 0.0641797 0.147254 0.561043
879 4 0.0479368 0.153478 0.572611
2429 4 0.105884 0.0817645 0.553225
1270 2 0.0884493 0.148737 0.566871
1271 4 0.112719 0.15022 0.572699
944 4 0.26192 0.144045 0.518637
943 2 0.259636 0.16304 0.534735
3054 4 0.396484 0.141668 0.543654
3052 2 0.410415 0.152474 0.525924
3053 4 0.424346 0.16328 0.508195
935 4 0.0089414 0.18991 0.547743
1033 2 0.140144 0.201246 0.537514
1034 4 0.137675 0.218312 0.555621
1035 4 0.142612 0.18418 0.519408
909 4 0.133808 0.234436 0.567598
261 4 0.141291 0.17226 0.502099
1221 4 0.202333 0.211066 0.515841
1219 2 0.222231 0.20108 0.527221
1220 4 0.24213 0.191094 0.538601
945 4 0.257351 0.182036 0.550832
791 4 0.268596 0.22068 0.547746
325 2 0.299736 0.214221 0.561714
326 4 0.31764 0.19688 0.563691
327 4 0.281831 0.231562 0.559738
900 4 0.337015 0.194078 0.563698
321 4 0.331381 0.206991 0.549768
319 2 0.338679 0.197429 0.527848
898 2 0.351087 0.183881 0.581676
576 4 0.478406 0.19067 0.545152
574 2 0.470105 0.19046 0.521567
1137 4 0.149912 0.296813 0.500085
813 4 0.205149 0.297047 0.539518
811 2 0.224649 0.282406 0.533989
812 4 0.244149 0.267765 0.528459
792 4 0.26058 0.26228 0.521177
804 4 0.258648 0.280604 0.515934
790 2 0.264588 0.24148 0.534461
1159 2 0.0616817 0.381512 0.514908
1161 4 0.0600565 0.397328 0.534206
895 2 0.129424 0.390074 0.548185
897 4 0.108769 0.388961 0.534138
896 4 0.150079 0.391187 0.562232
238 2 0.3136 0.392316 0.546567
240 4 0.306234 0.37733 0.527957
239 4 0.320967 0.407303 0.565177
1000 2 0.434153 0.397386 0.580676
3603 4 0.484618 0.409007 0.506591
1936 2 0.0165231 0.487384 0.535518
383 4 0.0146517 0.453577 0.520236
1938 4 0.0194831 0.462662 0.537814
382 2 0.0257207 0.445025 0.499511
1172 4 0.0785419 0.457914 0.516912
1171 2 0.101575 0.448721 0.513732
538 2 0.156211 0.465857 0.560722
1173 4 0.124609 0.439528 0.510551
539 4 0.136368 0.45825 0.573896
540 4 0.176054 0.473464 0.547547
663 4 0.471873 0.448814 0.540233
4084 2 0.449713 0.477255 0.517655
4085 4 0.459266 0.463949 0.536546
661 2 0.480897 0.434614 0.558729
1002 4 0.445376 0.416569 0.56922
4086 4 0.44016 0.490561 0.498764
2317 2 0.062913 0.00869032 0.606289
2318 4 0.0437608 0.00813448 0.622353
948 4 0.149315 0.0407972 0.641405
947 4 0.109276 0.0173205 0.660019
2319 4 0.0820651 0.00924617 0.590224
992 4 0.132054 0.0446763 0.594939
991 2 0.12448 0.0663075 0.604933
946 2 0.129296 0.0290588 0.650712
6 1 0.141164 0.00260463 0.596312
8 3 0.134429 0.0237702 0.5896
7 3 0.155191 0.00466092 0.614427
978 4 0.151189 0.0342722 0.598176
1211 4 0.21557 0.00136558 0.644242
1210 2 0.229277 0.0174086 0.657656
976 2 0.170274 0.0412476 0.612745
977 4 0.189359 0.0482229 0.627315
2201 4 0.293282 0.0289021 0.642148
2200 2 0.283488 0.0221425 0.620158
2202 4 0.273693 0.015383 0.598168
1239 4 0.309054 0.0349748 0.655453
1216 2 0.380479 0.00749855 0.626686
1218 4 0.393133 0.0184664 0.608118
2658 4 0.488908 0.0712388 0.643934
150 3 0.490347 0.0158804 0.629003
2656 2 0.496677 0.047483 0.64324
2342 4 0.456711 0.00780126 0.666418
1200 4 0.0533086 0.166826 0.637052
1073 4 0.0665296 0.150203 0.641895
1296 4 0.0451714 0.147446 0.638316
1294 2 0.0252778 0.13296 0.63389
1295 4 0.00538422 0.118474 0.629465
1072 2 0.0753272 0.130433 0.654422
1276 2 0.129688 0.13319 0.654179
1277 4 0.130413 0.114964 0.637077
993 4 0.116905 0.0879387 0.614928
1278 4 0.128963 0.151415 0.671281
1192 2 0.379381 0.140582 0.625161
1194 4 0.371714 0.16279 0.616605
1193 4 0.387047 0.118374 0.633716
3402 4 0.46405 0.122945 0.583778
3400 2 0.475545 0.112455 0.603349
3401 4 0.487039 0.101965 0.62292
1164 4 0.493279 0.0901969 0.639746
1162 2 0.492296 0.104487 0.66024
1198 2 0.0552031 0.178991 0.615289
1199 4 0.0570977 0.191156 0.593527
907 2 0.124146 0.232893 0.590608
851 4 0.100011 0.182716 0.640113
850 2 0.09885 0.206862 0.633726
852 4 0.0976886 0.231008 0.62734
908 4 0.114485 0.231351 0.613618
696 4 0.177184 0.20598 0.663631
695 4 0.195848 0.197117 0.618092
694 2 0.186516 0.201549 0.640862
899 4 0.365158 0.173684 0.599653
1024 2 0.415456 0.221085 0.651527
954 4 0.412597 0.209658 0.61346
1026 4 0.41038 0.205495 0.632649
953 4 0.45583 0.204373 0.58889
952 2 0.434213 0.207015 0.601175
984 4 0.00369435 0.263857 0.589793
982 2 0.026996 0.263238 0.598839
983 4 0.0502976 0.26262 0.607885
1209 4 0.0953212 0.295776 0.629902
1207 2 0.10077 0.271759 0.62558
1208 4 0.106219 0.247742 0.621257
3275 4 0.112975 0.32069 0.647854
856 2 0.141719 0.289318 0.661495
857 4 0.129238 0.309429 0.653436
3274 2 0.0983333 0.336913 0.660003
1066 2 0.286112 0.415856 0.648772
1006 2 0.403955 0.367109 0.644032
1007 4 0.381114 0.366193 0.654161
1176 4 0.370837 0.416044 0.633076
1008 4 0.426797 0.368026 0.633902
1001 4 0.42293 0.378203 0.592133
1067 4 0.277361 0.419032 0.625566
1174 2 0.361037 0.430003 0.651359
662 4 0.489921 0.420413 0.577225
4149 4 0.502217 0.427824 0.595997
1910 4 0.482275 0.42767 0.593491
1909 2 0.465378 0.437867 0.608843
1911 4 0.448481 0.448064 0.624196
1185 4 0.152663 0.0149686 0.688889
1212 4 0.242984 0.0334515 0.671069
1237 2 0.301777 0.0539315 0.670043
1238 4 0.2945 0.0728882 0.684633
2343 4 0.407599 0.013058 0.674237
2341 2 0.432155 0.0104296 0.670328
2440 2 0.476044 0.0195035 0.701592
2442 4 0.481004 0.0260912 0.725196
2441 4 0.471085 0.0129158 0.677987
34 3 0.0211725 0.117784 0.737278
1075 2 0.0025379 0.172671 0.722715
1074 4 0.0841247 0.110664 0.66695
1147 2 0.216429 0.0870819 0.744768
1149 4 0.24044 0.0880258 0.737859
888 4 0.307499 0.0855307 0.677676
886 2 0.319885 0.107071 0.680467
887 4 0.332272 0.128611 0.683257
1163 4 0.491314 0.118777 0.680734
1076 4 0.0198698 0.184728 0.70932
1064 4 0.130961 0.172346 0.677636
1063 2 0.148969 0.189671 0.678504
1065 4 0.166976 0.206996 0.679373
798 4 0.178683 0.222929 0.677134
796 2 0.198464 0.236546 0.684097
797 4 0.218244 0.250163 0.69106
806 4 0.235047 0.244294 0.724853
917 4 0.31574 0.185081 0.681427
916 2 0.304777 0.207234 0.685203
918 4 0.293815 0.229386 0.688979
807 4 0.277351 0.236382 0.699388
805 2 0.256199 0.240338 0.712121
43 3 0.290763 0.250009 0.690272
846 4 0.375587 0.186799 0.739025
1025 4 0.420531 0.236675 0.670405
822 4 0.016872 0.270366 0.710206
816 4 0.0683441 0.328362 0.733892
858 4 0.1542 0.269207 0.669555
1257 4 0.284462 0.297483 0.707894
45 3 0.323909 0.266043 0.682402
42 3 0.317124 0.253385 0.716849
41 1 0.307864 0.26345 0.698354
44 3 0.299416 0.284161 0.704526
1255 2 0.271518 0.315125 0.719993
1142 4 0.314548 0.254657 0.737231
831 4 0.367239 0.318246 0.74719
830 4 0.381742 0.294762 0.70549
829 2 0.374491 0.306504 0.72634
3122 4 0.496714 0.309825 0.715694
3276 4 0.0836913 0.353136 0.672152
814 2 0.0699338 0.337256 0.710578
780 4 0.0660468 0.34613 0.741031
815 4 0.0715235 0.34615 0.687264
885 4 0.083935 0.407872 0.698052
883 2 0.0914417 0.391937 0.715797
1078 2 0.14263 0.379279 0.747665
884 4 0.0989485 0.376001 0.733542
1079 4 0.119424 0.377086 0.73862
1281 4 0.0911554 0.417547 0.682188
1080 4 0.165837 0.381473 0.756711
2175 4 0.102775 0.370497 0.751583
2011 2 0.202021 0.388522 0.739542
2012 4 0.218597 0.391773 0.721108
1256 4 0.258573 0.332767 0.732092
1029 4 0.340471 0.382837 0.713836
1027 2 0.323638 0.39567 0.700525
1068 4 0.294862 0.41268 0.671978
1028 4 0.306805 0.408502 0.687215
3329 4 0.501047 0.402257 0.732561
3432 4 0.000678723 0.490554 0.67151
1280 4 0.0738345 0.464377 0.679415
3431 4 0.0210567 0.453923 0.698779
2015 4 0.0743112 0.485725 0.678228
3430 2 0.0108677 0.472239 0.685144
1279 2 0.0824949 0.440962 0.680802
1953 4 0.301433 0.426736 0.685298
1951 2 0.292762 0.449022 0.692602
1952 4 0.284091 0.471308 0.699906
929 4 0.281866 0.486709 0.710633
1175 4 0.351236 0.443962 0.669642
1205 4 0.471234 0.488328 0.757909
1204 2 0.485621 0.495963 0.738938
997 2 0.435982 0.488653 0.756475
999 4 0.455988 0.477409 0.766399
919 2 0.0570998 0.0763683 0.789771
1285 2 0.00643907 0.083344 0.80994
921 4 0.0794707 0.0694116 0.798508
2047 2 0.18685 0.996695 0.781121
1196 4 0.21399 0.0138028 0.807783
964 2 0.20159 0.0765835 0.828019
966 4 0.181816 0.062289 0.822557
1195 2 0.23775 0.00835676 0.813351
2049 4 0.194792 0.0159608 0.794938
965 4 0.221364 0.090878 0.833481
1197 4 0.261509 0.00291077 0.818919
1287 4 0.017588 0.0905262 0.788744
920 4 0.034729 0.0833249 0.781034
32 3 0.0435768 0.130318 0.76473
1124 4 0.0562248 0.131992 0.78082
31 1 0.0354695 0.111425 0.754411
1123 2 0.0530202 0.156631 0.778023
1056 4 0.053634 0.128374 0.801417
35 3 0.0528876 0.0994381 0.745951
33 3 0.0239507 0.0987047 0.770029
1054 2 0.0661518 0.122417 0.822225
1131 4 0.0717682 0.103276 0.75121
1227 4 0.146862 0.125039 0.76913
1225 2 0.162405 0.105665 0.766256
1129 2 0.0902944 0.119059 0.756941
1130 4 0.108821 0.134842 0.762672
1148 4 0.192417 0.086138 0.751677
1226 4 0.177948 0.086292 0.763382
958 2 0.248733 0.111008 0.824183
960 4 0.234038 0.103534 0.842981
959 4 0.263429 0.118482 0.805385
1086 4 0.269959 0.137243 0.803067
1084 2 0.282088 0.157537 0.794931
2400 4 0.424259 0.16799 0.782212
2321 4 0.501626 0.0927845 0.81949
1113 4 0.442953 0.109257 0.813148
2398 2 0.433417 0.149242 0.79599
2399 4 0.442575 0.130493 0.809767
2320 2 0.480629 0.105005 0.813574
2322 4 0.459633 0.117225 0.807657
1111 2 0.425512 0.0993409 0.828071
1676 4 0.0390117 0.182679 0.806843
922 2 0.0476861 0.213602 0.792655
924 4 0.0368781 0.191538 0.788014
923 4 0.0584942 0.235666 0.797296
1125 4 0.0498155 0.18127 0.775227
1675 2 0.0252385 0.171985 0.824763
1235 4 0.121943 0.229171 0.754855
1085 4 0.294217 0.177831 0.786794
1298 4 0.276658 0.229955 0.783734
1297 2 0.276764 0.233231 0.808522
1143 4 0.2789 0.231363 0.763448
1141 2 0.296724 0.24301 0.75034
1299 4 0.276869 0.236506 0.83331
844 2 0.393329 0.182289 0.756056
48 3 0.411086 0.235868 0.804199
845 4 0.411071 0.177778 0.773087
3486 4 0.414841 0.246989 0.81959
1051 2 0.399848 0.185969 0.821336
1052 4 0.376912 0.177569 0.826679
1053 4 0.422784 0.19437 0.815994
818 4 0.474318 0.201271 0.759438
819 4 0.428313 0.183285 0.767231
46 1 0.433628 0.230499 0.805401