ITEM: TIMESTEP
1380000
ITEM: NUMBER OF ATOMS
4590
ITEM: BOX BOUNDS pp pp pp
-9.9985700000000008e+00 9.9985700000000008e+00
-9.9985700000000008e+00 9.9985700000000008e+00
-9.9985700000000008e+00 9.9985700000000008e+00
ITEM: ATOMS id type xs ys zs
1667 4 0.041699 0.0558693 0.059769
1666 2 0.0530531 0.0779271 0.0566518
578 4 0.102991 0.0387375 0.0774542
491 4 0.238157 0.0536353 0.0178848
490 2 0.262511 0.050135 0.0223321
492 4 0.286866 0.0466348 0.0267794
486 4 0.305375 0.0472095 0.0229298
484 2 0.317057 0.0328494 0.0397373
485 4 0.328739 0.0184892 0.0565449
1607 4 0.347546 0.0143912 0.0498493
2467 2 0.489427 0.0363032 0.0651956
2468 4 0.48995 0.0492959 0.0438391
2469 4 0.488905 0.0233106 0.086552
1760 4 0.493656 0.00390881 0.0917168
1668 4 0.0644072 0.0999849 0.0535347
1246 2 0.0224492 0.156587 0.0439084
1248 4 0.0295443 0.146573 0.0221239
3234 4 0.00923699 0.140175 0.0200754
1247 4 0.0153541 0.1666 0.065693
591 4 0.0124794 0.155988 0.082592
359 4 0.225551 0.101405 0.016999
358 2 0.246565 0.114057 0.0121498
533 4 0.224459 0.10572 0.0690419
532 2 0.208279 0.122551 0.0779927
422 4 0.188357 0.157947 0.0808401
665 4 0.316176 0.135991 0.0578195
664 2 0.328186 0.147113 0.0389188
360 4 0.267579 0.126709 0.00730057
558 4 0.406897 0.114413 0.0603943
556 2 0.382109 0.116232 0.0576765
557 4 0.35732 0.118051 0.0549587
666 4 0.340196 0.158235 0.020018
629 4 0.418563 0.129449 0.0652346
867 4 0.402965 0.159266 0.0018819
297 4 0.432996 0.114742 0.011308
295 2 0.435266 0.124936 0.0340259
296 4 0.437536 0.135131 0.0567439
628 2 0.419413 0.147732 0.082269
555 4 0.0922231 0.209759 0.0443341
554 4 0.135058 0.215574 0.0191929
553 2 0.11364 0.212667 0.0317635
1133 4 0.132611 0.230166 0.00684292
1132 2 0.155229 0.240741 0.00550341
421 2 0.176968 0.166362 0.0602324
423 4 0.16558 0.174776 0.0396248
1134 4 0.177846 0.251316 0.00416391
865 2 0.379521 0.164362 0.00892578
866 4 0.356078 0.169459 0.0159697
771 4 0.465272 0.194753 0.0796195
770 4 0.438686 0.209642 0.0399684
769 2 0.451979 0.202197 0.0597939
836 4 0.0800219 0.301717 0.0614354
835 2 0.0840517 0.326379 0.0622859
740 4 0.312355 0.321722 0.0723455
756 4 0.293881 0.315897 0.0702002
754 2 0.281592 0.294525 0.0743679
755 4 0.269303 0.273152 0.0785356
1070 4 0.334612 0.316753 0.00328168
739 2 0.331906 0.335232 0.0801174
322 2 0.358933 0.259373 0.074097
323 4 0.351439 0.256868 0.0503746
619 2 0.0412374 0.372116 0.0239506
621 4 0.0382353 0.372593 0.0487687
2787 4 0.0433462 0.369297 0.0680852
294 4 0.0707397 0.417006 0.0531576
620 4 0.0442396 0.37164 0.999132
837 4 0.0880815 0.351041 0.0631363
292 2 0.0754313 0.393868 0.0613909
293 4 0.080123 0.370729 0.0696241
915 4 0.100193 0.367812 0.0641448
913 2 0.123898 0.364064 0.0571328
914 4 0.147604 0.360316 0.0501208
288 4 0.166154 0.359259 0.040062
286 2 0.176033 0.360483 0.0171256
356 4 0.241603 0.350948 0.0265753
355 2 0.254645 0.347015 0.00560847
251 4 0.299728 0.406861 0.0427432
609 4 0.305623 0.404509 0.06148
607 2 0.326224 0.409831 0.0746131
672 4 0.456802 0.355025 0.0266957
670 2 0.443304 0.371388 0.0134584
562 2 0.489058 0.35046 0.070307
563 4 0.485521 0.357448 0.0465618
552 4 0.0840172 0.429417 0.0447096
550 2 0.0838455 0.445842 0.0258586
551 4 0.0836739 0.462268 0.00700769
1440 4 0.1491 0.479758 0.0692749
1438 2 0.160481 0.459734 0.0790058
1766 4 0.0959076 0.491125 0.0682516
901 2 0.25752 0.460871 0.00725313
903 4 0.25254 0.437773 0.0154285
250 2 0.277112 0.41506 0.0359265
902 4 0.2625 0.48397 0.999078
252 4 0.254496 0.42326 0.0291097
957 4 0.37245 0.423073 0.00448217
523 2 0.35644 0.496113 0.0709318
463 2 0.00267526 0.0172545 0.0833363
464 4 0.0235222 0.028818 0.0908774
2760 4 0.0179964 0.0617693 0.10416
577 2 0.121698 0.0233228 0.0835874
579 4 0.140405 0.0079081 0.0897206
2724 4 0.449759 0.00910697 0.134253
2722 2 0.470219 0.0139225 0.120712
2723 4 0.490679 0.0187381 0.10717
2758 2 0.00848069 0.0842929 0.0989333
235 2 0.0733023 0.116319 0.159707
2759 4 0.998965 0.106817 0.0937069
381 4 0.997145 0.096503 0.160199
237 4 0.0902736 0.117308 0.141372
477 4 0.0976403 0.134834 0.134566
475 2 0.106291 0.149725 0.116439
476 4 0.114942 0.164616 0.0983116
567 4 0.173061 0.141859 0.150285
534 4 0.192099 0.139381 0.0869436
566 4 0.182192 0.148212 0.101531
565 2 0.177627 0.145035 0.125908
630 4 0.420263 0.166016 0.0993033
2591 4 0.476493 0.132741 0.115159
2894 4 0.484388 0.142054 0.097556
2893 2 0.469532 0.161493 0.0923977
2590 2 0.479897 0.131751 0.13991
2466 4 0.490953 0.123942 0.101114
339 4 0.113734 0.247519 0.133862
371 4 0.189461 0.244193 0.162057
370 2 0.204112 0.223969 0.160811
372 4 0.218762 0.203746 0.159565
310 2 0.315055 0.204361 0.152074
283 2 0.257615 0.222607 0.167293
285 4 0.27901 0.235328 0.169659
312 4 0.30605 0.217753 0.132976
461 4 0.31019 0.26169 0.135664
311 4 0.32406 0.190969 0.171172
354 4 0.277781 0.249943 0.1514
352 2 0.276991 0.254366 0.126804
2895 4 0.454677 0.180932 0.0872393
517 2 0.470509 0.245802 0.107396
519 4 0.492781 0.235798 0.102007
337 2 0.134651 0.250907 0.120588
338 4 0.155567 0.254294 0.107313
506 4 0.173909 0.261121 0.114665
505 2 0.19788 0.267955 0.116635
507 4 0.221851 0.274789 0.118605
764 4 0.279105 0.256663 0.171388
353 4 0.276201 0.25879 0.102208
763 2 0.294009 0.276644 0.169442
612 4 0.307626 0.316334 0.168423
255 4 0.385525 0.260805 0.0990563
460 2 0.331546 0.258305 0.123109
324 4 0.366426 0.261879 0.0978193
253 2 0.410459 0.262647 0.0987737
462 4 0.352903 0.25492 0.110554
254 4 0.435393 0.264488 0.0984912
518 4 0.448237 0.255807 0.112785
622 2 0.427278 0.331462 0.139142
624 4 0.418741 0.308 0.140497
2785 2 0.0298709 0.379536 0.0864903
2786 4 0.0163957 0.389776 0.104896
313 2 0.00462875 0.39728 0.140485
315 4 0.00911977 0.403468 0.16429
455 4 0.0937879 0.360479 0.0791986
704 4 0.0976511 0.353461 0.149279
454 2 0.0943535 0.358053 0.104078
417 4 0.10973 0.364623 0.14122
456 4 0.0949192 0.355627 0.128957
415 2 0.117683 0.38253 0.156753
610 2 0.302602 0.339107 0.159405
302 4 0.30791 0.379525 0.155715
301 2 0.320394 0.401158 0.156874
611 4 0.297578 0.36188 0.150386
741 4 0.351458 0.348742 0.0878892
387 4 0.388682 0.374337 0.121262
385 2 0.368994 0.370795 0.106262
386 4 0.349305 0.367253 0.0912622
13 3 0.387868 0.382458 0.137962
11 1 0.409014 0.385976 0.146842
15 3 0.419985 0.401841 0.134734
12 3 0.420826 0.366257 0.145958
623 4 0.435814 0.354924 0.137787
494 4 0.432904 0.415449 0.14026
564 4 0.492594 0.343471 0.0940522
1439 4 0.171863 0.43971 0.0887367
626 4 0.241586 0.467687 0.152982
303 4 0.332877 0.422792 0.158034
63 3 0.289133 0.485763 0.116977
524 4 0.351942 0.476715 0.0860531
608 4 0.346824 0.415153 0.0877462
658 2 0.411523 0.488023 0.158632
659 4 0.409629 0.469385 0.142071
495 4 0.422037 0.462503 0.127277
493 2 0.42747 0.438976 0.133768
675 4 0.0849079 0.00743065 0.205864
673 2 0.0982307 0.0183785 0.22397
674 4 0.111553 0.0293264 0.242076
544 2 0.10943 0.0759174 0.23454
691 2 0.165791 0.0766562 0.241201
545 4 0.102539 0.0776039 0.210563
652 2 0.243369 0.0648647 0.183953
654 4 0.223029 0.0790629 0.180814
1505 4 0.264589 0.0311816 0.184433
653 4 0.26371 0.0506666 0.187093
1504 2 0.28324 0.0146465 0.186414
24 3 0.382803 0.0642429 0.16711
21 1 0.378426 0.0702408 0.189093
23 3 0.359512 0.0591651 0.19671
759 4 0.413742 0.066617 0.211594
25 3 0.39628 0.0650841 0.202257
757 2 0.409457 0.0642953 0.236118
236 4 0.056331 0.115331 0.178042
582 4 0.166428 0.11992 0.180757
692 4 0.187957 0.079942 0.230108
581 4 0.208104 0.0922829 0.180654
580 2 0.187266 0.106101 0.180706
599 4 0.214167 0.142234 0.240798
598 2 0.206962 0.118894 0.235457
600 4 0.199757 0.0955543 0.230116
738 4 0.244363 0.149582 0.189884
404 4 0.192838 0.14756 0.232461
403 2 0.170397 0.158583 0.232651
249 4 0.208412 0.159492 0.234939
22 3 0.374639 0.092912 0.190003
2592 4 0.483302 0.130761 0.164661
363 4 0.0470978 0.234131 0.202913
405 4 0.147955 0.169607 0.23284
284 4 0.23622 0.209886 0.164927
737 4 0.2276 0.194465 0.175559
736 2 0.235981 0.172023 0.182722
2453 4 0.503244 0.209137 0.251578
332 4 0.443982 0.208133 0.221938
331 2 0.465239 0.210832 0.234824
333 4 0.486496 0.213531 0.247709
361 2 0.0601233 0.251705 0.215023
648 4 0.0302417 0.314168 0.232701
646 2 0.0446362 0.32814 0.217776
362 4 0.0731488 0.26928 0.227133
749 4 0.135612 0.290453 0.240667
750 4 0.0868562 0.282701 0.232699
748 2 0.111234 0.286577 0.236683
765 4 0.308913 0.296625 0.167497
727 2 0.331829 0.314535 0.249124
728 4 0.346448 0.319694 0.229506
705 4 0.0701153 0.334684 0.18656
647 4 0.0590306 0.342112 0.20285
703 2 0.0838832 0.344073 0.16792
416 4 0.125635 0.400437 0.172286
14 3 0.40729 0.392701 0.168982
645 4 0.399876 0.398626 0.186188
643 2 0.420791 0.405924 0.197784
107 3 0.48596 0.410151 0.212893
644 4 0.441707 0.413221 0.20938
3716 4 0.0531996 0.492638 0.216008
3715 2 0.0293741 0.490313 0.223227
1756 2 0.0990756 0.494043 0.195609
1758 4 0.105347 0.484569 0.217882
603 4 0.100136 0.471601 0.233071
291 4 0.129612 0.496977 0.255657
1659 4 0.228116 0.500792 0.243321
625 2 0.22526 0.471739 0.171482
627 4 0.208934 0.475791 0.189981
639 4 0.212176 0.475258 0.208987
637 2 0.196509 0.464549 0.225267
1575 4 0.349382 0.504014 0.201105
110 3 0.453379 0.428024 0.216344
106 1 0.473898 0.42866 0.206484
109 3 0.471596 0.428488 0.183396
108 3 0.485304 0.447729 0.213166
232 2 0.0454988 0.019877 0.288
234 4 0.0575702 0.0387136 0.299165
233 4 0.0334273 0.0010405 0.276836
428 4 0.0765075 0.0375476 0.300062
512 4 0.0299427 0.070261 0.260776
511 2 0.0187105 0.0883958 0.27382
693 4 0.143625 0.0733705 0.252294
546 4 0.116321 0.0742309 0.258516
1464 4 0.151521 0.0168823 0.261616
427 2 0.0885876 0.0522576 0.283848
429 4 0.100668 0.0669675 0.267635
731 4 0.121111 0.0674101 0.279346
1462 2 0.135627 0.036138 0.26296
1463 4 0.119734 0.0553936 0.264303
1406 4 0.150585 0.0107668 0.320818
683 4 0.281547 0.0618566 0.308335
744 4 0.408518 0.081007 0.269656
1517 4 0.402702 0.0359773 0.333954
758 4 0.405172 0.0619737 0.260642
480 4 0.452041 0.0470074 0.255441
479 4 0.43411 0.0549795 0.301437
478 2 0.443075 0.0509935 0.278439
2483 4 0.9999 0.123932 0.290556
398 4 0.0794899 0.130038 0.331635
513 4 0.00747822 0.106531 0.286864
392 4 0.0654944 0.150276 0.285426
730 2 0.134205 0.0869962 0.287719
732 4 0.147299 0.106582 0.296092
473 4 0.210155 0.14434 0.327356
466 2 0.244943 0.128167 0.327647
467 4 0.224741 0.136246 0.315329
247 2 0.22061 0.17104 0.25346
682 2 0.277193 0.0845691 0.317841
684 4 0.27284 0.107282 0.327348
30 3 0.320395 0.154748 0.278113
631 2 0.294053 0.138523 0.309221
632 4 0.306517 0.15128 0.291697
707 4 0.324966 0.0924821 0.302448
633 4 0.28159 0.125766 0.326745
468 4 0.265146 0.120087 0.339966
706 2 0.346975 0.104256 0.300971
26 1 0.339786 0.158699 0.266842
742 2 0.398207 0.10022 0.281891
29 3 0.343882 0.141469 0.25185
708 4 0.368983 0.116031 0.299495
743 4 0.387895 0.119434 0.294126
349 2 0.394055 0.13772 0.32641
351 4 0.376054 0.130537 0.310613
27 3 0.357185 0.159793 0.281849
453 4 0.460975 0.101499 0.321034
451 2 0.443469 0.116163 0.331216
452 4 0.425962 0.130827 0.341398
393 4 0.0614513 0.190608 0.256139
391 2 0.0634728 0.170442 0.270783
388 2 0.0268237 0.24462 0.326775
474 4 0.178302 0.179337 0.31119
472 2 0.194228 0.161838 0.319273
248 4 0.232807 0.182587 0.271982
279 4 0.248674 0.192534 0.27768
277 2 0.25149 0.216423 0.284501
278 4 0.254305 0.240313 0.291323
309 4 0.322497 0.248169 0.28214
28 3 0.338378 0.178896 0.255504
2681 4 0.489906 0.206948 0.315212
419 4 0.438082 0.227638 0.302753
2680 2 0.491118 0.212896 0.290956
2682 4 0.492329 0.218844 0.266701
418 2 0.426073 0.219945 0.32329
390 4 0.0289483 0.26617 0.314275
444 4 0.0458753 0.268638 0.30417
442 2 0.0582711 0.290117 0.300975
443 4 0.070667 0.311595 0.297781
299 4 0.14533 0.30023 0.255384
298 2 0.152683 0.322549 0.263924
537 4 0.241003 0.301866 0.271293
535 2 0.249797 0.280647 0.281172
536 4 0.258592 0.259428 0.29105
308 4 0.311205 0.296871 0.283303
307 2 0.316851 0.27252 0.282721
729 4 0.31721 0.309376 0.268741
498 4 0.310008 0.31649 0.285694
496 2 0.324529 0.323094 0.304947
497 4 0.33905 0.329698 0.324201
547 2 0.0231374 0.333096 0.323868
548 4 0.0409409 0.344699 0.310693
406 2 0.0968126 0.334291 0.328973
408 4 0.0944685 0.352642 0.312152
300 4 0.160036 0.344869 0.272465
735 4 0.16905 0.368929 0.31881
733 2 0.168068 0.36567 0.294039
734 4 0.167086 0.362412 0.269268
438 4 0.249265 0.40154 0.312121
436 2 0.249586 0.405998 0.28752
437 4 0.249907 0.410456 0.262919
587 4 0.456612 0.372019 0.31013
586 2 0.439204 0.354408 0.313599
588 4 0.421797 0.336798 0.317068
2463 4 0.0011755 0.438381 0.272268
775 2 0.0750609 0.502925 0.319085
289 2 0.147771 0.479947 0.253331
602 4 0.0943399 0.427963 0.256794
601 2 0.0972381 0.449782 0.244932
638 4 0.180842 0.45384 0.241547
290 4 0.165929 0.462916 0.251006
768 4 0.172253 0.44622 0.259487
766 2 0.179936 0.440576 0.282601
767 4 0.187618 0.434931 0.305716
542 4 0.402262 0.456078 0.286922
541 2 0.400305 0.448097 0.310537
543 4 0.398347 0.440116 0.334152
2756 4 0.0149211 0.0550005 0.383778
317 4 0.0299666 0.0509287 0.372557
316 2 0.0455216 0.0372343 0.386546
318 4 0.0610766 0.02354 0.400535
1602 4 0.0607418 0.00403362 0.39349
605 4 0.173678 0.0614838 0.339627
439 2 0.238118 0.05365 0.381993
440 4 0.243649 0.0481466 0.358238
604 2 0.191337 0.0791377 0.338338
441 4 0.232587 0.0591534 0.405748
1670 4 0.329836 0.0547148 0.388778
1669 2 0.34528 0.0647218 0.371851
1518 4 0.370138 0.0737438 0.337697
1516 2 0.38642 0.0548606 0.335825
1427 4 0.387546 0.0169617 0.373089
1426 2 0.406333 0.0291086 0.384256
1671 4 0.360723 0.0747287 0.354923
1428 4 0.42512 0.0412554 0.395423
397 2 0.103255 0.125842 0.338175
399 4 0.127021 0.121646 0.344716
606 4 0.208997 0.0967917 0.337049
375 4 0.225772 0.147735 0.411446
276 4 0.214331 0.152984 0.34416
274 2 0.217991 0.153878 0.368878
275 4 0.221651 0.154772 0.393596
726 4 0.274872 0.100268 0.344944
724 2 0.285404 0.115951 0.361324
725 4 0.295937 0.131634 0.377704
350 4 0.412055 0.144904 0.342208
698 4 0.341688 0.133804 0.362198
699 4 0.361096 0.0915631 0.343765
431 4 0.334133 0.0936179 0.412805
697 2 0.351392 0.112683 0.352982
516 4 0.498409 0.134357 0.381596
514 2 0.492489 0.15865 0.381583
257 4 0.488289 0.124015 0.394834
256 2 0.470079 0.118296 0.410985
389 4 0.024699 0.22307 0.339276
509 4 0.279614 0.223439 0.401958
487 2 0.32175 0.23473 0.388913
489 4 0.302775 0.245171 0.37642
488 4 0.340725 0.224288 0.401407
515 4 0.486569 0.182943 0.38157
270 4 0.471891 0.23246 0.375071
306 4 0.430273 0.212998 0.35588
304 2 0.448814 0.215747 0.372429
305 4 0.467354 0.218496 0.388978
420 4 0.414063 0.212252 0.343827
268 2 0.494396 0.243349 0.375418
616 2 0.0780335 0.297395 0.379719
617 4 0.070421 0.286962 0.401128
618 4 0.0856459 0.307828 0.358309
407 4 0.0991566 0.31594 0.345793
344 4 0.227499 0.301666 0.355944
343 2 0.215398 0.316031 0.372449
402 4 0.197814 0.327642 0.406535
378 4 0.320953 0.3138 0.381958
1260 4 0.256724 0.279047 0.394231
376 2 0.338404 0.324795 0.367825
377 4 0.355856 0.33579 0.353693
433 2 0.393815 0.330347 0.336516
434 4 0.418634 0.328425 0.334164
1715 4 0.426816 0.334433 0.351213
677 4 0.143334 0.343099 0.380585
676 2 0.166237 0.343842 0.390588
345 4 0.203296 0.330396 0.388953
678 4 0.18914 0.344586 0.400592
400 2 0.215598 0.339051 0.419904
435 4 0.368997 0.332269 0.338868
593 4 0.347514 0.362785 0.383054
592 2 0.348109 0.383465 0.369013
594 4 0.348705 0.404146 0.354972
1714 2 0.435859 0.336795 0.374404
1716 4 0.444903 0.339157 0.397595
3988 2 0.490077 0.40742 0.414644
776 4 0.0888349 0.497891 0.339336
501 4 0.106635 0.502831 0.345387
499 2 0.129752 0.500482 0.336152
414 4 0.182459 0.432973 0.348232
413 4 0.21972 0.466323 0.347918
412 2 0.20109 0.449648 0.348075
1436 4 0.234909 0.453435 0.348842
1557 4 0.234552 0.473312 0.400552
1437 4 0.277813 0.47785 0.340848
1435 2 0.256361 0.465643 0.344845
3 3 0.306478 0.475571 0.40312
714 4 0.386345 0.516241 0.356154
712 2 0.377806 0.493225 0.35141
713 4 0.369267 0.470209 0.346666
614 4 0.345765 0.420707 0.341366
613 2 0.363095 0.434494 0.352975
615 4 0.380424 0.448282 0.364585
447 4 0.398818 0.446687 0.353745
445 2 0.420845 0.444977 0.365453
446 4 0.442872 0.443267 0.377161
120 3 0.457996 0.44692 0.364021
118 3 0.493268 0.4571 0.355662
119 3 0.486268 0.435352 0.386033
117 3 0.475869 0.471469 0.385719
116 1 0.478241 0.45261 0.372762
3989 4 0.495273 0.418894 0.393045
368 4 0.0921549 0.0491611 0.456685
367 2 0.085424 0.0731398 0.454473
1818 4 0.230349 0.00299628 0.475791
961 2 0.28311 0.0662655 0.462259
962 4 0.276455 0.0500584 0.480098
963 4 0.289764 0.0824726 0.44442
426 4 0.369698 0.0462756 0.469545
424 2 0.373184 0.0693061 0.460455
1218 4 0.382073 0.0396312 0.483836
458 4 0.0145786 0.135421 0.476176
718 2 0.00707488 0.0998709 0.478265
719 4 0.021132 0.118505 0.469302
457 2 0.0248838 0.151434 0.459971
369 4 0.0786931 0.0971185 0.45226
260 4 0.104823 0.153255 0.484588
687 4 0.163771 0.141172 0.422057
685 2 0.171747 0.132547 0.444129
686 4 0.179722 0.123922 0.466201
1152 4 0.186806 0.12679 0.485293
430 2 0.316139 0.0972911 0.429773
321 4 0.290849 0.115881 0.458216
432 4 0.298146 0.100964 0.446741
319 2 0.291635 0.137173 0.471301
320 4 0.292421 0.158464 0.484386
425 4 0.37667 0.0923365 0.451366
258 4 0.451868 0.112578 0.427136
2654 4 0.0798194 0.172739 0.430266
459 4 0.0351891 0.167446 0.443767
2653 2 0.0599415 0.187325 0.434423
2655 4 0.0400636 0.201912 0.43858
348 4 0.0458153 0.217832 0.449981
2849 4 0.0272198 0.218252 0.440519
346 2 0.056368 0.233405 0.466452
2848 2 0.00836971 0.234607 0.442057
347 4 0.0669206 0.248979 0.482923
259 2 0.114835 0.17616 0.485119
261 4 0.124848 0.199065 0.48565
1035 4 0.113498 0.211116 0.495605
373 2 0.232141 0.166069 0.42721
327 4 0.207241 0.194364 0.464638
325 2 0.22096 0.214924 0.468413
374 4 0.238509 0.184403 0.442974
992 4 0.212695 0.254866 0.488807
510 4 0.249721 0.1965 0.431646
8 3 0.223166 0.252359 0.509304
696 4 0.204903 0.245341 0.507666
694 2 0.180017 0.247187 0.5061
326 4 0.234679 0.235484 0.472189
7 3 0.245353 0.253016 0.478973
650 4 0.25511 0.234099 0.479361
508 2 0.264668 0.20997 0.416802
649 2 0.272073 0.215876 0.481673
651 4 0.289036 0.197653 0.483986
717 4 0.354736 0.229801 0.414661
576 4 0.355096 0.176795 0.493968
715 2 0.350959 0.239798 0.437266
575 4 0.379758 0.174843 0.450509
574 2 0.367427 0.175819 0.472239
266 4 0.385028 0.16853 0.432772
265 2 0.404696 0.183544 0.436368
267 4 0.424364 0.198558 0.439965
583 2 0.460686 0.204561 0.43806
584 4 0.484022 0.199123 0.430915
585 4 0.437351 0.21 0.445206
872 4 0.422795 0.215222 0.455807
871 2 0.424058 0.240181 0.456597
2813 4 0.0492114 0.322161 0.495714
3354 4 0.0269877 0.322763 0.495193
1136 4 0.141822 0.299294 0.453739
1135 2 0.132918 0.311645 0.473572
1137 4 0.124014 0.323995 0.493406
6 1 0.244768 0.256191 0.501748
991 2 0.20676 0.265087 0.466774
993 4 0.200824 0.275309 0.444741
1259 4 0.262068 0.257422 0.439002
1258 2 0.259396 0.268235 0.416617
10 3 0.250983 0.277578 0.506503
711 4 0.261658 0.263008 0.469804
709 2 0.284957 0.271948 0.468265
710 4 0.308257 0.280889 0.466726
716 4 0.347182 0.249795 0.459871
873 4 0.425321 0.26514 0.457387
1010 4 0.484177 0.306348 0.492498
2812 2 0.0541954 0.346097 0.490482
2814 4 0.0591793 0.370034 0.48525
503 4 0.246401 0.367068 0.42819
401 4 0.233382 0.35046 0.433274
502 2 0.233744 0.387884 0.433818
504 4 0.221088 0.408701 0.439446
336 4 0.314373 0.389539 0.412542
334 2 0.324502 0.412378 0.411546
3990 4 0.48488 0.395946 0.436243
753 4 0.413478 0.380118 0.472531
751 2 0.432428 0.36564 0.480045
384 4 0.0310914 0.453898 0.440065
382 2 0.0135347 0.45377 0.457867
539 4 0.164231 0.493232 0.494277
1555 2 0.237432 0.459957 0.421492
538 2 0.184937 0.504717 0.486245
636 4 0.212493 0.426857 0.435045
635 4 0.165781 0.444701 0.434505
772 2 0.231275 0.433991 0.470383
773 4 0.228192 0.428628 0.446157
634 2 0.189137 0.435779 0.434775
1393 2 0.232301 0.498548 0.460931
1395 4 0.239666 0.476948 0.450712
1556 4 0.240311 0.446601 0.442433
774 4 0.234358 0.439354 0.494609
669 4 0.259736 0.437746 0.448588
668 4 0.309608 0.44131 0.449459
1 1 0.322973 0.468422 0.41779
667 2 0.284672 0.439528 0.449024
4 3 0.313385 0.456808 0.435441
240 4 0.347602 0.438642 0.425941
2 3 0.337325 0.454376 0.40657
5 3 0.334637 0.486317 0.425686
1586 4 0.343571 0.478271 0.44346
335 4 0.33463 0.435216 0.41055
239 4 0.363524 0.436229 0.473284
238 2 0.355563 0.437435 0.449612
937 2 0.0574454 0.030726 0.508933
938 4 0.0614506 0.0553551 0.510529
1059 4 0.0664719 0.075466 0.516655
939 4 0.0534402 0.006097 0.507336
2429 4 0.116865 0.0495342 0.552297
824 4 0.112285 0.0482955 0.571122
823 2 0.0990983 0.0451191 0.592127
2428 2 0.136204 0.0490554 0.536456
2430 4 0.155544 0.0485765 0.520615
1057 2 0.0855133 0.0716275 0.532399
1058 4 0.104555 0.067789 0.548143
944 4 0.117175 0.0673491 0.565371
1031 4 0.215297 0.0705577 0.554606
1182 4 0.232628 0.0658973 0.542896
1030 2 0.205195 0.0768402 0.576598
86 1 0.404917 0.0323396 0.558876
87 3 0.383647 0.0352299 0.567146
88 3 0.403545 0.0271215 0.536308
1216 2 0.373222 0.0238983 0.501137
90 3 0.415116 0.0153922 0.570164
1217 4 0.364372 0.00816535 0.518437
842 4 0.357736 0.993623 0.529638
89 3 0.416821 0.0520497 0.56174
943 2 0.124152 0.0913225 0.564038
945 4 0.131129 0.115296 0.562704
1180 2 0.244753 0.0873394 0.538606
1151 4 0.184067 0.154969 0.526514
1220 4 0.193257 0.146128 0.543182
1150 2 0.185436 0.140879 0.505904
1219 2 0.192267 0.164778 0.559808
1181 4 0.256878 0.108781 0.534316
887 4 0.300887 0.147501 0.53382
411 4 0.297041 0.177999 0.490375
886 2 0.301894 0.164374 0.552245
1062 4 0.472251 0.107724 0.556851
1060 2 0.495911 0.108343 0.548788
877 2 0.0291396 0.21401 0.560156
1272 4 0.0705819 0.205248 0.559655
879 4 0.0539039 0.217453 0.560388
878 4 0.00437528 0.210567 0.559924
470 4 0.00141024 0.209632 0.539958
1270 2 0.0857269 0.194505 0.576399
1033 2 0.129133 0.226024 0.508194
1034 4 0.144768 0.240933 0.520782
695 4 0.155131 0.249034 0.504534
1221 4 0.191276 0.183427 0.576433
9 3 0.259433 0.241268 0.511781
409 2 0.320068 0.177617 0.50011
1239 4 0.270008 0.23912 0.5569
1238 4 0.293938 0.198514 0.573608
1237 2 0.281973 0.218817 0.565254
888 4 0.302902 0.181247 0.570669
791 4 0.275297 0.244686 0.521015
410 4 0.343095 0.177235 0.509846
2611 2 0.0229548 0.289551 0.514682
2613 4 0.0373664 0.307176 0.504345
1041 4 0.113638 0.324856 0.510977
790 2 0.294804 0.259977 0.524307
804 4 0.310343 0.284431 0.547511
792 4 0.31431 0.275269 0.527599
812 4 0.332278 0.278789 0.540606
811 2 0.333234 0.301409 0.529996
802 2 0.293395 0.293996 0.563209
813 4 0.33419 0.32403 0.519386
560 4 0.400406 0.301031 0.514454
559 2 0.412503 0.322101 0.508547
1009 2 0.464086 0.320854 0.495834
934 2 0.0100134 0.348462 0.530603
935 4 0.00128064 0.36013 0.55092
1039 2 0.113293 0.34434 0.526643
1040 4 0.112949 0.363825 0.542308
1160 4 0.166811 0.421678 0.56891
897 4 0.148999 0.408963 0.570646
1159 2 0.186137 0.41353 0.555299
1161 4 0.205464 0.405382 0.541687
1173 4 0.22263 0.414222 0.544109
561 4 0.424599 0.343172 0.502639
926 4 0.442914 0.352772 0.508921
927 4 0.433667 0.363386 0.556906
925 2 0.438291 0.358079 0.532914
1011 4 0.443995 0.335359 0.49917
752 4 0.451379 0.351163 0.487559
1936 2 0.0486191 0.500724 0.530084
1938 4 0.0707399 0.489071 0.529854
1171 2 0.238772 0.428819 0.55642
1172 4 0.254914 0.443416 0.568731
882 4 0.345726 0.428711 0.510982
880 2 0.348268 0.440709 0.532771
881 4 0.350809 0.452706 0.554561
661 2 0.393931 0.490156 0.556784
663 4 0.398837 0.479607 0.534652
1267 2 0.449838 0.449977 0.522862
1269 4 0.469045 0.462665 0.532623
4085 4 0.48909 0.46397 0.533284
1268 4 0.430631 0.437288 0.513102
2319 4 0.0503238 0.0181263 0.613123
825 4 0.0859114 0.0419426 0.613132
98 3 0.20757 0.0699363 0.662822
100 3 0.236634 0.0514179 0.647657
950 4 0.247975 0.0394191 0.634883
1005 4 0.307342 0.0210455 0.638447
951 4 0.295501 0.0292234 0.623132
1092 4 0.31641 0.030165 0.6163
949 2 0.271738 0.0343212 0.629008
1090 2 0.336931 0.0160321 0.618374
2283 4 0.369387 0.0173512 0.624423
2281 2 0.394252 0.0147198 0.624296
1091 4 0.357453 0.00189931 0.620449
2196 4 0.417991 0.00656066 0.588098
2282 4 0.419116 0.0120883 0.624169
3007 2 0.473683 0.0757364 0.601193
3008 4 0.491404 0.0591105 0.595301
850 2 0.0394939 0.150696 0.654778
851 4 0.0208735 0.13411 0.652946
1155 4 0.157487 0.151278 0.619424
1153 2 0.136969 0.163083 0.611373
1032 4 0.195094 0.0831228 0.598591
1282 2 0.183408 0.120488 0.616666
1283 4 0.190316 0.0968715 0.612225
1284 4 0.176501 0.144105 0.621107
1211 4 0.189462 0.154543 0.632554
900 4 0.342823 0.121616 0.596084
898 2 0.355872 0.135038 0.61266
899 4 0.368921 0.14846 0.629235
829 2 0.384485 0.163632 0.654287
830 4 0.367534 0.165999 0.636059
3009 4 0.455962 0.0923623 0.607085
3401 4 0.505584 0.090449 0.649844
1244 4 0.00396943 0.225615 0.657069
1198 2 0.0058942 0.166398 0.603566
852 4 0.0581143 0.167282 0.656611
1083 4 0.0615763 0.185845 0.650316
1081 2 0.0560767 0.199824 0.630328
1082 4 0.0505771 0.213803 0.61034
1200 4 0.0244163 0.177038 0.590569
909 4 0.0696496 0.180542 0.669203
908 4 0.117928 0.174476 0.657664
907 2 0.0937887 0.177509 0.663434
1154 4 0.116451 0.174889 0.603323
1271 4 0.100872 0.183761 0.593144
1210 2 0.211371 0.166186 0.635655
1212 4 0.23328 0.177829 0.638756
806 4 0.311613 0.196346 0.58309
805 2 0.313571 0.196727 0.608014
807 4 0.315528 0.197108 0.632937
1193 4 0.367207 0.217194 0.605859
1194 4 0.375429 0.169514 0.618497
1192 2 0.371318 0.193354 0.612178
904 2 0.42816 0.243955 0.655295
905 4 0.446629 0.228599 0.662241
148 3 0.419663 0.185623 0.660609
147 3 0.454534 0.17243 0.665361
150 3 0.443631 0.184055 0.631614
146 1 0.441792 0.187845 0.653995
149 3 0.449479 0.20914 0.659077
1208 4 0.0783875 0.257153 0.64947
857 4 0.142678 0.279805 0.634292
856 2 0.164774 0.291507 0.634242
858 4 0.186871 0.303208 0.634193
797 4 0.188465 0.320895 0.623416
796 2 0.210277 0.328715 0.63281
1065 4 0.245123 0.323638 0.63455
803 4 0.276446 0.303561 0.578907
1064 4 0.273965 0.300398 0.600953
1063 2 0.259544 0.312018 0.617751
1024 2 0.376681 0.275416 0.658826
1026 4 0.401066 0.271647 0.662869
1007 4 0.413682 0.315952 0.659492
906 4 0.409691 0.259312 0.64835
954 4 0.414571 0.279105 0.650862
1025 4 0.352296 0.279184 0.654783
952 2 0.424129 0.295805 0.634895
953 4 0.433686 0.312506 0.618929
3275 4 0.0247039 0.357487 0.639074
3274 2 0.0472641 0.359722 0.64962
3276 4 0.0698243 0.361957 0.660166
983 4 0.00538082 0.37687 0.62546
798 4 0.23209 0.336535 0.642204
1191 4 0.246294 0.388402 0.595101
1189 2 0.238066 0.406416 0.610365
1027 2 0.222374 0.411989 0.661627
1029 4 0.24084 0.396805 0.668949
895 2 0.127727 0.416899 0.581119
896 4 0.106455 0.424836 0.591592
1190 4 0.229838 0.424429 0.625629
1176 4 0.209281 0.483682 0.623172
1174 2 0.203275 0.465236 0.638947
1175 4 0.197269 0.446789 0.654721
1000 2 0.372927 0.485281 0.606083
1001 4 0.350777 0.475221 0.611855
4149 4 0.414866 0.503403 0.599831
4147 2 0.42843 0.484107 0.60813
2167 2 0.468324 0.48027 0.646029
4148 4 0.441993 0.46481 0.616428
2169 4 0.455552 0.47975 0.62454
2168 4 0.481096 0.48079 0.667518
96 1 0.223088 0.0529622 0.665899
97 3 0.211888 0.0330695 0.668725
2202 4 0.223721 0.0481895 0.69928
99 3 0.235787 0.0571795 0.684856
2262 4 0.210095 0.037586 0.688477
2200 2 0.228918 0.0586649 0.72138
2260 2 0.20072 0.0177797 0.700519
2261 4 0.191345 0.997973 0.71256
2201 4 0.234116 0.0691402 0.743481
1003 2 0.305781 0.0118777 0.661656
809 4 0.416784 0.0824313 0.681983
1162 2 0.491365 0.0663711 0.672347
2321 4 0.478549 0.0637041 0.713307
2320 2 0.456326 0.0639559 0.724764
1163 4 0.478447 0.0611692 0.693114
2322 4 0.434103 0.0642076 0.736222
846 4 0.419814 0.0782258 0.738707
1113 4 0.427175 0.0649357 0.754796
1076 4 0.011275 0.127771 0.669573
1107 4 2.29795e-06 0.147453 0.744564
1077 4 0.00577756 0.133513 0.718945
864 4 0.0260466 0.126696 0.72258
862 2 0.0402878 0.110943 0.735778
1075 2 0.00852627 0.130642 0.694259
1225 2 0.15649 0.15408 0.718122
1226 4 0.15726 0.149209 0.742635
1227 4 0.15572 0.158951 0.69361
1148 4 0.165589 0.130233 0.746474
1147 2 0.177092 0.108183 0.743885
1149 4 0.188595 0.0861342 0.741296
831 4 0.401436 0.161266 0.672514
43 3 0.350131 0.112048 0.685776
42 3 0.361951 0.101879 0.719975
1141 2 0.360698 0.155988 0.745725
1142 4 0.347125 0.144204 0.728344
44 3 0.338284 0.130879 0.716589
41 1 0.356173 0.11982 0.706788
45 3 0.373994 0.133892 0.70504
810 4 0.388918 0.119787 0.700113
3204 4 0.394591 0.138608 0.7037
808 2 0.402851 0.101109 0.691048
3052 2 0.479877 0.155383 0.674848
3202 2 0.415995 0.149833 0.697293
3203 4 0.437399 0.161058 0.690886
3053 4 0.456425 0.160191 0.682064
844 2 0.417531 0.101106 0.748529
1209 4 0.086558 0.242116 0.696457
948 4 0.100069 0.242013 0.712194
1207 2 0.0824728 0.249635 0.672963
918 4 0.236683 0.225937 0.729344
977 4 0.220279 0.216098 0.736489
916 2 0.25735 0.239143 0.724477
1263 4 0.396794 0.255305 0.718104
3486 4 0.398458 0.196324 0.713699
3484 2 0.419396 0.205467 0.703541
3252 4 0.492073 0.209752 0.708653
3250 2 0.472869 0.212879 0.69295
3485 4 0.440334 0.21461 0.693383
3251 4 0.453664 0.216005 0.677247
946 2 0.0802817 0.251743 0.723984
815 4 0.130302 0.336169 0.744441
917 4 0.278017 0.252348 0.719611
1261 2 0.418703 0.266316 0.713213
1006 2 0.393604 0.32563 0.670823
3355 2 0.4991 0.267988 0.704376
1262 4 0.440613 0.277327 0.708322
3356 4 0.47604 0.277552 0.702981
3123 4 0.458634 0.285516 0.705169
3122 4 0.461558 0.325642 0.67547
3121 2 0.460096 0.305579 0.690319
816 4 0.0806185 0.339047 0.749334
814 2 0.10546 0.337608 0.746888
942 4 0.155239 0.379389 0.742881
940 2 0.167033 0.399505 0.733857
941 4 0.178827 0.41962 0.724832
1008 4 0.373526 0.335308 0.682154
1204 2 0.431774 0.419558 0.735229
3432 4 0.00611768 0.488397 0.695532
3430 2 0.00682305 0.469882 0.712321
3431 4 0.00752841 0.451367 0.72911
1280 4 0.0673432 0.460229 0.700414
1279 2 0.077927 0.450478 0.720861
1281 4 0.0885109 0.440727 0.741308
2015 4 0.129284 0.488069 0.742759
1079 4 0.136067 0.468795 0.742864
1078 2 0.146801 0.447291 0.735969
2014 2 0.129958 0.497272 0.71952
1080 4 0.157536 0.425787 0.729075
1068 4 0.194503 0.437419 0.671718
1028 4 0.203907 0.427173 0.654306
1066 2 0.183642 0.436929 0.694234
1067 4 0.172781 0.436439 0.71675
2013 4 0.17635 0.434769 0.739038
1228 2 0.332991 0.462574 0.722746
1230 4 0.324316 0.477297 0.741
1229 4 0.341665 0.447852 0.704493
1140 4 0.310091 0.466511 0.748716