ITEM: TIMESTEP
490000
ITEM: NUMBER OF ATOMS
4590
ITEM: BOX BOUNDS pp pp pp
-9.9985700000000008e+00 9.9985700000000008e+00
-9.9985700000000008e+00 9.9985700000000008e+00
-9.9985700000000008e+00 9.9985700000000008e+00
ITEM: ATOMS id type xs ys zs
463 2 0.0608338 0.046118 0.0209839
1666 2 0.0793012 0.0156143 0.0641948
464 4 0.0691279 0.0485135 0.0444498
1667 4 0.0816929 0.0342587 0.0477071
702 4 0.10093 0.0838142 0.0871003
533 4 0.194767 0.0608848 0.0448241
532 2 0.198747 0.0741402 0.0240001
490 2 0.298791 0.0390072 0.023239
491 4 0.308131 0.0181728 0.033431
492 4 0.289452 0.0598416 0.013047
297 4 0.390398 0.0516031 0.0671145
746 4 0.411294 0.0495802 0.066037
295 2 0.384603 0.0753698 0.0722847
745 2 0.432873 0.0404543 0.0573042
747 4 0.454451 0.0313285 0.0485714
2975 4 0.470035 0.0317415 0.0355327
2974 2 0.48779 0.043588 0.0225108
1826 4 0.468483 0.0166347 0.0484036
1825 2 0.464908 0.992015 0.0458951
590 4 0.0115988 0.0871526 0.0648647
589 2 0.0296104 0.097171 0.0507087
591 4 0.0476221 0.107189 0.0365527
3232 2 0.00828406 0.139259 0.0188651
3234 4 0.0263094 0.124202 0.0102884
701 4 0.105749 0.117791 0.0507262
700 2 0.10334 0.100803 0.0689133
423 4 0.164564 0.140858 0.0206716
534 4 0.202727 0.0873956 0.00317621
421 2 0.184984 0.131731 0.00949517
422 4 0.205404 0.122604 0.998319
360 4 0.278738 0.122341 0.0201365
358 2 0.270061 0.103597 0.00604577
664 2 0.325521 0.157135 0.0180415
665 4 0.335936 0.149289 0.0393761
557 4 0.356418 0.146409 0.0343387
296 4 0.378807 0.0991366 0.0774549
556 2 0.362559 0.130774 0.0528597
558 4 0.3687 0.11514 0.0713807
770 4 0.467092 0.164114 0.0599213
2468 4 0.483729 0.115784 0.0805422
553 2 0.104217 0.213774 0.0157941
554 4 0.0995912 0.189202 0.0156524
836 4 0.127983 0.234035 0.00586416
555 4 0.108843 0.238345 0.0159359
324 4 0.376571 0.246007 0.0275086
254 4 0.396166 0.227511 0.0789366
771 4 0.448654 0.184403 0.0180987
769 2 0.457873 0.174258 0.03901
518 4 0.453403 0.24208 0.0729641
657 4 0.00316355 0.264422 0.068508
294 4 0.114919 0.316884 0.0283261
292 2 0.13214 0.304997 0.0146398
483 4 0.227235 0.295378 0.0413244
481 2 0.24238 0.279931 0.0538608
573 4 0.276922 0.259483 0.071081
357 4 0.318475 0.247898 0.00637903
571 2 0.298911 0.254354 0.0603402
572 4 0.3209 0.249226 0.0495995
482 4 0.257525 0.264483 0.0663973
355 2 0.309669 0.270305 0.999629
322 2 0.397952 0.257999 0.0324308
323 4 0.419333 0.269991 0.037353
287 4 0.207559 0.379853 0.00771558
286 2 0.193713 0.359646 0.00270182
956 4 0.326233 0.343004 0.0216254
955 2 0.345674 0.351665 0.00850139
672 4 0.434113 0.348496 0.0239084
671 4 0.45666 0.360996 0.0667579
670 2 0.445386 0.354746 0.0453332
551 4 0.0621818 0.465163 0.0114518
552 4 0.110345 0.45171 0.011163
550 2 0.0862632 0.458436 0.0113074
245 4 0.183884 0.440293 0.0168001
1779 4 0.248874 0.483759 0.0476936
1778 4 0.28166 0.484387 0.00993931
251 4 0.317955 0.428739 0.0491836
250 2 0.297981 0.421305 0.0361086
252 4 0.278007 0.413872 0.0230336
609 4 0.327586 0.441529 0.0606319
1777 2 0.265267 0.484073 0.0288165
272 4 0.300568 0.482698 0.0110491
524 4 0.337244 0.493324 0.0545922
607 2 0.349352 0.45204 0.0670298
608 4 0.371118 0.462552 0.0734278
228 4 0.487186 0.447795 0.0727296
19 3 0.0664488 0.0586609 0.12409
18 3 0.104043 0.0610526 0.129124
16 1 0.0854769 0.0711315 0.119527
450 4 0.117592 0.0585121 0.143683
448 2 0.137404 0.0532876 0.129352
449 4 0.157216 0.0480632 0.115022
20 3 0.0883782 0.0729241 0.0970097
654 4 0.261903 0.0725388 0.16651
2469 4 0.493896 0.07119 0.10076
1760 4 0.476229 0.00130638 0.148722
2624 4 0.00549296 0.154562 0.0832914
17 3 0.0829338 0.0921443 0.128535
235 2 0.14669 0.110608 0.123077
237 4 0.130748 0.120324 0.106445
477 4 0.127817 0.138974 0.0984665
236 4 0.162632 0.100892 0.13971
475 2 0.13769 0.161427 0.103322
566 4 0.183047 0.118034 0.0926711
565 2 0.202488 0.124631 0.106943
567 4 0.22193 0.131229 0.121215
582 4 0.26028 0.128134 0.142376
580 2 0.260452 0.109442 0.158983
628 2 0.408851 0.15479 0.108595
629 4 0.409691 0.13072 0.101876
2467 2 0.488812 0.0934868 0.0906511
380 4 0.00168956 0.182343 0.155365
339 4 0.0811641 0.231442 0.113131
476 4 0.147562 0.183879 0.108178
337 2 0.103121 0.242088 0.107678
338 4 0.125078 0.252733 0.102225
352 2 0.242969 0.23659 0.141403
354 4 0.238672 0.217335 0.156763
737 4 0.243234 0.198652 0.171318
461 4 0.322647 0.225276 0.158968
283 2 0.278223 0.200728 0.161503
284 4 0.253893 0.204652 0.157278
630 4 0.408011 0.178859 0.115314
460 2 0.339771 0.230609 0.141547
255 4 0.375702 0.228289 0.124558
462 4 0.356894 0.235942 0.124125
253 2 0.385934 0.2279 0.101747
517 2 0.455675 0.238638 0.0976251
519 4 0.457947 0.235195 0.122286
703 2 0.0308587 0.332829 0.155069
704 4 0.0187944 0.319054 0.138044
506 4 0.143687 0.252596 0.108785
505 2 0.161121 0.269475 0.102758
456 4 0.119763 0.320817 0.105616
507 4 0.178555 0.286354 0.0967302
612 4 0.237191 0.313748 0.141306
353 4 0.247267 0.255845 0.126043
755 4 0.267874 0.261584 0.12741
754 2 0.287893 0.276215 0.124191
756 4 0.307913 0.290845 0.120972
610 2 0.260382 0.32214 0.145423
740 4 0.325859 0.282343 0.121032
741 4 0.365187 0.279031 0.0903229
739 2 0.345523 0.280687 0.105677
528 4 0.470689 0.251029 0.119675
526 2 0.489833 0.25893 0.133684
620 4 0.0160965 0.346228 0.0898341
455 4 0.130973 0.368109 0.0938442
454 2 0.125368 0.344463 0.0997301
415 2 0.120451 0.407554 0.161057
611 4 0.283573 0.330531 0.149541
387 4 0.385338 0.382747 0.147251
385 2 0.372463 0.369404 0.130476
386 4 0.359589 0.356061 0.113701
13 3 0.402082 0.371615 0.150319
595 2 0.495954 0.333535 0.147756
15 3 0.435087 0.354032 0.145939
597 4 0.475265 0.331083 0.161581
11 1 0.421166 0.363895 0.161025
1788 4 0.0358627 0.486685 0.0988946
416 4 0.126703 0.420512 0.140608
243 4 0.152404 0.489057 0.0987091
1438 2 0.194122 0.496915 0.0982197
626 4 0.241892 0.465901 0.0985306
625 2 0.24209 0.447934 0.115919
627 4 0.242288 0.429968 0.133307
639 4 0.241003 0.425276 0.15138
1440 4 0.171835 0.485604 0.0974825
659 4 0.416918 0.492035 0.135104
658 2 0.392166 0.490703 0.131825
660 4 0.367415 0.489372 0.128546
495 4 0.431066 0.43911 0.113829
493 2 0.443158 0.432953 0.13483
494 4 0.455251 0.426797 0.155831
673 2 0.114619 0.0348681 0.228216
674 4 0.112934 0.0544257 0.212729
675 4 0.116304 0.0153105 0.243702
579 4 0.103285 0.0704598 0.204792
577 2 0.11964 0.082364 0.190095
691 2 0.226988 0.0722273 0.194188
692 4 0.24529 0.0770585 0.177852
693 4 0.208685 0.0673961 0.210524
581 4 0.260625 0.0907509 0.175589
653 4 0.305349 0.0484217 0.172123
652 2 0.283626 0.0604803 0.169317
21 1 0.358534 0.0594039 0.202063
24 3 0.354966 0.0396625 0.213723
25 3 0.379237 0.0591933 0.192577
759 4 0.396875 0.0648311 0.201505
22 3 0.342644 0.0612523 0.185533
744 4 0.407324 0.0586634 0.249683
23 3 0.356581 0.0775387 0.216406
757 2 0.419486 0.0722976 0.193875
758 4 0.442096 0.0797641 0.186246
512 4 0.048433 0.159204 0.225508
511 2 0.0235542 0.161408 0.226678
381 4 0.0113944 0.151705 0.193677
379 2 0.00654199 0.167024 0.174521
578 4 0.135995 0.0942683 0.175399
544 2 0.151283 0.141125 0.219829
545 4 0.134186 0.151454 0.20479
546 4 0.16838 0.130795 0.234869
722 4 0.182899 0.123612 0.246465
29 3 0.320089 0.149695 0.244776
311 4 0.356449 0.13179 0.174099
310 2 0.366208 0.154549 0.177559
393 4 0.0619303 0.173686 0.222403
363 4 0.0436687 0.231443 0.193269
391 2 0.0759363 0.192373 0.231338
361 2 0.0449174 0.245302 0.214043
392 4 0.0899423 0.211059 0.240273
372 4 0.135313 0.225622 0.215202
370 2 0.159771 0.230532 0.213507
736 2 0.219801 0.199306 0.180014
738 4 0.196367 0.19996 0.18871
371 4 0.184229 0.235442 0.211813
285 4 0.302552 0.196803 0.165729
28 3 0.323553 0.176809 0.218371
26 1 0.326756 0.171551 0.240743
764 4 0.317684 0.211286 0.172918
312 4 0.375966 0.177309 0.181019
765 4 0.345896 0.220107 0.213254
763 2 0.33179 0.215696 0.193086
27 3 0.349127 0.17354 0.24572
362 4 0.0461661 0.259162 0.234816
748 2 0.072423 0.289705 0.244232
750 4 0.0634331 0.267202 0.238071
749 4 0.081413 0.312208 0.250394
364 2 0.00296654 0.325116 0.236718
299 4 0.162257 0.310189 0.228399
298 2 0.158124 0.329195 0.244111
278 4 0.246154 0.290357 0.237067
344 4 0.230534 0.300848 0.248399
535 2 0.22168 0.325 0.224981
536 4 0.240028 0.310442 0.233733
279 4 0.255625 0.272996 0.191136
277 2 0.250889 0.281676 0.214101
309 4 0.248556 0.303345 0.25422
307 2 0.26849 0.318413 0.253342
624 4 0.404235 0.282322 0.175532
622 2 0.410101 0.306345 0.171835
623 4 0.415968 0.330368 0.168138
705 4 0.042923 0.346604 0.172095
647 4 0.0605927 0.342444 0.178666
646 2 0.0782779 0.351352 0.193932
263 4 0.018729 0.383736 0.202305
365 4 0.00086187 0.337655 0.215189
648 4 0.0959631 0.36026 0.209198
417 4 0.114198 0.394597 0.181507
537 4 0.203333 0.339559 0.216228
291 4 0.17111 0.421865 0.189492
302 4 0.31672 0.393006 0.171382
301 2 0.306312 0.415426 0.175151
727 2 0.353145 0.356452 0.242235
728 4 0.369414 0.364475 0.225027
14 3 0.432046 0.381509 0.171501
12 3 0.415038 0.348433 0.176916
645 4 0.437575 0.394906 0.186412
542 4 0.438448 0.351897 0.243061
2619 4 0.997082 0.463231 0.1715
289 2 0.18713 0.439849 0.196209
290 4 0.20315 0.457833 0.202925
637 2 0.241338 0.435671 0.174117
638 4 0.241674 0.446067 0.196855
768 4 0.252525 0.459742 0.206055
303 4 0.295905 0.437846 0.17892
766 2 0.263549 0.452984 0.227455
643 2 0.444282 0.418528 0.191121
106 1 0.490497 0.440284 0.214363
644 4 0.450988 0.442151 0.19583
110 3 0.471796 0.440457 0.201366
109 3 0.493161 0.460898 0.224678
108 3 0.488858 0.423568 0.230372
234 4 0.0201659 0.0127892 0.269884
1464 4 0.155796 0.0334946 0.2606
723 4 0.19075 0.0760422 0.259737
1462 2 0.175307 0.0295136 0.275721
1463 4 0.194818 0.0255325 0.290843
742 2 0.401655 0.0748889 0.267843
698 4 0.370723 0.0135866 0.329498
478 2 0.489269 0.0629343 0.292005
479 4 0.474716 0.0756084 0.307904
398 4 0.0577957 0.136194 0.33005
721 2 0.186825 0.0998273 0.253101
249 4 0.210851 0.142308 0.300442
247 2 0.217223 0.119109 0.293634
404 4 0.199806 0.160607 0.303792
248 4 0.223595 0.0959092 0.286825
599 4 0.218531 0.161923 0.326305
632 4 0.330907 0.149081 0.261263
351 4 0.415676 0.0953652 0.289472
743 4 0.395986 0.0911143 0.286002
631 2 0.33752 0.126645 0.270099
633 4 0.344134 0.10421 0.278934
349 2 0.427387 0.101257 0.310763
350 4 0.439097 0.107149 0.332055
474 4 0.234888 0.168127 0.333755
403 2 0.197552 0.181153 0.289723
405 4 0.195298 0.201699 0.275653
30 3 0.314851 0.185855 0.253869
707 4 0.357422 0.177306 0.262919
706 2 0.369402 0.190098 0.280753
708 4 0.381382 0.202889 0.298586
760 2 0.502482 0.225301 0.25572
418 2 0.451027 0.246282 0.30915
420 4 0.430809 0.241908 0.323196
761 4 0.480246 0.234629 0.262335
366 4 0.00507121 0.312577 0.258247
442 2 0.0654915 0.294536 0.306911
443 4 0.041137 0.289744 0.309923
444 4 0.089846 0.299328 0.303898
390 4 0.106265 0.287881 0.299339
388 2 0.128301 0.279039 0.291502
389 4 0.150337 0.270198 0.283665
343 2 0.220603 0.292445 0.269752
676 2 0.194413 0.32188 0.318519
345 4 0.210672 0.284042 0.291105
678 4 0.198136 0.298522 0.326628
496 2 0.298525 0.328936 0.295546
497 4 0.306502 0.324161 0.318757
377 4 0.301386 0.309685 0.330355
498 4 0.290547 0.33371 0.272335
419 4 0.471245 0.250656 0.295105
300 4 0.15399 0.348202 0.259822
734 4 0.163574 0.364912 0.261714
677 4 0.190689 0.345237 0.310411
735 4 0.191407 0.379343 0.300673
733 2 0.17749 0.372127 0.281194
308 4 0.288425 0.333481 0.252464
729 4 0.336875 0.348429 0.259443
435 4 0.377185 0.364974 0.323844
613 2 0.390548 0.388255 0.294172
614 4 0.374073 0.375866 0.308323
615 4 0.407023 0.400645 0.280021
543 4 0.415434 0.391727 0.262673
447 4 0.426569 0.401812 0.277513
541 2 0.426941 0.371812 0.252867
445 2 0.443544 0.40413 0.295723
446 4 0.46052 0.406449 0.313934
120 3 0.4716 0.408298 0.336397
602 4 0.0583626 0.431208 0.32147
777 4 0.0833919 0.501864 0.315995
603 4 0.106831 0.419045 0.319566
601 2 0.0825966 0.425127 0.320518
775 2 0.105823 0.497515 0.326149
414 4 0.185994 0.484598 0.312095
438 4 0.23214 0.449176 0.295058
767 4 0.274572 0.446225 0.248856
437 4 0.273452 0.441946 0.267822
436 2 0.252796 0.445561 0.28144
713 4 0.407394 0.485354 0.308128
594 4 0.420814 0.476441 0.320434
714 4 0.444424 0.49139 0.275066
712 2 0.425909 0.488372 0.291597
118 3 0.481715 0.437783 0.315279
428 4 0.0777218 0.00152962 0.356247
1773 4 0.0249143 0.0096586 0.405821
317 4 0.0290594 0.0423121 0.341118
316 2 0.0422583 0.0629522 0.346113
318 4 0.0554573 0.0835923 0.351109
731 4 0.127762 0.0727917 0.334944
730 2 0.149412 0.070746 0.347284
429 4 0.105739 0.042682 0.360965
427 2 0.0917302 0.0221058 0.358606
1602 4 0.198201 0.00835263 0.357357
732 4 0.171062 0.0687003 0.359623
441 4 0.222264 0.0263124 0.381325
439 2 0.213654 0.0486589 0.388514
440 4 0.205044 0.0710054 0.395703
606 4 0.217501 0.0848183 0.38481
1701 4 0.237661 0.0100395 0.354098
683 4 0.315692 0.0661466 0.353722
1818 4 0.2629 0.0140604 0.414457
697 2 0.366815 0.030293 0.347686
699 4 0.362907 0.0469993 0.365874
256 2 0.391029 0.0690761 0.412375
397 2 0.0754874 0.139354 0.347434
399 4 0.0931791 0.142514 0.364818
605 4 0.196959 0.130087 0.379382
600 4 0.193645 0.134694 0.360069
604 2 0.20723 0.107453 0.382096
598 2 0.206088 0.148309 0.343187
682 2 0.314302 0.0904137 0.359583
321 4 0.250025 0.14165 0.404997
684 4 0.312912 0.114681 0.365444
468 4 0.327499 0.129667 0.36971
726 4 0.322814 0.117685 0.383474
724 2 0.324838 0.112642 0.40788
319 2 0.264726 0.159792 0.413937
257 4 0.393217 0.0917605 0.402089
466 2 0.345451 0.14659 0.365641
516 4 0.411894 0.0998915 0.402651
514 2 0.415144 0.122976 0.393611
467 4 0.363403 0.163512 0.361573
515 4 0.418393 0.146061 0.384571
452 4 0.472949 0.155756 0.345254
451 2 0.455659 0.151787 0.362875
453 4 0.43837 0.147819 0.380496
2654 4 0.0183383 0.196849 0.332204
2653 2 0.00317894 0.212241 0.344792
348 4 0.0486978 0.241288 0.408897
686 4 0.134499 0.176386 0.406534
274 2 0.248393 0.249313 0.393222
472 2 0.242319 0.18991 0.343526
473 4 0.24975 0.211693 0.353297
276 4 0.265114 0.236976 0.379316
717 4 0.336197 0.235062 0.405406
715 2 0.344533 0.214419 0.394025
716 4 0.352869 0.193775 0.382643
306 4 0.495264 0.212609 0.381415
304 2 0.47393 0.224371 0.387047
305 4 0.452597 0.236134 0.39268
616 2 0.100519 0.278096 0.358496
617 4 0.0890026 0.263018 0.374781
618 4 0.112035 0.293174 0.342211
401 4 0.234938 0.254544 0.337299
402 4 0.194054 0.283332 0.337933
400 2 0.214496 0.268938 0.337616
275 4 0.231673 0.26165 0.407128
487 2 0.325814 0.272336 0.400645
376 2 0.281409 0.307467 0.345227
378 4 0.261432 0.305248 0.360099
489 4 0.313579 0.293349 0.406469
509 4 0.262289 0.316165 0.377489
488 4 0.338048 0.251322 0.394821
268 2 0.461947 0.274789 0.365584
270 4 0.443254 0.268283 0.380862
269 4 0.480641 0.281294 0.350307
560 4 0.476448 0.312552 0.415124
408 4 0.0717763 0.402437 0.363242
406 2 0.0885624 0.397014 0.380962
407 4 0.105349 0.391591 0.398682
510 4 0.241478 0.360186 0.388879
503 4 0.211774 0.399247 0.38826
502 2 0.229281 0.40511 0.405121
508 2 0.251883 0.338176 0.383184
434 4 0.341334 0.33944 0.347582
433 2 0.359259 0.352207 0.335713
561 4 0.456543 0.356127 0.40078
751 2 0.448265 0.391104 0.406133
752 4 0.448115 0.370946 0.391341
559 2 0.466495 0.33434 0.407952
679 2 0.0062262 0.428568 0.416324
2462 4 0.000237824 0.495444 0.344584
548 4 0.0432575 0.42449 0.334479
547 2 0.0394498 0.438103 0.355104
549 4 0.0356422 0.451715 0.375729
776 4 0.128254 0.493165 0.336303
499 2 0.126569 0.466583 0.365554
500 4 0.116384 0.455505 0.385522
501 4 0.136754 0.477661 0.345586
504 4 0.246789 0.410973 0.421982
412 2 0.184887 0.496514 0.334049
1556 4 0.252894 0.495169 0.404262
1 1 0.320795 0.460913 0.400839
5 3 0.310648 0.479367 0.409508
3 3 0.311614 0.455815 0.380148
2 3 0.343245 0.46516 0.398171
1714 2 0.408088 0.496535 0.388907
116 1 0.479219 0.429754 0.336906
587 4 0.430804 0.418868 0.412799
119 3 0.499526 0.430681 0.348093
1715 4 0.427471 0.486338 0.400971
592 2 0.428316 0.465049 0.341389
588 4 0.43294 0.467591 0.401742
593 4 0.435817 0.453657 0.362344
586 2 0.431872 0.443229 0.40727
117 3 0.463995 0.442938 0.348022
369 4 0.0890846 0.0357661 0.447709
367 2 0.103544 0.0552337 0.453802
368 4 0.118003 0.0747013 0.459895
340 2 0.150276 0.0119285 0.48553
342 4 0.161124 0.0264339 0.468294
1817 4 0.257897 0.0231707 0.463372
1816 2 0.260399 0.0186155 0.438914
963 4 0.300749 0.0528121 0.488914
432 4 0.289609 0.0676194 0.481411
258 4 0.388841 0.0463916 0.422662
424 2 0.36839 0.0257303 0.447957
425 4 0.364627 0.0159206 0.470646
426 4 0.372152 0.0355401 0.425268
720 4 0.0413322 0.0962741 0.432129
458 4 0.0153411 0.136122 0.474215
718 2 0.0341841 0.107506 0.453293
719 4 0.0270359 0.118738 0.474457
457 2 0.0092163 0.159039 0.466308
260 4 0.0967685 0.155402 0.48523
687 4 0.106935 0.162751 0.445967
685 2 0.120717 0.169569 0.42625
1151 4 0.169926 0.0845326 0.486239
430 2 0.28721 0.0869598 0.465747
431 4 0.284811 0.1063 0.450083
725 4 0.326862 0.107599 0.432286
347 4 0.00612748 0.224973 0.429447
346 2 0.0274126 0.233131 0.419172
259 2 0.108456 0.175893 0.493518
1035 4 0.138004 0.197904 0.491783
1033 2 0.138546 0.22241 0.496716
320 4 0.279427 0.177934 0.422877
411 4 0.285079 0.176191 0.441922
409 2 0.285196 0.188973 0.46341
410 4 0.285313 0.201756 0.484899
575 4 0.385355 0.218009 0.449767
574 2 0.388168 0.200301 0.467194
576 4 0.390982 0.182594 0.484621
266 4 0.379427 0.232082 0.437376
375 4 0.225377 0.255859 0.424592
373 2 0.216728 0.268272 0.4445
374 4 0.208079 0.280685 0.464407
650 4 0.272167 0.289228 0.473143
651 4 0.287827 0.323706 0.440483
649 2 0.279997 0.306467 0.456813
267 4 0.389235 0.279456 0.424715
265 2 0.384331 0.255769 0.431046
872 4 0.433078 0.300095 0.479942
384 4 0.0800087 0.40186 0.48886
327 4 0.128 0.329742 0.498501
669 4 0.266462 0.409126 0.424132
772 2 0.239176 0.406186 0.460262
9 3 0.192591 0.340884 0.47841
10 3 0.222872 0.334988 0.499996
710 4 0.237986 0.400634 0.498538
774 4 0.227421 0.410306 0.481942
336 4 0.31722 0.393321 0.42441
335 4 0.351609 0.382434 0.459046
240 4 0.35624 0.369775 0.472067
238 2 0.379064 0.37813 0.477936
334 2 0.334414 0.387877 0.441728
239 4 0.401887 0.386486 0.483804
753 4 0.448415 0.411262 0.420925
680 4 0.0171451 0.444098 0.432595
635 4 0.219613 0.47687 0.427711
570 4 0.202568 0.487881 0.427913
636 4 0.238833 0.430724 0.426361
634 2 0.229223 0.453797 0.427036
568 2 0.178258 0.492969 0.430791
773 4 0.250932 0.402066 0.438582
4 3 0.318225 0.442941 0.41529
668 4 0.297476 0.446868 0.413437
667 2 0.281969 0.427997 0.418785
1001 4 0.377813 0.450244 0.498415
1126 2 0.0683686 0.0593404 0.54508
1127 4 0.0487755 0.0440824 0.542168
2236 2 0.0632851 0.00551169 0.525576
2238 4 0.0548146 0.025597 0.537824
1059 4 0.0837522 0.0515907 0.575633
1128 4 0.0879617 0.0745984 0.547993
2430 4 0.176823 0.0173516 0.562483
962 4 0.270866 0.0197015 0.511528
961 2 0.285808 0.0362568 0.500221
842 4 0.340638 0.0362308 0.550267
841 2 0.347902 0.014479 0.56023
1218 4 0.411936 0.042787 0.571858
1216 2 0.412733 0.0183701 0.577183
642 4 0.418319 0.0794116 0.497401
939 4 0.099115 0.0897547 0.549857
937 2 0.116369 0.0902354 0.531767
1271 4 0.106194 0.156618 0.567897
1154 4 0.121478 0.143671 0.57124
938 4 0.133623 0.0907162 0.513677
1153 2 0.121622 0.121665 0.58311
1152 4 0.18907 0.121043 0.514545
1220 4 0.207052 0.14672 0.565972
1150 2 0.179498 0.102788 0.500392
1030 2 0.245864 0.0944745 0.579145
1181 4 0.257117 0.0825672 0.517925
1031 4 0.257576 0.0945931 0.557054
1182 4 0.273859 0.126675 0.534505
1180 2 0.265488 0.104621 0.526215
898 2 0.336445 0.149311 0.565672
640 2 0.439169 0.0855524 0.50976
641 4 0.46002 0.0916933 0.522119
1200 4 0.0201686 0.179442 0.56311
877 2 0.0510472 0.192732 0.527615
879 4 0.0705174 0.190663 0.543166
878 4 0.0315771 0.1948 0.512065
1272 4 0.0878294 0.18634 0.532119
1270 2 0.0970115 0.171479 0.550008
1034 4 0.139088 0.246916 0.50165
261 4 0.120143 0.196385 0.501806
1221 4 0.223886 0.192603 0.555385
856 2 0.229863 0.225189 0.536137
858 4 0.219219 0.22943 0.558361
1219 2 0.215469 0.169661 0.560679
797 4 0.211018 0.238544 0.573375
857 4 0.240506 0.220948 0.513913
791 4 0.296546 0.245591 0.557846
900 4 0.337554 0.166611 0.547654
983 4 0.0138387 0.307556 0.574483
695 4 0.156483 0.251053 0.512514
694 2 0.169651 0.27207 0.509338
326 4 0.173788 0.309988 0.502234
325 2 0.150894 0.319865 0.500367
696 4 0.182818 0.293087 0.506161
1260 4 0.200465 0.255045 0.57553
1259 4 0.17611 0.289498 0.548687
1258 2 0.188287 0.272272 0.562108
8 3 0.194725 0.309984 0.500434
790 2 0.317006 0.254261 0.546383
802 2 0.288047 0.299013 0.567315
804 4 0.28076 0.299938 0.543415
792 4 0.337466 0.262932 0.53492
812 4 0.357704 0.267366 0.535078
811 2 0.367006 0.290237 0.531133
813 4 0.376307 0.313109 0.527188
873 4 0.432982 0.280902 0.526119
871 2 0.43303 0.290498 0.503031
1136 4 0.0541942 0.349556 0.5553
934 2 0.999834 0.402278 0.540067
897 4 0.162054 0.397886 0.56784
383 4 0.108001 0.408251 0.529803
382 2 0.0940046 0.405056 0.509332
7 3 0.190283 0.343998 0.515795
711 4 0.220686 0.354321 0.506055
6 1 0.200284 0.332438 0.498606
709 2 0.229336 0.377478 0.502297
928 2 0.376003 0.415908 0.574882
929 4 0.378688 0.409193 0.550947
925 2 0.459352 0.402298 0.523545
926 4 0.440691 0.389758 0.534486
935 4 0.0100434 0.418164 0.556457
1160 4 0.167784 0.417399 0.564806
1159 2 0.190231 0.425375 0.55721
1161 4 0.212678 0.433352 0.549613
1171 2 0.236637 0.461543 0.555929
1173 4 0.231471 0.439775 0.544763
1172 4 0.241803 0.48331 0.567095
882 4 0.334273 0.497994 0.523875
1002 4 0.388023 0.422053 0.538437
880 2 0.348783 0.480288 0.513817
881 4 0.363293 0.462582 0.50376
1000 2 0.382918 0.436148 0.518426
927 4 0.478013 0.414838 0.512604
662 4 0.491514 0.495488 0.571459
4085 4 0.504432 0.48702 0.558289
1058 4 0.124089 0.0328347 0.598478
1057 2 0.10392 0.0422127 0.587056
1092 4 0.326292 0.0232148 0.640401
951 4 0.314185 0.00772757 0.63599
949 2 0.291114 0.00154034 0.643382
1090 2 0.346893 0.00932597 0.637591
1081 2 0.0450953 0.113184 0.634685
1083 4 0.0619323 0.095835 0.628305
1082 4 0.0282582 0.130533 0.641064
1155 4 0.121765 0.0996586 0.594979
1284 4 0.232772 0.0907424 0.666445
1032 4 0.234152 0.0943559 0.601235
1282 2 0.227924 0.0943936 0.64219
1283 4 0.223076 0.0980448 0.617934
899 4 0.335337 0.132011 0.58369
831 4 0.350798 0.168144 0.665612
3009 4 0.49673 0.116547 0.603326
809 4 0.476038 0.114385 0.63724
808 2 0.459587 0.106345 0.654266
1207 2 0.10014 0.234968 0.646489
1208 4 0.113766 0.214105 0.644427
1212 4 0.209596 0.201858 0.653216
1210 2 0.232796 0.198943 0.644358
796 2 0.226054 0.235797 0.593162
798 4 0.241091 0.233049 0.61295
888 4 0.277863 0.182474 0.606846
1211 4 0.255995 0.196028 0.6355
886 2 0.302748 0.180097 0.60634
887 4 0.327633 0.177719 0.605834
829 2 0.346364 0.169743 0.641057
830 4 0.341929 0.171342 0.616502
1194 4 0.348707 0.183879 0.603553
1193 4 0.396043 0.195787 0.592684
1192 2 0.372375 0.189833 0.598118
1025 4 0.436235 0.196701 0.630631
1024 2 0.443496 0.197605 0.65454
906 4 0.506188 0.252749 0.594518
1209 4 0.0865144 0.255831 0.64855
1244 4 0.0419361 0.251964 0.621939
1243 2 0.0379172 0.255555 0.646355
947 4 0.162435 0.289903 0.651742
946 2 0.183152 0.303848 0.650524
948 4 0.20387 0.317793 0.649305
803 4 0.295335 0.298087 0.591215
1239 4 0.30343 0.297421 0.610537
1237 2 0.314106 0.294461 0.632952
1238 4 0.324782 0.291501 0.655368
952 2 0.476791 0.270611 0.604018
953 4 0.454517 0.270282 0.615374
954 4 0.499065 0.27094 0.592662
1135 2 0.0523903 0.360505 0.577706
1039 2 0.0202412 0.395918 0.61913
1041 4 0.0400354 0.381538 0.613972
1137 4 0.0505864 0.371453 0.600113
993 4 0.0541583 0.369943 0.620438
991 2 0.0728935 0.374327 0.636405
992 4 0.0916288 0.378711 0.652373
895 2 0.145193 0.393105 0.585673
896 4 0.128332 0.388324 0.603506
1189 2 0.248294 0.39483 0.591576
1191 4 0.231807 0.412517 0.597942
1190 4 0.26478 0.377142 0.58521
891 4 0.310417 0.421776 0.617811
1188 4 0.269064 0.450789 0.604684
1186 2 0.265692 0.473339 0.614945
889 2 0.320934 0.439221 0.603312
1187 4 0.262321 0.49589 0.625206
1953 4 0.338556 0.475309 0.585317
930 4 0.373319 0.422624 0.598817
890 4 0.331452 0.456667 0.588813
1951 2 0.335112 0.495135 0.600157
1268 4 0.451766 0.484788 0.596783
1267 2 0.461267 0.482179 0.619763
1269 4 0.470769 0.47957 0.642744
944 4 0.075428 0.0665527 0.668643
943 2 0.092842 0.0679536 0.686531
945 4 0.110256 0.0693545 0.704419
1004 4 0.308303 0.0697465 0.690854
1003 2 0.326646 0.059792 0.704625
1005 4 0.344988 0.0498376 0.718396
43 3 0.412272 0.0639655 0.700313
1163 4 0.476287 0.0350615 0.66717
846 4 0.487509 0.0761332 0.735977
1076 4 0.0413681 0.15093 0.687601
1075 2 0.0580147 0.143623 0.704767
1077 4 0.0746613 0.136316 0.721933
851 4 0.0892628 0.148167 0.729395
833 4 0.0153099 0.134718 0.742426
909 4 0.107006 0.135876 0.702596
907 2 0.13185 0.133367 0.701296
908 4 0.156693 0.130857 0.699997
1227 4 0.175965 0.132272 0.695218
1225 2 0.191208 0.118877 0.709825
1226 4 0.206452 0.105482 0.724433
1148 4 0.199687 0.0958989 0.739488
44 3 0.404173 0.101039 0.702409
1141 2 0.382349 0.133606 0.715018
1142 4 0.39494 0.112028 0.716044
1143 4 0.369759 0.155183 0.713992
42 3 0.430175 0.0859623 0.724976
41 1 0.421024 0.0851559 0.703887
810 4 0.443135 0.0983063 0.671293
45 3 0.437229 0.0895659 0.688505
844 2 0.468842 0.0864681 0.749013
1107 4 0.0632854 0.159572 0.743632
850 2 0.102293 0.169024 0.733908
852 4 0.115324 0.189881 0.738422
978 4 0.228331 0.22358 0.742447
1277 4 0.21457 0.234658 0.749399
976 2 0.249447 0.21509 0.732092
918 4 0.287841 0.210343 0.72831
977 4 0.270562 0.2066 0.721736
916 2 0.30327 0.221415 0.744574
1298 4 0.387099 0.181321 0.725037
1026 4 0.450757 0.19851 0.678448
1263 4 0.419582 0.219382 0.716766
1261 2 0.442829 0.227995 0.713513
1262 4 0.466076 0.236608 0.710261
1177 2 0.00534021 0.268679 0.692909
1245 4 0.0338982 0.259145 0.67077
1179 4 0.0222609 0.251664 0.685884
894 4 0.0865558 0.326176 0.685043
892 2 0.0914512 0.31529 0.707014
893 4 0.0963467 0.304405 0.728985
1074 4 0.10401 0.285425 0.730668
1276 2 0.198216 0.252306 0.742595
821 4 0.186643 0.285075 0.747863
1278 4 0.181863 0.269954 0.735791
806 4 0.319208 0.303953 0.670569
1063 2 0.25841 0.332426 0.698929
1064 4 0.279089 0.319083 0.703347
805 2 0.331143 0.32395 0.679672
1006 2 0.374485 0.325332 0.71315
1007 4 0.395045 0.31568 0.723604
3122 4 0.464943 0.318585 0.696826
3121 2 0.45816 0.294691 0.693952
3123 4 0.451377 0.270798 0.691078
1067 4 0.150479 0.361606 0.694535
940 2 0.134735 0.384075 0.727149
941 4 0.149807 0.375918 0.708943
942 4 0.119663 0.392233 0.745356
815 4 0.0988217 0.396274 0.745222
1066 2 0.173195 0.361864 0.684092
1065 4 0.237731 0.34577 0.69451
1028 4 0.202444 0.37494 0.686154
1068 4 0.195912 0.362123 0.673648
1027 2 0.221749 0.388847 0.693842
1029 4 0.241053 0.402754 0.70153
1008 4 0.353924 0.334985 0.702695
807 4 0.343078 0.343947 0.688774
1099 2 0.458249 0.396533 0.719654
1100 4 0.479897 0.385268 0.725101
1205 4 0.426009 0.401559 0.697954
1101 4 0.436602 0.407798 0.714208
1280 4 0.0427914 0.451097 0.680234
1281 4 0.0728704 0.461826 0.718716
1279 2 0.0578309 0.456462 0.699475
885 4 0.0812771 0.447813 0.733509
2015 4 0.108234 0.475142 0.709313
1176 4 0.204733 0.48326 0.708202
1174 2 0.225563 0.477002 0.695868
1175 4 0.246393 0.470745 0.683534
1138 2 0.309411 0.455848 0.731565
1140 4 0.305029 0.43177 0.736686
1139 4 0.313792 0.479926 0.726444
1228 2 0.385579 0.461689 0.739206
1229 4 0.398586 0.482006 0.732633
1206 4 0.423833 0.444373 0.672207
1204 2 0.424921 0.422966 0.68508
1249 2 0.482142 0.48903 0.748948
1195 2 0.141043 0.000130578 0.793088
1201 2 0.111764 0.0800383 0.769749
1202 4 0.123973 0.0624461 0.782657
1197 4 0.152513 0.0223255 0.794089
1149 4 0.187632 0.0718024 0.781616
838 2 0.24347 0.0774243 0.797988
1255 2 0.293556 0.0500103 0.787252
1256 4 0.27296 0.055766 0.774297
1257 4 0.314152 0.0442546 0.800208
839 4 0.257656 0.0633672 0.782944
975 4 0.325507 0.0553802 0.811742
973 2 0.333077 0.0337687 0.821783
974 4 0.340646 0.0121572 0.831824
2322 4 0.446718 0.00734438 0.757621
1113 4 0.442188 0.0175324 0.774558
1111 2 0.44389 0.00789853 0.797568
1112 4 0.445591 0.998265 0.820578
862 2 0.0787334 0.123286 0.755142
864 4 0.0727584 0.143683 0.741973
834 4 0.0132675 0.147783 0.790653
832 2 0.0142887 0.14125 0.76654
863 4 0.0847085 0.102888 0.76831
1203 4 0.0995539 0.0976304 0.756841
31 1 0.122697 0.149605 0.831591
35 3 0.127422 0.146793 0.809491
1131 4 0.165711 0.145895 0.770925
34 3 0.110015 0.131771 0.839307
1147 2 0.19366 0.0838506 0.760552
840 4 0.229283 0.0914815 0.813031
960 4 0.27777 0.13608 0.810288
958 2 0.299497 0.146638 0.816742
959 4 0.321224 0.157196 0.823197
1086 4 0.356318 0.119058 0.795708
1084 2 0.373883 0.104533 0.805988
1085 4 0.391448 0.0900085 0.816268
845 4 0.450176 0.0968029 0.762048
1146 4 0.481848 0.149852 0.79681
3270 4 0.486528 0.133084 0.805793
1105 2 0.0524033 0.180054 0.752971
1106 4 0.0415212 0.200537 0.76231
1213 2 0.00217076 0.216985 0.755497
1214 4 0.0250788 0.21251 0.764462
1130 4 0.171466 0.191648 0.751581
1129 2 0.168589 0.168772 0.761253
917 4 0.318699 0.232488 0.760838
1299 4 0.390653 0.170315 0.773688
47 3 0.404347 0.177913 0.786362
50 3 0.392171 0.181355 0.821473
1297 2 0.388876 0.175818 0.749363
46 1 0.408284 0.187832 0.80674
1043 4 0.401685 0.229166 0.79611
49 3 0.407785 0.210878 0.804087
1144 2 0.482007 0.174419 0.792163
48 3 0.429154 0.181192 0.814407
1145 4 0.482166 0.198987 0.787517
1307 4 0.470214 0.242441 0.816223
1072 2 0.0944098 0.274692 0.75111
1073 4 0.0848101 0.26396 0.771551
820 2 0.185913 0.309546 0.752946
1096 2 0.296778 0.317403 0.790798
1098 4 0.303974 0.320129 0.767008
1097 4 0.289582 0.314677 0.814588
801 4 0.271307 0.319652 0.820894
1042 2 0.391558 0.252027 0.796235
1044 4 0.381431 0.274887 0.796361
1308 4 0.491586 0.287547 0.813168
1166 4 0.44687 0.262102 0.763186
998 4 0.476441 0.312567 0.781634
1165 2 0.452452 0.285585 0.76971
1167 4 0.458033 0.309068 0.776235
1306 2 0.4809 0.264994 0.814695
778 2 0.0824417 0.335756 0.817978
816 4 0.0695191 0.36019 0.763661
814 2 0.0841704 0.378232 0.754441
780 4 0.0901854 0.3357 0.794204
822 4 0.185183 0.334016 0.758029
1236 4 0.213668 0.342387 0.815399
1234 2 0.223569 0.342534 0.79244
1235 4 0.233471 0.34268 0.769481
1121 4 0.186774 0.403939 0.819774
1017 4 0.36 0.407774 0.818491
1015 2 0.383318 0.415064 0.823809
1019 4 0.431353 0.375629 0.75397
1018 2 0.437713 0.387374 0.775107
1020 4 0.444073 0.39912 0.796245
1094 4 0.464414 0.347526 0.823025