ITEM: TIMESTEP
1560000
ITEM: NUMBER OF ATOMS
4590
ITEM: BOX BOUNDS pp pp pp
-9.9985700000000008e+00 9.9985700000000008e+00
-9.9985700000000008e+00 9.9985700000000008e+00
-9.9985700000000008e+00 9.9985700000000008e+00
ITEM: ATOMS id type xs ys zs
784 2 0.00984506 0.0533603 0.0156965
785 4 0.0280049 0.0476685 0.999479
1254 4 0.143081 0.0107565 0.00152717
578 4 0.139615 0.0481517 0.0726457
491 4 0.231156 0.0184398 0.047451
490 2 0.254989 0.0256854 0.0452807
492 4 0.278821 0.032931 0.0431105
486 4 0.293695 0.0288192 0.0555757
484 2 0.313807 0.0294207 0.040732
358 2 0.255173 0.0796057 0.0137818
485 4 0.333919 0.0300221 0.0258884
1607 4 0.343086 0.0205201 0.0405771
1606 2 0.362164 0.00441151 0.039266
2467 2 0.471924 0.050478 0.0565384
2468 4 0.463954 0.0547633 0.0332297
1667 4 0.0126856 0.0865378 0.0658869
1666 2 0.0349891 0.0900817 0.0551551
1668 4 0.0572927 0.0936256 0.0444233
1246 2 0.0187332 0.142879 0.0460252
1248 4 0.0301387 0.151637 0.0255706
1247 4 0.00732765 0.134121 0.0664797
3234 4 0.0455525 0.145638 0.0135379
359 4 0.266392 0.0885979 0.0342375
666 4 0.329961 0.149516 0.0108947
664 2 0.330772 0.146078 0.0356474
665 4 0.331584 0.14264 0.0604002
866 4 0.344448 0.140342 0.999653
557 4 0.349918 0.135305 0.0648503
297 4 0.449231 0.114321 0.0729573
555 4 0.135091 0.190941 0.0477215
554 4 0.14763 0.225165 0.0134846
553 2 0.141361 0.208053 0.030603
1133 4 0.15738 0.219178 0.995553
770 4 0.43821 0.202333 0.0620828
769 2 0.458268 0.188583 0.0678959
771 4 0.478326 0.174833 0.0737091
2834 4 0.0267144 0.265583 0.00210159
869 4 0.0911438 0.25523 0.024962
754 2 0.286916 0.295891 0.0622675
755 4 0.269118 0.278555 0.0650697
756 4 0.304715 0.313227 0.0594653
740 4 0.305744 0.332116 0.0616115
322 2 0.390853 0.292138 0.0521965
323 4 0.382258 0.293685 0.0287676
1070 4 0.349698 0.313643 0.0171389
324 4 0.399448 0.290592 0.0756254
255 4 0.417542 0.283744 0.0808768
671 4 0.435294 0.313804 0.00303675
670 2 0.449107 0.332373 0.0125007
619 2 0.0338569 0.385712 0.00351503
621 4 0.0158336 0.384898 0.0208262
2787 4 0.0171925 0.380125 0.0400225
292 2 0.0674701 0.393537 0.0710304
2785 2 0.0101555 0.381487 0.0639767
294 4 0.0672056 0.412337 0.0545486
552 4 0.0788982 0.41212 0.0389133
913 2 0.15008 0.370069 0.056229
915 4 0.136684 0.379258 0.0752368
288 4 0.164341 0.345866 0.0244228
914 4 0.163476 0.36088 0.0372212
286 2 0.184951 0.343244 0.0105114
287 4 0.205561 0.340622 0.9966
355 2 0.240042 0.358282 0.00626316
739 2 0.328242 0.340877 0.0681105
356 4 0.255511 0.369177 0.0226088
251 4 0.313002 0.387599 0.0491441
250 2 0.289994 0.396779 0.0457472
609 4 0.327462 0.389586 0.0636557
252 4 0.266986 0.40596 0.0423503
607 2 0.336971 0.402522 0.0828236
955 2 0.413556 0.415608 0.0319309
741 4 0.35074 0.349639 0.0746095
957 4 0.414679 0.418098 0.0567849
105 3 0.409191 0.393711 0.0044513
956 4 0.412433 0.413118 0.00707701
672 4 0.46292 0.350942 0.0219646
562 2 0.483245 0.354192 0.0602382
563 4 0.468639 0.355898 0.0400163
550 2 0.0888732 0.420303 0.0174955
1440 4 0.139389 0.480154 0.074428
1438 2 0.142105 0.45737 0.0644918
243 4 0.139778 0.489998 0.0560038
1439 4 0.144821 0.434587 0.0545556
902 4 0.228165 0.475736 0.0373325
901 2 0.213751 0.456873 0.0451796
903 4 0.199337 0.438009 0.0530266
1289 4 0.245209 0.488922 0.0394769
246 4 0.229784 0.491945 0.0509497
1488 4 0.301452 0.473432 0.0729336
524 4 0.330201 0.493754 0.071455
523 2 0.354309 0.489824 0.0661129
525 4 0.378417 0.485894 0.0607709
464 4 0.0551789 0.00965045 0.104108
2760 4 0.0158332 0.0354004 0.10038
2758 2 0.00680106 0.0542541 0.0866636
2759 4 0.997769 0.0731078 0.0729473
577 2 0.155167 0.0368551 0.088636
1806 4 0.162674 0.0116863 0.115837
579 4 0.170719 0.0255584 0.104626
654 4 0.221897 0.0539218 0.162902
580 2 0.180369 0.0686644 0.163886
581 4 0.200407 0.0538775 0.161653
1504 2 0.314435 0.0138716 0.146273
1505 4 0.309517 0.0383844 0.145942
24 3 0.384135 0.065075 0.151976
2469 4 0.479893 0.0461928 0.0798472
2723 4 0.469823 0.041915 0.0961608
2722 2 0.446314 0.0377438 0.103585
2724 4 0.422805 0.0335727 0.11101
1760 4 0.487328 0.0349492 0.0999718
591 4 0.0147577 0.124048 0.115388
589 2 0.0081348 0.107638 0.0977241
235 2 0.0666092 0.124911 0.159729
237 4 0.0726897 0.126474 0.135527
477 4 0.0904095 0.130069 0.126587
475 2 0.101348 0.151714 0.1205
567 4 0.142929 0.0905116 0.15936
565 2 0.146122 0.113915 0.167563
421 2 0.182358 0.147007 0.124048
422 4 0.191791 0.125376 0.115785
532 2 0.232252 0.113951 0.111391
534 4 0.207374 0.115531 0.109461
533 4 0.257131 0.11237 0.113321
556 2 0.366816 0.126835 0.081217
296 4 0.401347 0.120253 0.0860995
558 4 0.383715 0.118364 0.0975836
629 4 0.398649 0.133772 0.101342
628 2 0.409347 0.151871 0.114876
295 2 0.425289 0.117287 0.0795284
476 4 0.112286 0.173358 0.114413
338 4 0.140589 0.247951 0.120985
372 4 0.172711 0.214725 0.169231
423 4 0.172924 0.168638 0.132311
283 2 0.21608 0.209774 0.156256
285 4 0.238727 0.209764 0.14566
354 4 0.243574 0.228763 0.139845
764 4 0.240163 0.24566 0.150487
352 2 0.252774 0.224944 0.116911
284 4 0.193432 0.209784 0.166852
353 4 0.261975 0.221126 0.0939778
310 2 0.301547 0.204165 0.149017
312 4 0.30583 0.207069 0.124555
528 4 0.494812 0.23689 0.115962
630 4 0.420046 0.169969 0.12841
517 2 0.462512 0.226839 0.112931
519 4 0.485273 0.219653 0.120378
518 4 0.43975 0.234025 0.105484
254 4 0.431256 0.249469 0.114609
836 4 0.0537887 0.316003 0.0849205
339 4 0.103264 0.281034 0.124587
337 2 0.121926 0.264493 0.122786
506 4 0.156778 0.252629 0.109169
505 2 0.175337 0.267412 0.101284
507 4 0.193897 0.282196 0.0933997
763 2 0.253911 0.263107 0.161967
611 4 0.317154 0.323744 0.149604
610 2 0.299163 0.307984 0.156893
612 4 0.281172 0.292224 0.164182
461 4 0.359707 0.265063 0.121657
460 2 0.372333 0.279488 0.105604
462 4 0.384958 0.293914 0.0895521
622 2 0.413988 0.330786 0.1543
253 2 0.424399 0.266607 0.0977432
624 4 0.418037 0.313493 0.1367
293 4 0.0677347 0.374736 0.0875122
835 2 0.0664533 0.337558 0.0845267
837 4 0.0791179 0.359113 0.0841329
313 2 0.0230596 0.390034 0.120562
314 4 0.00735562 0.37674 0.106355
315 4 0.0387635 0.403327 0.13477
2786 4 0.00311851 0.38285 0.0879309
455 4 0.160052 0.3507 0.129738
454 2 0.144026 0.361812 0.145385
301 2 0.308029 0.365535 0.161634
303 4 0.303666 0.389789 0.165867
302 4 0.312392 0.341282 0.1574
386 4 0.361836 0.362684 0.0838806
387 4 0.387607 0.372255 0.125654
385 2 0.374722 0.36747 0.104767
13 3 0.386028 0.37938 0.144498
11 1 0.405188 0.385679 0.155971
12 3 0.414649 0.366988 0.165473
15 3 0.420095 0.395148 0.141593
494 4 0.414964 0.411712 0.130869
1757 4 0.069026 0.446113 0.152125
1628 4 0.244914 0.426847 0.116798
626 4 0.237987 0.45732 0.154729
1627 2 0.260281 0.44531 0.123736
1629 4 0.275647 0.463774 0.130674
64 3 0.281514 0.481554 0.13937
1487 4 0.284637 0.478793 0.119723
1486 2 0.293045 0.476112 0.0963283
61 1 0.271877 0.482156 0.160469
63 3 0.251586 0.470903 0.160234
608 4 0.346481 0.415458 0.101992
658 2 0.408488 0.489307 0.154528
660 4 0.388207 0.500233 0.164247
659 4 0.428769 0.478381 0.144809
495 4 0.422316 0.460412 0.139527
493 2 0.41864 0.436062 0.135198
381 4 0.00621323 0.0697066 0.164103
512 4 0.0650188 0.0585677 0.247122
675 4 0.130423 0.0299617 0.229708
652 2 0.239557 0.0712404 0.166558
692 4 0.189889 0.0778372 0.226849
653 4 0.257217 0.0885591 0.170214
21 1 0.384997 0.0673641 0.175051
23 3 0.38202 0.0467004 0.185177
25 3 0.40504 0.0762335 0.181236
757 2 0.407996 0.0655087 0.22362
758 4 0.40643 0.0560468 0.246711
759 4 0.409561 0.0749705 0.200529
236 4 0.0605286 0.123347 0.183932
582 4 0.16033 0.0834513 0.166119
545 4 0.101405 0.0771737 0.185049
544 2 0.11644 0.0824445 0.204319
546 4 0.131475 0.0877154 0.22359
693 4 0.143894 0.0963084 0.23348
731 4 0.124495 0.102742 0.237894
566 4 0.149314 0.137318 0.175766
738 4 0.162155 0.151292 0.182548
691 2 0.166891 0.0870728 0.230164
598 2 0.199379 0.129382 0.2083
600 4 0.204114 0.127488 0.183822
599 4 0.194644 0.131275 0.232778
249 4 0.207725 0.14432 0.243183
404 4 0.188672 0.14727 0.243817
30 3 0.298184 0.146393 0.243313
22 3 0.368088 0.0814405 0.181764
29 3 0.334691 0.139603 0.237084
332 4 0.462877 0.154972 0.23879
363 4 0.0307754 0.245067 0.229221
370 2 0.150755 0.226686 0.169461
405 4 0.152546 0.181822 0.242484
371 4 0.128799 0.238647 0.169691
403 2 0.170609 0.164546 0.243151
737 4 0.179537 0.196063 0.168613
736 2 0.170846 0.173678 0.175581
311 4 0.297263 0.201261 0.173479
307 2 0.329746 0.20608 0.235121
308 4 0.335458 0.227711 0.223957
309 4 0.324034 0.184448 0.246284
331 2 0.476645 0.171958 0.250917
361 2 0.0524413 0.256095 0.235065
362 4 0.0741073 0.267123 0.240909
648 4 0.0423549 0.306649 0.200917
646 2 0.0623014 0.321586 0.198872
750 4 0.0919028 0.275215 0.235913
748 2 0.113012 0.284436 0.245637
647 4 0.0822479 0.336524 0.196827
498 4 0.329979 0.24691 0.227357
765 4 0.267659 0.280554 0.173446
729 4 0.343841 0.242864 0.211339
727 2 0.352087 0.259687 0.194781
728 4 0.360333 0.27651 0.178223
705 4 0.0975685 0.336809 0.21085
456 4 0.127999 0.372925 0.161032
415 2 0.147345 0.392238 0.196537
417 4 0.135779 0.379282 0.178549
704 4 0.128125 0.361533 0.179935
703 2 0.112847 0.349171 0.195392
416 4 0.158911 0.405194 0.214524
623 4 0.40994 0.348079 0.171899
14 3 0.399765 0.400716 0.172791
645 4 0.409615 0.41639 0.181058
109 3 0.486095 0.406228 0.199679
3717 4 0.0317282 0.488955 0.240246
603 4 0.0794088 0.447298 0.221198
3715 2 0.027704 0.486323 0.215709
1758 4 0.0813518 0.449864 0.200444
1756 2 0.0751889 0.447989 0.176285
3716 4 0.0236799 0.483691 0.191172
1790 4 0.007579 0.496023 0.186892
601 2 0.0860999 0.445137 0.245193
1659 4 0.218541 0.47761 0.233692
625 2 0.220223 0.453813 0.171972
627 4 0.202459 0.450307 0.189215
639 4 0.182758 0.446015 0.21012
637 2 0.172893 0.4568 0.230406
1657 2 0.225888 0.499806 0.22483
65 3 0.28588 0.472611 0.175683
1574 4 0.371501 0.488935 0.165192
1575 4 0.333847 0.489994 0.198081
1573 2 0.352674 0.489464 0.181636
643 2 0.426285 0.425873 0.1971
107 3 0.499305 0.432737 0.222818
644 4 0.442954 0.435357 0.213143
110 3 0.462706 0.43099 0.215724
106 1 0.483459 0.428159 0.206784
108 3 0.486438 0.44268 0.188933
511 2 0.0556183 0.0790024 0.258042
232 2 0.0647689 0.00244124 0.31946
673 2 0.136678 0.0276142 0.253803
234 4 0.0885366 0.0101602 0.318628
428 4 0.108768 0.00980565 0.32339
674 4 0.142933 0.0252668 0.277897
1463 4 0.162178 0.0268051 0.282906
429 4 0.147602 0.0287393 0.298208
427 2 0.128185 0.0192725 0.310799
1462 2 0.179565 0.00918001 0.286399
466 2 0.221208 0.06303 0.286648
467 4 0.202421 0.077283 0.278336
468 4 0.239995 0.048777 0.29496
706 2 0.323495 0.0556185 0.313061
707 4 0.30173 0.0676073 0.315842
633 4 0.283062 0.0819985 0.317377
682 2 0.273957 0.0402129 0.320702
684 4 0.28204 0.0637176 0.323418
631 2 0.270307 0.089371 0.297174
683 4 0.265874 0.0167083 0.317987
726 4 0.295762 0.0761234 0.333025
708 4 0.34526 0.0436298 0.310281
744 4 0.40073 0.0693556 0.259626
1517 4 0.396208 0.0743228 0.321767
480 4 0.45117 0.048784 0.265238
479 4 0.436234 0.0741028 0.305693
478 2 0.443702 0.0614434 0.285466
513 4 0.0462178 0.099437 0.268961
531 4 0.0275869 0.107397 0.271696
529 2 0.00321135 0.105824 0.266354
2482 2 0.0635171 0.121664 0.29177
2483 4 0.0423537 0.109688 0.285951
392 4 0.079907 0.151417 0.288494
730 2 0.123117 0.0971724 0.26223
2484 4 0.0846806 0.133641 0.297588
732 4 0.121738 0.0916026 0.286567
399 4 0.120458 0.13004 0.328726
247 2 0.224553 0.161575 0.249835
26 1 0.319034 0.147186 0.252439
632 4 0.257553 0.0967435 0.276971
27 3 0.319689 0.133652 0.271027
742 2 0.398346 0.0904667 0.27281
743 4 0.395962 0.111578 0.285994
349 2 0.396898 0.13905 0.296843
351 4 0.379172 0.122701 0.290236
350 4 0.414625 0.155399 0.303449
451 2 0.449575 0.128948 0.309542
452 4 0.430818 0.145436 0.308335
453 4 0.468333 0.112459 0.310748
391 2 0.0780826 0.176191 0.285649
393 4 0.0762582 0.200965 0.282805
536 4 0.23841 0.244237 0.295039
248 4 0.241382 0.17883 0.256487
28 3 0.324067 0.168924 0.258806
278 4 0.25269 0.230221 0.294091
277 2 0.255469 0.210388 0.279121
279 4 0.258247 0.190555 0.264151
333 4 0.490414 0.188945 0.263045
419 4 0.438857 0.214711 0.290371
418 2 0.430227 0.218489 0.313532
388 2 0.0201115 0.260925 0.325574
390 4 0.0293224 0.274244 0.306524
444 4 0.0435511 0.270804 0.293213
442 2 0.0582987 0.290986 0.293834
443 4 0.0730462 0.311168 0.294455
547 2 0.0187008 0.319362 0.323392
548 4 0.0404999 0.317211 0.335448
408 4 0.078426 0.317032 0.313572
749 4 0.134121 0.293657 0.255361
299 4 0.132717 0.29328 0.276131
298 2 0.137508 0.316472 0.284153
535 2 0.227265 0.266195 0.2907
537 4 0.21612 0.288152 0.286361
496 2 0.325674 0.265327 0.243712
497 4 0.321369 0.283743 0.260067
300 4 0.1423 0.339664 0.292174
734 4 0.135564 0.350961 0.30672
733 2 0.132316 0.355067 0.331169
414 4 0.178246 0.413024 0.327251
438 4 0.250544 0.389894 0.294242
436 2 0.270655 0.404534 0.296769
587 4 0.498341 0.352868 0.311031
586 2 0.486512 0.347135 0.332301
2537 4 0.501316 0.40218 0.286072
776 4 0.0790847 0.487504 0.319905
638 4 0.163028 0.467585 0.250693
602 4 0.092791 0.442975 0.269187
289 2 0.156697 0.500993 0.261461
501 4 0.0977565 0.483701 0.316868
768 4 0.152398 0.466245 0.268322
766 2 0.14789 0.446345 0.282774
290 4 0.147099 0.479305 0.253543
767 4 0.143383 0.426445 0.297225
499 2 0.116692 0.47622 0.331382
1437 4 0.238205 0.483465 0.316553
1435 2 0.219334 0.474504 0.330291
437 4 0.290767 0.419174 0.299296
542 4 0.420919 0.457809 0.30659
541 2 0.418594 0.457291 0.33148
2756 4 0.0123416 0.0529368 0.37707
317 4 0.0263882 0.0529076 0.390567
316 2 0.0458162 0.0376598 0.386663
318 4 0.0652441 0.0224121 0.382759
1602 4 0.0811629 0.0118437 0.37746
605 4 0.179127 0.043787 0.386314
604 2 0.196901 0.0613656 0.386837
606 4 0.214674 0.0789442 0.387359
440 4 0.24316 0.0178054 0.370249
473 4 0.231601 0.0880634 0.382729
276 4 0.225511 0.0845381 0.403062
439 2 0.252252 0.0263316 0.391924
724 2 0.288405 0.0777593 0.356866
1670 4 0.330515 0.029901 0.384104
725 4 0.281049 0.0793952 0.380707
441 4 0.261345 0.0348579 0.413599
1669 2 0.333676 0.0511156 0.371253
1516 2 0.376357 0.0725958 0.336871
1671 4 0.336837 0.0723302 0.358403
1427 4 0.404833 0.0325361 0.39285
1518 4 0.356506 0.0708688 0.351975
1426 2 0.422185 0.0159139 0.399762
2654 4 0.0229619 0.147932 0.39233
398 4 0.0808237 0.141995 0.356779
2653 2 0.0204791 0.163961 0.411358
397 2 0.100641 0.136018 0.342752
474 4 0.229924 0.100713 0.334377
472 2 0.230763 0.0943883 0.358553
274 2 0.222064 0.106411 0.414676
375 4 0.229814 0.139583 0.415375
373 2 0.239938 0.162418 0.414254
699 4 0.326265 0.0892978 0.357508
697 2 0.33409 0.111639 0.349456
698 4 0.341915 0.13398 0.341404
257 4 0.412154 0.144291 0.402403
514 2 0.407081 0.166094 0.368385
516 4 0.416171 0.151118 0.386225
1580 4 0.469376 0.124187 0.374149
1579 2 0.446109 0.12771 0.382598
1581 4 0.422841 0.131233 0.391047
389 4 0.0109006 0.247605 0.344625
374 4 0.250062 0.185252 0.413133
487 2 0.302153 0.238817 0.374202
488 4 0.315843 0.230801 0.393528
717 4 0.328936 0.21478 0.398394
489 4 0.288464 0.246834 0.354876
515 4 0.397991 0.181069 0.350544
584 4 0.503652 0.179334 0.391636
420 4 0.421597 0.222268 0.336693
306 4 0.413316 0.22274 0.354832
304 2 0.434546 0.22159 0.36799
305 4 0.455777 0.22044 0.381148
270 4 0.472215 0.224827 0.390737
583 2 0.482705 0.192938 0.392776
585 4 0.461758 0.206543 0.393917
267 4 0.445743 0.21477 0.401339
268 2 0.482174 0.245542 0.380894
616 2 0.0616076 0.299894 0.388214
617 4 0.0589378 0.290966 0.411416
618 4 0.0642774 0.308822 0.365012
406 2 0.0811305 0.316169 0.338414
407 4 0.0838351 0.315307 0.363256
344 4 0.212857 0.324584 0.347154
1260 4 0.237544 0.286591 0.403247
1258 2 0.256724 0.274139 0.413359
378 4 0.341879 0.32356 0.35778
376 2 0.36649 0.321162 0.354078
377 4 0.391102 0.318765 0.350376
435 4 0.412484 0.323553 0.352805
433 2 0.435014 0.33288 0.358334
1714 2 0.481053 0.325957 0.394349
269 4 0.492134 0.266257 0.371052
735 4 0.129067 0.359174 0.355619
677 4 0.13517 0.370216 0.373542
676 2 0.157447 0.365173 0.383715
343 2 0.202496 0.339375 0.364447
345 4 0.192135 0.354166 0.38174
402 4 0.192972 0.34931 0.403526
678 4 0.179724 0.36013 0.393888
593 4 0.323858 0.334289 0.352081
592 2 0.319573 0.358905 0.353025
594 4 0.315289 0.38352 0.35397
614 4 0.392123 0.413125 0.381073
434 4 0.457544 0.342207 0.363864
1715 4 0.473206 0.329623 0.370894
588 4 0.474683 0.341401 0.35357
119 3 0.481162 0.381498 0.387204
3989 4 0.488578 0.391226 0.40396
500 4 0.135627 0.46874 0.345897
413 4 0.192406 0.451391 0.356029
412 2 0.185326 0.432208 0.34164
1436 4 0.200463 0.465542 0.34403
1557 4 0.196454 0.438614 0.412346
1555 2 0.220646 0.434195 0.416858
613 2 0.407274 0.432871 0.378688
446 4 0.470843 0.456848 0.414978
1697 4 0.458233 0.495824 0.404465
713 4 0.423572 0.474553 0.373002
615 4 0.422426 0.452618 0.376303
543 4 0.416269 0.456772 0.35637
447 4 0.440864 0.461915 0.375275
445 2 0.455854 0.459382 0.395126
720 4 0.998468 0.0555999 0.481915
367 2 0.0659513 0.0486884 0.477112
369 4 0.0637526 0.0590421 0.45446
368 4 0.06815 0.0383347 0.499765
1818 4 0.248021 0.0178499 0.472992
962 4 0.316253 0.0272981 0.460459
1817 4 0.296694 0.0229844 0.462731
1816 2 0.272357 0.0204172 0.467862
961 2 0.321343 0.0513169 0.46519
321 4 0.339017 0.0849187 0.482582
426 4 0.393494 0.0618124 0.478117
424 2 0.370047 0.0686959 0.472822
963 4 0.326432 0.0753356 0.46992
425 4 0.3466 0.0755795 0.467527
687 4 0.146435 0.130447 0.440152
685 2 0.151744 0.127548 0.464413
686 4 0.157052 0.12465 0.488674
275 4 0.218617 0.128284 0.426289
1152 4 0.176691 0.119639 0.489752
319 2 0.328697 0.103427 0.495854
432 4 0.33057 0.0934124 0.46379
431 4 0.345725 0.107886 0.418385
430 2 0.338148 0.100649 0.441087
409 2 0.340469 0.1593 0.497685
256 2 0.411524 0.14131 0.427221
258 4 0.410893 0.138328 0.452038
576 4 0.371562 0.169959 0.479504
2655 4 0.0179964 0.17999 0.430387
348 4 0.010388 0.175069 0.449086
346 2 0.0206951 0.186138 0.468996
347 4 0.0310022 0.197207 0.488906
993 4 0.238423 0.252993 0.496693
510 4 0.266218 0.19673 0.421586
508 2 0.287425 0.207179 0.413444
509 4 0.308631 0.217628 0.405302
651 4 0.31404 0.177145 0.494263
649 2 0.296506 0.194463 0.490041
650 4 0.278972 0.211781 0.48582
711 4 0.27971 0.228975 0.476711
709 2 0.274626 0.246438 0.459553
574 2 0.391362 0.174809 0.465026
715 2 0.344719 0.224405 0.415229
410 4 0.35608 0.176613 0.488645
716 4 0.360503 0.234031 0.432064
575 4 0.411163 0.179658 0.450548
266 4 0.416064 0.187456 0.430899
872 4 0.462887 0.223247 0.408291
265 2 0.430904 0.201113 0.416119
871 2 0.470424 0.233253 0.42993
873 4 0.477962 0.24326 0.451569
2814 4 0.0612135 0.316787 0.46942
2812 2 0.049636 0.297209 0.479805
2813 4 0.0380584 0.277632 0.49019
1136 4 0.120159 0.288222 0.459161
1135 2 0.112368 0.303787 0.477111
1137 4 0.104576 0.319353 0.495061
1041 4 0.0972424 0.337214 0.493344
1259 4 0.275905 0.261687 0.42347
710 4 0.269542 0.2639 0.442395
1716 4 0.488899 0.322291 0.417805
400 2 0.209646 0.342483 0.420862
401 4 0.22632 0.335656 0.438198
503 4 0.195805 0.408168 0.455283
3990 4 0.46276 0.373487 0.442941
3988 2 0.475669 0.382357 0.42345
752 4 0.504236 0.355405 0.498249
383 4 0.0330093 0.429809 0.45599
382 2 0.0421582 0.450689 0.445719
384 4 0.051307 0.47157 0.435449
634 2 0.183379 0.48846 0.446756
1556 4 0.244839 0.429775 0.42137
772 2 0.221922 0.480859 0.490339
502 2 0.199778 0.429764 0.467242
504 4 0.20375 0.451359 0.479202
636 4 0.189329 0.472587 0.465137
773 4 0.204722 0.470142 0.475693
4 3 0.280331 0.494677 0.463655
668 4 0.267422 0.48552 0.451219
669 4 0.260124 0.440542 0.430618
667 2 0.263773 0.463031 0.440919
882 4 0.370502 0.438942 0.483171
880 2 0.355765 0.449143 0.500604
1268 4 0.419185 0.428966 0.478315
1059 4 0.0672625 0.0453566 0.518597
1057 2 0.0687585 0.0618736 0.537308
937 2 0.0513936 0.00575 0.516554
938 4 0.0661682 0.0259013 0.517456
1031 4 0.216308 0.075 0.566111
1181 4 0.269697 0.0785656 0.533809
843 4 0.292878 0.997237 0.569644
1217 4 0.36093 0.0168218 0.56561
1216 2 0.36215 0.03961 0.555393
1218 4 0.36337 0.0623983 0.545176
89 3 0.4174 0.0428004 0.567193
90 3 0.420686 0.0053281 0.565552
86 1 0.430456 0.0245121 0.572979
87 3 0.451152 0.0267549 0.563192
1058 4 0.0702546 0.0783905 0.55602
824 4 0.074371 0.0853032 0.579045
2429 4 0.0833465 0.0905274 0.56331
2428 2 0.108093 0.0929891 0.565904
2430 4 0.132839 0.0954508 0.568498
944 4 0.136528 0.108233 0.554327
943 2 0.152728 0.126897 0.550531
260 4 0.116125 0.135432 0.505671
259 2 0.109702 0.159595 0.505932
945 4 0.168927 0.145561 0.546736
1180 2 0.250318 0.083822 0.54871
1182 4 0.23094 0.0890785 0.56361
1151 4 0.198551 0.142013 0.528768
1220 4 0.181454 0.152011 0.531726
1150 2 0.187621 0.130826 0.50926
1030 2 0.203439 0.0900506 0.581377
887 4 0.326492 0.124051 0.539393
886 2 0.325926 0.126069 0.564308
320 4 0.318378 0.121934 0.509126
411 4 0.324858 0.141986 0.506725
1062 4 0.482306 0.130493 0.575489
1060 2 0.504557 0.119397 0.572852
877 2 0.0239558 0.194192 0.547675
1272 4 0.0621158 0.206668 0.542229
879 4 0.0433144 0.204633 0.535783
878 4 0.00459722 0.183752 0.559567
1270 2 0.0818681 0.200958 0.556456
1082 4 0.0373366 0.24041 0.575891
1033 2 0.125005 0.215123 0.525909
1034 4 0.141702 0.232644 0.532187
1035 4 0.108309 0.197601 0.519631
261 4 0.103278 0.183758 0.506193
1271 4 0.10162 0.195248 0.570684
1154 4 0.110818 0.183949 0.557645
695 4 0.156307 0.245356 0.538099
1153 2 0.126852 0.17177 0.57247
1219 2 0.194174 0.165663 0.548371
1221 4 0.206893 0.179314 0.565015
694 2 0.180646 0.243714 0.532614
696 4 0.204985 0.242072 0.527128
325 2 0.242548 0.193715 0.565404
327 4 0.219264 0.191663 0.556527
8 3 0.237759 0.228846 0.560816
6 1 0.234986 0.247155 0.574797
326 4 0.265833 0.195767 0.574282
953 4 0.461664 0.231091 0.581662
952 2 0.441991 0.217148 0.588277
934 2 0.00704436 0.296099 0.520184
935 4 0.017214 0.308423 0.539417
991 2 0.233026 0.25429 0.521072
992 4 0.227629 0.255586 0.545452
9 3 0.222788 0.263638 0.563938
1064 4 0.230405 0.277677 0.575542
790 2 0.329797 0.282326 0.54901
792 4 0.315381 0.293845 0.565882
812 4 0.322402 0.312342 0.562762
804 4 0.295738 0.298163 0.569431
802 2 0.27399 0.286216 0.572506
803 4 0.252242 0.274268 0.575582
791 4 0.344213 0.270806 0.532138
560 4 0.481429 0.291044 0.510525
559 2 0.493645 0.312476 0.506447
2846 4 0.0156752 0.328507 0.555288
1039 2 0.0945592 0.340107 0.518034
1040 4 0.0918759 0.343 0.542724
1160 4 0.148874 0.418083 0.576178
811 2 0.327337 0.336258 0.55739
813 4 0.332272 0.360174 0.552019
753 4 0.466615 0.385844 0.510853
751 2 0.485425 0.370625 0.504551
1938 4 0.0481731 0.47814 0.536764
1159 2 0.16741 0.420245 0.559538
1161 4 0.185947 0.422407 0.542897
1173 4 0.204016 0.42688 0.546717
1171 2 0.228359 0.432163 0.548889
774 4 0.239121 0.491577 0.504984
1172 4 0.252701 0.437445 0.55106
881 4 0.341028 0.459345 0.518038
663 4 0.382163 0.476569 0.538024
661 2 0.389486 0.490793 0.557239
4084 2 0.470123 0.477386 0.53214
1267 2 0.429622 0.438367 0.498999
1269 4 0.44006 0.447768 0.519684
4085 4 0.456056 0.458796 0.523102
4086 4 0.48419 0.495977 0.541177
823 2 0.0625429 0.0795528 0.60031
2319 4 0.0494286 0.0334811 0.62239
825 4 0.0507149 0.0738023 0.621575
2317 2 0.0546572 0.0178564 0.603583
2318 4 0.0598858 0.00223163 0.584776
98 3 0.209795 0.0554214 0.648845
100 3 0.245799 0.0459244 0.654424
950 4 0.247183 0.0571475 0.638438
951 4 0.288017 0.059916 0.609703
949 2 0.2676 0.0585318 0.624071
1003 2 0.326424 0.0119103 0.63149
1004 4 0.309115 0.997116 0.641819
1005 4 0.343733 0.0267048 0.62116
1092 4 0.359272 0.025448 0.607694
1090 2 0.383312 0.0322595 0.60677
1091 4 0.407352 0.039071 0.605847
88 3 0.433107 0.0236427 0.596014
2283 4 0.421452 0.0246424 0.612431
2281 2 0.430944 0.0250615 0.635559
2282 4 0.440437 0.0254807 0.658686
3007 2 0.460518 0.0675837 0.607426
3008 4 0.467331 0.0443563 0.601161
4467 4 0.486536 0.0449342 0.606966
3266 4 0.00216878 0.113693 0.664406
1284 4 0.152495 0.146357 0.598999
1155 4 0.142885 0.15959 0.587295
1211 4 0.155781 0.166228 0.601663
1282 2 0.166638 0.127154 0.606508
1032 4 0.190571 0.105101 0.596644
1283 4 0.180781 0.107951 0.614017
888 4 0.325361 0.128088 0.589224
806 4 0.321686 0.127073 0.610349
805 2 0.31886 0.13517 0.633835
1238 4 0.312412 0.142569 0.596279
807 4 0.316034 0.143268 0.657322
1237 2 0.295997 0.160992 0.592243
900 4 0.353553 0.0845868 0.610683
898 2 0.360633 0.107848 0.616511
899 4 0.367713 0.131109 0.62234
148 3 0.407017 0.0981471 0.619809
1194 4 0.363723 0.151358 0.624664
905 4 0.416055 0.139147 0.608447
149 3 0.403826 0.126971 0.595246
904 2 0.413618 0.162546 0.599979
830 4 0.333978 0.144458 0.665401
146 1 0.417996 0.11061 0.603606
150 3 0.424962 0.0969987 0.586729
3009 4 0.453705 0.0908112 0.613691
147 3 0.436277 0.120784 0.61317
3052 2 0.470528 0.116719 0.632792
3053 4 0.449798 0.109173 0.621023
3251 4 0.422699 0.131601 0.625235
3250 2 0.421714 0.140337 0.648643
3054 4 0.491258 0.124266 0.64456
850 2 0.0462877 0.192327 0.637242
1081 2 0.0504201 0.228736 0.593715
852 4 0.0662265 0.20624 0.631407
1083 4 0.0635036 0.217062 0.61154
1208 4 0.0625719 0.227031 0.627963
1207 2 0.0657182 0.246292 0.643593
851 4 0.0263489 0.178414 0.643078
909 4 0.0805651 0.220848 0.624583
908 4 0.113701 0.187181 0.608172
907 2 0.0971328 0.204014 0.616377
1210 2 0.164313 0.185324 0.615364
7 3 0.223449 0.240508 0.593555
1212 4 0.172845 0.20442 0.629066
1239 4 0.279581 0.179415 0.588206
1193 4 0.364666 0.201297 0.627097
1192 2 0.364194 0.176327 0.625881
906 4 0.41118 0.185945 0.591511
1025 4 0.407763 0.231192 0.645407
1024 2 0.407587 0.214822 0.626508
1026 4 0.407412 0.198453 0.607608
954 4 0.422319 0.203205 0.594892
1209 4 0.0688646 0.265552 0.659224
857 4 0.135021 0.286342 0.628594
856 2 0.148387 0.304209 0.639878
858 4 0.161753 0.322075 0.651161
1065 4 0.214077 0.316388 0.602662
1063 2 0.222241 0.297033 0.589102
796 2 0.201112 0.323163 0.634986
798 4 0.22135 0.320884 0.620479
797 4 0.180875 0.325442 0.649492
10 3 0.255311 0.255344 0.581
3274 2 0.0317008 0.37813 0.649093
3276 4 0.0520034 0.392495 0.651668
983 4 0.99874 0.351698 0.634244
3275 4 0.0113981 0.363765 0.646517
897 4 0.140143 0.402678 0.586518
1190 4 0.222453 0.412115 0.580042
1189 2 0.235518 0.391876 0.586743
1191 4 0.248582 0.371637 0.593443
1007 4 0.397079 0.339314 0.64678
895 2 0.120363 0.417164 0.591429
896 4 0.100584 0.431649 0.596341
1176 4 0.235889 0.443625 0.632197
1174 2 0.240811 0.432594 0.654089
1002 4 0.395795 0.501397 0.595733
4148 4 0.460239 0.488152 0.598584
2167 2 0.477166 0.478474 0.632702
2169 4 0.479619 0.484149 0.608475
2168 4 0.474714 0.472799 0.656929
4147 2 0.437179 0.496915 0.594509
1185 4 0.0551909 0.0122082 0.695956
96 1 0.226042 0.0506619 0.664712
97 3 0.219324 0.0324055 0.676989
2202 4 0.227865 0.0556982 0.69527
99 3 0.228695 0.068748 0.679004
2262 4 0.223646 0.0359421 0.695863
2200 2 0.224598 0.0697551 0.715689
2260 2 0.220253 0.0160095 0.710572
2398 2 0.385039 0.0286696 0.725563
2400 4 0.362795 0.0245569 0.71491
2399 4 0.407282 0.0327824 0.736216
846 4 0.413345 0.0499567 0.736051
2322 4 0.427035 0.0341734 0.727342
1926 4 0.42467 0.0313972 0.748193
1162 2 0.486303 0.0507038 0.674979
2321 4 0.442816 0.0550649 0.684737
2320 2 0.434925 0.0446192 0.70604
1163 4 0.463108 0.0476122 0.68379
2342 4 0.435759 0.0160023 0.700639
1076 4 0.0216793 0.164546 0.690734
1077 4 0.0319084 0.116606 0.700625
864 4 0.0420126 0.111709 0.717814
862 2 0.0443655 0.104149 0.741531
1075 2 0.0267938 0.140576 0.695679
1225 2 0.149062 0.136491 0.721357
1227 4 0.131795 0.152686 0.713311
1226 4 0.166329 0.120296 0.729403
2201 4 0.221331 0.083812 0.736107
1148 4 0.183811 0.129446 0.728101
1147 2 0.195525 0.110072 0.738712
829 2 0.325829 0.163991 0.678713
3252 4 0.420729 0.149072 0.67205
1073 4 0.0787951 0.185794 0.725072
1072 2 0.0935714 0.205922 0.723763
1074 4 0.108348 0.226049 0.722455
948 4 0.125915 0.242996 0.667326
893 4 0.1115 0.241715 0.734126
947 4 0.124367 0.236898 0.716936
946 2 0.125141 0.239947 0.692131
1277 4 0.146014 0.241451 0.749804
918 4 0.236917 0.192502 0.741229
45 3 0.231806 0.174895 0.747695
916 2 0.252069 0.211809 0.73645
917 4 0.267221 0.231116 0.731671
809 4 0.308631 0.170408 0.707313
3204 4 0.322783 0.183241 0.710812
831 4 0.31768 0.183524 0.692025
808 2 0.292722 0.168622 0.726519
3202 2 0.341026 0.191186 0.725953
3203 4 0.359268 0.199131 0.741094
3486 4 0.370291 0.202163 0.725601
3484 2 0.391839 0.214417 0.722326
3485 4 0.413386 0.226672 0.71905
1179 4 0.00843139 0.26272 0.703475
3355 2 0.488933 0.292427 0.69431
1263 4 0.428225 0.302235 0.729997
3356 4 0.480379 0.315606 0.698145
1261 2 0.446844 0.313839 0.718003
1262 4 0.465463 0.325444 0.706009
3123 4 0.479525 0.337196 0.698496
816 4 0.0787347 0.357423 0.746597
815 4 0.123546 0.375783 0.734122
814 2 0.10114 0.366603 0.74036
942 4 0.143212 0.36942 0.729829
940 2 0.160964 0.385866 0.723539
1067 4 0.197653 0.404364 0.71901
1066 2 0.21321 0.406978 0.699611
1068 4 0.228768 0.409593 0.680212
941 4 0.178716 0.402312 0.717249
2013 4 0.183546 0.408565 0.733564
1080 4 0.18568 0.423317 0.718997
1029 4 0.292825 0.394529 0.689589
1027 2 0.269325 0.402922 0.691165
1028 4 0.245825 0.411315 0.692741
1006 2 0.397803 0.353379 0.667439
1008 4 0.398527 0.367445 0.688099
998 4 0.394614 0.360473 0.728159
997 2 0.395577 0.385028 0.732777
999 4 0.396541 0.409582 0.737396
3430 2 0.00750127 0.461811 0.716576
3431 4 0.0240698 0.443091 0.71613
1280 4 0.0629302 0.454122 0.690074
1279 2 0.0725764 0.441089 0.709108
1281 4 0.0822225 0.428056 0.728141
885 4 0.0900618 0.442783 0.739562
2015 4 0.130387 0.457146 0.707269
1079 4 0.150534 0.456578 0.706382
2014 2 0.129366 0.474368 0.689172
2016 4 0.128346 0.491591 0.671074
1952 4 0.23395 0.504636 0.670467
1175 4 0.245734 0.421562 0.675981
1078 2 0.168107 0.439947 0.712689
929 4 0.285333 0.473913 0.72557
1228 2 0.328366 0.468023 0.732542
1229 4 0.305467 0.474181 0.724611
928 2 0.282303 0.495505 0.737808
1230 4 0.351264 0.461864 0.740474
1206 4 0.421956 0.457911 0.699
1205 4 0.410161 0.424513 0.7343
1204 2 0.416058 0.441212 0.71665
1250 4 0.472463 0.471926 0.676934
1249 2 0.448188 0.466017 0.677911
1251 4 0.423912 0.460108 0.678887
1202 4 0.0258883 0.0657969 0.814757
1201 2 0.0400961 0.0792267 0.79917
1255 2 0.320056 0.0537234 0.789208
1256 4 0.315296 0.0734282 0.803845
1257 4 0.324816 0.0340185 0.774571
838 2 0.282477 0.0802386 0.823119
1113 4 0.406803 0.0289133 0.756913
844 2 0.410942 0.0639439 0.756636