ITEM: TIMESTEP
3260000
ITEM: NUMBER OF ATOMS
4590
ITEM: BOX BOUNDS pp pp pp
-9.9985700000000008e+00 9.9985700000000008e+00
-9.9985700000000008e+00 9.9985700000000008e+00
-9.9985700000000008e+00 9.9985700000000008e+00
ITEM: ATOMS id type xs ys zs
379 2 0.0468924 0.0420815 0.0332046
380 4 0.0531104 0.0372042 0.00948268
381 4 0.0406744 0.0469587 0.0569264
2481 4 0.0566187 0.0461255 0.0676513
2163 4 0.269778 0.0184181 0.0321204
2161 2 0.26685 0.0218612 0.00752863
491 4 0.270489 0.00482657 0.076761
2467 2 0.401522 0.0540563 0.0359872
2469 4 0.389215 0.0354827 0.0473335
2723 4 0.383188 0.0312711 0.0647581
1760 4 0.392131 0.0175134 0.044812
1759 2 0.405431 0.999189 0.0554194
2722 2 0.371628 0.0437082 0.0831115
2468 4 0.413829 0.0726298 0.024641
531 4 0.0188219 0.125814 0.0218341
422 4 0.230679 0.118109 0.0664636
421 2 0.243109 0.101379 0.0802762
283 2 0.285728 0.151642 0.0508345
284 4 0.294048 0.132553 0.0369949
653 4 0.323123 0.094953 0.0803168
557 4 0.40122 0.0922034 0.0706592
665 4 0.339846 0.0907674 0.0674792
664 2 0.353562 0.10698 0.0542809
666 4 0.367278 0.123193 0.0410827
866 4 0.358059 0.13725 0.0528019
865 2 0.372418 0.157684 0.0540177
360 4 0.220129 0.173533 0.0322524
358 2 0.236947 0.175867 0.050606
764 4 0.262638 0.177574 0.0886426
359 4 0.253766 0.178202 0.0689596
354 4 0.271872 0.188971 0.0738558
285 4 0.277408 0.170732 0.064674
352 2 0.274716 0.210181 0.0609235
353 4 0.27756 0.23139 0.0479912
867 4 0.386777 0.178117 0.0552335
770 4 0.443316 0.219216 0.0618744
769 2 0.455167 0.199816 0.0722857
1307 4 0.446364 0.235493 0.0492946
771 4 0.467018 0.180417 0.082697
2625 4 0.0162862 0.249053 0.0164067
2623 2 0.0335219 0.266136 0.0224323
2624 4 0.0507575 0.283218 0.028458
38 3 0.220068 0.286375 0.00877527
36 1 0.228934 0.282643 0.0298907
37 3 0.222687 0.26167 0.0369789
1512 4 0.216898 0.268199 0.0544643
1710 4 0.217028 0.287161 0.0608659
1510 2 0.214866 0.25244 0.0737699
1708 2 0.217421 0.306463 0.0767552
39 3 0.220702 0.298372 0.044832
755 4 0.263133 0.267499 0.0290765
40 3 0.251663 0.283832 0.0290955
754 2 0.2865 0.267483 0.0379744
756 4 0.309867 0.267467 0.0468722
740 4 0.323896 0.268202 0.0611205
739 2 0.337333 0.289191 0.0591034
741 4 0.35077 0.310181 0.0570862
386 4 0.347525 0.330195 0.0532549
1306 2 0.437061 0.256235 0.0388833
1308 4 0.427759 0.276977 0.028472
837 4 0.0575795 0.352589 0.995092
836 4 0.0425387 0.341945 0.04158
287 4 0.0379194 0.350237 0.0608103
2807 4 0.0283664 0.373883 0.0601525
656 4 0.0244598 0.340782 0.0499386
2806 2 0.0274543 0.395722 0.0480107
835 2 0.0500591 0.347267 0.0183358
903 4 0.324614 0.38863 0.0116767
901 2 0.315408 0.411845 0.0128922
387 4 0.362238 0.377522 0.0465933
385 2 0.354882 0.353858 0.0499241
13 3 0.369163 0.395697 0.0417119
11 1 0.389734 0.405095 0.0365249
15 3 0.400017 0.392832 0.0203223
12 3 0.402846 0.405188 0.0554253
2808 4 0.0265421 0.41756 0.0358689
1787 4 0.00620442 0.481572 0.0250783
1786 2 0.00297497 0.503697 0.0138868
1440 4 0.136873 0.492467 0.0794136
1438 2 0.15027 0.497934 0.059022
246 4 0.305137 0.49216 0.0275217
244 2 0.292214 0.479828 0.0450175
245 4 0.279291 0.467496 0.0625133
902 4 0.306202 0.43506 0.0141076
252 4 0.285555 0.474051 0.00552936
1289 4 0.289982 0.492269 0.0140291
14 3 0.386858 0.426952 0.0292843
4304 4 0.40202 0.440066 0.0232778
3792 4 0.403581 0.493665 0.0138013
4303 2 0.41869 0.457958 0.0180627
4305 4 0.435359 0.475849 0.0128476
672 4 0.461844 0.433026 0.0600131
670 2 0.451178 0.448063 0.0769039
4119 4 0.445309 0.49336 0.00911029
2479 2 0.0580724 0.0363186 0.0906054
2480 4 0.0595261 0.0265117 0.113559
3783 4 0.0598112 0.013085 0.128725
579 4 0.275457 0.0239826 0.0766251
577 2 0.269398 0.0454677 0.0878879
2724 4 0.360067 0.0561453 0.101465
22 3 0.338851 0.0415462 0.153606
297 4 0.358383 0.0774243 0.155578
295 2 0.379952 0.0786372 0.142989
296 4 0.401522 0.07985 0.1304
629 4 0.43563 0.0779417 0.118836
628 2 0.438198 0.0732178 0.143255
513 4 0.0683632 0.148293 0.149943
511 2 0.0708927 0.126887 0.162616
652 2 0.299731 0.0886974 0.0865486
423 4 0.255538 0.084649 0.0940888
654 4 0.276338 0.0824418 0.0927805
578 4 0.263338 0.0669529 0.0991506
582 4 0.275902 0.0879674 0.15846
580 2 0.265254 0.0865355 0.135882
581 4 0.254605 0.0851035 0.113305
534 4 0.272441 0.161811 0.08362
532 2 0.278969 0.1476 0.103129
533 4 0.285498 0.13339 0.122639
556 2 0.409035 0.0874171 0.0939229
558 4 0.41685 0.0826307 0.117187
237 4 0.148617 0.206932 0.140108
477 4 0.14349 0.217014 0.122492
475 2 0.124987 0.232464 0.129134
235 2 0.160719 0.199544 0.160703
647 4 0.0880963 0.245459 0.144001
476 4 0.106484 0.247915 0.135776
763 2 0.243464 0.187745 0.101055
1511 4 0.212833 0.236681 0.0930755
765 4 0.224289 0.197917 0.113467
311 4 0.298774 0.218931 0.115958
310 2 0.315281 0.200821 0.110983
312 4 0.331787 0.182712 0.106007
2519 4 0.481683 0.166783 0.089855
2518 2 0.489528 0.181805 0.10824
624 4 0.442225 0.235948 0.123135
622 2 0.458045 0.25041 0.11026
648 4 0.0704479 0.28973 0.159146
646 2 0.0792721 0.267594 0.151574
404 4 0.0365877 0.27558 0.101505
403 2 0.0152356 0.28824 0.104506
1709 4 0.217813 0.325764 0.0926444
612 4 0.319083 0.283281 0.154624
610 2 0.303112 0.300038 0.145174
611 4 0.287142 0.316796 0.135723
308 4 0.331211 0.322357 0.15964
1304 4 0.493891 0.26865 0.0897804
498 4 0.481436 0.281476 0.0919771
623 4 0.473865 0.264871 0.097385
518 4 0.471092 0.283018 0.157993
496 2 0.477594 0.305218 0.0988157
497 4 0.473751 0.328959 0.105654
286 2 0.0450809 0.347637 0.0846249
288 4 0.0522423 0.345038 0.108439
913 2 0.00517655 0.407668 0.140603
914 4 0.0127734 0.391222 0.157837
338 4 0.134394 0.366833 0.143683
337 2 0.121385 0.361716 0.164414
302 4 0.287234 0.335891 0.126742
303 4 0.290473 0.385689 0.123522
301 2 0.288854 0.36079 0.125132
1046 4 0.51109 0.399182 0.148505
915 4 0.99758 0.424115 0.12337
416 4 0.0754888 0.430025 0.152031
415 2 0.058852 0.446148 0.161434
1573 2 0.315634 0.445506 0.124036
1574 4 0.310992 0.430199 0.143254
1575 4 0.320275 0.460813 0.104818
1629 4 0.330676 0.478395 0.101937
525 4 0.328584 0.437414 0.150079
1627 2 0.325067 0.499917 0.113363
955 2 0.452366 0.463965 0.129303
956 4 0.448349 0.476479 0.108032
671 4 0.440513 0.4631 0.0937946
957 4 0.456383 0.45145 0.150573
466 2 0.178772 0.0573403 0.246656
468 4 0.169901 0.0756616 0.232136
23 3 0.30794 0.0543125 0.170758
21 1 0.329586 0.0466254 0.174039
24 3 0.329289 0.0274582 0.187113
1463 4 0.334906 0.0137514 0.200332
25 3 0.342105 0.0627379 0.184155
759 4 0.351101 0.076913 0.172881
630 4 0.440766 0.0684938 0.167673
512 4 0.0734222 0.105482 0.175288
567 4 0.138009 0.0942792 0.177625
565 2 0.15316 0.0906947 0.19719
566 4 0.168311 0.0871101 0.216754
600 4 0.186207 0.0905907 0.224211
598 2 0.193981 0.114323 0.225446
599 4 0.201756 0.138055 0.226681
726 4 0.241926 0.172402 0.230486
474 4 0.241259 0.166977 0.210255
683 4 0.288755 0.127673 0.208343
682 2 0.269781 0.141857 0.21634
684 4 0.250807 0.156042 0.224337
758 4 0.335351 0.122748 0.185204
757 2 0.343226 0.0998303 0.179042
479 4 0.475103 0.103954 0.22955
478 2 0.490717 0.123473 0.228951
480 4 0.506332 0.142993 0.228352
393 4 0.0407122 0.203586 0.220997
391 2 0.045449 0.194705 0.243885
236 4 0.172821 0.192156 0.181298
279 4 0.131324 0.199254 0.25269
473 4 0.232838 0.21024 0.186631
472 2 0.237048 0.188608 0.198443
631 2 0.315118 0.206501 0.205627
633 4 0.301111 0.213924 0.18629
632 4 0.329124 0.199078 0.224963
363 4 0.0614042 0.298779 0.173305
361 2 0.0581828 0.31097 0.194896
362 4 0.0549615 0.323161 0.216488
372 4 0.173257 0.296771 0.181167
370 2 0.190028 0.314651 0.186085
517 2 0.482582 0.295967 0.176034
519 4 0.494072 0.308917 0.194075
456 4 0.0517339 0.392642 0.175259
750 4 0.0649683 0.333212 0.230238
454 2 0.0718216 0.379882 0.182931
704 4 0.00912282 0.380107 0.175452
705 4 0.0131721 0.334706 0.196021
703 2 0.0111475 0.357406 0.185736
748 2 0.0632233 0.356663 0.238736
749 4 0.0614784 0.380114 0.247233
314 4 0.00865561 0.40201 0.176135
313 2 0.00539831 0.416218 0.19645
455 4 0.0919093 0.367123 0.190604
339 4 0.108376 0.356599 0.185145
738 4 0.101625 0.360756 0.205966
736 2 0.120476 0.359945 0.222372
737 4 0.139326 0.359135 0.238779
371 4 0.2068 0.332532 0.191004
603 4 0.201406 0.350076 0.185787
601 2 0.207379 0.367604 0.202589
602 4 0.213351 0.385132 0.21939
638 4 0.209372 0.405725 0.220639
290 4 0.219482 0.39354 0.235541
307 2 0.347288 0.337269 0.171655
309 4 0.363365 0.35218 0.183669
644 4 0.388043 0.36479 0.227685
643 2 0.408147 0.377443 0.235489
645 4 0.428251 0.390097 0.243293
728 4 0.431031 0.350918 0.190535
103 3 0.495092 0.346814 0.207742
727 2 0.455958 0.351873 0.192245
729 4 0.480885 0.352827 0.193955
609 4 0.438901 0.406058 0.235259
608 4 0.485469 0.390917 0.225115
607 2 0.462185 0.398488 0.230187
102 3 0.494273 0.38438 0.206835
494 4 0.494716 0.38685 0.242833
315 4 0.00214102 0.430426 0.216765
3715 2 0.0219311 0.49553 0.185859
417 4 0.0422152 0.462272 0.170838
3717 4 0.0296761 0.471882 0.183409
637 2 0.196724 0.424429 0.231381
639 4 0.184076 0.443133 0.242122
761 4 0.392664 0.494843 0.206882
762 4 0.358216 0.459398 0.199285
524 4 0.356421 0.440441 0.191512
523 2 0.342503 0.438928 0.170796
760 2 0.37544 0.477121 0.203084
109 3 0.401109 0.489333 0.19129
2538 4 0.408152 0.499684 0.219735
659 4 0.491903 0.442478 0.192892
658 2 0.468788 0.451245 0.189145
660 4 0.445674 0.460012 0.185398
108 3 0.437448 0.478299 0.189821
106 1 0.423178 0.496421 0.19235
233 4 0.0806892 0.0289399 0.290134
232 2 0.0890314 0.0168663 0.310378
604 2 0.131342 0.0643515 0.334879
234 4 0.0973737 0.00479265 0.330622
673 2 0.212214 0.0172076 0.248133
467 4 0.187644 0.039019 0.261175
674 4 0.205366 0.0356659 0.263547
429 4 0.211899 0.0525496 0.27015
427 2 0.22727 0.0583816 0.288988
428 4 0.242641 0.0642135 0.307827
440 4 0.23038 0.0740339 0.3233
1966 2 0.283399 0.0254509 0.313977
1968 4 0.286148 0.0281153 0.289268
743 4 0.370397 0.0725828 0.315404
605 4 0.123674 0.0823979 0.319364
351 4 0.341468 0.100424 0.320765
453 4 0.397002 0.126582 0.268623
451 2 0.3842 0.116209 0.28743
452 4 0.371399 0.105836 0.306236
392 4 0.0501857 0.185824 0.266773
2484 4 0.0297582 0.184891 0.275272
249 4 0.0440716 0.199332 0.282
247 2 0.0445799 0.196833 0.306874
248 4 0.0450881 0.194335 0.331747
277 2 0.137551 0.223467 0.252287
278 4 0.143779 0.247679 0.251884
536 4 0.162148 0.245328 0.261421
724 2 0.238861 0.168446 0.254984
431 4 0.241255 0.181156 0.290286
725 4 0.235797 0.164489 0.279482
430 2 0.250301 0.184767 0.313314
432 4 0.259348 0.188377 0.336343
488 4 0.381682 0.208841 0.293975
487 2 0.398769 0.218792 0.309278
489 4 0.415856 0.228744 0.324581
678 4 0.165994 0.328057 0.293491
535 2 0.172954 0.267716 0.264103
537 4 0.183761 0.290104 0.266785
402 4 0.196639 0.295484 0.281188
400 2 0.220867 0.301558 0.28231
401 4 0.245096 0.307632 0.283431
676 2 0.172479 0.325186 0.317467
344 4 0.260965 0.316057 0.291415
343 2 0.285928 0.31734 0.292022
345 4 0.310891 0.318622 0.292628
305 4 0.409542 0.247118 0.33361
2954 4 0.024069 0.38766 0.316247
2955 4 0.0563293 0.408322 0.284106
2953 2 0.0401991 0.397991 0.300177
2463 4 0.0866017 0.412713 0.26083
1260 4 0.228137 0.331577 0.327197
289 2 0.224162 0.384791 0.258491
291 4 0.228843 0.376041 0.281442
438 4 0.356483 0.375221 0.295358
436 2 0.369061 0.395754 0.302092
437 4 0.381639 0.416288 0.308826
2461 2 0.0954666 0.434749 0.268642
1318 2 0.106296 0.491174 0.261081
3958 2 0.12099 0.454376 0.314358
2462 4 0.104331 0.456785 0.276453
1319 4 0.103514 0.478326 0.28235
3959 4 0.111145 0.46431 0.293632
1698 4 0.470179 0.470109 0.334214
1696 2 0.494712 0.473484 0.337668
606 4 0.139009 0.0463051 0.350394
399 4 0.146567 0.0377363 0.366543
397 2 0.171378 0.0395627 0.369048
398 4 0.196188 0.0413891 0.371553
439 2 0.217756 0.0659043 0.343293
441 4 0.205132 0.0577748 0.363286
707 4 0.244403 0.0838381 0.398021
1967 4 0.28065 0.0227866 0.338686
1524 4 0.282295 0.00829652 0.35373
1888 2 0.305587 0.0343956 0.37409
1890 4 0.288489 0.0283389 0.356881
1671 4 0.329772 0.0247754 0.402311
1889 4 0.322685 0.0404524 0.3913
1669 2 0.34641 0.0283048 0.420638
1516 2 0.413436 0.0340738 0.367901
1518 4 0.399397 0.0441789 0.349846
744 4 0.389535 0.0584723 0.359397
742 2 0.379966 0.0655276 0.337401
699 4 0.388542 0.0614369 0.378196
697 2 0.391291 0.0751939 0.398893
1517 4 0.427475 0.0239687 0.385956
2192 4 0.440256 0.0246653 0.401227
94 3 0.417411 0.00736851 0.38655
316 2 0.0267714 0.120638 0.409202
1601 4 0.0778398 0.158422 0.397231
1600 2 0.0744344 0.136435 0.40864
318 4 0.0480402 0.115448 0.42128
1602 4 0.071029 0.114449 0.420049
424 2 0.259864 0.155285 0.361134
706 2 0.253537 0.106994 0.395662
708 4 0.26267 0.13015 0.393302
256 2 0.299811 0.132405 0.380151
258 4 0.276253 0.139951 0.383794
426 4 0.253685 0.138102 0.378215
276 4 0.256775 0.148577 0.394605
257 4 0.323369 0.12486 0.376508
350 4 0.351819 0.114409 0.367648
1580 4 0.340912 0.11736 0.383766
274 2 0.26362 0.157602 0.416895
349 2 0.346643 0.107417 0.344207
1579 2 0.353314 0.118559 0.405443
254 4 0.405014 0.157783 0.416394
462 4 0.418578 0.139621 0.352491
460 2 0.430198 0.159243 0.362745
406 2 0.0617433 0.230274 0.39208
408 4 0.0657238 0.208754 0.379988
425 4 0.266042 0.172468 0.344053
717 4 0.258681 0.192048 0.35483
715 2 0.26091 0.216646 0.35872
716 4 0.263138 0.241245 0.36261
410 4 0.342209 0.19479 0.394188
515 4 0.417168 0.23202 0.343608
514 2 0.423568 0.214094 0.359821
461 4 0.441818 0.178865 0.372999
516 4 0.429969 0.196167 0.376034
267 4 0.432717 0.184338 0.390638
265 2 0.426188 0.190977 0.413843
407 4 0.0577628 0.251794 0.404172
679 2 0.00835221 0.30677 0.382968
681 4 0.017429 0.296116 0.403687
549 4 0.0370546 0.301553 0.401078
547 2 0.0535321 0.283302 0.405613
548 4 0.0700096 0.265051 0.410149
768 4 0.194138 0.320355 0.39169
677 4 0.178965 0.322315 0.341444
304 2 0.415092 0.267898 0.346359
418 2 0.421803 0.324854 0.348072
420 4 0.433664 0.303291 0.352494
306 4 0.420642 0.288679 0.359108
499 2 0.0548554 0.397074 0.35441
501 4 0.0365695 0.413792 0.351044
500 4 0.0731412 0.380357 0.357775
299 4 0.170803 0.3956 0.345184
298 2 0.18564 0.39166 0.36492
709 2 0.249404 0.338418 0.411424
766 2 0.198853 0.344854 0.390034
300 4 0.200477 0.38772 0.384656
767 4 0.203568 0.369353 0.388377
734 4 0.213046 0.383313 0.401297
1258 2 0.237739 0.341386 0.348096
1259 4 0.247342 0.351195 0.368995
710 4 0.248915 0.341597 0.386628
733 2 0.2039 0.403056 0.413616
594 4 0.34627 0.411972 0.406306
377 4 0.394326 0.359938 0.342084
419 4 0.409943 0.346417 0.34365
376 2 0.390982 0.366997 0.365836
592 2 0.366311 0.397029 0.406761
593 4 0.386353 0.382085 0.407215
378 4 0.387637 0.374055 0.389588
434 4 0.403609 0.384372 0.401407
433 2 0.426147 0.393989 0.396435
435 4 0.448686 0.403605 0.391464
587 4 0.455379 0.406962 0.371848
3671 4 0.0285279 0.480481 0.327629
777 4 0.026732 0.472275 0.346229
776 4 0.0214822 0.424528 0.360137
775 2 0.0241071 0.448402 0.353183
3960 4 0.130835 0.444442 0.335084
414 4 0.12283 0.496583 0.340622
1715 4 0.39772 0.475303 0.340518
1714 2 0.377088 0.489428 0.34041
586 2 0.47722 0.418222 0.367223
588 4 0.49906 0.429481 0.362597
939 4 0.0413208 0.0744938 0.467591
1478 4 0.0907541 0.0318296 0.486439
1477 2 0.109656 0.0164249 0.480907
962 4 0.23696 0.0192725 0.494563
961 2 0.223204 0.0384373 0.50285
1817 4 0.249233 0.0150032 0.479417
1816 2 0.255169 0.0178848 0.455299
1818 4 0.261104 0.0207664 0.431182
1670 4 0.363048 0.0318342 0.438965
88 3 0.456571 0.00978245 0.45236
1428 4 0.484895 0.0192315 0.45236
1426 2 0.499933 0.0391855 0.453297
2193 4 0.468771 0.0220289 0.442222
2191 2 0.454513 0.0233471 0.421725
938 4 0.0599048 0.11022 0.437944
937 2 0.0506128 0.0923571 0.452768
1058 4 0.0123619 0.171332 0.444321
260 4 0.107558 0.164189 0.468942
28 3 0.330328 0.136693 0.447754
26 1 0.340231 0.15608 0.455782
1581 4 0.365717 0.119757 0.427121
698 4 0.39404 0.088951 0.41959
27 3 0.356282 0.162978 0.440817
29 3 0.350348 0.15192 0.476246
253 2 0.388104 0.157451 0.43481
322 2 0.379516 0.163477 0.4935
255 4 0.371194 0.157119 0.453225
324 4 0.367608 0.160401 0.471731
576 4 0.495303 0.156345 0.478238
259 2 0.125354 0.17734 0.480585
261 4 0.14315 0.190491 0.492227
275 4 0.270465 0.166626 0.439186
30 3 0.324559 0.172448 0.458046
374 4 0.262304 0.243758 0.450171
375 4 0.275761 0.199985 0.470258
373 2 0.269033 0.221872 0.460214
686 4 0.283755 0.199011 0.4895
651 4 0.338666 0.204505 0.462114
411 4 0.344618 0.203122 0.443437
409 2 0.343414 0.198956 0.418813
649 2 0.347063 0.207963 0.48541
323 4 0.391425 0.166553 0.515269
266 4 0.419659 0.197616 0.437048
618 4 0.0748278 0.24985 0.420238
616 2 0.0895618 0.254672 0.439855
617 4 0.104296 0.259494 0.459472
1135 2 0.153619 0.323709 0.491948
510 4 0.265085 0.258293 0.436231
509 4 0.278278 0.305578 0.426703
508 2 0.271681 0.281936 0.431467
2813 4 0.0206414 0.372119 0.459214
2812 2 0.0340214 0.387497 0.473694
2814 4 0.0474014 0.402874 0.488174
897 4 0.0617708 0.395853 0.500194
1137 4 0.159014 0.342613 0.476498
1041 4 0.123878 0.354616 0.481776
735 4 0.194754 0.422799 0.425935
711 4 0.249893 0.33524 0.43622
753 4 0.422702 0.382534 0.46144
751 2 0.447623 0.380499 0.461511
752 4 0.472543 0.378463 0.461582
561 4 0.489689 0.384043 0.4686
3602 4 0.49791 0.399205 0.478905
384 4 0.034428 0.440556 0.474819
382 2 0.03064 0.453776 0.495701
1191 4 0.15621 0.423059 0.473254
1189 2 0.161947 0.421464 0.497538
502 2 0.138427 0.499885 0.453391
503 4 0.157344 0.503322 0.469375
504 4 0.119509 0.496447 0.437407
1751 4 0.189909 0.499396 0.475473
1186 2 0.227702 0.488823 0.473635
1188 4 0.208012 0.504234 0.473544
1187 4 0.247391 0.473413 0.473727
3562 2 0.490586 0.495753 0.420193
3564 4 0.477604 0.496818 0.441536
823 2 0.0771271 0.0166136 0.54728
825 4 0.0638492 0.996878 0.554986
2319 4 0.0572715 0.0033947 0.572456
824 4 0.0904051 0.0363489 0.539573
2429 4 0.0999873 0.055353 0.532395
2428 2 0.0865485 0.0693294 0.548182
1181 4 0.202712 0.0758568 0.515776
963 4 0.209449 0.057602 0.511138
1180 2 0.210722 0.0775487 0.539401
98 3 0.243297 0.00303681 0.529719
951 4 0.347122 0.0487544 0.575755
842 4 0.428396 0.0491569 0.545614
1003 2 0.407377 0.0686455 0.581144
1005 4 0.418758 0.0561712 0.562704
2333 4 0.421533 0.0360022 0.560228
843 4 0.429636 0.0596126 0.496728
2332 2 0.426223 0.0132286 0.569423
841 2 0.429016 0.0543848 0.521171
4239 4 0.50253 0.0188719 0.527675
4466 4 0.493407 0.027287 0.513447
4465 2 0.48435 0.05047 0.515837
4467 4 0.475294 0.0736529 0.518227
4237 2 0.497804 0.0114383 0.551076
877 2 0.0385917 0.0919631 0.571292
879 4 0.0614842 0.0893058 0.58099
878 4 0.0156991 0.0946204 0.561594
367 2 0.00896208 0.167247 0.528828
470 4 0.0149991 0.105341 0.544951
368 4 0.0127389 0.142687 0.526049
2430 4 0.0731096 0.0833057 0.56397
1272 4 0.0756729 0.100466 0.571792
1073 4 0.0914067 0.0922056 0.576718
1270 2 0.081568 0.122313 0.561156
1271 4 0.0874631 0.144161 0.550519
1182 4 0.218733 0.0792406 0.563026
898 2 0.316949 0.132624 0.526338
899 4 0.310546 0.108501 0.524836
900 4 0.323353 0.156747 0.527839
944 4 0.303171 0.164182 0.534177
943 2 0.282657 0.165142 0.548441
326 4 0.341186 0.159622 0.565268
319 2 0.375184 0.161139 0.549678
321 4 0.359444 0.170134 0.566898
934 2 0.00561058 0.200912 0.574677
2655 4 0.0188861 0.20757 0.533508
2653 2 0.0378186 0.215282 0.519111
2654 4 0.0567512 0.222994 0.504714
369 4 0.00518529 0.191807 0.531607
909 4 0.121377 0.19903 0.572561
1033 2 0.135781 0.200299 0.534652
1034 4 0.136669 0.205285 0.559138
1035 4 0.134893 0.195312 0.510167
1220 4 0.240673 0.174333 0.573405
945 4 0.262144 0.166102 0.562704
325 2 0.32517 0.174765 0.577073
687 4 0.314916 0.170922 0.516716
685 2 0.299336 0.184966 0.503108
327 4 0.309153 0.189907 0.588878
320 4 0.390924 0.152144 0.532458
3054 4 0.405321 0.165202 0.528895
1152 4 0.361232 0.226688 0.524046
1150 2 0.360076 0.228846 0.54893
1151 4 0.35892 0.231004 0.573813
650 4 0.35546 0.211421 0.508706
3052 2 0.427798 0.171214 0.53805
3053 4 0.450275 0.177225 0.547205
953 4 0.449834 0.177644 0.568444
574 2 0.502113 0.171473 0.496945
983 4 0.0751091 0.318054 0.553713
1136 4 0.148224 0.304804 0.507398
792 4 0.36442 0.22603 0.593823
812 4 0.352205 0.241346 0.591205
804 4 0.361416 0.252812 0.574918
803 4 0.369426 0.298951 0.557376
802 2 0.365421 0.275881 0.566147
3263 4 0.0326682 0.340791 0.511155
3262 2 0.0545786 0.343972 0.522774
2802 4 0.0258564 0.367032 0.535995
3264 4 0.0764889 0.347153 0.534392
2800 2 0.00769683 0.38383 0.539629
1161 4 0.107043 0.393719 0.571974
1159 2 0.0983827 0.377686 0.554854
1160 4 0.0897223 0.361653 0.537733
1040 4 0.0920466 0.352413 0.52028
1039 2 0.107962 0.353515 0.501028
1190 4 0.167685 0.41987 0.521822
239 4 0.321231 0.367699 0.509837
238 2 0.324037 0.381183 0.530705
240 4 0.326844 0.394668 0.551573
1068 4 0.336743 0.408525 0.566129
1028 4 0.339968 0.390097 0.565007
1027 2 0.358454 0.374353 0.570972
1029 4 0.376941 0.35861 0.576937
3601 2 0.501279 0.404715 0.50306
1000 2 0.494279 0.410273 0.565821
895 2 0.0711236 0.415802 0.512016
1938 4 0.0428606 0.47808 0.517818
383 4 0.0268519 0.466995 0.516583
896 4 0.0804764 0.435751 0.523837
1936 2 0.045815 0.489826 0.539692
3240 4 0.0503643 0.494542 0.581114
1172 4 0.115432 0.446162 0.54572
1171 2 0.137209 0.434274 0.542622
1173 4 0.158986 0.422385 0.539525
539 4 0.180081 0.422717 0.538144
538 2 0.192537 0.421939 0.55981
540 4 0.204993 0.421161 0.581476
1066 2 0.320457 0.427086 0.562203
1067 4 0.304171 0.445648 0.558277
1002 4 0.491644 0.41436 0.541295
3603 4 0.504648 0.410226 0.527215
4084 2 0.468668 0.443472 0.523234
4085 4 0.486223 0.425853 0.525797
4086 4 0.451112 0.46109 0.52067
2217 4 0.436521 0.475182 0.518339
33 3 0.0723981 0.0437818 0.647191
31 1 0.0855607 0.0624228 0.651394
32 3 0.0718533 0.0804915 0.655238
1211 4 0.156041 0.0235796 0.597712
35 3 0.0985247 0.0587995 0.669763
1210 2 0.169499 0.0440696 0.602633
948 4 0.17313 0.0775651 0.620931
34 3 0.0989712 0.0669583 0.633009
946 2 0.153565 0.0810758 0.636098
947 4 0.134 0.0845865 0.651266
1212 4 0.182958 0.0645595 0.607554
6 1 0.207962 0.0753737 0.634033
9 3 0.200787 0.0817053 0.612895
1154 4 0.204055 0.0406684 0.624863
10 3 0.190686 0.0766721 0.648815
1153 2 0.218154 0.0274509 0.608997
1155 4 0.232253 0.0142333 0.593132
7 3 0.215541 0.0536739 0.633124
978 4 0.240903 0.0718569 0.66161
1184 4 0.179767 0.0625626 0.657489
1031 4 0.240996 0.000463546 0.583172
949 2 0.323622 0.0403002 0.574536
950 4 0.300123 0.031846 0.573317
1032 4 0.277991 0.0327786 0.573801
1030 2 0.259493 0.0166211 0.578487
2200 2 0.29222 0.0466624 0.61485
2202 4 0.289395 0.0373432 0.59182
2201 4 0.295046 0.0559816 0.637879
976 2 0.26506 0.0776009 0.66455
977 4 0.289216 0.0833449 0.667489
1239 4 0.305707 0.0734282 0.670041
1004 4 0.395995 0.0811198 0.599584
2341 2 0.417834 0.0882862 0.653778
2342 4 0.434155 0.0905388 0.672586
1054 2 0.0464044 0.162785 0.614063
1055 4 0.0544063 0.156995 0.591093
852 4 0.0817402 0.0933064 0.642147
1129 2 0.0162535 0.156645 0.666347
1130 4 0.0351531 0.154195 0.650161
1074 4 0.0943239 0.0865311 0.626316
1072 2 0.0928653 0.0893684 0.601517
850 2 0.0857658 0.117305 0.647896
851 4 0.0897915 0.141303 0.653645
8 3 0.225342 0.0891063 0.640942
2343 4 0.401514 0.0860336 0.63497
1193 4 0.38269 0.0927693 0.610993
1192 2 0.359732 0.10021 0.604457
1194 4 0.336773 0.107651 0.597921
2657 4 0.454055 0.0970162 0.681563
2656 2 0.469873 0.105536 0.664174
2658 4 0.48569 0.114056 0.646784
935 4 0.00492715 0.200209 0.599661
1056 4 0.0384025 0.168576 0.637033
1198 2 0.0191809 0.229774 0.625583
1296 4 0.999549 0.190718 0.617893
1124 4 0.0452498 0.174179 0.654867
1123 2 0.0657816 0.186338 0.662335
1200 4 0.0132165 0.207365 0.616231
907 2 0.117761 0.215392 0.591119
908 4 0.114145 0.231754 0.609677
1208 4 0.122952 0.246848 0.619021
1221 4 0.209065 0.190169 0.608772
1219 2 0.224869 0.182251 0.591088
695 4 0.181755 0.201543 0.623896
694 2 0.187399 0.20764 0.647479
811 2 0.327219 0.241416 0.590258
813 4 0.302233 0.241487 0.58931
790 2 0.387694 0.233862 0.598529
791 4 0.410968 0.241694 0.603236
1025 4 0.412792 0.242889 0.622295
952 2 0.451778 0.18698 0.591558
1026 4 0.452266 0.212479 0.626501
954 4 0.453723 0.196315 0.614672
1024 2 0.432529 0.227684 0.624398
1076 4 0.0354519 0.263759 0.645654
1199 4 0.0251452 0.252182 0.634936
2846 4 0.0541763 0.292983 0.632662
2845 2 0.0599477 0.313341 0.619342
2847 4 0.0657191 0.333699 0.606022
984 4 0.0815365 0.34459 0.595609
982 2 0.0783228 0.331322 0.574661
1209 4 0.0909385 0.255322 0.656492
1207 2 0.106945 0.251085 0.637757
856 2 0.14129 0.312163 0.620368
857 4 0.131657 0.327213 0.637859
858 4 0.150922 0.297114 0.602878
1952 4 0.266021 0.326474 0.632171
3327 4 0.0600897 0.353621 0.599099
3325 2 0.0439159 0.361685 0.616378
3326 4 0.0277421 0.369749 0.633656
1280 4 0.0489063 0.410377 0.660558
3275 4 0.143766 0.340431 0.645155
1953 4 0.27773 0.370037 0.610587
1951 2 0.271875 0.348255 0.621379
1007 4 0.411208 0.411432 0.654017
1001 4 0.496913 0.406186 0.590347
2170 2 0.102313 0.49843 0.657842
1176 4 0.380762 0.481647 0.612119
1174 2 0.373638 0.485601 0.635758
1175 4 0.366513 0.489555 0.659396
1185 4 0.163623 0.0233953 0.68406
1183 2 0.171695 0.042979 0.670774
991 2 0.222985 0.0444236 0.715973
993 4 0.20793 0.0314525 0.731147
992 4 0.238041 0.0573947 0.700798
1237 2 0.319041 0.0862352 0.686875
921 4 0.0568672 0.0873069 0.714131
919 2 0.0565739 0.0877103 0.689132
920 4 0.0562805 0.0881137 0.664134
1287 4 0.016679 0.126342 0.740514
1131 4 0.997354 0.159095 0.682532
1277 4 0.125255 0.0864997 0.66956
1278 4 0.127652 0.115105 0.710508
1276 2 0.126453 0.100803 0.690034
1227 4 0.145312 0.111238 0.720516
1225 2 0.164483 0.100419 0.732375
1226 4 0.183653 0.0896001 0.744234
1238 4 0.332374 0.0990422 0.703709
888 4 0.331095 0.117184 0.695781
886 2 0.341207 0.138977 0.688856
887 4 0.351319 0.160771 0.681931
959 4 0.361089 0.134642 0.741626
2441 4 0.441342 0.083222 0.690667
2440 2 0.43529 0.0942803 0.71226
2442 4 0.429237 0.105339 0.733853
2991 4 0.0231253 0.215177 0.715518
2989 2 0.998536 0.214328 0.711064
1125 4 0.0863134 0.198498 0.669803
1064 4 0.138324 0.187164 0.699381
1063 2 0.160084 0.196802 0.691715
1065 4 0.181845 0.20644 0.684049
798 4 0.192416 0.223841 0.688785
696 4 0.193043 0.213737 0.671062
796 2 0.187293 0.246921 0.696925
818 4 0.437876 0.219086 0.711209
817 2 0.433918 0.208313 0.733422
1075 2 0.0330256 0.258152 0.6699
1077 4 0.0305993 0.252546 0.694146
797 4 0.18217 0.270001 0.705065
816 4 0.0831055 0.336514 0.746616
883 2 0.0627344 0.407073 0.736689
822 4 0.999744 0.361631 0.743353
885 4 0.0540215 0.39934 0.714565
3274 2 0.133425 0.343931 0.667649
814 2 0.0975281 0.339995 0.72649
815 4 0.111951 0.343476 0.706364
3276 4 0.123084 0.347432 0.690144
2012 4 0.201934 0.381583 0.721429
2011 2 0.202236 0.363712 0.738913
1006 2 0.39512 0.394459 0.662863
1008 4 0.379031 0.377486 0.671709
3329 4 0.436273 0.39232 0.727307
3328 2 0.449417 0.408033 0.741643
3501 4 0.035125 0.467145 0.687408
1279 2 0.0364131 0.41897 0.680439
1281 4 0.0239198 0.427563 0.70032
3499 2 0.0600733 0.466123 0.686097
2172 4 0.0945001 0.480247 0.673123
2016 4 0.104884 0.468596 0.686066
3500 4 0.0850216 0.465102 0.684787
2014 2 0.12951 0.466416 0.689805
2015 4 0.154136 0.464236 0.693544
3330 4 0.462562 0.423746 0.755978
861 4 0.469882 0.443057 0.761375
1148 4 0.186518 0.0723407 0.756102
1197 4 0.206902 0.0118525 0.799637
1147 2 0.206618 0.0714963 0.770949
1149 4 0.226718 0.0706519 0.785797
1112 4 0.417035 0.0639497 0.824368
1677 4 0.0519582 0.162432 0.811395
966 4 0.264685 0.101152 0.77503
964 2 0.289676 0.101766 0.774524
965 4 0.314667 0.102381 0.774018
960 4 0.325383 0.11717 0.771966
840 4 0.321543 0.109934 0.791116
958 2 0.343236 0.125906 0.756796
838 2 0.33904 0.101508 0.806866
839 4 0.356536 0.0930814 0.822615
747 4 0.369476 0.106372 0.830242
3425 4 0.43927 0.1074 0.750263
3426 4 0.442265 0.146405 0.781415
3424 2 0.440768 0.126903 0.765839
3268 2 0.485178 0.155601 0.785725
3270 4 0.460413 0.157186 0.782666
2400 4 0.449809 0.149459 0.821143
864 4 0.0536113 0.224687 0.744698
1214 4 0.023955 0.209744 0.825453
862 2 0.0456468 0.217176 0.767178
863 4 0.0376823 0.209665 0.789657
1676 4 0.0249407 0.204036 0.80508
924 4 0.0261252 0.222783 0.798183
1675 2 0.0384494 0.183234 0.808237
922 2 0.0191735 0.245032 0.80723
1235 4 0.119993 0.240928 0.763584
1084 2 0.32041 0.175846 0.819575
1085 4 0.330077 0.183329 0.797764
845 4 0.410071 0.20151 0.751665
844 2 0.387172 0.195467 0.759683
846 4 0.364273 0.189423 0.767701
46 1 0.398465 0.243426 0.812833
47 3 0.395834 0.220768 0.809864
50 3 0.398252 0.253727 0.792523
1053 4 0.402858 0.188325 0.829728
48 3 0.381016 0.251353 0.825913
819 4 0.429959 0.19754 0.755636
3362 4 0.443156 0.165668 0.787921
3361 2 0.4412 0.187626 0.799719
3363 4 0.439244 0.209585 0.811516
923 4 0.0122218 0.26728 0.816277
970 2 0.0175162 0.313157 0.810666
972 4 0.0398463 0.30343 0.805016
779 4 0.0441928 0.315044 0.789001
778 2 0.0645654 0.31904 0.775066
780 4 0.084938 0.323037 0.761132
1234 2 0.123294 0.259182 0.780349
1236 4 0.126594 0.277436 0.797115
1121 4 0.126408 0.298912 0.803002
1120 2 0.126291 0.320861 0.791028
1241 4 0.127328 0.282145 0.816411
1299 4 0.273637 0.321439 0.754271
809 4 0.315911 0.315401 0.848659
49 3 0.418724 0.247296 0.823461
2173 2 0.0442627 0.411633 0.804004
2174 4 0.0236631 0.414955 0.817781
2175 4 0.0648623 0.408311 0.790227
884 4 0.0714473 0.414807 0.758813
1079 4 0.0805819 0.409435 0.776207
1178 4 0.0024018 0.380446 0.829839
1122 4 0.126175 0.342811 0.779054
1078 2 0.105068 0.405716 0.779642
1080 4 0.129553 0.401997 0.783077
2013 4 0.202538 0.34584 0.756397
483 4 0.184703 0.39181 0.780579
941 4 0.201134 0.332644 0.770857
940 2 0.197554 0.336264 0.795337
1138 2 0.245507 0.376683 0.784571
942 4 0.193975 0.339883 0.819817
481 2 0.188561 0.403347 0.802424
1140 4 0.221797 0.382749 0.779447
1139 4 0.269216 0.370618 0.789694
1298 4 0.286296 0.357479 0.786544
1143 4 0.287328 0.373697 0.802103
1297 2 0.279966 0.339459 0.770407
1141 2 0.285924 0.395968 0.81338
3202 2 0.32023 0.341737 0.815725
3203 4 0.325052 0.351861 0.793377
1142 4 0.28452 0.41824 0.824658
3204 4 0.315408 0.331613 0.838072
1099 2 0.48553 0.407975 0.784109
1101 4 0.498017 0.388159 0.792861
3996 4 0.00395435 0.477929 0.807802
1223 4 0.173708 0.446655 0.752951
1222 2 0.175909 0.452806 0.777086
1224 4 0.17811 0.458957 0.801221
2834 4 0.166039 0.452334 0.813693
1168 2 0.171977 0.49739 0.815876