ITEM: TIMESTEP
1660000
ITEM: NUMBER OF ATOMS
4590
ITEM: BOX BOUNDS pp pp pp
-9.9985700000000008e+00 9.9985700000000008e+00
-9.9985700000000008e+00 9.9985700000000008e+00
-9.9985700000000008e+00 9.9985700000000008e+00
ITEM: ATOMS id type xs ys zs
1668 4 0.00182295 0.056995 0.999123
1254 4 0.159233 0.0052207 0.00113333
578 4 0.174546 0.0284078 0.0709431
359 4 0.255267 0.0671002 0.0379035
490 2 0.266184 0.0169642 0.0686374
492 4 0.28015 0.0344421 0.057473
486 4 0.292062 0.0263403 0.0423126
484 2 0.316204 0.0219673 0.0374974
485 4 0.340347 0.0175944 0.0326822
1607 4 0.359147 0.0220398 0.0380303
1606 2 0.375062 0.00395782 0.031326
2467 2 0.429304 0.0427878 0.0541103
2468 4 0.419468 0.0522824 0.0331751
2469 4 0.43914 0.0332933 0.0750456
1760 4 0.457494 0.03063 0.084264
1759 2 0.481675 0.0340871 0.0789246
1246 2 0.0297258 0.150344 0.0356746
1247 4 0.0145478 0.142639 0.0539896
1248 4 0.0449037 0.158049 0.0173596
591 4 0.00667266 0.124548 0.050895
360 4 0.251223 0.107896 0.00926637
358 2 0.253245 0.0874979 0.0235849
664 2 0.342723 0.149338 0.0356157
665 4 0.351584 0.141023 0.0574679
557 4 0.342537 0.153793 0.0692602
666 4 0.333862 0.157653 0.0137636
869 4 0.0723437 0.186436 0.0263773
868 2 0.0716695 0.204507 0.00911072
555 4 0.118454 0.219461 0.0404643
553 2 0.140228 0.219153 0.0281767
554 4 0.162001 0.218845 0.0158891
1133 4 0.168877 0.204657 0.0022835
866 4 0.346355 0.17279 0.00550662
770 4 0.466993 0.21983 0.0685536
769 2 0.474028 0.197739 0.0779164
755 4 0.246898 0.293869 0.0777117
507 4 0.180533 0.266278 0.081668
754 2 0.268448 0.30609 0.0743328
756 4 0.289997 0.318312 0.0709538
1070 4 0.321888 0.309177 0.0200444
740 4 0.297384 0.334859 0.0806221
1069 2 0.332718 0.290919 0.00683284
323 4 0.349076 0.300936 0.067144
1094 4 0.38099 0.329265 0.996388
671 4 0.448232 0.286861 0.0124633
670 2 0.450372 0.310536 0.0202151
672 4 0.452513 0.334211 0.0279668
619 2 0.0436018 0.380516 0.00329816
621 4 0.0227046 0.379631 0.0169986
2787 4 0.0236362 0.386908 0.035924
2785 2 0.0257546 0.385125 0.0607739
292 2 0.0856915 0.386502 0.0733972
294 4 0.0860961 0.404083 0.0556236
913 2 0.165181 0.379765 0.0294293
915 4 0.15277 0.39988 0.0375848
914 4 0.177593 0.35965 0.0212738
288 4 0.188605 0.34565 0.0105828
251 4 0.314709 0.412342 0.0606014
250 2 0.293275 0.401405 0.0538067
252 4 0.271842 0.390468 0.0470121
1305 4 0.389001 0.391817 0.0121331
1304 4 0.435156 0.380808 0.0279207
1303 2 0.412079 0.386313 0.0200269
955 2 0.440243 0.396041 0.0611383
104 3 0.440613 0.345779 0.013597
956 4 0.449035 0.378521 0.0456159
105 3 0.475086 0.354228 0.00103273
562 2 0.477112 0.344725 0.0587933
563 4 0.455521 0.33766 0.048348
957 4 0.431451 0.41356 0.0766606
564 4 0.498702 0.35179 0.0692385
101 1 0.45511 0.362906 0.00768842
103 3 0.458286 0.377169 0.0257135
550 2 0.0878461 0.417102 0.0208495
552 4 0.0906457 0.421289 0.0453405
1766 4 0.086675 0.488348 0.0848012
1440 4 0.138073 0.47052 0.0526012
1438 2 0.122173 0.451602 0.0487963
243 4 0.142827 0.489896 0.0511552
1439 4 0.106272 0.432684 0.0449913
244 2 0.217492 0.487978 0.058324
902 4 0.202596 0.473139 0.0330419
901 2 0.193209 0.451226 0.0254994
903 4 0.183823 0.429312 0.0179568
246 4 0.209307 0.465808 0.050158
1289 4 0.219394 0.482762 0.0256639
1288 2 0.221433 0.495198 0.00406816
609 4 0.329749 0.424621 0.0637342
525 4 0.357751 0.484899 0.0833371
380 4 0.0120845 0.0324827 0.128406
2760 4 0.00134049 0.0451866 0.0917944
464 4 0.0703203 0.0252708 0.0996164
463 2 0.0487241 0.012832 0.0976009
577 2 0.159296 0.0251309 0.0904848
1806 4 0.154891 0.0197576 0.127369
582 4 0.15627 0.063874 0.164399
579 4 0.144045 0.021854 0.110026
1804 2 0.138354 0.00268283 0.135125
580 2 0.181122 0.0650099 0.161903
581 4 0.205975 0.0661457 0.159407
1504 2 0.314328 0.00825924 0.123289
1505 4 0.319701 0.0326287 0.121726
24 3 0.402129 0.0636474 0.140068
21 1 0.392846 0.0633504 0.161332
2724 4 0.418134 0.0623058 0.129849
22 3 0.370772 0.0696623 0.159898
2723 4 0.440336 0.0330895 0.0958759
2722 2 0.429235 0.0476976 0.112863
237 4 0.0648639 0.126423 0.142507
477 4 0.0697755 0.141704 0.129562
235 2 0.0632474 0.129832 0.167225
475 2 0.0858657 0.159429 0.122345
423 4 0.163854 0.142943 0.138597
421 2 0.179904 0.127643 0.127043
422 4 0.195954 0.112342 0.11549
532 2 0.234025 0.125496 0.111834
534 4 0.214879 0.109416 0.111614
533 4 0.253172 0.141576 0.112054
556 2 0.35411 0.151704 0.0913257
296 4 0.383753 0.138773 0.113701
558 4 0.365682 0.149616 0.113391
629 4 0.385609 0.156453 0.107967
295 2 0.4029 0.122717 0.112834
297 4 0.422048 0.106661 0.111967
2895 4 0.501289 0.147684 0.0876362
476 4 0.101956 0.177155 0.115127
353 4 0.220215 0.206285 0.11711
354 4 0.225021 0.234775 0.157925
352 2 0.222618 0.22053 0.137518
310 2 0.303033 0.215351 0.139596
312 4 0.317314 0.223118 0.120598
311 4 0.288753 0.207584 0.158593
461 4 0.326482 0.231513 0.135857
628 2 0.39269 0.177725 0.119038
630 4 0.399772 0.198996 0.130109
728 4 0.391459 0.215836 0.144029
727 2 0.37405 0.204733 0.15813
771 4 0.481063 0.175648 0.0872793
528 4 0.484084 0.207889 0.121971
517 2 0.456343 0.240223 0.111668
519 4 0.475887 0.226946 0.119849
836 4 0.0620404 0.30789 0.110706
835 2 0.0700833 0.331282 0.107062
506 4 0.13978 0.255354 0.108511
338 4 0.140125 0.273425 0.118393
339 4 0.100416 0.282022 0.147547
337 2 0.120271 0.277724 0.13297
505 2 0.160157 0.260816 0.0950894
763 2 0.25542 0.253165 0.159707
765 4 0.277454 0.255846 0.148197
611 4 0.29844 0.316014 0.15698
610 2 0.29437 0.291356 0.157757
612 4 0.2903 0.266698 0.158535
302 4 0.280209 0.322137 0.163489
322 2 0.355367 0.290671 0.0890586
324 4 0.361657 0.280407 0.110973
255 4 0.376085 0.273988 0.12325
460 2 0.341082 0.251365 0.131623
462 4 0.355681 0.271217 0.127389
253 2 0.40038 0.271905 0.117721
518 4 0.436799 0.2535 0.103488
254 4 0.424675 0.269822 0.112191
624 4 0.420464 0.309973 0.15221
2786 4 0.027873 0.383342 0.0856237
293 4 0.0852868 0.36892 0.0911708
837 4 0.0781263 0.354675 0.103419
313 2 0.0290539 0.383029 0.123845
314 4 0.0385527 0.377656 0.101349
315 4 0.0195552 0.388403 0.146341
454 2 0.154269 0.368 0.150098
456 4 0.139823 0.371475 0.170208
455 4 0.168715 0.364525 0.129988
739 2 0.321543 0.340644 0.0834629
622 2 0.415906 0.334234 0.148234
741 4 0.345702 0.346428 0.0863037
386 4 0.354754 0.351187 0.103486
387 4 0.376951 0.389735 0.126335
385 2 0.365852 0.370461 0.11491
13 3 0.378973 0.393367 0.145043
11 1 0.399249 0.393972 0.15631
608 4 0.351726 0.410502 0.106376
12 3 0.408148 0.372765 0.156749
623 4 0.411349 0.358495 0.144258
15 3 0.413685 0.407944 0.145584
607 2 0.340738 0.417562 0.0850553
1486 2 0.304194 0.485216 0.14657
1488 4 0.320119 0.482559 0.127478
524 4 0.336241 0.470018 0.125959
523 2 0.346996 0.477458 0.104648
494 4 0.425799 0.423834 0.145998
659 4 0.421468 0.489788 0.155375
495 4 0.41912 0.473348 0.143892
493 2 0.42246 0.448591 0.144945
692 4 0.149443 0.0713542 0.222232
691 2 0.130305 0.0741416 0.23808
673 2 0.16584 0.0240731 0.210859
674 4 0.170965 0.0235729 0.235326
693 4 0.111167 0.076929 0.253928
546 4 0.0911045 0.0779865 0.250308
654 4 0.224752 0.0651793 0.167243
652 2 0.242751 0.0821584 0.170837
675 4 0.160716 0.0245733 0.186391
23 3 0.393962 0.0419224 0.170164
757 2 0.407719 0.0765575 0.219379
759 4 0.403369 0.0774577 0.194774
758 4 0.41207 0.0756573 0.243985
25 3 0.40395 0.0779199 0.174863
545 4 0.0687246 0.0908077 0.207465
236 4 0.0616308 0.13324 0.191942
567 4 0.152337 0.0826735 0.171209
544 2 0.0799146 0.0843971 0.228886
565 2 0.141048 0.104861 0.173548
566 4 0.129759 0.127048 0.175887
738 4 0.142792 0.139292 0.184469
736 2 0.148045 0.163679 0.182775
598 2 0.182978 0.146012 0.228673
600 4 0.179055 0.126737 0.213238
599 4 0.186901 0.165288 0.244108
653 4 0.26075 0.0991375 0.174431
29 3 0.326723 0.138581 0.244049
26 1 0.307929 0.151655 0.247825
30 3 0.289235 0.14051 0.241119
309 4 0.318392 0.166615 0.219901
372 4 0.156149 0.208261 0.179603
370 2 0.140148 0.225305 0.188474
737 4 0.153297 0.188066 0.18108
371 4 0.124148 0.242348 0.197345
404 4 0.173607 0.178157 0.25165
285 4 0.21615 0.241735 0.181562
764 4 0.233385 0.250485 0.171217
283 2 0.196039 0.226891 0.182192
284 4 0.175928 0.212048 0.182821
28 3 0.309768 0.171696 0.236276
496 2 0.343468 0.231604 0.189435
498 4 0.348173 0.207944 0.182857
308 4 0.352627 0.192881 0.194625
307 2 0.33551 0.179748 0.207263
729 4 0.356641 0.19363 0.17223
331 2 0.484526 0.171067 0.242409
363 4 0.034228 0.257817 0.23531
361 2 0.057665 0.265406 0.239587
648 4 0.0560075 0.298837 0.182447
646 2 0.0714674 0.31727 0.189259
362 4 0.0811021 0.272995 0.243864
647 4 0.0869273 0.335702 0.196072
497 4 0.338763 0.255263 0.196014
705 4 0.0821463 0.347541 0.177784
704 4 0.128475 0.364892 0.185088
417 4 0.139386 0.383163 0.1866
415 2 0.150559 0.405479 0.185078
703 2 0.10531 0.356216 0.181436
301 2 0.287402 0.344506 0.172037
303 4 0.294594 0.366875 0.180585
14 3 0.39598 0.401188 0.178119
645 4 0.398514 0.412471 0.19448
109 3 0.488611 0.41437 0.197499
1757 4 0.0750172 0.427202 0.176514
3717 4 0.0569101 0.499237 0.233309
1756 2 0.0901349 0.429024 0.196346
1758 4 0.105253 0.430845 0.216178
603 4 0.128196 0.437745 0.223665
601 2 0.146152 0.445342 0.23932
602 4 0.164107 0.452938 0.254975
416 4 0.161733 0.427795 0.183557
638 4 0.181431 0.4577 0.248031
637 2 0.195713 0.460582 0.227711
625 2 0.253177 0.477822 0.192785
627 4 0.229294 0.475411 0.199781
639 4 0.209995 0.463464 0.207391
290 4 0.17174 0.472577 0.259699
1628 4 0.286793 0.42299 0.187157
626 4 0.27706 0.480232 0.185788
1627 2 0.290757 0.447246 0.182559
1629 4 0.29472 0.471501 0.177962
1487 4 0.288269 0.487874 0.165662
64 3 0.294564 0.492224 0.184404
1575 4 0.316924 0.500511 0.197744
1573 2 0.341744 0.497534 0.198277
658 2 0.400974 0.49312 0.169306
1574 4 0.366564 0.494558 0.19881
660 4 0.38048 0.496453 0.183238
643 2 0.419446 0.421779 0.2045
107 3 0.493569 0.442911 0.221447
644 4 0.440377 0.431088 0.21452
110 3 0.45918 0.434459 0.209663
106 1 0.48111 0.435463 0.203602
108 3 0.483766 0.45024 0.18591
233 4 0.0496272 0.00556417 0.299524
512 4 0.0694657 0.0497659 0.289608
511 2 0.0560108 0.0676303 0.278428
232 2 0.0730812 0.0114071 0.293124
429 4 0.150099 0.0295046 0.247076
234 4 0.0965352 0.01725 0.286725
428 4 0.114929 0.019327 0.281138
427 2 0.132514 0.0244158 0.264107
1463 4 0.16689 0.0229796 0.254609
731 4 0.0974224 0.0803435 0.268756
1464 4 0.208395 0.00497957 0.275918
1462 2 0.187642 0.0139796 0.265263
466 2 0.201956 0.0681222 0.292215
467 4 0.192611 0.0761916 0.270473
468 4 0.211302 0.0600528 0.313957
682 2 0.262253 0.0471317 0.331241
683 4 0.253846 0.0258966 0.321064
706 2 0.316419 0.0757139 0.323718
708 4 0.338328 0.0691128 0.313638
744 4 0.397487 0.0797119 0.257257
479 4 0.428415 0.036176 0.298821
478 2 0.429473 0.0599151 0.291042
513 4 0.0425559 0.0854947 0.267247
531 4 0.0312293 0.104068 0.274621
529 2 0.00768876 0.100862 0.266827
2482 2 0.0635762 0.122031 0.28102
2483 4 0.0500753 0.103675 0.270727
2484 4 0.0770772 0.140387 0.291313
392 4 0.0833023 0.15703 0.300705
730 2 0.112185 0.0848225 0.288433
732 4 0.126948 0.0893015 0.30811
399 4 0.0906286 0.139457 0.306903
397 2 0.088933 0.128518 0.329323
632 4 0.261816 0.113432 0.28932
633 4 0.273087 0.0842204 0.328312
631 2 0.267452 0.0988262 0.308816
27 3 0.306401 0.156156 0.270332
742 2 0.386202 0.09783 0.270278
743 4 0.374917 0.115948 0.2833
349 2 0.393986 0.141265 0.306055
351 4 0.373548 0.132562 0.294579
350 4 0.414425 0.149968 0.317531
332 4 0.464789 0.16015 0.253201
480 4 0.430531 0.0836543 0.283263
451 2 0.452067 0.137409 0.307854
452 4 0.427492 0.135369 0.311987
453 4 0.476642 0.139449 0.303721
389 4 0.0297091 0.236208 0.325661
393 4 0.0859766 0.205746 0.289736
391 2 0.0846394 0.181388 0.29522
405 4 0.12593 0.183192 0.265873
403 2 0.149768 0.180674 0.258761
249 4 0.191359 0.179226 0.259959
247 2 0.215829 0.178981 0.265093
248 4 0.240299 0.178736 0.270227
279 4 0.242071 0.196863 0.26326
278 4 0.262026 0.238655 0.282125
277 2 0.252048 0.217759 0.272692
419 4 0.399546 0.236548 0.270227
418 2 0.406634 0.241023 0.293784
420 4 0.413721 0.245497 0.317341
306 4 0.421205 0.237792 0.333605
388 2 0.0298748 0.255884 0.310234
390 4 0.0300405 0.275561 0.294807
444 4 0.0420104 0.282682 0.279816
442 2 0.0626034 0.295797 0.285211
548 4 0.0209268 0.321081 0.303484
443 4 0.0831964 0.308912 0.290606
408 4 0.0909544 0.317456 0.307647
750 4 0.0866678 0.286348 0.258333
748 2 0.110998 0.291203 0.261441
749 4 0.135328 0.296058 0.264549
299 4 0.149344 0.309802 0.258761
298 2 0.158538 0.318368 0.280378
300 4 0.167731 0.326933 0.301995
536 4 0.245403 0.250746 0.28192
535 2 0.225142 0.265114 0.28479
537 4 0.204882 0.279483 0.28766
344 4 0.184287 0.318086 0.308051
343 2 0.202163 0.315422 0.325329
547 2 0.0107848 0.342118 0.312415
549 4 0.000642909 0.363155 0.321346
734 4 0.156863 0.344603 0.30781
733 2 0.142979 0.353726 0.326496
438 4 0.259294 0.39894 0.30026
436 2 0.276983 0.405238 0.316771
437 4 0.294671 0.411535 0.333283
434 4 0.449971 0.352549 0.310216
433 2 0.43816 0.360275 0.330856
3960 4 0.0150743 0.447232 0.279919
3958 2 0.00469237 0.428569 0.266916
767 4 0.164942 0.419632 0.300333
289 2 0.156526 0.49231 0.261776
768 4 0.179433 0.456156 0.269402
766 2 0.172187 0.437894 0.284868
499 2 0.114136 0.483012 0.310194
500 4 0.122784 0.460095 0.305172
1659 4 0.226751 0.498196 0.262569
1437 4 0.231729 0.483305 0.296357
1435 2 0.218759 0.477504 0.316932
542 4 0.458794 0.456133 0.297863
541 2 0.446157 0.458027 0.319354
543 4 0.43352 0.459921 0.340846
713 4 0.422942 0.498712 0.320381
317 4 0.0139163 0.0241072 0.375832
316 2 0.0357436 0.0338339 0.368474
318 4 0.057571 0.0435607 0.361116
605 4 0.162329 0.0358843 0.376744
1701 4 0.205889 0.99994 0.387173
604 2 0.178496 0.0549573 0.376852
439 2 0.24209 0.0277326 0.394335
606 4 0.194664 0.0740303 0.37696
473 4 0.206122 0.0824249 0.364066
684 4 0.27066 0.0683668 0.341418
707 4 0.29451 0.0823151 0.333798
440 4 0.251906 0.027391 0.371341
1669 2 0.311828 0.0511787 0.407185
1671 4 0.31037 0.0709722 0.391978
1518 4 0.326986 0.0744542 0.381619
1517 4 0.370299 0.0652731 0.358374
1516 2 0.348642 0.0698637 0.369996
1427 4 0.414722 0.0255207 0.381464
1426 2 0.425733 0.0033353 0.384889
398 4 0.0872373 0.117579 0.351743
474 4 0.215416 0.121073 0.333723
276 4 0.205543 0.0878104 0.386897
472 2 0.210769 0.101749 0.348894
274 2 0.212506 0.101591 0.406565
726 4 0.259091 0.0860806 0.339653
699 4 0.313102 0.0887319 0.381179
724 2 0.261273 0.0968341 0.36212
725 4 0.263455 0.107588 0.384588
697 2 0.315266 0.110425 0.368935
698 4 0.317429 0.132118 0.356691
257 4 0.409486 0.121724 0.401396
516 4 0.404884 0.132243 0.38354
1581 4 0.414801 0.114953 0.385622
514 2 0.408417 0.1563 0.377713
1580 4 0.454405 0.0857037 0.376861
1579 2 0.434603 0.100328 0.381242
584 4 0.492378 0.145996 0.370534
583 2 0.491507 0.162228 0.389532
374 4 0.263949 0.167331 0.414223
508 2 0.291442 0.195739 0.414874
509 4 0.311157 0.208893 0.406909
488 4 0.301006 0.221973 0.394804
717 4 0.321879 0.223208 0.398353
487 2 0.301082 0.238851 0.376357
515 4 0.41195 0.180357 0.371887
715 2 0.341196 0.226204 0.413943
265 2 0.415788 0.21585 0.393348
266 4 0.407901 0.211721 0.416713
267 4 0.423674 0.21998 0.369983
304 2 0.438081 0.223238 0.344944
305 4 0.454957 0.208684 0.356282
270 4 0.498861 0.208135 0.395478
585 4 0.490636 0.178461 0.40853
268 2 0.492919 0.225366 0.378361
269 4 0.486977 0.242596 0.361244
872 4 0.486822 0.198843 0.408962
616 2 0.0717694 0.313152 0.38632
618 4 0.0806359 0.329842 0.36995
617 4 0.0629029 0.296461 0.40269
407 4 0.0771803 0.318248 0.355713
406 2 0.0840674 0.317852 0.33168
1260 4 0.245537 0.287517 0.402771
345 4 0.220039 0.312758 0.342607
402 4 0.232869 0.314113 0.35865
678 4 0.214581 0.324713 0.359343
400 2 0.247004 0.313463 0.379265
489 4 0.301159 0.25573 0.35791
401 4 0.261138 0.312812 0.39988
1258 2 0.259257 0.267574 0.409035
377 4 0.380158 0.312236 0.340643
378 4 0.338258 0.330091 0.36129
376 2 0.359208 0.321163 0.350967
735 4 0.129094 0.362849 0.345182
677 4 0.182214 0.345114 0.391544
676 2 0.198398 0.334913 0.375443
592 2 0.305157 0.356188 0.357301
594 4 0.283513 0.36685 0.350742
593 4 0.326801 0.345525 0.363861
588 4 0.505374 0.392693 0.374894
435 4 0.42635 0.368002 0.351495
119 3 0.464567 0.4023 0.401666
3989 4 0.46007 0.384284 0.408446
3988 2 0.454764 0.360138 0.412186
3990 4 0.449459 0.335992 0.415927
414 4 0.163838 0.417681 0.341943
412 2 0.176033 0.439461 0.340502
413 4 0.188229 0.461241 0.339061
1436 4 0.205789 0.471704 0.337507
1557 4 0.195869 0.466777 0.408272
1555 2 0.217814 0.454841 0.407212
1556 4 0.239759 0.442905 0.406153
669 4 0.250016 0.456991 0.416657
614 4 0.384012 0.435451 0.353166
613 2 0.407829 0.441932 0.357156
116 1 0.463217 0.42488 0.406839
117 3 0.441117 0.431258 0.406584
615 4 0.431646 0.448413 0.361147
120 3 0.474724 0.437083 0.391435
447 4 0.442638 0.464103 0.357553
445 2 0.452467 0.476429 0.37696
446 4 0.462295 0.488755 0.396368
1742 4 0.493302 0.436622 0.385992
367 2 0.06447 0.0515932 0.471768
369 4 0.0764484 0.0494368 0.449927
368 4 0.0524916 0.0537497 0.493609
441 4 0.232274 0.0280742 0.417328
1670 4 0.313286 0.0313852 0.422393
962 4 0.268964 0.057257 0.466681
1817 4 0.2807 0.0432093 0.474561
1816 2 0.275373 0.0188556 0.472637
961 2 0.280838 0.0792443 0.467547
426 4 0.347897 0.0830036 0.47926
687 4 0.152009 0.12016 0.429895
685 2 0.168356 0.129498 0.44635
373 2 0.24591 0.150785 0.419321
686 4 0.184703 0.138835 0.462804
375 4 0.227872 0.134238 0.424419
275 4 0.219468 0.115371 0.426232
1152 4 0.199472 0.143087 0.475924
431 4 0.311202 0.129799 0.416075
430 2 0.302059 0.125226 0.438894
963 4 0.292712 0.101232 0.468412
432 4 0.292915 0.120654 0.461712
425 4 0.30871 0.113395 0.472818
321 4 0.296656 0.128106 0.480872
319 2 0.311082 0.140746 0.496912
424 2 0.328303 0.0981992 0.476039
256 2 0.400917 0.119694 0.424798
258 4 0.392347 0.117664 0.448199
261 4 0.116722 0.187596 0.49756
510 4 0.271726 0.182585 0.422839
649 2 0.312037 0.201782 0.48215
650 4 0.302779 0.221215 0.469429
711 4 0.292294 0.236447 0.475799
709 2 0.280253 0.244738 0.455515
651 4 0.321295 0.182349 0.494872
716 4 0.360514 0.229199 0.429533
576 4 0.378514 0.191796 0.475823
574 2 0.391412 0.200239 0.456136
410 4 0.36925 0.188209 0.491967
575 4 0.404309 0.208681 0.436449
871 2 0.472485 0.20125 0.429305
873 4 0.458149 0.203658 0.449649
2814 4 0.0843216 0.325425 0.455748
2812 2 0.0655884 0.316264 0.469544
2813 4 0.0468553 0.307103 0.483339
1136 4 0.12734 0.304796 0.454035
1135 2 0.12296 0.303137 0.478595
710 4 0.268212 0.25303 0.43523
1259 4 0.272976 0.247632 0.415299
503 4 0.172249 0.416651 0.457131
1715 4 0.502347 0.41247 0.424047
753 4 0.493423 0.386667 0.463279
383 4 0.00428511 0.464539 0.461464
382 2 0.0244704 0.459281 0.447677
384 4 0.0446557 0.454023 0.43389
336 4 0.236206 0.475047 0.490108
504 4 0.193542 0.461695 0.452845
636 4 0.196636 0.480983 0.446757
773 4 0.198414 0.460523 0.472527
502 2 0.182896 0.439173 0.454988
772 2 0.206323 0.474485 0.491702
5 3 0.324725 0.47801 0.479629
667 2 0.269945 0.456564 0.43175
4 3 0.309388 0.454016 0.454998
1 1 0.312979 0.458621 0.477454
334 2 0.26097 0.478443 0.489518
2 3 0.292624 0.460878 0.48793
668 4 0.289875 0.456138 0.446844
335 4 0.285735 0.48184 0.488927
1586 4 0.330097 0.492619 0.492822
3 3 0.324617 0.44116 0.487358
1269 4 0.461617 0.444238 0.496716
1268 4 0.445064 0.43131 0.451334
118 3 0.471878 0.428683 0.428027
3603 4 0.49117 0.425889 0.432023
1267 2 0.453341 0.437774 0.474025
1057 2 0.0576712 0.0675822 0.534741
937 2 0.0511724 0.0129811 0.507137
938 4 0.0481332 0.0376563 0.504477
1059 4 0.0478812 0.0547174 0.515667
1058 4 0.0674613 0.0804471 0.553815
824 4 0.0602766 0.0851163 0.570333
823 2 0.0420569 0.0804445 0.586807
1182 4 0.237959 0.0773716 0.568458
1180 2 0.24799 0.0788532 0.545603
841 2 0.308687 0.0432139 0.574267
842 4 0.326602 0.0528427 0.559723
1181 4 0.258022 0.0803347 0.522748
887 4 0.318679 0.0805762 0.58532
1217 4 0.339046 0.0684521 0.556526
2333 4 0.339441 0.0509688 0.544515
2332 2 0.350461 0.0339353 0.5299
2334 4 0.361481 0.0169017 0.515285
1091 4 0.392524 0.0271713 0.562859
88 3 0.408919 0.0227289 0.551095
1090 2 0.373068 0.0248305 0.578388
1216 2 0.360398 0.0804187 0.561629
89 3 0.426631 0.00402275 0.523153
86 1 0.426138 0.0080335 0.546002
87 3 0.446121 0.0175166 0.552319
4465 2 0.495928 0.0375432 0.579231
4467 4 0.475981 0.0526129 0.578772
2283 4 0.411257 0.0290627 0.570886
2429 4 0.069967 0.101404 0.561087
2428 2 0.0949685 0.101452 0.561409
2430 4 0.11997 0.1015 0.56173
260 4 0.125005 0.144378 0.521316
944 4 0.20017 0.108959 0.558222
943 2 0.210044 0.129928 0.548841
945 4 0.219918 0.150896 0.539461
1151 4 0.220022 0.157164 0.519286
1150 2 0.209747 0.150126 0.497605
320 4 0.325508 0.153387 0.512952
411 4 0.345247 0.148924 0.511491
1218 4 0.381751 0.0923854 0.566731
150 3 0.402341 0.114181 0.583077
409 2 0.357249 0.168567 0.501729
877 2 0.0226149 0.183362 0.556207
1272 4 0.0670455 0.1905 0.557127
879 4 0.0468534 0.188964 0.558715
259 2 0.120864 0.165987 0.509438
1270 2 0.0901761 0.18658 0.565775
1033 2 0.136813 0.219762 0.520143
1034 4 0.146637 0.236117 0.536304
1271 4 0.113307 0.18266 0.574423
695 4 0.155403 0.239682 0.555698
1035 4 0.126989 0.203407 0.503982
1220 4 0.218148 0.169934 0.532432
1219 2 0.205423 0.191454 0.532806
1221 4 0.192697 0.212973 0.53318
694 2 0.176888 0.242794 0.568102
696 4 0.198374 0.245906 0.580506
325 2 0.243668 0.174314 0.568447
327 4 0.231687 0.180405 0.547363
8 3 0.224841 0.211535 0.582887
991 2 0.229145 0.2483 0.548606
992 4 0.213916 0.245285 0.568206
791 4 0.33468 0.236517 0.526685
2845 2 0.00799601 0.307884 0.552215
2846 4 0.0132102 0.316787 0.529439
2847 4 0.00278181 0.298981 0.57499
1041 4 0.123562 0.316223 0.51684
1137 4 0.118579 0.301479 0.503156
993 4 0.244375 0.251314 0.529006
803 4 0.262087 0.260001 0.581378
790 2 0.324686 0.258167 0.534205
792 4 0.314692 0.279818 0.541725
812 4 0.305294 0.297579 0.543876
804 4 0.298815 0.281446 0.555075
802 2 0.280451 0.270723 0.568226
811 2 0.297158 0.320609 0.538529
1039 2 0.109443 0.336346 0.521413
1040 4 0.0953229 0.356468 0.525986
1160 4 0.15975 0.406533 0.564728
1190 4 0.228997 0.411977 0.562254
1159 2 0.181759 0.404249 0.553085
1161 4 0.203769 0.401966 0.541442
1173 4 0.221801 0.410824 0.544051
813 4 0.289022 0.34364 0.533183
1938 4 0.0321721 0.46422 0.563764
1936 2 0.0149673 0.478844 0.553027
539 4 0.136451 0.500052 0.525358
1171 2 0.229607 0.432523 0.534386
1172 4 0.237413 0.454222 0.524722
1188 4 0.227143 0.487614 0.525083
1186 2 0.236913 0.499198 0.544972
774 4 0.214232 0.488447 0.510878
238 2 0.303572 0.481417 0.524882
239 4 0.313438 0.490727 0.545886
240 4 0.293706 0.472108 0.503878
663 4 0.396907 0.466859 0.525853
661 2 0.399457 0.472067 0.550175
880 2 0.36451 0.448795 0.507334
882 4 0.388257 0.452895 0.513999
662 4 0.402007 0.477274 0.574497
881 4 0.340762 0.444695 0.50067
4149 4 0.420624 0.473039 0.575637
4084 2 0.480813 0.463306 0.522325
4085 4 0.472409 0.46012 0.498993
4086 4 0.489218 0.466492 0.545657
1910 4 0.417046 0.493451 0.572526
2318 4 0.0339097 0.00259396 0.589753
2319 4 0.0653274 0.0239479 0.622274
825 4 0.0238373 0.0757727 0.603282
2317 2 0.0496185 0.0132709 0.606013
98 3 0.220944 0.0354768 0.657127
1031 4 0.242631 0.0811653 0.587258
843 4 0.290772 0.0335851 0.588811
950 4 0.268834 0.0515105 0.651743
951 4 0.28514 0.0419477 0.605446
949 2 0.276987 0.0467291 0.628594
1004 4 0.325051 0.0185645 0.654655
1003 2 0.333046 0.0183256 0.630965
1005 4 0.341041 0.0180866 0.607276
1092 4 0.353611 0.0224897 0.593917
2281 2 0.423664 0.0351223 0.591731
2282 4 0.436072 0.041182 0.612576
3008 4 0.472469 0.055214 0.598551
3007 2 0.460848 0.0767973 0.603481
1199 4 0.0034932 0.117664 0.634327
1198 2 0.006934 0.141593 0.640712
1284 4 0.205408 0.145702 0.629657
1282 2 0.196228 0.123923 0.621496
1030 2 0.218802 0.0849008 0.593846
1032 4 0.194973 0.0886363 0.600434
1283 4 0.187049 0.102144 0.613336
1155 4 0.192402 0.160649 0.618748
326 4 0.25565 0.168223 0.58953
886 2 0.30526 0.088192 0.604995
888 4 0.291841 0.0958079 0.62467
806 4 0.29402 0.0979059 0.64478
805 2 0.304142 0.119596 0.652012
1238 4 0.278523 0.10916 0.618078
1237 2 0.270068 0.131237 0.609938
807 4 0.314263 0.141285 0.659243
1239 4 0.261612 0.153315 0.601798
900 4 0.351013 0.0884992 0.598012
898 2 0.353401 0.111624 0.607216
899 4 0.35579 0.134749 0.616421
148 3 0.395886 0.104176 0.618797
1194 4 0.360319 0.148346 0.601531
146 1 0.411533 0.112553 0.60385
1192 2 0.347119 0.165696 0.613775
149 3 0.418869 0.133401 0.610917
3251 4 0.415789 0.139997 0.642614
905 4 0.431379 0.150332 0.633379
3009 4 0.449228 0.0983807 0.608412
147 3 0.429504 0.0982143 0.603081
3052 2 0.465005 0.124289 0.640556
3053 4 0.442653 0.133803 0.634638
3250 2 0.415326 0.124556 0.662275
3054 4 0.487358 0.114775 0.646475
1082 4 0.00945751 0.243811 0.58859
1200 4 0.0103748 0.165521 0.647097
850 2 0.0257186 0.190288 0.635207
1081 2 0.0164596 0.23935 0.612176
852 4 0.0234303 0.215067 0.632773
1083 4 0.0234617 0.23489 0.635761
1208 4 0.0377144 0.241281 0.65056
909 4 0.0436223 0.216358 0.629415
851 4 0.0280069 0.165509 0.637641
907 2 0.06546 0.221945 0.618595
1244 4 0.0215603 0.226201 0.652168
1154 4 0.151013 0.171565 0.592891
1153 2 0.171707 0.166107 0.605819
908 4 0.0872977 0.227532 0.607775
6 1 0.22539 0.227828 0.599398
9 3 0.207923 0.242794 0.596343
1211 4 0.20752 0.167488 0.632725
1210 2 0.204176 0.19205 0.63599
7 3 0.223007 0.217706 0.619917
1212 4 0.200832 0.216613 0.639255
10 3 0.245293 0.238878 0.598752
1193 4 0.33392 0.183047 0.626019
1025 4 0.399608 0.226465 0.634376
904 2 0.444898 0.17099 0.629419
1024 2 0.422792 0.217977 0.630422
1026 4 0.445976 0.209489 0.626467
906 4 0.458417 0.191648 0.625459
952 2 0.47008 0.230648 0.607477
954 4 0.468767 0.210381 0.622061
984 4 0.0173429 0.299957 0.591998
1207 2 0.0456475 0.264958 0.651834
1209 4 0.0535805 0.288636 0.653109
982 2 0.0208438 0.316874 0.610074
3263 4 0.00511392 0.285516 0.58937
857 4 0.12062 0.300656 0.632243
856 2 0.139849 0.313776 0.623114
858 4 0.159077 0.326895 0.613986
1065 4 0.222375 0.303186 0.596262
1063 2 0.234288 0.281221 0.595372
796 2 0.194715 0.324762 0.618033
798 4 0.215288 0.311404 0.613188
1064 4 0.246201 0.259256 0.594481
953 4 0.471393 0.250916 0.592893
1263 4 0.474643 0.32553 0.637845
1261 2 0.484033 0.316154 0.659037
1007 4 0.414701 0.327591 0.64301
3274 2 0.00606051 0.349075 0.653232
3275 4 0.00729754 0.343852 0.628811
983 4 0.0243447 0.333792 0.628149
897 4 0.157558 0.414551 0.584083
797 4 0.174142 0.33812 0.622878
1189 2 0.230297 0.400966 0.584665
1191 4 0.231596 0.389955 0.607076
1175 4 0.226406 0.416839 0.658895
1008 4 0.415928 0.375025 0.658797
1006 2 0.415314 0.351308 0.650903
895 2 0.133321 0.419992 0.586943
896 4 0.109085 0.425432 0.589804
1174 2 0.228367 0.439279 0.648043
1176 4 0.230329 0.461719 0.637191
1002 4 0.407393 0.480056 0.592928
1000 2 0.388794 0.490741 0.605777
4147 2 0.443662 0.466145 0.582484
4148 4 0.4667 0.45925 0.58933
2167 2 0.477537 0.471694 0.626891
2169 4 0.470088 0.473517 0.603093
2168 4 0.484986 0.46987 0.65069
1250 4 0.478752 0.460575 0.667248
1185 4 0.0634854 0.0061381 0.689815
96 1 0.234454 0.0426023 0.674594
97 3 0.237515 0.0251253 0.689235
2202 4 0.226019 0.0518443 0.704718
99 3 0.224244 0.0601278 0.685864
2262 4 0.227855 0.0320112 0.705547
2200 2 0.221364 0.0670781 0.723991
2260 2 0.224364 0.0117337 0.719753
2201 4 0.216708 0.0823119 0.743264
100 3 0.254686 0.0492766 0.666546
2398 2 0.376087 0.0561056 0.720746
2400 4 0.351876 0.0501436 0.718895
2322 4 0.400051 0.0645791 0.702684
2399 4 0.400299 0.0620677 0.722597
2342 4 0.412483 0.00842268 0.711825
1926 4 0.414093 0.0522213 0.733613
1113 4 0.400123 0.0462315 0.74883
2320 2 0.417607 0.058412 0.685982
1162 2 0.473092 0.0525997 0.682733
2321 4 0.435162 0.052245 0.66928
1163 4 0.449055 0.0457183 0.682504
1164 4 0.497129 0.0594812 0.682962
1924 2 0.436778 0.0424842 0.737585
1925 4 0.459463 0.0327471 0.741557
1076 4 0.00411748 0.15505 0.677408
1077 4 0.0208956 0.123021 0.711953
864 4 0.0307367 0.115169 0.727194
1075 2 0.0125065 0.139035 0.694681
862 2 0.0432075 0.10612 0.746886
1225 2 0.142091 0.132553 0.714874
1227 4 0.12182 0.146758 0.711342
1226 4 0.162362 0.118349 0.718407
1148 4 0.170205 0.130456 0.730444
1147 2 0.189493 0.115811 0.736662
1149 4 0.208781 0.101165 0.742881
43 3 0.240076 0.146552 0.742331
3252 4 0.414863 0.109116 0.681935
1243 2 0.00642318 0.232334 0.6711
1073 4 0.0753122 0.170311 0.681556
1179 4 0.00116448 0.248006 0.705379
1072 2 0.0919576 0.185484 0.692413
1074 4 0.108603 0.200657 0.703271
893 4 0.113382 0.219151 0.710831
947 4 0.123819 0.211356 0.694979
946 2 0.143551 0.220451 0.682605
1277 4 0.149611 0.218752 0.731916
892 2 0.103455 0.237237 0.724957
948 4 0.163283 0.229546 0.67023
917 4 0.221317 0.24702 0.74314
916 2 0.218813 0.222462 0.73916
45 3 0.224622 0.180884 0.74274
918 4 0.216309 0.197905 0.735181
810 4 0.237396 0.194926 0.732324
830 4 0.322872 0.161595 0.686093
809 4 0.286596 0.19279 0.723633
808 2 0.261996 0.193858 0.727979
3204 4 0.322435 0.19462 0.733373
831 4 0.305838 0.187997 0.724997
829 2 0.314355 0.174796 0.705545
3202 2 0.345706 0.200396 0.740462
3203 4 0.368978 0.206171 0.74755
3486 4 0.38383 0.2103 0.73207
3484 2 0.402735 0.226359 0.728925
3485 4 0.42164 0.242417 0.72578
894 4 0.0935277 0.255323 0.739082
821 4 0.113598 0.313706 0.742394
1262 4 0.493422 0.306777 0.680229
3276 4 0.00482349 0.354297 0.677653
816 4 0.0704994 0.372596 0.741762
815 4 0.110876 0.376239 0.712486
814 2 0.0906879 0.374418 0.727124
942 4 0.127817 0.371143 0.703908
940 2 0.143204 0.390831 0.704791
941 4 0.158591 0.41052 0.705674
1080 4 0.169692 0.431071 0.707838
2013 4 0.167429 0.417605 0.721601
1068 4 0.214309 0.407416 0.674177
1067 4 0.178404 0.414314 0.708294
1028 4 0.233427 0.408017 0.674875
1066 2 0.196357 0.410865 0.691236
2011 2 0.171661 0.40914 0.744744
1027 2 0.253429 0.398556 0.686518
1029 4 0.273431 0.389095 0.698162
998 4 0.384707 0.382645 0.709222
997 2 0.390666 0.403768 0.7212
999 4 0.396625 0.424891 0.733178
1280 4 0.0682123 0.451479 0.694915
1279 2 0.0747564 0.438713 0.715394
1281 4 0.0813004 0.425946 0.735873
2015 4 0.120602 0.453507 0.686198
1079 4 0.136145 0.463869 0.690529
2014 2 0.10696 0.473865 0.681235
1078 2 0.152919 0.44747 0.699184
2016 4 0.0933179 0.494223 0.676272
1952 4 0.251372 0.485099 0.676335
928 2 0.319023 0.494073 0.713207