ITEM: TIMESTEP
2720000
ITEM: NUMBER OF ATOMS
4590
ITEM: BOX BOUNDS pp pp pp
-9.9985700000000008e+00 9.9985700000000008e+00
-9.9985700000000008e+00 9.9985700000000008e+00
-9.9985700000000008e+00 9.9985700000000008e+00
ITEM: ATOMS id type xs ys zs
1247 4 0.0603845 0.0625258 0.0145167
379 2 0.0595128 0.0761339 0.0833427
490 2 0.294464 0.0134933 0.0606577
492 4 0.30378 0.0337098 0.0492692
486 4 0.31508 0.0267572 0.0339455
484 2 0.323403 0.024972 0.0104354
2467 2 0.392646 0.0680732 0.0206324
2469 4 0.404505 0.072047 0.042283
1760 4 0.423395 0.0765032 0.047037
2723 4 0.407133 0.0806745 0.0601603
1759 2 0.435339 0.0701043 0.0680506
1761 4 0.447283 0.0637053 0.0890642
380 4 0.0655264 0.0941168 0.0670445
358 2 0.245184 0.130434 0.0403215
359 4 0.249126 0.110892 0.0554132
360 4 0.241243 0.149975 0.0252299
665 4 0.323283 0.0810254 0.0629565
664 2 0.334075 0.0980448 0.0481567
666 4 0.344868 0.115064 0.0333569
866 4 0.361572 0.12262 0.0375414
865 2 0.379141 0.139908 0.0333417
867 4 0.39671 0.157197 0.029142
2722 2 0.388813 0.0967202 0.0658261
2724 4 0.370493 0.112766 0.0714919
2624 4 0.0671281 0.238894 0.0261739
555 4 0.143224 0.179237 0.0167828
553 2 0.153396 0.196942 0.0312134
554 4 0.163568 0.214647 0.045644
1133 4 0.170456 0.232898 0.0378787
507 4 0.163816 0.231119 0.058056
505 2 0.166739 0.251547 0.0721752
1132 2 0.174591 0.248994 0.0191969
353 4 0.264976 0.230471 0.069997
311 4 0.276275 0.193811 0.0643738
310 2 0.294137 0.1851 0.0795476
770 4 0.429835 0.224181 0.0657561
769 2 0.431127 0.202296 0.0777806
2623 2 0.0701985 0.251323 0.00469641
655 2 0.00838137 0.325568 0.0638039
836 4 0.0331553 0.326811 0.0265215
835 2 0.0557516 0.334784 0.0193789
338 4 0.131632 0.302986 0.0706027
755 4 0.26966 0.273858 0.052842
754 2 0.276163 0.297355 0.0583906
756 4 0.282666 0.320852 0.0639391
740 4 0.301735 0.324292 0.066609
624 4 0.390159 0.322486 0.0617968
2840 4 0.442229 0.32707 0.0349888
837 4 0.0783478 0.342758 0.0122362
2807 4 0.0172715 0.354365 0.0421916
656 4 0.0183238 0.333895 0.0424265
314 4 0.0730726 0.416902 0.0639856
2806 2 0.00833057 0.377472 0.04555
288 4 0.0710035 0.408481 0.0447624
286 2 0.0762921 0.387265 0.032634
287 4 0.0815808 0.366049 0.0205057
2808 4 0.99939 0.40058 0.0489083
357 4 0.154985 0.328122 0.0583396
482 4 0.096782 0.344775 0.00432695
355 2 0.132422 0.337663 0.0633464
356 4 0.109859 0.347203 0.0683532
1659 4 0.185929 0.3877 0.00769263
38 3 0.243731 0.351396 0.0717626
40 3 0.241583 0.368445 0.0382608
36 1 0.242882 0.371801 0.0607485
39 3 0.224506 0.383965 0.0680123
37 3 0.262009 0.383645 0.0655493
1512 4 0.274819 0.388277 0.0792948
1710 4 0.267708 0.40264 0.0626907
2841 4 0.481253 0.355896 0.0471107
2839 2 0.461741 0.341483 0.0410497
914 4 0.0657627 0.427129 0.0464509
313 2 0.0536343 0.419962 0.079412
913 2 0.0703939 0.439098 0.0249923
315 4 0.0341961 0.423022 0.0948384
293 4 0.100551 0.503973 0.0599859
292 2 0.112895 0.483347 0.0668668
552 4 0.145872 0.453427 0.0710844
294 4 0.125238 0.46272 0.0737477
550 2 0.16595 0.450715 0.0564311
1709 4 0.24555 0.445462 0.0494243
551 4 0.186027 0.448003 0.0417778
251 4 0.335369 0.419685 0.0621192
1708 2 0.256629 0.424051 0.0560575
250 2 0.337312 0.42233 0.037332
1289 4 0.342572 0.436024 0.997523
902 4 0.336549 0.418655 0.992086
252 4 0.339256 0.424975 0.0125448
1288 2 0.341545 0.460963 0.998983
4304 4 0.417265 0.479901 0.0733904
671 4 0.482559 0.44791 0.0668804
2481 4 0.054743 0.0391078 0.104511
381 4 0.0534992 0.058151 0.0996409
2479 2 0.0325633 0.0314034 0.113106
2480 4 0.0103836 0.0236991 0.121702
579 4 0.164923 0.00553865 0.143648
577 2 0.176108 0.0237467 0.130665
578 4 0.187293 0.0419548 0.117683
423 4 0.19414 0.0573814 0.108907
652 2 0.242309 0.0315638 0.155523
654 4 0.221011 0.0375981 0.167149
581 4 0.20648 0.0445898 0.155724
421 2 0.205205 0.0771267 0.0982832
580 2 0.199085 0.0657568 0.16679
653 4 0.263607 0.0255295 0.143897
24 3 0.378846 0.0367465 0.123762
21 1 0.370167 0.0571369 0.13064
25 3 0.366394 0.056798 0.153096
23 3 0.350377 0.0615353 0.119352
22 3 0.385354 0.0737102 0.125758
759 4 0.349972 0.0699879 0.15441
2464 2 0.448431 0.0218677 0.139506
2591 4 0.419606 0.0534799 0.144602
2592 4 0.43224 0.0726647 0.100183
2590 2 0.425923 0.0630723 0.122392
2466 4 0.430721 0.0362696 0.149711
2894 4 0.413705 0.0447215 0.163539
529 2 0.0125074 0.103016 0.138944
531 4 0.0361126 0.110484 0.135451
236 4 0.105365 0.147522 0.122256
534 4 0.225823 0.114667 0.0874389
422 4 0.21627 0.0968719 0.0876595
532 2 0.241251 0.125745 0.1037
533 4 0.256679 0.136824 0.119961
297 4 0.380982 0.0921255 0.120685
295 2 0.400171 0.108139 0.12141
296 4 0.41936 0.124152 0.122135
629 4 0.431808 0.12731 0.138444
628 2 0.431243 0.124873 0.163322
558 4 0.437926 0.128013 0.119104
556 2 0.443547 0.150309 0.109282
235 2 0.114416 0.170494 0.118309
237 4 0.123467 0.193465 0.114362
477 4 0.12626 0.213296 0.115793
475 2 0.139045 0.234337 0.111438
476 4 0.15183 0.255379 0.107083
506 4 0.169661 0.271974 0.0862944
284 4 0.237152 0.218065 0.150512
283 2 0.24544 0.236083 0.135286
352 2 0.261332 0.248483 0.0869523
312 4 0.311999 0.176389 0.0947215
285 4 0.253728 0.254101 0.120061
557 4 0.449167 0.172606 0.0994604
771 4 0.43242 0.180412 0.0898051
2519 4 0.487017 0.224233 0.109236
363 4 0.0440746 0.299553 0.151336
648 4 0.0579073 0.297352 0.137225
646 2 0.0788411 0.290847 0.125198
657 4 0.998439 0.317242 0.0851812
337 2 0.122893 0.288122 0.0887102
738 4 0.160283 0.275988 0.101607
647 4 0.0997749 0.284343 0.113171
339 4 0.114155 0.273258 0.106818
455 4 0.130601 0.315526 0.131105
737 4 0.191141 0.269131 0.140357
736 2 0.175712 0.27256 0.120982
372 4 0.202057 0.278772 0.153357
739 2 0.315539 0.325295 0.0874329
354 4 0.257688 0.266494 0.103908
764 4 0.253541 0.274042 0.122898
763 2 0.272457 0.286378 0.133629
765 4 0.291374 0.298715 0.144361
612 4 0.301009 0.31544 0.149046
741 4 0.329342 0.326298 0.108257
622 2 0.39792 0.324245 0.0855003
728 4 0.395954 0.336513 0.149775
386 4 0.337845 0.330014 0.125354
623 4 0.405681 0.326004 0.109204
1304 4 0.494603 0.267765 0.0949125
518 4 0.476502 0.276939 0.139899
517 2 0.493373 0.268767 0.156444
705 4 0.0528696 0.340606 0.0862535
703 2 0.0742312 0.351319 0.0936081
1758 4 0.0461345 0.4021 0.152067
454 2 0.120126 0.336884 0.123403
704 4 0.0955928 0.362032 0.100963
456 4 0.109652 0.358241 0.1157
417 4 0.113966 0.369615 0.0985301
415 2 0.112706 0.391296 0.11092
416 4 0.111446 0.412978 0.12331
610 2 0.3031 0.331369 0.168205
609 4 0.325025 0.398438 0.155786
1510 2 0.290264 0.399835 0.0952015
727 2 0.403293 0.359713 0.144023
729 4 0.410633 0.382913 0.138271
385 2 0.352789 0.349885 0.122706
15 3 0.400483 0.386281 0.0983827
12 3 0.404873 0.402235 0.131836
387 4 0.367733 0.369755 0.120058
11 1 0.390728 0.399853 0.113852
494 4 0.388706 0.408791 0.143848
13 3 0.370804 0.390477 0.121169
608 4 0.372712 0.395407 0.141039
607 2 0.348868 0.396923 0.148412
14 3 0.386726 0.420768 0.104634
498 4 0.425471 0.397531 0.136298
104 3 0.490122 0.356164 0.0983145
101 1 0.493191 0.36331 0.120176
102 3 0.495511 0.386196 0.120262
103 3 0.474747 0.357592 0.133042
496 2 0.447239 0.385708 0.139697
497 4 0.469007 0.373886 0.143095
563 4 0.503039 0.394801 0.138627
1756 2 0.0427947 0.416873 0.132173
1757 4 0.0394549 0.431647 0.112279
1439 4 0.139062 0.461913 0.086636
1440 4 0.119508 0.432661 0.12217
1438 2 0.129285 0.447287 0.104403
1511 4 0.305709 0.411394 0.111108
246 4 0.286036 0.423686 0.134389
244 2 0.286443 0.443141 0.150089
493 2 0.392187 0.426562 0.161089
670 2 0.480736 0.436281 0.08894
956 4 0.468666 0.427963 0.148716
955 2 0.447426 0.434461 0.160196
672 4 0.478913 0.424652 0.111
3781 2 0.0345128 0.0150941 0.183079
3783 4 0.0360492 0.0399679 0.185106
512 4 0.0696887 0.0642518 0.212855
511 2 0.0811966 0.0796601 0.228834
690 4 0.207501 0.0116111 0.211879
675 4 0.202325 0.0316878 0.221566
673 2 0.200555 0.0437501 0.243395
674 4 0.198785 0.0558125 0.265225
567 4 0.17635 0.0803364 0.190669
466 2 0.217245 0.0880548 0.263613
1464 4 0.321131 0.0092038 0.210018
757 2 0.351885 0.0768806 0.178369
758 4 0.353798 0.0837733 0.202327
2893 2 0.413034 0.0243199 0.177979
2895 4 0.412363 0.00391817 0.192418
513 4 0.0927046 0.0950684 0.244813
582 4 0.191691 0.0869238 0.177856
565 2 0.182356 0.097974 0.207343
566 4 0.188362 0.115612 0.224017
598 2 0.215062 0.148089 0.224946
600 4 0.197029 0.131964 0.231269
599 4 0.233096 0.164213 0.218623
468 4 0.227729 0.105407 0.248979
254 4 0.392511 0.16985 0.243834
630 4 0.430677 0.122435 0.1882
323 4 0.420383 0.213529 0.22402
322 2 0.42106 0.231822 0.241051
361 2 0.0496087 0.306804 0.174616
750 4 0.0669645 0.325439 0.209419
362 4 0.0551428 0.314056 0.197896
371 4 0.17676 0.299646 0.191107
370 2 0.189408 0.289209 0.172232
309 4 0.372864 0.333611 0.204386
1318 2 0.0393327 0.418135 0.231159
748 2 0.0834237 0.344179 0.211177
1319 4 0.0404665 0.412638 0.255524
749 4 0.099883 0.362919 0.212935
603 4 0.234016 0.337412 0.237323
303 4 0.288346 0.413733 0.172882
611 4 0.305192 0.347298 0.187364
301 2 0.294164 0.389893 0.177676
302 4 0.299982 0.366053 0.182469
308 4 0.371005 0.36976 0.169882
645 4 0.425479 0.365544 0.186289
307 2 0.371935 0.351686 0.187134
643 2 0.424149 0.369388 0.210959
644 4 0.422819 0.373231 0.23563
109 3 0.462705 0.422135 0.223917
106 1 0.462095 0.419539 0.246967
1320 4 0.0381989 0.423632 0.206794
3715 2 0.0426499 0.49816 0.18654
3717 4 0.0659734 0.494996 0.194977
3716 4 0.0193263 0.501323 0.178103
245 4 0.286851 0.462597 0.165789
1627 2 0.299875 0.493657 0.169298
1629 4 0.280164 0.479759 0.175892
1575 4 0.282731 0.462767 0.185491
1574 4 0.259535 0.455042 0.229115
1573 2 0.271133 0.458905 0.207303
495 4 0.395667 0.444333 0.178329
525 4 0.34617 0.489109 0.192876
523 2 0.355856 0.466669 0.198152
524 4 0.365541 0.44423 0.203429
659 4 0.413795 0.441218 0.187969
957 4 0.426186 0.440959 0.171677
1582 2 0.444656 0.495694 0.234
658 2 0.426508 0.452152 0.206516
660 4 0.439221 0.463086 0.225064
1583 4 0.454303 0.472714 0.231986
2476 2 0.0260658 0.0520427 0.318513
2478 4 0.0290407 0.0274697 0.322048
2477 4 0.0230909 0.0766157 0.314979
233 4 0.0987752 0.00460693 0.270734
605 4 0.118049 0.0567763 0.309849
604 2 0.134365 0.0690776 0.324259
467 4 0.206761 0.0707024 0.278247
429 4 0.192671 0.0557486 0.285428
427 2 0.192173 0.0319022 0.292931
428 4 0.191675 0.00805588 0.300433
440 4 0.232216 0.0212876 0.31593
1517 4 0.387933 0.0167698 0.29503
1516 2 0.385713 0.0301099 0.31606
478 2 0.486716 0.0513897 0.278685
479 4 0.474428 0.0368317 0.294878
480 4 0.499005 0.0659476 0.262491
2738 4 0.0247843 0.0866911 0.298255
2739 4 0.0524871 0.127089 0.288193
2737 2 0.0386357 0.10689 0.293224
2676 4 0.0114054 0.0928132 0.314385
683 4 0.23861 0.128369 0.284981
682 2 0.232828 0.152658 0.283632
684 4 0.227045 0.176946 0.282284
2482 2 0.0710491 0.192975 0.317054
2483 4 0.0534251 0.175262 0.316149
2484 4 0.0886731 0.210688 0.317958
393 4 0.120749 0.207137 0.258028
391 2 0.111071 0.207543 0.281079
392 4 0.101393 0.207949 0.30413
249 4 0.107791 0.207638 0.321994
726 4 0.23932 0.184749 0.295137
474 4 0.221284 0.186486 0.302199
633 4 0.239375 0.19779 0.279447
279 4 0.18194 0.226783 0.293385
277 2 0.190769 0.248124 0.283805
473 4 0.178028 0.207991 0.28927
472 2 0.199656 0.197239 0.295735
631 2 0.253571 0.200286 0.259016
724 2 0.256115 0.186979 0.313526
632 4 0.267768 0.202781 0.238586
253 2 0.398397 0.185963 0.262025
255 4 0.404283 0.202075 0.280216
304 2 0.386313 0.221656 0.31746
305 4 0.382484 0.203604 0.334332
306 4 0.390142 0.239708 0.300589
29 3 0.423016 0.207011 0.280701
30 3 0.438303 0.240776 0.287326
28 3 0.458579 0.209723 0.293828
26 1 0.437371 0.219124 0.294325
27 3 0.429453 0.218474 0.315912
278 4 0.199599 0.269465 0.274226
536 4 0.21332 0.263109 0.261685
535 2 0.22506 0.285183 0.261944
537 4 0.236801 0.307257 0.262204
678 4 0.230518 0.317133 0.278978
402 4 0.242189 0.307717 0.292776
676 2 0.210724 0.32795 0.289766
400 2 0.251045 0.298944 0.314451
345 4 0.282264 0.313605 0.267272
343 2 0.294532 0.328163 0.28348
418 2 0.386932 0.277615 0.316702
420 4 0.397702 0.257021 0.307477
419 4 0.376162 0.298208 0.325928
377 4 0.387768 0.336051 0.331205
324 4 0.421737 0.250116 0.258083
462 4 0.426907 0.253144 0.277735
461 4 0.441444 0.29851 0.262526
460 2 0.434175 0.275827 0.27013
2954 4 0.02762 0.408464 0.26972
2463 4 0.0545432 0.356197 0.284528
2461 2 0.0504207 0.380433 0.279968
2462 4 0.0462983 0.404669 0.275408
500 4 0.0711848 0.375656 0.310149
3959 4 0.0483437 0.4306 0.260828
499 2 0.0714228 0.391727 0.329302
299 4 0.163891 0.375384 0.281363
601 2 0.246343 0.356991 0.246804
637 2 0.242808 0.416763 0.256422
677 4 0.19093 0.338767 0.300553
298 2 0.164366 0.358741 0.300018
300 4 0.16484 0.342099 0.318672
767 4 0.179707 0.338777 0.332073
638 4 0.257334 0.397009 0.251532
602 4 0.258669 0.37657 0.256286
290 4 0.259841 0.38925 0.271774
289 2 0.265941 0.391039 0.295956
344 4 0.306801 0.342721 0.299689
436 2 0.327894 0.4042 0.289526
291 4 0.272041 0.392828 0.320138
437 4 0.312674 0.41958 0.302056
438 4 0.343114 0.388821 0.276996
110 3 0.441571 0.412059 0.253404
107 3 0.478045 0.404156 0.253142
3958 2 0.044529 0.43549 0.28505
3960 4 0.0407142 0.440379 0.309273
639 4 0.228281 0.436518 0.261312
108 3 0.466764 0.439762 0.257342
317 4 0.0182229 0.105632 0.331558
545 4 0.0804035 0.026417 0.37149
544 2 0.10076 0.0158951 0.381494
546 4 0.121117 0.00537323 0.391498
731 4 0.136521 0.00426103 0.407884
606 4 0.150681 0.0813789 0.338669
730 2 0.141913 0.0281673 0.412843
399 4 0.164203 0.0879544 0.350872
441 4 0.222027 0.0459887 0.3582
439 2 0.227121 0.0336381 0.337065
1818 4 0.221374 0.00764686 0.408282
1670 4 0.301657 0.0204811 0.394073
1669 2 0.32627 0.0239199 0.396827
1518 4 0.383493 0.0434501 0.337091
1671 4 0.350882 0.0273587 0.399582
744 4 0.375997 0.0594546 0.346348
699 4 0.392363 0.0497878 0.355862
697 2 0.396869 0.0314201 0.372217
742 2 0.368861 0.0794385 0.359573
698 4 0.401374 0.0130524 0.388573
316 2 0.0221317 0.0947549 0.35373
318 4 0.0260405 0.0838779 0.375902
397 2 0.16839 0.112604 0.351104
398 4 0.172577 0.137253 0.351336
706 2 0.271712 0.126758 0.400854
707 4 0.266661 0.118323 0.377865
717 4 0.3203 0.167238 0.40701
743 4 0.361725 0.0994223 0.372798
351 4 0.363454 0.112248 0.386836
349 2 0.37457 0.134007 0.392146
350 4 0.385685 0.155765 0.397456
452 4 0.406536 0.157394 0.389311
516 4 0.380332 0.174592 0.40095
257 4 0.400118 0.165727 0.405739
451 2 0.427693 0.147793 0.38007
453 4 0.448849 0.138193 0.370829
2653 2 0.0556554 0.191791 0.382451
2654 4 0.0703887 0.207694 0.369992
2655 4 0.0409221 0.175889 0.394909
348 4 0.0256261 0.18355 0.403871
369 4 0.0285409 0.169431 0.41607
346 2 0.0129282 0.203381 0.412279
247 2 0.123021 0.211021 0.341533
248 4 0.138252 0.214403 0.361072
432 4 0.309888 0.169874 0.389543
430 2 0.296885 0.177292 0.369516
431 4 0.283883 0.18471 0.349489
725 4 0.272911 0.189208 0.331914
508 2 0.283174 0.226176 0.390648
488 4 0.303637 0.232728 0.34962
509 4 0.294862 0.230477 0.368967
487 2 0.325621 0.22267 0.356003
510 4 0.271485 0.221875 0.412329
514 2 0.372271 0.187969 0.381424
489 4 0.347605 0.212612 0.362385
515 4 0.36421 0.201346 0.361898
1581 4 0.409943 0.179627 0.394478
1579 2 0.423934 0.200291 0.392918
1580 4 0.437925 0.220955 0.391358
267 4 0.457929 0.219109 0.397951
618 4 0.0410064 0.301772 0.393292
407 4 0.043401 0.296297 0.374656
406 2 0.0601498 0.289264 0.357475
408 4 0.0768986 0.28223 0.340294
548 4 0.0401404 0.316534 0.378696
768 4 0.222973 0.324483 0.352675
766 2 0.20134 0.33163 0.342374
401 4 0.259901 0.290172 0.336125
1260 4 0.27509 0.293298 0.349104
1258 2 0.265936 0.293386 0.372372
1259 4 0.256782 0.293473 0.395639
710 4 0.261515 0.306804 0.410093
681 4 0.00229082 0.358446 0.361412
547 2 0.0305844 0.336305 0.36674
549 4 0.0210284 0.356077 0.354784
501 4 0.0716609 0.407799 0.348455
414 4 0.194985 0.407508 0.347836
734 4 0.165329 0.354104 0.335741
733 2 0.168867 0.370457 0.354322
735 4 0.172405 0.386809 0.372903
504 4 0.186106 0.3945 0.385168
502 2 0.16964 0.412457 0.39079
594 4 0.339025 0.406078 0.390672
592 2 0.347855 0.383732 0.383753
593 4 0.356685 0.361386 0.376833
378 4 0.360703 0.368648 0.357769
376 2 0.374236 0.35235 0.344487
433 2 0.415218 0.397599 0.368181
584 4 0.485453 0.339879 0.373991
588 4 0.484347 0.38815 0.348092
586 2 0.462848 0.376548 0.353415
435 4 0.428966 0.376732 0.369043
587 4 0.441348 0.364946 0.358739
3670 2 0.0150768 0.485077 0.341321
3671 4 0.0292603 0.471974 0.357206
777 4 0.0432746 0.464079 0.344515
776 4 0.0766947 0.427025 0.341227
775 2 0.0599847 0.445552 0.342871
503 4 0.153174 0.430414 0.396411
412 2 0.214366 0.423057 0.350622
1436 4 0.24099 0.447995 0.36972
1435 2 0.242955 0.443877 0.394304
413 4 0.233748 0.438605 0.353409
1557 4 0.241775 0.457791 0.350121
1555 2 0.229693 0.479656 0.351187
434 4 0.40147 0.418466 0.367318
1058 4 0.0174043 0.0520708 0.461054
938 4 0.0161972 0.0314858 0.450984
1602 4 0.0322854 0.0421576 0.453271
1600 2 0.0571885 0.0411379 0.451277
1601 4 0.0820915 0.0401181 0.449283
1057 2 0.0146428 0.0766013 0.457078
732 4 0.147305 0.0520735 0.417803
1478 4 0.088098 0.0208121 0.451779
1477 2 0.109224 0.00747444 0.452775
1816 2 0.226346 0.0112764 0.432515
1817 4 0.231318 0.014906 0.456749
961 2 0.223649 0.0306557 0.488039
962 4 0.236507 0.0324698 0.466672
88 3 0.492782 0.00128121 0.494551
1427 4 0.465564 0.0717751 0.437805
1426 2 0.473073 0.0514759 0.450325
1428 4 0.480581 0.0311768 0.462844
1059 4 0.0118814 0.101132 0.453102
368 4 0.0413014 0.146237 0.458496
367 2 0.0349212 0.157834 0.437283
259 2 0.148331 0.163847 0.483007
260 4 0.15544 0.151123 0.462691
276 4 0.226118 0.120745 0.429113
274 2 0.235767 0.14041 0.441171
275 4 0.245416 0.160075 0.453228
686 4 0.262585 0.155488 0.460747
425 4 0.329605 0.150142 0.414689
708 4 0.276763 0.135194 0.423843
685 2 0.265363 0.156492 0.485575
424 2 0.327275 0.12678 0.42329
426 4 0.324946 0.103418 0.431891
375 4 0.256313 0.176367 0.456246
715 2 0.332922 0.183614 0.421072
374 4 0.258563 0.206131 0.416124
1151 4 0.259372 0.204112 0.483882
373 2 0.257438 0.191249 0.436185
1150 2 0.282286 0.213315 0.47995
649 2 0.330065 0.229848 0.450837
650 4 0.317933 0.251542 0.448116
1152 4 0.305199 0.222518 0.476018
256 2 0.394494 0.16611 0.430099
258 4 0.388871 0.166492 0.454459
651 4 0.342196 0.208155 0.453558
716 4 0.345543 0.199989 0.435133
411 4 0.362247 0.205729 0.457518
409 2 0.382517 0.218364 0.464912
410 4 0.402786 0.230999 0.472307
265 2 0.465439 0.223984 0.421297
266 4 0.472949 0.22886 0.444642
575 4 0.459533 0.194244 0.488817
616 2 0.0390404 0.312548 0.415769
617 4 0.0370744 0.323323 0.438246
2813 4 0.0247061 0.321915 0.4566
1041 4 0.104074 0.319081 0.50022
1039 2 0.0802872 0.326767 0.500745
1135 2 0.165444 0.28531 0.488809
1136 4 0.181607 0.275911 0.472207
802 2 0.268633 0.286825 0.494875
803 4 0.276915 0.287829 0.471305
709 2 0.264698 0.294773 0.431779
711 4 0.267881 0.282742 0.453466
2812 2 0.0314358 0.32977 0.479364
2814 4 0.0381655 0.337625 0.502128
1040 4 0.0564998 0.334452 0.50127
1160 4 0.0499718 0.353044 0.504271
751 2 0.494168 0.363009 0.441473
753 4 0.484207 0.368457 0.419196
3601 2 0.499867 0.392835 0.492674
384 4 0.0347311 0.441152 0.47486
382 2 0.0272748 0.446936 0.498014
1189 2 0.148279 0.440166 0.481024
1190 4 0.134041 0.435725 0.501092
1191 4 0.162516 0.444607 0.460955
1437 4 0.24492 0.439759 0.418887
824 4 0.0902069 0.0601302 0.548845
1128 4 0.128934 0.0156514 0.524864
823 2 0.086932 0.0394594 0.562526
2428 2 0.112613 0.0787272 0.529517
2430 4 0.12818 0.0785375 0.509952
825 4 0.0836572 0.0187886 0.576207
2429 4 0.0970452 0.078917 0.549082
1180 2 0.22654 0.0433404 0.542407
963 4 0.21079 0.0288416 0.509406
1181 4 0.220851 0.0438369 0.518064
1182 4 0.232229 0.0428438 0.566749
843 4 0.306183 0.0441262 0.536212
951 4 0.293098 0.0353358 0.548478
949 2 0.278731 0.0237043 0.565315
841 2 0.329571 0.0354917 0.538115
93 3 0.400249 0.0132653 0.532848
842 4 0.352959 0.0268572 0.540017
1003 2 0.385031 0.0393006 0.558678
1005 4 0.373256 0.0243745 0.542437
2333 4 0.359976 0.0126682 0.553101
1004 4 0.396805 0.0542268 0.574918
91 1 0.417321 0.00231685 0.521575
1723 2 0.469499 0.0146502 0.522343
94 3 0.435367 0.0166184 0.51871
1724 4 0.448195 0.00168572 0.520546
1725 4 0.490803 0.0276147 0.524141
4239 4 0.501435 0.0277115 0.540043
877 2 0.028164 0.140181 0.556413
878 4 0.00714421 0.127252 0.552388
470 4 0.0178302 0.113116 0.541029
469 2 0.00834161 0.0911801 0.548375
1272 4 0.0663249 0.14501 0.564357
879 4 0.0491838 0.153109 0.560439
1270 2 0.0911815 0.147499 0.565422
1271 4 0.116038 0.149989 0.566488
944 4 0.270894 0.147466 0.526397
943 2 0.264553 0.168848 0.537703
687 4 0.268141 0.157495 0.510403
3054 4 0.393868 0.138801 0.541818
3052 2 0.408669 0.148116 0.523948
935 4 0.994368 0.181391 0.548675
1033 2 0.138991 0.208031 0.531041
1034 4 0.13407 0.220719 0.552016
1035 4 0.143913 0.195343 0.510066
909 4 0.135705 0.231002 0.569098
261 4 0.141223 0.176572 0.503323
1221 4 0.205258 0.216282 0.515122
1219 2 0.222661 0.204728 0.528864
1220 4 0.240064 0.193173 0.542605
945 4 0.258213 0.190229 0.549008
791 4 0.269388 0.234907 0.553168
325 2 0.292904 0.221499 0.576937
326 4 0.303023 0.20162 0.588232
327 4 0.282785 0.241379 0.565641
900 4 0.320677 0.192308 0.597155
321 4 0.319064 0.197001 0.575076
790 2 0.265043 0.250975 0.534511
319 2 0.32861 0.193289 0.552267
320 4 0.338156 0.189577 0.529458
3053 4 0.423469 0.157432 0.506078
576 4 0.47169 0.18746 0.536847
574 2 0.465611 0.190852 0.512832
1137 4 0.149282 0.294709 0.50541
813 4 0.202108 0.29877 0.538543
811 2 0.224886 0.289283 0.534498
812 4 0.247663 0.279796 0.530452
792 4 0.260697 0.267043 0.515853
804 4 0.26035 0.285822 0.518446
1159 2 0.0571877 0.37609 0.510752
1161 4 0.0644036 0.399136 0.517233
895 2 0.136573 0.392568 0.557078
897 4 0.112648 0.390626 0.550075
896 4 0.160497 0.394509 0.564081
238 2 0.309912 0.392651 0.543594
240 4 0.303938 0.377369 0.524727
239 4 0.315885 0.407932 0.562461
1000 2 0.435584 0.39046 0.582062
3603 4 0.493472 0.410823 0.508821
1002 4 0.445318 0.408363 0.567574
1936 2 0.0170743 0.488747 0.535582
383 4 0.0198185 0.45272 0.521168
1938 4 0.0220205 0.46436 0.538021
1172 4 0.0838963 0.464183 0.514687
1171 2 0.10454 0.450221 0.516705
538 2 0.163987 0.463063 0.56335
1173 4 0.125184 0.436259 0.518723
539 4 0.14619 0.449178 0.574104
540 4 0.181784 0.476948 0.552596
663 4 0.474098 0.441203 0.553863
4084 2 0.450963 0.469958 0.525261
4085 4 0.463311 0.455697 0.541671
661 2 0.479532 0.432898 0.576813
4086 4 0.438614 0.484219 0.50885
662 4 0.484966 0.424594 0.599763
2317 2 0.0628367 0.00686065 0.604792
2318 4 0.0414148 0.00819996 0.617618
2319 4 0.0842587 0.00552134 0.591967
948 4 0.148036 0.0373712 0.642684
992 4 0.122022 0.0291479 0.600686
991 2 0.114155 0.052118 0.606658
946 2 0.127589 0.0337284 0.656607
8 3 0.123596 0.00806297 0.595996
978 4 0.140119 0.0202801 0.601298
993 4 0.106288 0.0750881 0.61263
1032 4 0.246148 0.017617 0.586377
1210 2 0.230389 0.015627 0.65788
976 2 0.161814 0.0320791 0.605208
977 4 0.183509 0.0438781 0.609118
950 4 0.264364 0.0120729 0.582151
2201 4 0.288624 0.0296604 0.644183
2200 2 0.28335 0.0206794 0.621452
2202 4 0.278077 0.0116984 0.598721
1239 4 0.302203 0.034244 0.659256
1216 2 0.380025 0.0104113 0.627177
1218 4 0.387307 0.0225552 0.606569
2658 4 0.500505 0.0751125 0.64176
150 3 0.487374 0.0141978 0.630619
2656 2 0.501657 0.0501607 0.640637
1200 4 0.0703898 0.166004 0.62475
1073 4 0.0717008 0.155887 0.643403
1296 4 0.0541987 0.152376 0.630513
1294 2 0.0320019 0.141142 0.628009
1295 4 0.00980507 0.129907 0.625504
1072 2 0.076164 0.133865 0.654373
1276 2 0.131839 0.137068 0.661871
1277 4 0.128499 0.115057 0.650489
1074 4 0.0806271 0.111844 0.665343
1192 2 0.370834 0.146123 0.625159
1194 4 0.360839 0.168107 0.618678
1193 4 0.380828 0.12414 0.63164
3402 4 0.466071 0.117922 0.585444
3400 2 0.472866 0.108944 0.607769
3401 4 0.479662 0.0999665 0.630094
1164 4 0.49642 0.095381 0.639424
1162 2 0.491357 0.106131 0.661423
1198 2 0.0598369 0.181653 0.608351
1199 4 0.0492841 0.197302 0.591953
907 2 0.124686 0.233882 0.591357
851 4 0.100833 0.180699 0.645943
850 2 0.102167 0.204365 0.637986
852 4 0.103501 0.228031 0.630028
908 4 0.113666 0.236762 0.613615
1208 4 0.110074 0.248166 0.629205
696 4 0.184235 0.217661 0.650236
695 4 0.210326 0.190211 0.617579
694 2 0.197281 0.203936 0.633908
898 2 0.342611 0.180412 0.598761
899 4 0.364544 0.168516 0.600367
954 4 0.411025 0.206875 0.612929
1026 4 0.406696 0.210615 0.631229
1024 2 0.415472 0.22411 0.650361
953 4 0.456731 0.204355 0.592796
952 2 0.433878 0.205615 0.602863
984 4 0.0136178 0.276141 0.599427
982 2 0.0364741 0.266313 0.601911
983 4 0.0593305 0.256485 0.604395
1209 4 0.0943061 0.295296 0.634754
1207 2 0.10219 0.271731 0.63198
3275 4 0.118818 0.317355 0.644315
856 2 0.143507 0.286819 0.664288
857 4 0.130879 0.305925 0.654254
3274 2 0.10292 0.327371 0.66081
858 4 0.156135 0.267713 0.674321
1006 2 0.403854 0.363927 0.644126
1007 4 0.380042 0.370965 0.647067
1008 4 0.427665 0.356888 0.641185
1001 4 0.425849 0.372557 0.59655
1066 2 0.28927 0.419826 0.655794
1067 4 0.277732 0.419385 0.633616
1176 4 0.373488 0.417576 0.636906
1174 2 0.357381 0.426673 0.653728
4149 4 0.498054 0.418939 0.615238
1910 4 0.47728 0.416569 0.621578
1909 2 0.462997 0.436727 0.625432
1911 4 0.448714 0.456885 0.629287
947 4 0.107143 0.0300855 0.67053
1185 4 0.147462 0.00792281 0.670631
1212 4 0.243076 0.030819 0.673158
1237 2 0.298504 0.0568788 0.669214
1238 4 0.294806 0.0795137 0.679172
2343 4 0.405964 0.0199222 0.669648
2342 4 0.454871 0.00972751 0.667435
2341 2 0.430417 0.0148248 0.668542
2440 2 0.473489 0.0177819 0.706645
2442 4 0.482971 0.0276913 0.727551
2441 4 0.464008 0.00787255 0.685738
34 3 0.0204222 0.133109 0.734564
35 3 0.0472358 0.108597 0.744457
1131 4 0.0647535 0.102726 0.751935
1278 4 0.135179 0.159079 0.673252
1147 2 0.212456 0.0864201 0.748567
1149 4 0.237431 0.0867738 0.74741
1148 4 0.187482 0.0860664 0.749724
888 4 0.313762 0.0849123 0.679199
886 2 0.319024 0.109112 0.68264
887 4 0.324286 0.133313 0.686081
1163 4 0.486294 0.116881 0.683423
1075 2 0.00490486 0.169058 0.723256
1076 4 0.0224813 0.179968 0.709212
1064 4 0.138831 0.181557 0.683553
1063 2 0.156418 0.197395 0.67549
1065 4 0.174005 0.213234 0.667426
798 4 0.187477 0.228764 0.667462
796 2 0.200066 0.236207 0.687743
797 4 0.212654 0.243649 0.708024
806 4 0.22686 0.241434 0.723098
917 4 0.317485 0.188876 0.678827
916 2 0.30157 0.206803 0.685935
918 4 0.285655 0.22473 0.693043
807 4 0.270572 0.236003 0.699423
805 2 0.248716 0.238719 0.711261
43 3 0.288035 0.244333 0.698933
846 4 0.382485 0.191241 0.741604
1025 4 0.424248 0.237604 0.669494
820 2 0.999006 0.259917 0.725955
822 4 0.0191334 0.268746 0.714034
816 4 0.0619019 0.335224 0.73224
1257 4 0.286019 0.298479 0.702197
45 3 0.316078 0.264145 0.683483
42 3 0.317022 0.255907 0.719871
41 1 0.30338 0.261429 0.702192
44 3 0.292284 0.281191 0.707166
1255 2 0.27192 0.311957 0.717842
1142 4 0.316177 0.249217 0.738804
1256 4 0.257822 0.325435 0.733487
831 4 0.380749 0.309272 0.745903
830 4 0.381979 0.295734 0.697779
829 2 0.381364 0.302503 0.721841
814 2 0.0669772 0.342322 0.708809
780 4 0.0707255 0.348253 0.743102
815 4 0.0720524 0.34942 0.685377
885 4 0.0700387 0.410193 0.698845
3276 4 0.0870206 0.337387 0.677305
883 2 0.0867472 0.399651 0.71417
1078 2 0.134586 0.377592 0.7417
884 4 0.103456 0.389109 0.729495
1079 4 0.109612 0.37637 0.741681
1080 4 0.159559 0.378815 0.74172
2011 2 0.192258 0.388685 0.731756
2012 4 0.207671 0.392571 0.712456
1027 2 0.328253 0.396604 0.699836
1068 4 0.300808 0.420266 0.677972
1028 4 0.319552 0.413696 0.683795
1029 4 0.336954 0.379511 0.715878
1281 4 0.0772994 0.417789 0.681618
1280 4 0.075505 0.467748 0.680381
3431 4 0.0219008 0.457366 0.704997
2015 4 0.0796575 0.486873 0.680079
3430 2 0.0109169 0.473194 0.689059
1279 2 0.0764022 0.442769 0.680999
1953 4 0.305011 0.425165 0.696271
1951 2 0.297648 0.44865 0.70068
1952 4 0.290285 0.472134 0.70509
929 4 0.283216 0.4883 0.717388
928 2 0.275298 0.502966 0.736027
1175 4 0.341273 0.435769 0.67055
1204 2 0.487977 0.503603 0.729837
919 2 0.0461669 0.0795509 0.77921
1285 2 0.998865 0.0894193 0.80022
921 4 0.0663078 0.0666361 0.786472
2047 2 0.190194 0.00149698 0.783676
1196 4 0.216314 0.0192111 0.807097
964 2 0.197797 0.0770847 0.829932
966 4 0.178038 0.0695821 0.816572
1195 2 0.238802 0.00904832 0.811119
2049 4 0.198645 0.0217413 0.795673
1197 4 0.26129 0.998885 0.815141
1287 4 0.00585506 0.0967168 0.77735
920 4 0.026026 0.0924657 0.771948
32 3 0.0353311 0.134017 0.769054
1124 4 0.0529932 0.136368 0.776926
31 1 0.0290468 0.120175 0.75179
1123 2 0.0530004 0.16135 0.777967
1056 4 0.059907 0.13024 0.795234
33 3 0.0128641 0.105441 0.759499
1054 2 0.0673528 0.126414 0.818794
1227 4 0.145417 0.127802 0.766161
1225 2 0.158882 0.106763 0.765049
1129 2 0.0845831 0.116288 0.758865
1130 4 0.104413 0.129851 0.765794
1226 4 0.172347 0.0857237 0.763937
958 2 0.248267 0.108345 0.827565
959 4 0.261689 0.127426 0.818571
1086 4 0.275311 0.133032 0.806256
1084 2 0.282879 0.154993 0.797002
2400 4 0.421839 0.156334 0.788744
1113 4 0.433249 0.0887091 0.800087
2398 2 0.428605 0.132943 0.794423
2399 4 0.435371 0.109551 0.800101
2320 2 0.475901 0.105878 0.807309
2322 4 0.452565 0.099425 0.801064
1111 2 0.418684 0.0848235 0.820036
1676 4 0.0369231 0.185252 0.810984
922 2 0.0438704 0.216395 0.789921
924 4 0.0388985 0.191987 0.792089
923 4 0.0488422 0.240803 0.787752
1125 4 0.0530076 0.186332 0.779009
1675 2 0.0226698 0.17315 0.827584
1235 4 0.125569 0.224465 0.755291
1234 2 0.133328 0.248081 0.75798
1085 4 0.290446 0.176954 0.787749
1298 4 0.28058 0.235003 0.78489
1297 2 0.275315 0.237847 0.809167
1143 4 0.281705 0.225564 0.766244
1141 2 0.298941 0.237391 0.752524
844 2 0.39601 0.179485 0.759041
48 3 0.414519 0.23817 0.808646
845 4 0.409535 0.167729 0.776478
3486 4 0.417012 0.250465 0.825444
1051 2 0.408845 0.192158 0.821371
1053 4 0.430547 0.189704 0.809199
818 4 0.469923 0.193656 0.759276
819 4 0.429488 0.169628 0.776255
46 1 0.436546 0.232285 0.804339
50 3 0.441993 0.237723 0.782905
817 2 0.449706 0.181642 0.767766
49 3 0.450702 0.243217 0.819121
47 3 0.438878 0.209583 0.807222
1102 2 0.00389901 0.276478 0.796373
970 2 0.0402128 0.317779 0.816766
1103 4 0.0199849 0.281146 0.814937
971 4 0.0250015 0.299082 0.823415
1236 4 0.141087 0.271698 0.760669