ITEM: TIMESTEP
80000
ITEM: NUMBER OF ATOMS
4590
ITEM: BOX BOUNDS pp pp pp
-9.9985700000000008e+00 9.9985700000000008e+00
-9.9985700000000008e+00 9.9985700000000008e+00
-9.9985700000000008e+00 9.9985700000000008e+00
ITEM: ATOMS id type xs ys zs
463 2 0.0602695 0.0346992 0.0154802
465 4 0.0461446 0.0553252 0.0149941
1667 4 0.0676911 0.0161039 0.0717933
464 4 0.0743944 0.0140733 0.0159664
532 2 0.1966 0.0444913 0.0208051
534 4 0.193628 0.0558833 0.0428633
490 2 0.266598 0.046271 0.0352561
491 4 0.268547 0.0433803 0.0600154
492 4 0.264649 0.0491618 0.0104968
295 2 0.390339 0.073936 0.0761377
296 4 0.398855 0.0894843 0.0585054
745 2 0.441193 0.0598977 0.0523204
746 4 0.423419 0.043502 0.0459601
747 4 0.458967 0.0762935 0.0586807
2975 4 0.483715 0.0713747 0.0112247
702 4 0.0752827 0.0950602 0.0867045
589 2 0.0290936 0.111668 0.0600043
590 4 0.00623532 0.104599 0.0672636
591 4 0.0519518 0.118738 0.052745
421 2 0.121915 0.133789 0.00859581
423 4 0.108981 0.145244 0.0266702
565 2 0.219401 0.119122 0.0717276
566 4 0.229909 0.0982136 0.0629197
567 4 0.208893 0.140031 0.0805355
358 2 0.279934 0.129466 0.0260774
359 4 0.267963 0.116338 0.00848462
360 4 0.291906 0.142595 0.0436701
556 2 0.353469 0.123052 0.0580352
557 4 0.340319 0.115706 0.038078
558 4 0.366619 0.130398 0.0779924
553 2 0.074593 0.214189 0.0074853
555 4 0.068502 0.202583 0.0287783
476 4 0.118588 0.166145 0.0777728
571 2 0.320223 0.238563 0.0454321
573 4 0.299525 0.240653 0.0593026
572 4 0.340921 0.236473 0.0315615
664 2 0.337015 0.195983 0.0128406
665 4 0.355521 0.191829 0.0291343
255 4 0.356923 0.184476 0.0841937
324 4 0.400131 0.248493 0.0777653
1071 4 0.411177 0.234102 0.998966
771 4 0.443315 0.18746 0.0532213
770 4 0.491244 0.184412 0.0671585
769 2 0.46728 0.185936 0.0601899
1014 4 0.491627 0.213903 0.0085832
292 2 0.10833 0.289664 0.00305703
294 4 0.0918247 0.303262 0.0160126
914 4 0.175597 0.258625 0.00942603
483 4 0.223971 0.302333 0.0361363
505 2 0.19504 0.282452 0.0616336
507 4 0.180256 0.295079 0.0459124
506 4 0.209825 0.269824 0.0773547
481 2 0.247063 0.306934 0.0445503
355 2 0.263796 0.270469 0.00554944
357 4 0.269751 0.277958 0.0286497
482 4 0.270155 0.311535 0.0529642
957 4 0.325263 0.323039 0.99908
1069 2 0.41363 0.257303 0.00795731
280 2 0.465602 0.312571 0.0214332
281 4 0.481541 0.305142 0.0392074
322 2 0.420028 0.260377 0.068381
323 4 0.439924 0.272262 0.0589967
1070 4 0.416083 0.280505 0.0169485
328 2 0.00875585 0.400278 0.006719
330 4 0.0202214 0.38837 0.0254786
552 4 0.0804825 0.412298 0.0439845
288 4 0.171814 0.388628 0.0104062
454 2 0.130308 0.356069 0.0749256
455 4 0.143148 0.375486 0.0658003
286 2 0.183966 0.367024 0.0136903
287 4 0.196118 0.34542 0.0169744
252 4 0.259972 0.376223 0.0576267
250 2 0.277146 0.394231 0.0551895
251 4 0.294321 0.412239 0.0527523
670 2 0.443272 0.352629 0.0763088
671 4 0.459437 0.371689 0.0755628
550 2 0.0697423 0.434322 0.03901
551 4 0.0590021 0.456347 0.0340355
315 4 0.00693384 0.412761 0.0640301
241 2 0.161992 0.495613 0.0737883
244 2 0.247436 0.450425 0.0313534
245 4 0.225053 0.459018 0.024259
243 4 0.180579 0.479656 0.0787981
246 4 0.269819 0.441832 0.0384479
271 2 0.289343 0.48449 0.0117769
272 4 0.312987 0.480887 0.0190675
564 4 0.424016 0.480277 0.0451422
227 4 0.499943 0.431092 0.0347986
562 2 0.437087 0.468735 0.0272221
563 4 0.450158 0.457194 0.00930195
16 1 0.0694454 0.0713582 0.142293
19 3 0.0566906 0.0603065 0.126369
2576 4 0.00110628 0.042429 0.133476
18 3 0.0710365 0.0584576 0.161514
450 4 0.146376 0.0510817 0.124642
20 3 0.0902412 0.075583 0.134027
448 2 0.169492 0.0593949 0.129304
449 4 0.192608 0.0677081 0.133967
1505 4 0.240184 0.0144602 0.157852
652 2 0.314132 0.0344485 0.149409
654 4 0.293122 0.0479971 0.148967
582 4 0.279291 0.08407 0.124997
653 4 0.335142 0.0209 0.149851
297 4 0.381822 0.0583877 0.09377
1760 4 0.491728 0.00637504 0.141359
17 3 0.0591843 0.0912691 0.147529
700 2 0.0988143 0.100662 0.0803753
701 4 0.122346 0.106264 0.0740461
235 2 0.158734 0.132097 0.143385
237 4 0.137088 0.13949 0.153482
236 4 0.180381 0.124704 0.133287
580 2 0.276196 0.0980096 0.145522
581 4 0.273101 0.111949 0.166047
628 2 0.405621 0.156291 0.147586
462 4 0.348985 0.171391 0.0965653
629 4 0.419919 0.138009 0.138286
379 2 0.0208148 0.170067 0.164658
380 4 0.000862268 0.183382 0.157603
656 4 0.0279504 0.264234 0.0990438
475 2 0.126623 0.166218 0.10145
477 4 0.134659 0.166291 0.125127
337 2 0.0924394 0.244497 0.126153
338 4 0.115328 0.251002 0.133832
339 4 0.0695505 0.237992 0.118475
736 2 0.179132 0.200953 0.13019
737 4 0.173491 0.208295 0.106963
738 4 0.184772 0.193612 0.153416
354 4 0.225544 0.215476 0.123012
352 2 0.247499 0.227434 0.123408
353 4 0.269455 0.239392 0.123804
460 2 0.333927 0.182365 0.11324
461 4 0.31887 0.193338 0.129914
254 4 0.400319 0.159626 0.0842852
253 2 0.378621 0.172051 0.0842395
630 4 0.391322 0.174574 0.156885
517 2 0.476594 0.233517 0.107259
518 4 0.478663 0.209961 0.0991344
705 4 0.0216208 0.320327 0.172603
655 2 0.00324294 0.266217 0.0957589
703 2 0.0125407 0.298802 0.163692
704 4 0.0034606 0.277277 0.154781
754 2 0.274678 0.306894 0.119575
755 4 0.288384 0.286145 0.122179
756 4 0.260972 0.327644 0.116972
741 4 0.328812 0.30554 0.104638
622 2 0.390778 0.269233 0.154836
624 4 0.368996 0.267737 0.142651
739 2 0.34244 0.325028 0.0969154
623 4 0.412561 0.27073 0.16702
519 4 0.474525 0.257074 0.115383
619 2 0.999152 0.34132 0.106982
620 4 0.0130354 0.359792 0.116532
456 4 0.117467 0.336651 0.0840509
537 4 0.152944 0.352215 0.15157
535 2 0.174646 0.345278 0.16187
625 2 0.209174 0.410465 0.110877
626 4 0.213393 0.390181 0.0968799
607 2 0.324751 0.415605 0.0914227
609 4 0.305515 0.405413 0.103722
610 2 0.269745 0.359306 0.160334
612 4 0.272462 0.379477 0.14581
740 4 0.356068 0.344517 0.0891926
387 4 0.359683 0.371342 0.133347
15 3 0.403838 0.365776 0.133093
385 2 0.370442 0.379007 0.112118
386 4 0.381201 0.386671 0.0908888
11 1 0.400606 0.361877 0.155297
12 3 0.41346 0.343939 0.16179
13 3 0.378288 0.356953 0.159304
14 3 0.406944 0.380495 0.167609
495 4 0.4203 0.411607 0.108505
597 4 0.477783 0.386862 0.159966
672 4 0.427107 0.333568 0.0770548
313 2 0.999838 0.428387 0.0822141
416 4 0.139647 0.447879 0.158154
627 4 0.204955 0.43075 0.124875
639 4 0.227316 0.464629 0.135568
637 2 0.24649 0.465913 0.151565
638 4 0.265664 0.467198 0.167561
608 4 0.343987 0.425798 0.0791233
523 2 0.346706 0.487616 0.0966765
525 4 0.346489 0.477025 0.119325
658 2 0.394649 0.475573 0.145711
659 4 0.406114 0.490765 0.129496
660 4 0.383184 0.460381 0.161926
493 2 0.43799 0.42457 0.120514
494 4 0.455679 0.437534 0.132523
2480 4 0.00320429 0.0330413 0.177833
673 2 0.119086 0.0439046 0.213183
674 4 0.139285 0.0331527 0.203105
675 4 0.0988865 0.0546565 0.223262
689 4 0.210377 0.0114436 0.231729
1506 4 0.265489 0.990614 0.193794
1504 2 0.252836 0.00253708 0.175823
21 1 0.377231 0.0600196 0.233538
23 3 0.371904 0.040592 0.245053
24 3 0.362224 0.0632861 0.216145
25 3 0.398436 0.0586315 0.225348
759 4 0.400714 0.0570901 0.205486
758 4 0.434619 0.0705187 0.171269
757 2 0.417666 0.0638044 0.188377
742 2 0.441242 0.049235 0.253524
743 4 0.456632 0.0685354 0.249547
381 4 0.0407673 0.156751 0.171712
511 2 0.0238003 0.150081 0.230388
512 4 0.00480877 0.154171 0.214648
513 4 0.0427918 0.145991 0.246129
577 2 0.0963388 0.112108 0.218214
578 4 0.106712 0.13297 0.209139
579 4 0.0859652 0.091246 0.227288
723 4 0.177634 0.0889952 0.223246
691 2 0.236241 0.0899958 0.18885
693 4 0.213159 0.0938628 0.180051
721 2 0.178965 0.106414 0.241134
692 4 0.259324 0.0861287 0.197649
30 3 0.289763 0.153555 0.224303
26 1 0.309641 0.14334 0.228679
28 3 0.308773 0.121137 0.221993
27 3 0.326359 0.153976 0.216994
310 2 0.403802 0.117175 0.200106
312 4 0.386938 0.106847 0.184804
311 4 0.420666 0.127503 0.215407
363 4 0.07351 0.242028 0.1785
394 2 0.0107636 0.231257 0.208127
395 4 0.0333915 0.233429 0.197714
391 2 0.0971722 0.189431 0.24057
392 4 0.0898092 0.182888 0.217588
370 2 0.161547 0.239138 0.238388
371 4 0.168561 0.219154 0.251678
284 4 0.236666 0.219879 0.163817
283 2 0.255283 0.20593 0.172983
285 4 0.2739 0.191981 0.182148
765 4 0.369005 0.233822 0.238616
764 4 0.387736 0.230416 0.192374
763 2 0.378371 0.232119 0.215495
520 2 0.466323 0.202099 0.23665
521 4 0.450029 0.207421 0.218447
528 4 0.456714 0.252424 0.183653
648 4 0.0810122 0.329086 0.176144
361 2 0.0792357 0.259425 0.195522
362 4 0.0849614 0.276822 0.212545
372 4 0.154533 0.259121 0.225097
300 4 0.126652 0.324029 0.250317
279 4 0.226186 0.257464 0.185233
343 2 0.228426 0.28828 0.233334
344 4 0.231985 0.264682 0.240791
345 4 0.224867 0.311879 0.225876
277 2 0.249554 0.265897 0.18241
536 4 0.196348 0.338341 0.17217
278 4 0.272923 0.27433 0.179588
307 2 0.298777 0.288321 0.236803
309 4 0.300927 0.293301 0.212395
527 4 0.498733 0.278448 0.176048
526 2 0.477723 0.265436 0.17985
262 2 0.0314244 0.411416 0.213748
264 4 0.0145051 0.416167 0.231534
646 2 0.0913663 0.351734 0.178389
298 2 0.137113 0.342353 0.236902
299 4 0.147575 0.360678 0.223488
647 4 0.10172 0.374382 0.180634
417 4 0.150314 0.41055 0.189673
611 4 0.267027 0.339135 0.174857
301 2 0.331942 0.417744 0.192997
302 4 0.355329 0.416289 0.201722
595 2 0.50192 0.393377 0.160318
643 2 0.447008 0.381126 0.214936
644 4 0.444226 0.39537 0.235296
645 4 0.44979 0.366881 0.194576
263 4 0.0483436 0.406664 0.195962
2618 4 0.0110785 0.46929 0.19847
415 2 0.144981 0.429215 0.173914
291 4 0.177021 0.448225 0.188515
289 2 0.200402 0.439381 0.188007
290 4 0.223784 0.430536 0.1875
768 4 0.245209 0.463508 0.203957
303 4 0.308555 0.419198 0.184273
767 4 0.285157 0.481364 0.228165
766 2 0.265183 0.472436 0.216061
229 2 0.389555 0.492906 0.245276
231 4 0.379556 0.470287 0.248959
1568 4 0.490349 0.496056 0.213749
232 2 0.00857036 0.0530953 0.281668
233 4 0.0157487 0.0313356 0.291676
1402 2 0.074595 0.0133703 0.272482
1464 4 0.14814 0.0187051 0.280272
1403 4 0.0870352 0.019966 0.251821
730 2 0.153742 0.0805059 0.310296
731 4 0.15994 0.0870151 0.286964
732 4 0.147543 0.0739967 0.333628
688 2 0.208925 0.0038966 0.255523
690 4 0.207473 0.99635 0.279316
1699 2 0.25386 0.997909 0.324589
1700 4 0.255507 0.994359 0.299893
22 3 0.375848 0.0778534 0.248002
744 4 0.425852 0.0299345 0.257501
478 2 0.475295 0.032401 0.313
480 4 0.465197 0.0133828 0.300291
351 4 0.443693 0.0628948 0.313984
479 4 0.485392 0.0514192 0.32571
2756 4 0.00814374 0.0873087 0.324247
529 2 0.0333254 0.139982 0.284763
530 4 0.0525424 0.153055 0.293983
531 4 0.0141083 0.12691 0.275543
399 4 0.103012 0.108502 0.337127
546 4 0.175419 0.1432 0.262816
722 4 0.180297 0.123833 0.259022
249 4 0.21286 0.111776 0.288611
247 2 0.234643 0.102998 0.28003
403 2 0.220069 0.149953 0.303133
404 4 0.221386 0.124993 0.302481
29 3 0.314368 0.144604 0.25136
248 4 0.256425 0.0942199 0.271449
631 2 0.356226 0.0955581 0.296447
632 4 0.348602 0.0863805 0.274473
633 4 0.363849 0.104736 0.31842
331 2 0.461504 0.148193 0.260096
332 4 0.481585 0.140824 0.273043
333 4 0.441423 0.155562 0.247149
349 2 0.448809 0.0873691 0.314082
350 4 0.453926 0.111843 0.314179
444 4 0.040448 0.24476 0.29667
393 4 0.104535 0.195973 0.263552
544 2 0.179521 0.167217 0.2572
545 4 0.183623 0.191234 0.251585
405 4 0.218752 0.174913 0.303786
706 2 0.329331 0.197238 0.306371
708 4 0.324555 0.179853 0.323694
473 4 0.269468 0.169948 0.336057
707 4 0.334108 0.214624 0.289048
420 4 0.427698 0.248044 0.285372
418 2 0.434962 0.247782 0.309296
419 4 0.442225 0.24752 0.33322
522 4 0.482617 0.196777 0.254853
762 4 0.467499 0.193113 0.26985
761 4 0.462835 0.212762 0.315598
760 2 0.465167 0.202937 0.292724
443 4 0.993496 0.256137 0.283754
748 2 0.0774054 0.281745 0.260572
750 4 0.065155 0.262294 0.270408
442 2 0.0169721 0.250448 0.290212
366 4 0.0276758 0.343328 0.265103
390 4 0.10435 0.251616 0.319766
749 4 0.0896557 0.301197 0.250736
388 2 0.120976 0.269812 0.315566
389 4 0.137603 0.288008 0.311366
677 4 0.137767 0.330564 0.308765
400 2 0.196981 0.27084 0.32194
402 4 0.217677 0.284539 0.318902
401 4 0.176286 0.257141 0.324978
308 4 0.296626 0.283341 0.261211
496 2 0.308991 0.28107 0.292056
497 4 0.328713 0.272178 0.304591
498 4 0.289268 0.289963 0.27952
543 4 0.391855 0.310702 0.301028
615 4 0.361048 0.286035 0.327903
613 2 0.366153 0.310482 0.329123
541 2 0.415476 0.302504 0.300976
542 4 0.439098 0.294307 0.300923
364 2 0.0113388 0.34945 0.283014
365 4 0.995002 0.355572 0.300925
601 2 0.0671666 0.397195 0.298505
602 4 0.0544887 0.416751 0.28945
548 4 0.0542436 0.413811 0.339331
603 4 0.0798445 0.377638 0.307561
734 4 0.155461 0.357079 0.264427
735 4 0.195228 0.35372 0.294562
733 2 0.175345 0.3554 0.279494
729 4 0.356453 0.355118 0.23998
727 2 0.346638 0.370918 0.25669
728 4 0.336824 0.386717 0.2734
614 4 0.371257 0.334928 0.330343
434 4 0.339068 0.395476 0.336675
447 4 0.40806 0.391083 0.269178
445 2 0.424375 0.386435 0.287546
446 4 0.440689 0.381787 0.305915
777 4 0.0568393 0.485675 0.321552
775 2 0.0804081 0.477852 0.31864
776 4 0.103977 0.470029 0.315727
414 4 0.138016 0.465377 0.291094
412 2 0.158547 0.467086 0.305262
413 4 0.179077 0.468796 0.319431
436 2 0.298715 0.431025 0.290011
437 4 0.307514 0.423561 0.267829
438 4 0.289915 0.438489 0.312193
713 4 0.406209 0.470337 0.304957
712 2 0.429688 0.476893 0.299392
714 4 0.453166 0.48345 0.293828
119 3 0.485768 0.439161 0.326495
316 2 0.0320522 0.0612179 0.360764
317 4 0.0106814 0.0559201 0.372613
318 4 0.0534229 0.0665157 0.348915
427 2 0.092362 0.01307 0.365922
428 4 0.0882762 0.0260006 0.386929
429 4 0.0964479 0.000139364 0.344915
606 4 0.161674 0.0645757 0.387249
441 4 0.225376 0.0229016 0.386107
604 2 0.177733 0.0567095 0.369774
605 4 0.193793 0.0488433 0.352298
1701 4 0.252214 0.00145915 0.349284
439 2 0.247555 0.0227921 0.397652
440 4 0.269733 0.0226826 0.409198
698 4 0.373778 0.0364658 0.343344
697 2 0.355698 0.0233867 0.354624
699 4 0.337619 0.0103075 0.365904
256 2 0.412866 0.0571581 0.393963
258 4 0.411902 0.0389688 0.411091
257 4 0.41383 0.0753475 0.376834
398 4 0.0535862 0.110299 0.344512
397 2 0.0782992 0.109401 0.340819
598 2 0.18095 0.159062 0.355789
474 4 0.226279 0.168751 0.361235
599 4 0.198101 0.144986 0.367317
682 2 0.301002 0.0951382 0.379784
683 4 0.323806 0.0960732 0.369571
684 4 0.278198 0.0942033 0.389997
466 2 0.338578 0.143239 0.399159
467 4 0.350499 0.156952 0.381982
451 2 0.470771 0.148106 0.353766
452 4 0.48593 0.136239 0.337811
453 4 0.455612 0.159974 0.36972
514 2 0.44315 0.144457 0.407365
515 4 0.448481 0.146481 0.383021
2654 4 0.0153938 0.194687 0.381774
600 4 0.1638 0.173139 0.34426
274 2 0.228281 0.248149 0.407356
472 2 0.247873 0.169349 0.348646
276 4 0.25163 0.239634 0.410093
488 4 0.298721 0.241562 0.388601
487 2 0.292834 0.235087 0.412023
715 2 0.356978 0.231527 0.376631
716 4 0.346073 0.211324 0.366726
267 4 0.35742 0.245832 0.414776
617 4 0.0868227 0.312277 0.338447
616 2 0.0804212 0.323294 0.359961
618 4 0.0740197 0.33431 0.381475
676 2 0.146235 0.33193 0.332251
678 4 0.154702 0.333296 0.355738
509 4 0.245445 0.337517 0.333319
275 4 0.204932 0.256663 0.404618
508 2 0.22266 0.331254 0.341495
510 4 0.199876 0.324992 0.34967
375 4 0.189088 0.288181 0.404523
376 2 0.284576 0.306357 0.360824
377 4 0.302466 0.288993 0.358918
378 4 0.266686 0.32372 0.36273
717 4 0.367883 0.25173 0.386537
268 2 0.476275 0.279833 0.379696
269 4 0.475004 0.256326 0.371272
270 4 0.477546 0.303341 0.38812
2927 4 0.00871952 0.361721 0.3787
408 4 0.0672975 0.389483 0.405269
406 2 0.0764377 0.407163 0.390134
407 4 0.085578 0.424843 0.375
502 2 0.214132 0.402814 0.387753
504 4 0.209676 0.381003 0.37637
435 4 0.289278 0.398268 0.340409
433 2 0.314173 0.396872 0.338542
336 4 0.369107 0.390685 0.400356
561 4 0.432837 0.344087 0.398271
559 2 0.451894 0.349186 0.413634
751 2 0.435232 0.401245 0.392591
752 4 0.446109 0.379978 0.399978
2925 4 0.51308 0.332337 0.395257
547 2 0.0382464 0.426607 0.353668
549 4 0.0222491 0.439403 0.368004
680 4 0.0489109 0.437595 0.424363
499 2 0.0992191 0.461319 0.371028
500 4 0.113656 0.446855 0.385434
501 4 0.0847818 0.475784 0.356623
1557 4 0.219389 0.490741 0.379629
503 4 0.218589 0.424626 0.399136
1 1 0.334309 0.469649 0.373255
5 3 0.312392 0.469215 0.36708
4 3 0.338739 0.452252 0.387956
2 3 0.338824 0.489603 0.38377
3 3 0.347854 0.467818 0.354504
594 4 0.402624 0.477463 0.352228
586 2 0.4171 0.448948 0.415039
588 4 0.395502 0.45194 0.402803
587 4 0.438699 0.445956 0.427275
753 4 0.424355 0.422513 0.385204
592 2 0.42742 0.477278 0.355439
593 4 0.452216 0.477093 0.35865
718 2 0.0503191 0.0605275 0.468003
719 4 0.0297589 0.0638236 0.481845
720 4 0.0708793 0.0572315 0.454161
367 2 0.10776 0.0688701 0.4608
369 4 0.10709 0.0502895 0.477518
368 4 0.10843 0.0874507 0.444082
342 4 0.175462 0.0462428 0.468424
340 2 0.174664 0.0339705 0.490194
430 2 0.312506 0.0830612 0.502067
432 4 0.295203 0.0662659 0.508678
724 2 0.335184 0.0705172 0.443119
726 4 0.329421 0.079309 0.420433
424 2 0.388295 0.0285076 0.44237
425 4 0.370469 0.0154076 0.454023
426 4 0.406121 0.0416076 0.430717
725 4 0.340946 0.0617254 0.465806
457 2 0.999948 0.167589 0.438403
458 4 0.00803545 0.146412 0.448954
687 4 0.159531 0.180063 0.426285
1152 4 0.157964 0.10353 0.475973
938 4 0.0913163 0.153003 0.512495
321 4 0.230054 0.124031 0.416044
1150 2 0.174504 0.115203 0.490646
1182 4 0.25274 0.104414 0.502174
319 2 0.25353 0.124056 0.424648
320 4 0.277007 0.124081 0.433253
468 4 0.326656 0.129527 0.416335
431 4 0.329809 0.0998564 0.495455
574 2 0.372555 0.160335 0.456324
576 4 0.362459 0.141136 0.468759
642 4 0.463625 0.0980126 0.484587
516 4 0.437818 0.142433 0.43171
2880 4 0.494369 0.113058 0.445092
640 2 0.466833 0.117836 0.499484
469 2 0.00225922 0.190798 0.491507
470 4 0.00995319 0.21367 0.498052
260 4 0.0867153 0.210709 0.434847
261 4 0.100433 0.183763 0.474677
259 2 0.0935744 0.197236 0.454762
1035 4 0.110308 0.195919 0.485516
685 2 0.183269 0.172291 0.425164
686 4 0.207008 0.164519 0.424044
857 4 0.215789 0.225265 0.502906
411 4 0.269483 0.177845 0.485382
409 2 0.281252 0.199719 0.48825
410 4 0.293021 0.221592 0.491118
489 4 0.286946 0.228613 0.435445
575 4 0.382652 0.179535 0.443889
304 2 0.482693 0.211855 0.430136
305 4 0.474124 0.188366 0.430099
346 2 0.0516067 0.279839 0.423808
348 4 0.0345811 0.262025 0.419569
347 4 0.0686323 0.297653 0.428048
327 4 0.0811527 0.326735 0.452172
694 2 0.103381 0.252182 0.491662
696 4 0.107992 0.263311 0.469751
6 1 0.153255 0.326823 0.482087
9 3 0.145231 0.305894 0.476084
325 2 0.0993441 0.330193 0.435371
373 2 0.202067 0.294766 0.424855
374 4 0.215045 0.301351 0.445186
10 3 0.164143 0.336314 0.46448
651 4 0.254755 0.280765 0.489677
649 2 0.258398 0.297609 0.471561
650 4 0.262041 0.314453 0.453445
265 2 0.362621 0.265373 0.429482
266 4 0.367822 0.284914 0.444189
872 4 0.432108 0.242117 0.486198
583 2 0.475426 0.315025 0.462359
584 4 0.487528 0.302424 0.444472
585 4 0.463323 0.327626 0.480245
681 4 0.041253 0.401079 0.45766
326 4 0.117535 0.333651 0.418569
7 3 0.135495 0.340153 0.488092
773 4 0.245625 0.416259 0.486217
709 2 0.195638 0.379173 0.44842
710 4 0.201837 0.393362 0.428788
711 4 0.189439 0.364984 0.468052
772 2 0.256082 0.395222 0.494779
334 2 0.360505 0.379194 0.420829
238 2 0.368174 0.37536 0.479947
239 4 0.376614 0.386099 0.50089
240 4 0.359735 0.364621 0.459003
335 4 0.351904 0.367702 0.441302
560 4 0.47095 0.354286 0.428997
926 4 0.456773 0.40006 0.487468
1383 4 0.0342832 0.489815 0.456938
538 2 0.073195 0.501848 0.499706
679 2 0.0450819 0.419337 0.441012
539 4 0.064258 0.481816 0.487706
384 4 0.0911014 0.431223 0.500038
569 4 0.146473 0.457163 0.420867
383 4 0.0949799 0.430455 0.450188
382 2 0.0930407 0.430839 0.475113
636 4 0.252011 0.449433 0.437995
635 4 0.225772 0.465264 0.477512
634 2 0.238891 0.457349 0.457754
570 4 0.194003 0.455015 0.436265
568 2 0.170238 0.456089 0.428566
669 4 0.268643 0.420223 0.446075
667 2 0.290393 0.422208 0.433903
668 4 0.312144 0.424194 0.421731
1401 4 0.334753 0.508661 0.435906
1126 2 0.0497685 0.0553839 0.530346
1127 4 0.0536891 0.0390073 0.511863
1128 4 0.045848 0.0717606 0.548829
1057 2 0.14609 0.0570444 0.57214
1058 4 0.158505 0.0554812 0.550493
1181 4 0.222492 0.0660218 0.512748
2430 4 0.191938 0.0157616 0.548833
1180 2 0.237616 0.0852178 0.507461
1031 4 0.245383 0.0629173 0.587059
341 4 0.173865 0.0216983 0.511964
961 2 0.283375 0.0270018 0.511041
963 4 0.283017 0.0517878 0.514313
962 4 0.283734 0.00221576 0.50777
841 2 0.373115 0.070595 0.545181
843 4 0.349803 0.061572 0.545735
1217 4 0.396644 0.0245445 0.55958
3008 4 0.482531 0.0608772 0.569889
1060 2 0.489181 0.0108654 0.512685
1062 4 0.476887 0.032185 0.508269
937 2 0.091384 0.129009 0.519528
939 4 0.0914516 0.105015 0.526561
1154 4 0.144128 0.144408 0.582565
1151 4 0.191045 0.126876 0.50532
842 4 0.396427 0.0796179 0.544627
899 4 0.35833 0.149181 0.555059
641 4 0.470041 0.13766 0.514381
3159 4 0.497326 0.138594 0.550862
877 2 0.0822848 0.217637 0.567566
878 4 0.0711865 0.232712 0.550991
1200 4 0.0146227 0.194804 0.572834
1033 2 0.123829 0.186376 0.504259
1034 4 0.13735 0.176833 0.523002
695 4 0.0987706 0.241054 0.513573
879 4 0.0933831 0.202562 0.584142
856 2 0.217092 0.21694 0.526447
858 4 0.218394 0.208615 0.549988
1221 4 0.176398 0.178433 0.563797
898 2 0.355434 0.169437 0.54069
900 4 0.352539 0.189693 0.52632
871 2 0.412436 0.247051 0.500821
873 4 0.392764 0.251985 0.515445
983 4 0.032114 0.315219 0.556223
1258 2 0.161466 0.265289 0.575667
1260 4 0.13716 0.259614 0.574201
8 3 0.167644 0.324896 0.500188
1259 4 0.185773 0.270965 0.577133
790 2 0.303742 0.25749 0.569563
792 4 0.286219 0.26558 0.553666
813 4 0.315168 0.313848 0.530321
811 2 0.337213 0.302076 0.531085
812 4 0.359259 0.290303 0.53185
982 2 0.0150808 0.332294 0.56282
897 4 0.167366 0.399709 0.56834
802 2 0.283724 0.349424 0.54443
803 4 0.307117 0.350282 0.553219
804 4 0.260332 0.348566 0.535642
1190 4 0.257479 0.402802 0.582237
774 4 0.266538 0.374186 0.503341
929 4 0.353597 0.385749 0.560753
925 2 0.462504 0.407854 0.510524
927 4 0.468236 0.415648 0.53358
934 2 0.00904997 0.455886 0.520629
935 4 0.0217249 0.435437 0.51382
1938 4 0.0407335 0.503477 0.54597
1159 2 0.178229 0.43639 0.555994
1161 4 0.190817 0.452385 0.541473
1171 2 0.228135 0.466227 0.56335
1173 4 0.207342 0.458102 0.55209
882 4 0.316792 0.460489 0.522372
1172 4 0.248929 0.474352 0.574611
880 2 0.341737 0.459227 0.52352
881 4 0.366683 0.457965 0.524668
1000 2 0.423215 0.456369 0.572453
1001 4 0.442759 0.444288 0.562591
662 4 0.478768 0.462402 0.504748
661 2 0.463038 0.481402 0.50884
663 4 0.447308 0.500402 0.512932
1185 4 0.0215101 0.0402245 0.655259
1059 4 0.133674 0.0586075 0.593787
825 4 0.148428 0.0141793 0.643538
823 2 0.167592 0.0183057 0.628017
824 4 0.186756 0.0224321 0.612496
949 2 0.275808 0.0247812 0.636178
951 4 0.276662 0.035057 0.6134
950 4 0.274955 0.0145054 0.658957
1092 4 0.324267 0.0253433 0.651135
1216 2 0.393813 0.0128719 0.58151
2196 4 0.343971 0.00228952 0.597559
809 4 0.464089 0.0705431 0.633349
1082 4 0.0281357 0.100343 0.643594
1076 4 0.0206547 0.103499 0.662715
1081 2 0.0469872 0.104351 0.627665
1083 4 0.0658386 0.10836 0.611736
1153 2 0.142742 0.128402 0.601724
1155 4 0.141356 0.112395 0.620882
1284 4 0.173562 0.0761946 0.627697
1283 4 0.215257 0.101116 0.615815
1282 2 0.194409 0.0886554 0.621756
1032 4 0.252149 0.112318 0.590864
1030 2 0.248766 0.0876178 0.588962
1005 4 0.331001 0.0740756 0.653826
808 2 0.455212 0.0930784 0.627141
810 4 0.446335 0.115614 0.620933
1272 4 0.0908231 0.196648 0.603762
1270 2 0.114807 0.189641 0.604697
1271 4 0.13879 0.182635 0.605632
1210 2 0.22403 0.191382 0.656156
1212 4 0.213935 0.207423 0.639848
1219 2 0.188031 0.178149 0.585929
1220 4 0.199663 0.177865 0.60806
796 2 0.224144 0.245114 0.619927
797 4 0.202584 0.243516 0.607367
791 4 0.321264 0.2494 0.585459
1026 4 0.423316 0.217922 0.659094
1193 4 0.355919 0.184416 0.655082
904 2 0.490139 0.242466 0.594309
906 4 0.46713 0.233547 0.598335
1024 2 0.443541 0.206508 0.649829
1025 4 0.463767 0.195095 0.640563
1243 2 0.0274299 0.277576 0.63846
1244 4 0.03077 0.274299 0.613898
1136 4 0.12687 0.337978 0.610046
946 2 0.181471 0.286906 0.6387
947 4 0.179554 0.262192 0.635427
948 4 0.183388 0.31162 0.641973
798 4 0.245705 0.246712 0.632488
1239 4 0.298026 0.299603 0.622254
1237 2 0.310568 0.321115 0.619987
952 2 0.45824 0.290286 0.601311
953 4 0.461134 0.291478 0.626118
954 4 0.455346 0.289093 0.576505
1040 4 0.0540991 0.404647 0.631281
1039 2 0.0513328 0.407859 0.60664
3275 4 0.0010301 0.405145 0.666495
1137 4 0.111468 0.377223 0.583151
1135 2 0.119169 0.3576 0.596598
896 4 0.160746 0.383412 0.615151
1189 2 0.24768 0.379938 0.58476
1191 4 0.23788 0.357073 0.587283
895 2 0.164056 0.39156 0.591745
1028 4 0.218426 0.396949 0.66093
928 2 0.352721 0.380029 0.585078
930 4 0.351845 0.37431 0.609403
1204 2 0.416514 0.40897 0.655552
1238 4 0.323109 0.342626 0.617719
1205 4 0.425176 0.385562 0.654054
1041 4 0.0485665 0.411071 0.581998
992 4 0.136766 0.439225 0.665594
991 2 0.122069 0.434324 0.645968
993 4 0.107373 0.429423 0.626343
1160 4 0.165641 0.420395 0.570516
1188 4 0.212947 0.496188 0.64222
889 2 0.322965 0.433675 0.599903
891 4 0.310574 0.442167 0.619891
1002 4 0.40367 0.468449 0.582315
890 4 0.335355 0.425183 0.579915
1206 4 0.407852 0.432377 0.657049
1951 2 0.356067 0.491724 0.599826
1952 4 0.377403 0.486266 0.587987
1268 4 0.473847 0.485836 0.657886
2990 4 0.00851866 0.0842886 0.715802
944 4 0.0643637 0.0747765 0.693605
943 2 0.0853414 0.0617968 0.689525
945 4 0.106319 0.0488172 0.685445
1147 2 0.202301 0.0753956 0.726806
1149 4 0.189805 0.05693 0.738121
1090 2 0.339209 0.0152729 0.66847
1163 4 0.471641 0.0257693 0.67811
41 1 0.434124 0.077974 0.686944
43 3 0.427267 0.0562585 0.691396
45 3 0.455397 0.077893 0.678815
1162 2 0.48617 0.0424954 0.6897
1164 4 0.500698 0.0592216 0.701291
862 2 0.0559511 0.13247 0.725331
864 4 0.038123 0.142429 0.710904
1075 2 0.0261858 0.122863 0.677534
863 4 0.0737792 0.122511 0.739759
1077 4 0.0317169 0.142228 0.692352
907 2 0.157406 0.153453 0.681958
909 4 0.143211 0.142033 0.664833
1148 4 0.214798 0.0938612 0.715491
1225 2 0.202191 0.133673 0.708801
1226 4 0.217858 0.114605 0.71282
1227 4 0.186524 0.15274 0.704782
908 4 0.171602 0.164874 0.699082
829 2 0.319044 0.150656 0.717431
830 4 0.318961 0.1578 0.693469
831 4 0.319127 0.143512 0.741392
1003 2 0.329522 0.0791135 0.678272
44 3 0.419806 0.0878038 0.671556
1004 4 0.328043 0.0841513 0.702718
1141 2 0.393092 0.147819 0.70447
1142 4 0.407506 0.156627 0.686035
1143 4 0.378678 0.139011 0.722905
42 3 0.433521 0.0901145 0.706473
3426 4 0.493062 0.116433 0.691698
852 4 0.0307382 0.17907 0.663477
851 4 0.0643643 0.170264 0.699427
850 2 0.0475512 0.174667 0.681452
1179 4 0.01243 0.250926 0.672061
1213 2 0.0123526 0.230435 0.745819
1105 2 0.0952936 0.207825 0.733431
1106 4 0.105232 0.230758 0.732729
1107 4 0.0853551 0.184893 0.734132
1208 4 0.105981 0.241282 0.679882
1211 4 0.234125 0.175341 0.672464
1277 4 0.231382 0.252117 0.746992
886 2 0.295449 0.17856 0.679519
888 4 0.279294 0.197142 0.683866
887 4 0.311604 0.159977 0.675172
976 2 0.282653 0.20761 0.739763
977 4 0.295265 0.228493 0.745243
978 4 0.270042 0.186727 0.734282
1192 2 0.34833 0.204496 0.667903
1194 4 0.34074 0.224575 0.680725
1298 4 0.349109 0.195361 0.742948
1261 2 0.446291 0.242351 0.714415
1263 4 0.433882 0.235407 0.693848
1262 4 0.458699 0.249296 0.734981
1245 4 0.0240898 0.280853 0.663021
1177 2 0.0209533 0.261173 0.693216
1178 4 0.0294765 0.271419 0.714371
1209 4 0.0828132 0.285112 0.673332
1207 2 0.0943969 0.263197 0.676607
820 2 0.161547 0.305172 0.741704
821 4 0.167498 0.284157 0.729533
1276 2 0.20671 0.25617 0.747101
1065 4 0.231773 0.270692 0.693993
1063 2 0.248206 0.284712 0.706586
1064 4 0.264639 0.298733 0.719178
807 4 0.317447 0.299044 0.69865
805 2 0.325103 0.319001 0.685677
1006 2 0.360507 0.301804 0.736803
1007 4 0.376912 0.284073 0.743258
1008 4 0.344102 0.319535 0.730347
3123 4 0.478702 0.278113 0.684423
892 2 0.070514 0.349947 0.699856
893 4 0.0883932 0.333547 0.705901
894 4 0.0526348 0.366348 0.693811
940 2 0.14661 0.388032 0.739623
942 4 0.122143 0.392949 0.74116
1067 4 0.170583 0.417654 0.699685
1066 2 0.188337 0.404819 0.687632
1068 4 0.206091 0.391985 0.67558
1027 2 0.239137 0.389642 0.672881
941 4 0.171078 0.383116 0.738086
1029 4 0.259848 0.382334 0.684833
806 4 0.332759 0.338957 0.672704
1100 4 0.454939 0.403388 0.707407
1281 4 0.0255386 0.472546 0.703103
1280 4 0.0694091 0.448547 0.703529
1279 2 0.0474738 0.460547 0.703316
1174 2 0.224604 0.492848 0.68884
1175 4 0.248899 0.493701 0.69469
1176 4 0.20031 0.491996 0.68299
1138 2 0.303699 0.434099 0.718721
1139 4 0.295885 0.426035 0.741061
1140 4 0.311513 0.442162 0.69638
1228 2 0.365464 0.465437 0.709228
1229 4 0.361814 0.469829 0.733571
1230 4 0.369114 0.461046 0.684886
1267 2 0.451692 0.486984 0.66942
1099 2 0.452729 0.427396 0.700779
1101 4 0.450519 0.451404 0.694151
1269 4 0.429538 0.488132 0.680954
1249 2 0.486074 0.492207 0.733489
1250 4 0.501518 0.473147 0.738325
1296 4 0.0137892 0.0247034 0.815996
1295 4 0.0200578 0.0578387 0.77907
1294 2 0.0169235 0.0412711 0.797533
1203 4 0.082108 0.0692969 0.764623
1201 2 0.104066 0.0665027 0.776252
1202 4 0.126024 0.0637085 0.787881
1196 4 0.126209 0.0169401 0.829681
875 4 0.219678 0.0574219 0.818842
1255 2 0.271664 0.0521909 0.802923
1256 4 0.28882 0.0568365 0.82051
1257 4 0.254509 0.0475452 0.785337
1113 4 0.399643 0.0299178 0.778253
975 4 0.342461 0.0225892 0.824514
1111 2 0.415044 0.0475729 0.786987
844 2 0.490947 0.0598349 0.774921
1112 4 0.430445 0.065228 0.795721
832 2 0.0150598 0.139228 0.778867
833 4 0.037584 0.147065 0.786378
34 3 0.128875 0.135635 0.816651
1287 4 0.0880059 0.123142 0.829221
31 1 0.131937 0.156399 0.806758
35 3 0.132585 0.154192 0.784101
839 4 0.259686 0.123066 0.784219
838 2 0.25826 0.129782 0.808261
840 4 0.256835 0.136498 0.832304
1084 2 0.352234 0.11767 0.792041
1085 4 0.355603 0.106086 0.813942
1086 4 0.348865 0.129255 0.770141
1299 4 0.353292 0.164573 0.782131
819 4 0.364136 0.103034 0.833042
48 3 0.425182 0.161516 0.797273
845 4 0.474391 0.0760175 0.784366
1214 4 0.0343748 0.233357 0.757293
32 3 0.114354 0.170058 0.812541
33 3 0.151672 0.165957 0.814349
1072 2 0.0868721 0.255555 0.792048
1074 4 0.0722235 0.238127 0.802385