ITEM: TIMESTEP
1780000
ITEM: NUMBER OF ATOMS
4590
ITEM: BOX BOUNDS pp pp pp
-9.9985700000000008e+00 9.9985700000000008e+00
-9.9985700000000008e+00 9.9985700000000008e+00
-9.9985700000000008e+00 9.9985700000000008e+00
ITEM: ATOMS id type xs ys zs
464 4 0.0456213 0.0202244 0.0865913
463 2 0.0227336 0.0119978 0.0807901
1252 2 0.148519 0.015044 0.0127621
1254 4 0.158431 0.0370191 0.00612661
578 4 0.202358 0.0214469 0.0774279
491 4 0.237245 0.00746654 0.0710845
490 2 0.259942 0.0148351 0.0636219
492 4 0.28264 0.0222036 0.0561592
486 4 0.302258 0.0256188 0.0513336
484 2 0.324207 0.016989 0.0430287
485 4 0.346155 0.00835923 0.0347237
1607 4 0.364934 0.0168046 0.0376663
2468 4 0.410881 0.0327461 0.0395086
2467 2 0.435614 0.0332681 0.0431406
1760 4 0.471983 0.029496 0.0640141
2469 4 0.460347 0.03379 0.0467726
1759 2 0.496005 0.0281199 0.0708161
2723 4 0.457985 0.0271356 0.0792789
1246 2 0.0131552 0.134421 0.0215605
1248 4 0.0344171 0.138092 0.00892573
360 4 0.246593 0.111252 0.0110136
359 4 0.270164 0.0923252 0.0508495
358 2 0.258378 0.101789 0.0309316
664 2 0.348202 0.146292 0.0348582
666 4 0.349103 0.156542 0.01207
665 4 0.3473 0.136042 0.0576464
557 4 0.356315 0.135963 0.0757016
771 4 0.491873 0.151083 0.0752147
769 2 0.474322 0.166076 0.0656037
1827 4 0.482945 0.1173 0.00793386
869 4 0.0339987 0.174878 0.00647072
555 4 0.108883 0.210035 0.0198025
553 2 0.133539 0.212236 0.0162728
554 4 0.158194 0.214437 0.0127431
770 4 0.456772 0.181068 0.0559927
755 4 0.2459 0.299283 0.0590404
754 2 0.261046 0.318235 0.065089
1070 4 0.319696 0.309155 0.00483145
740 4 0.29518 0.330017 0.0664496
1069 2 0.333909 0.288639 0.00634753
1071 4 0.348121 0.268124 0.00786361
671 4 0.452329 0.275599 0.0170303
670 2 0.461804 0.297099 0.0255825
563 4 0.478676 0.303927 0.052102
672 4 0.471279 0.318599 0.0341348
562 2 0.484413 0.293148 0.0739207
104 3 0.483266 0.334928 0.0377376
1095 4 0.466056 0.337135 0.0271733
1308 4 0.437621 0.276592 0.00436371
621 4 0.0492592 0.375666 0.0201254
2787 4 0.0385321 0.366054 0.034479
2785 2 0.042463 0.363153 0.0590006
293 4 0.0824694 0.394171 0.0795006
292 2 0.0914357 0.408641 0.0611866
913 2 0.133798 0.381032 0.0340319
915 4 0.135411 0.394503 0.0550346
288 4 0.12927 0.350652 0.00346385
914 4 0.132184 0.367561 0.0130293
903 4 0.174773 0.408035 0.0404876
756 4 0.276193 0.337187 0.0711376
250 2 0.311409 0.402146 0.0388227
252 4 0.294484 0.392879 0.0229221
251 4 0.328334 0.411414 0.0547232
739 2 0.312942 0.344782 0.076025
609 4 0.329684 0.416175 0.0735956
1305 4 0.441182 0.346359 0.0777399
1166 4 0.491433 0.335852 0.00442711
1303 2 0.463732 0.34466 0.0670717
1304 4 0.486282 0.342961 0.0564036
2841 4 0.458829 0.390594 0.0251903
2839 2 0.474338 0.387285 0.00585935
1093 2 0.444927 0.343326 0.0153228
1094 4 0.423799 0.349517 0.00347235
550 2 0.0684311 0.426852 0.0107608
552 4 0.0786364 0.445411 0.0240507
294 4 0.100402 0.423111 0.0428727
1440 4 0.123845 0.475535 0.0487448
1438 2 0.110475 0.45696 0.0386768
243 4 0.142518 0.484894 0.0525582
1439 4 0.0971046 0.438384 0.0286088
241 2 0.161728 0.494901 0.0650501
244 2 0.228573 0.462472 0.0509412
902 4 0.211933 0.436103 0.0222666
901 2 0.193353 0.422069 0.0313771
246 4 0.225453 0.451568 0.0286578
1289 4 0.228839 0.438449 0.0128869
245 4 0.231692 0.473376 0.0732246
380 4 0.0157113 0.0243743 0.132325
1806 4 0.15473 0.00941965 0.118933
579 4 0.15808 0.0184436 0.100475
577 2 0.180219 0.0199453 0.0889514
1505 4 0.293878 0.997952 0.117096
24 3 0.414612 0.0533783 0.144297
21 1 0.394961 0.0480056 0.155405
22 3 0.377694 0.0601481 0.146264
23 3 0.390378 0.0253968 0.152907
2724 4 0.425868 0.032937 0.117168
2722 2 0.441926 0.0300363 0.0982234
237 4 0.0820558 0.135697 0.131458
235 2 0.0670641 0.129376 0.150444
477 4 0.085564 0.155329 0.138098
423 4 0.153075 0.11778 0.122437
421 2 0.175278 0.114328 0.111469
422 4 0.197481 0.110876 0.100501
532 2 0.230443 0.123964 0.121704
534 4 0.215997 0.11047 0.106393
533 4 0.244889 0.137457 0.137015
556 2 0.369306 0.122757 0.0924952
296 4 0.396945 0.102753 0.12366
295 2 0.41789 0.0984012 0.136604
558 4 0.382298 0.109552 0.109289
629 4 0.391766 0.123834 0.123007
628 2 0.395844 0.147312 0.13058
297 4 0.438835 0.0940494 0.149548
475 2 0.0910508 0.174564 0.123095
476 4 0.0965377 0.193799 0.108092
284 4 0.166412 0.252129 0.155499
737 4 0.154155 0.239961 0.166742
353 4 0.244873 0.203591 0.0869493
354 4 0.211096 0.235037 0.10621
352 2 0.227985 0.219314 0.0965799
285 4 0.199256 0.232121 0.123536
283 2 0.182834 0.242125 0.139517
507 4 0.188136 0.240239 0.0800186
505 2 0.166461 0.250551 0.0870229
310 2 0.30198 0.204409 0.141054
312 4 0.308083 0.228615 0.139649
311 4 0.295877 0.180202 0.14246
461 4 0.317051 0.230875 0.156701
630 4 0.399922 0.17079 0.138153
728 4 0.391534 0.207092 0.151573
460 2 0.333768 0.248316 0.150255
727 2 0.371925 0.209973 0.166816
836 4 0.0666008 0.319339 0.100777
506 4 0.144787 0.260864 0.0940272
338 4 0.131193 0.267449 0.105343
339 4 0.135531 0.26296 0.154959
337 2 0.133362 0.265205 0.130151
372 4 0.150572 0.260691 0.167305
764 4 0.216838 0.240389 0.125933
763 2 0.234682 0.254321 0.136547
610 2 0.280907 0.301446 0.157364
612 4 0.26318 0.285206 0.150494
611 4 0.298635 0.317685 0.164234
765 4 0.252527 0.268253 0.14716
323 4 0.356408 0.318414 0.12123
322 2 0.354537 0.300086 0.138134
324 4 0.352666 0.281757 0.155038
255 4 0.368804 0.267257 0.150412
462 4 0.350485 0.265757 0.143809
253 2 0.391274 0.260465 0.1418
624 4 0.413497 0.313142 0.131479
622 2 0.406616 0.331475 0.147026
254 4 0.413743 0.253674 0.133187
519 4 0.476666 0.249537 0.127214
528 4 0.488194 0.265913 0.130978
517 2 0.45279 0.255311 0.122544
518 4 0.428915 0.261084 0.117873
564 4 0.49015 0.282368 0.0957394
2650 2 0.495125 0.318207 0.119846
2651 4 0.4894 0.299677 0.104064
2786 4 0.046394 0.360252 0.0835223
835 2 0.0796416 0.33945 0.0936604
313 2 0.0278974 0.367933 0.117378
314 4 0.0378716 0.352569 0.10036
315 4 0.0179232 0.383298 0.134396
1757 4 0.0543809 0.409693 0.151707
837 4 0.0926825 0.359562 0.0865441
455 4 0.152285 0.376455 0.11553
454 2 0.153855 0.382247 0.139803
741 4 0.330704 0.359546 0.0856004
608 4 0.315505 0.40326 0.119778
607 2 0.322595 0.409718 0.096687
386 4 0.343725 0.350816 0.0980002
387 4 0.371812 0.37164 0.133753
385 2 0.357769 0.361228 0.115876
13 3 0.371673 0.386871 0.147969
11 1 0.393297 0.38405 0.155899
12 3 0.401641 0.364186 0.147839
623 4 0.399735 0.349808 0.162573
15 3 0.406491 0.40118 0.148749
596 4 0.490472 0.330431 0.15275
2652 4 0.50085 0.336736 0.135628
524 4 0.323944 0.474497 0.155887
523 2 0.330906 0.480596 0.13266
525 4 0.337868 0.486695 0.109432
1488 4 0.315325 0.489026 0.166619
659 4 0.402028 0.485785 0.142591
495 4 0.404914 0.46652 0.140382
494 4 0.416366 0.417929 0.143291
493 2 0.41064 0.442225 0.141837
658 2 0.39191 0.498703 0.161457
1404 4 0.0661322 0.0126984 0.175028
675 4 0.164928 0.0305469 0.17454
673 2 0.164668 0.0219369 0.198013
691 2 0.141624 0.0453275 0.240564
674 4 0.164409 0.013327 0.221486
693 4 0.125914 0.0616885 0.251085
692 4 0.157334 0.0289665 0.230043
546 4 0.0968169 0.0806764 0.232791
581 4 0.209029 0.0610035 0.176108
654 4 0.225176 0.0508129 0.168943
580 2 0.187256 0.0727769 0.179646
652 2 0.244308 0.059578 0.182445
1463 4 0.171571 0.0185321 0.241463
1462 2 0.196301 0.0201562 0.244777
1464 4 0.221031 0.0217804 0.248092
653 4 0.263441 0.0683432 0.195946
759 4 0.396609 0.0651078 0.192917
25 3 0.396873 0.0531512 0.177507
757 2 0.392692 0.0709211 0.216918
758 4 0.388776 0.0767344 0.240919
545 4 0.0726701 0.12214 0.218705
236 4 0.0520725 0.123055 0.16943
529 2 0.0027913 0.0854542 0.2493
544 2 0.0847435 0.101408 0.225748
567 4 0.168449 0.0998144 0.195601
565 2 0.155434 0.11972 0.187884
566 4 0.142419 0.139626 0.180167
582 4 0.165483 0.0845503 0.183184
600 4 0.179453 0.13886 0.248609
29 3 0.30243 0.136099 0.243883
26 1 0.302631 0.151943 0.226932
30 3 0.282963 0.151306 0.215467
28 3 0.320342 0.147881 0.212502
309 4 0.337868 0.158582 0.206735
332 4 0.462879 0.155584 0.231035
738 4 0.14588 0.191181 0.174004
736 2 0.150017 0.215571 0.170373
27 3 0.305283 0.172795 0.236274
307 2 0.336337 0.181309 0.196424
729 4 0.352316 0.212853 0.18206
496 2 0.339151 0.241835 0.210205
498 4 0.340438 0.223721 0.193018
308 4 0.334805 0.204036 0.186114
331 2 0.477391 0.16998 0.216635
333 4 0.491902 0.184376 0.202236
2682 4 0.496316 0.19872 0.215248
2453 4 0.490689 0.190902 0.183385
363 4 0.0382616 0.264419 0.230873
361 2 0.0609348 0.27495 0.230425
648 4 0.0685707 0.292599 0.168626
646 2 0.073464 0.316437 0.174369
362 4 0.083608 0.285481 0.229977
370 2 0.133136 0.263547 0.184996
371 4 0.115699 0.266402 0.202688
749 4 0.135738 0.325713 0.235247
748 2 0.119097 0.307057 0.234779
750 4 0.102457 0.288401 0.234311
299 4 0.15535 0.327836 0.241992
497 4 0.337865 0.259949 0.227392
595 2 0.495239 0.318702 0.174311
521 4 0.493255 0.287748 0.19813
366 4 0.0110592 0.348612 0.204563
647 4 0.0783572 0.340275 0.180113
456 4 0.155425 0.38804 0.164075
704 4 0.135658 0.382734 0.173612
705 4 0.0960334 0.352288 0.175523
417 4 0.142513 0.400724 0.185365
415 2 0.13625 0.4204 0.199465
703 2 0.115846 0.367511 0.174567
302 4 0.304969 0.335007 0.171852
301 2 0.311959 0.35501 0.185126
303 4 0.318949 0.375013 0.1984
14 3 0.393193 0.383283 0.179089
645 4 0.410801 0.395776 0.184315
643 2 0.424805 0.414205 0.193772
1756 2 0.0585017 0.421432 0.173395
1758 4 0.0626226 0.433171 0.195084
603 4 0.075979 0.444339 0.207329
416 4 0.129987 0.440076 0.213565
601 2 0.0990059 0.451428 0.214014
602 4 0.122033 0.458518 0.220699
638 4 0.143902 0.457161 0.222121
290 4 0.131225 0.445754 0.235297
637 2 0.167843 0.459123 0.215183
625 2 0.235627 0.488355 0.218766
627 4 0.213534 0.476721 0.217451
639 4 0.191785 0.461086 0.208244
626 4 0.257721 0.499988 0.220081
1629 4 0.278837 0.501698 0.227368
1627 2 0.285144 0.477917 0.222909
1628 4 0.29145 0.454136 0.21845
109 3 0.488343 0.426893 0.188105
107 3 0.482337 0.421476 0.22481
644 4 0.438809 0.432634 0.20323
110 3 0.456781 0.43942 0.20437
106 1 0.479112 0.436063 0.207317
108 3 0.489553 0.456176 0.212301
512 4 0.0615476 0.0394614 0.279374
511 2 0.0448099 0.0579465 0.277549
513 4 0.0280723 0.0764316 0.275724
2737 2 0.0146681 0.0754422 0.327507
427 2 0.148975 0.00319249 0.270335
429 4 0.166719 0.0165434 0.258842
467 4 0.171369 0.0312023 0.269842
466 2 0.176776 0.0495863 0.285904
468 4 0.182182 0.0679703 0.301965
606 4 0.185459 0.0731269 0.320528
683 4 0.275813 0.0558588 0.298033
682 2 0.275657 0.0775278 0.310508
744 4 0.394201 0.0706386 0.259103
479 4 0.448836 0.0366325 0.312092
478 2 0.438844 0.0529816 0.296028
480 4 0.428852 0.0693307 0.279964
1749 4 0.496611 0.00106369 0.248665
531 4 0.0259528 0.0874904 0.258497
2739 4 0.0274062 0.0962373 0.321986
2483 4 0.0563473 0.120501 0.302036
2482 2 0.0777735 0.132221 0.307397
731 4 0.0936361 0.0860848 0.252757
2484 4 0.0991997 0.143941 0.312757
399 4 0.118451 0.146794 0.313704
732 4 0.114855 0.0848775 0.298023
730 2 0.104246 0.0854811 0.27539
397 2 0.133499 0.131497 0.32654
392 4 0.10655 0.161732 0.308537
598 2 0.181988 0.157014 0.265614
473 4 0.186668 0.0916846 0.327929
474 4 0.199103 0.129236 0.297335
472 2 0.192885 0.11046 0.312632
684 4 0.275502 0.0991968 0.322982
707 4 0.303893 0.0970981 0.311173
632 4 0.289579 0.145893 0.27752
633 4 0.28993 0.110264 0.312609
631 2 0.289755 0.128079 0.295065
706 2 0.327949 0.0920617 0.315771
708 4 0.352004 0.0870253 0.32037
742 2 0.387639 0.0896982 0.273896
743 4 0.381078 0.108758 0.28869
349 2 0.401461 0.133039 0.304382
351 4 0.377816 0.12675 0.299226
350 4 0.425105 0.139327 0.309537
451 2 0.459788 0.141206 0.294365
452 4 0.437038 0.151268 0.296894
453 4 0.482537 0.131143 0.291836
389 4 0.00905504 0.241078 0.307242
388 2 0.0319278 0.248607 0.30051
393 4 0.103026 0.205214 0.284091
391 2 0.104788 0.183473 0.296314
405 4 0.160535 0.225585 0.325715
599 4 0.184523 0.175169 0.282619
249 4 0.197239 0.190801 0.285028
403 2 0.169494 0.208268 0.310062
404 4 0.178453 0.190951 0.294408
247 2 0.220443 0.194994 0.276709
248 4 0.243646 0.199188 0.26839
279 4 0.26085 0.211727 0.267786
277 2 0.257572 0.23645 0.269586
418 2 0.395986 0.239079 0.293914
419 4 0.379889 0.236977 0.274898
306 4 0.404542 0.226264 0.323441
420 4 0.412084 0.241181 0.312931
390 4 0.0548005 0.256137 0.293777
444 4 0.0507438 0.27454 0.299387
442 2 0.063439 0.296081 0.299432
443 4 0.0761342 0.317621 0.299477
548 4 0.0358109 0.32554 0.285435
408 4 0.0859904 0.325462 0.314943
536 4 0.24146 0.274785 0.265135
535 2 0.223968 0.27992 0.282247
537 4 0.206476 0.285055 0.299359
278 4 0.254293 0.261172 0.271385
3959 4 0.00893214 0.414323 0.255917
547 2 0.0198553 0.334884 0.302266
549 4 0.00389972 0.344229 0.319096
298 2 0.155834 0.337153 0.26519
733 2 0.131094 0.33571 0.317102
734 4 0.151218 0.333572 0.302417
767 4 0.143535 0.38094 0.2912
735 4 0.110971 0.337847 0.331788
766 2 0.145026 0.404495 0.282948
300 4 0.156319 0.346471 0.288387
344 4 0.197792 0.345562 0.316911
438 4 0.255154 0.404392 0.309018
436 2 0.275139 0.408649 0.323428
434 4 0.429886 0.351309 0.320294
3960 4 0.00690869 0.444543 0.295709
3958 2 0.00792041 0.429433 0.275813
768 4 0.146516 0.428051 0.274697
289 2 0.133434 0.4535 0.258968
499 2 0.111077 0.473763 0.309393
500 4 0.118664 0.455877 0.293655
291 4 0.135642 0.461247 0.282638
501 4 0.10349 0.49165 0.325131
1437 4 0.243593 0.472511 0.305071
1435 2 0.230369 0.467937 0.325793
542 4 0.47248 0.446457 0.271415
541 2 0.463453 0.454813 0.293183
543 4 0.454425 0.463168 0.314951
713 4 0.443202 0.479009 0.329622
615 4 0.450051 0.460706 0.334794
447 4 0.462218 0.47398 0.331268
712 2 0.432103 0.497899 0.317574
317 4 0.0134856 0.0480096 0.349921
316 2 0.0345836 0.0405844 0.361098
318 4 0.0556816 0.0331593 0.372275
1602 4 0.060058 0.000819963 0.385056
605 4 0.187626 0.0438003 0.360975
604 2 0.186542 0.0584636 0.340752
439 2 0.223968 0.046395 0.388461
440 4 0.205494 0.0473794 0.37164
441 4 0.242441 0.0454106 0.405282
1518 4 0.321615 0.0655466 0.395233
699 4 0.304925 0.0712428 0.40451
1671 4 0.290334 0.0614101 0.414759
1516 2 0.335469 0.0520911 0.379352
1517 4 0.349323 0.0386357 0.363472
1426 2 0.429789 0.000992181 0.392948
1427 4 0.436194 0.0251576 0.393377
348 4 0.00920257 0.173509 0.389133
2655 4 0.999839 0.156155 0.37969
398 4 0.148547 0.1162 0.339375
276 4 0.19376 0.0993923 0.345119
274 2 0.202912 0.106814 0.367172
373 2 0.242808 0.128545 0.408228
375 4 0.227346 0.110256 0.401045
275 4 0.212064 0.114235 0.389225
726 4 0.294274 0.103891 0.330598
725 4 0.273215 0.11592 0.37433
724 2 0.283745 0.109906 0.352464
697 2 0.302212 0.0960983 0.404374
698 4 0.299499 0.120954 0.404238
510 4 0.270857 0.161674 0.416064
431 4 0.319046 0.156305 0.413106
514 2 0.403957 0.161723 0.356872
256 2 0.409064 0.118528 0.389355
258 4 0.393284 0.106799 0.404802
257 4 0.424843 0.130257 0.373908
516 4 0.423171 0.146833 0.362727
1580 4 0.466746 0.0928923 0.353768
1581 4 0.439494 0.134376 0.359869
1579 2 0.45312 0.113634 0.356819
346 2 0.0156006 0.184554 0.410633
487 2 0.292895 0.23616 0.383871
488 4 0.282114 0.227684 0.404778
489 4 0.303676 0.244636 0.362963
515 4 0.384742 0.176613 0.351018
265 2 0.41567 0.212952 0.414594
267 4 0.422854 0.2127 0.390646
304 2 0.425281 0.225303 0.337374
305 4 0.446021 0.224342 0.351306
616 2 0.0660998 0.324848 0.3926
617 4 0.0623154 0.30365 0.40531
406 2 0.0804406 0.331537 0.338554
402 4 0.240378 0.314129 0.362228
400 2 0.247832 0.290376 0.364551
1260 4 0.242824 0.266446 0.383835
1258 2 0.243252 0.25394 0.405482
401 4 0.255287 0.266622 0.366875
678 4 0.225219 0.325655 0.369164
593 4 0.315918 0.323614 0.374438
378 4 0.328445 0.322589 0.358588
377 4 0.376194 0.315112 0.345749
376 2 0.35232 0.318851 0.352169
269 4 0.491812 0.268461 0.361487
407 4 0.0748908 0.337612 0.362165
618 4 0.0698841 0.346045 0.379891
345 4 0.225683 0.319957 0.349579
343 2 0.211738 0.33276 0.333245
677 4 0.194465 0.345156 0.403436
676 2 0.209842 0.335406 0.3863
592 2 0.299141 0.338753 0.363737
594 4 0.282364 0.353892 0.353035
437 4 0.295124 0.412907 0.337838
433 2 0.438761 0.363517 0.340228
586 2 0.483973 0.380717 0.374151
587 4 0.459081 0.382798 0.375257
435 4 0.447635 0.375726 0.360162
3989 4 0.461534 0.378173 0.408535
414 4 0.157963 0.427315 0.350076
1436 4 0.217146 0.463363 0.346515
412 2 0.178093 0.442043 0.348346
413 4 0.198224 0.456772 0.346616
1557 4 0.242316 0.440362 0.376373
1555 2 0.266781 0.436155 0.379365
1556 4 0.291245 0.431948 0.382356
669 4 0.305193 0.434748 0.368673
667 2 0.324998 0.438169 0.383547
668 4 0.344803 0.441589 0.398422
4 3 0.398289 0.462005 0.401419
2 3 0.363644 0.448079 0.405714
335 4 0.347444 0.448015 0.41862
1 1 0.38103 0.458553 0.416539
445 2 0.475716 0.487788 0.347153
614 4 0.414202 0.438893 0.361993
613 2 0.432127 0.4498 0.348393
120 3 0.478907 0.425593 0.395677
1742 4 0.491636 0.440661 0.388967
369 4 0.0517811 0.0601535 0.425232
368 4 0.0293602 0.0640277 0.469763
938 4 0.0375252 0.0497535 0.484223
937 2 0.050778 0.0287446 0.487082
1059 4 0.0302651 0.0689862 0.491118
367 2 0.0405706 0.0620906 0.447498
1669 2 0.286885 0.0367043 0.416465
1670 4 0.283437 0.0119985 0.418171
962 4 0.253677 0.0600778 0.464935
1817 4 0.26045 0.047521 0.477912
1816 2 0.265288 0.0260294 0.466085
961 2 0.268876 0.0786525 0.457924
1818 4 0.270126 0.00453792 0.454257
426 4 0.316996 0.0851258 0.500874
149 3 0.393516 0.0694503 0.49923
687 4 0.15797 0.123973 0.421554
685 2 0.171184 0.122815 0.442749
686 4 0.184397 0.121656 0.463945
374 4 0.258269 0.146835 0.415412
430 2 0.312912 0.141192 0.432056
963 4 0.284075 0.0972272 0.450914
432 4 0.306778 0.126078 0.451007
321 4 0.31421 0.146524 0.481067
424 2 0.318912 0.100953 0.481612
425 4 0.320828 0.11678 0.462351
319 2 0.319352 0.167704 0.493321
905 4 0.40025 0.086988 0.490619
904 2 0.412124 0.0990193 0.472195
906 4 0.423999 0.111051 0.453772
2612 4 0.00205342 0.222557 0.467903
347 4 0.0219986 0.195599 0.432133
1259 4 0.24368 0.241434 0.427129
508 2 0.275326 0.186223 0.414464
509 4 0.279794 0.210772 0.412865
717 4 0.297303 0.221784 0.415084
649 2 0.306697 0.219011 0.489866
650 4 0.293023 0.229107 0.471528
715 2 0.317548 0.220194 0.429672
711 4 0.294078 0.249875 0.468299
709 2 0.276433 0.252336 0.450755
710 4 0.258788 0.254797 0.433211
716 4 0.337792 0.218603 0.444259
576 4 0.385724 0.185981 0.485577
574 2 0.393137 0.190209 0.462075
575 4 0.400549 0.194438 0.438573
266 4 0.408487 0.213204 0.438542
871 2 0.488425 0.220514 0.426475
873 4 0.476935 0.215598 0.448132
2813 4 0.0675808 0.299596 0.463495
2812 2 0.0880783 0.312078 0.470512
1136 4 0.148932 0.288103 0.458723
1135 2 0.142915 0.300226 0.479747
2814 4 0.108576 0.32456 0.477529
503 4 0.154057 0.405599 0.433313
1171 2 0.215023 0.413238 0.485829
118 3 0.497122 0.414575 0.426732
119 3 0.465035 0.397186 0.416128
3988 2 0.441795 0.365589 0.417321
3990 4 0.422056 0.353006 0.426108
383 4 0.036202 0.466438 0.457807
382 2 0.054995 0.451549 0.450714
384 4 0.0737881 0.43666 0.443621
636 4 0.151591 0.47915 0.419093
502 2 0.164742 0.428204 0.433467
504 4 0.175428 0.450809 0.433622
773 4 0.184534 0.465579 0.442757
772 2 0.189163 0.483792 0.45925
540 4 0.189366 0.494736 0.495362
1172 4 0.23877 0.416559 0.478741
1188 4 0.247452 0.47511 0.499072
336 4 0.320638 0.430372 0.456972
240 4 0.322726 0.439971 0.47422
238 2 0.317401 0.432069 0.497336
881 4 0.384996 0.43368 0.44985
880 2 0.37896 0.432114 0.474063
1585 2 0.345434 0.498972 0.444517
334 2 0.334041 0.439193 0.437796
5 3 0.373802 0.478519 0.424771
1586 4 0.354335 0.481956 0.428504
3 3 0.388308 0.444996 0.433907
1267 2 0.459391 0.446069 0.471085
1269 4 0.459577 0.454144 0.494748
117 3 0.464124 0.432389 0.429265
1268 4 0.459204 0.437993 0.447423
116 1 0.476355 0.41743 0.416783
2318 4 0.0461087 0.0144473 0.572837
1058 4 0.0531512 0.0776626 0.534726
1057 2 0.0417082 0.0733244 0.512922
1182 4 0.235967 0.056861 0.576991
1180 2 0.255277 0.0663751 0.564272
1181 4 0.274587 0.0758893 0.551553
842 4 0.3191 0.0180816 0.590219
2333 4 0.331465 0.999547 0.587323
1217 4 0.332857 0.0290201 0.578265
2332 2 0.335664 0.997982 0.562724
1216 2 0.342261 0.050738 0.570198
150 3 0.40074 0.032544 0.501073
146 1 0.398575 0.0516668 0.51325
148 3 0.381852 0.0490914 0.529128
1218 4 0.351664 0.0724558 0.562131
147 3 0.418423 0.0560886 0.524004
4467 4 0.481658 0.0667245 0.57951
3007 2 0.446364 0.0678051 0.556307
3009 4 0.427538 0.0611212 0.541271
2281 2 0.426597 0.00921529 0.545349
3008 4 0.46519 0.0744891 0.571343
2282 4 0.434453 0.0292833 0.558027
824 4 0.0596398 0.102424 0.569269
2429 4 0.0611529 0.104215 0.549575
1272 4 0.0727184 0.167835 0.556089
2428 2 0.085746 0.106142 0.545495
1270 2 0.0929143 0.158964 0.567862
2430 4 0.110339 0.108068 0.541415
260 4 0.138913 0.153803 0.516946
1271 4 0.11311 0.150092 0.579635
1151 4 0.203715 0.141268 0.568029
1150 2 0.210312 0.148431 0.545
1152 4 0.216909 0.155595 0.521971
1220 4 0.195042 0.155483 0.578288
944 4 0.170448 0.0909938 0.581289
900 4 0.360246 0.0937767 0.569611
898 2 0.361117 0.118678 0.571694
3251 4 0.398336 0.086553 0.510009
3250 2 0.409219 0.10214 0.526251
899 4 0.361987 0.14358 0.573777
3252 4 0.420102 0.117726 0.542493
3053 4 0.427608 0.123218 0.560616
877 2 0.0321003 0.170723 0.558336
879 4 0.0560144 0.170972 0.565632
878 4 0.00818624 0.170474 0.55104
259 2 0.130854 0.175849 0.525561
1033 2 0.131883 0.22544 0.546739
1034 4 0.143525 0.234778 0.566801
1035 4 0.120242 0.216101 0.526678
261 4 0.122796 0.197895 0.534176
1221 4 0.157144 0.18804 0.576156
695 4 0.15622 0.242463 0.580404
1219 2 0.176093 0.171762 0.577222
993 4 0.247523 0.246274 0.570207
320 4 0.324493 0.188884 0.505575
790 2 0.312125 0.234765 0.548108
791 4 0.324845 0.213437 0.551023
651 4 0.320371 0.208915 0.508203
411 4 0.333804 0.200082 0.519969
409 2 0.357232 0.198684 0.511346
410 4 0.38066 0.197285 0.502722
2845 2 0.0410703 0.313435 0.563301
2846 4 0.0441207 0.308042 0.539077
1041 4 0.13175 0.315611 0.519656
1137 4 0.136898 0.312349 0.500771
792 4 0.299404 0.256092 0.545192
804 4 0.299097 0.272862 0.553511
812 4 0.304588 0.276331 0.535603
811 2 0.291801 0.290534 0.51948
802 2 0.283547 0.275158 0.572956
813 4 0.279013 0.304738 0.503358
1039 2 0.123776 0.339274 0.520935
1040 4 0.115801 0.362937 0.522215
1160 4 0.129068 0.396263 0.525707
897 4 0.127612 0.403445 0.54476
895 2 0.128482 0.40682 0.56952
1159 2 0.149989 0.399208 0.512336
1190 4 0.188581 0.397969 0.509561
1161 4 0.170911 0.402154 0.498964
1189 2 0.202222 0.386667 0.527208
1191 4 0.215862 0.375366 0.544854
1173 4 0.191277 0.409918 0.492918
1938 4 0.0328856 0.479383 0.562273
1936 2 0.0141317 0.485647 0.546969
539 4 0.178713 0.460081 0.529805
1186 2 0.249911 0.48407 0.522285
538 2 0.18404 0.477408 0.512583
1187 4 0.252369 0.49303 0.545498
239 4 0.312076 0.424168 0.520453
1910 4 0.41784 0.477763 0.544685
663 4 0.371732 0.441063 0.514774
661 2 0.391819 0.449317 0.527165
882 4 0.372923 0.430549 0.498276
662 4 0.411905 0.457571 0.539557
1002 4 0.401948 0.471143 0.5549
4149 4 0.418248 0.460946 0.558463
1000 2 0.383769 0.473368 0.571922
4084 2 0.477774 0.466545 0.519035
4085 4 0.456584 0.454077 0.514484
4086 4 0.498964 0.479012 0.523585
2317 2 0.06142 0.012243 0.592481
2319 4 0.0767312 0.0100386 0.612125
1030 2 0.204996 0.0642787 0.589215
1031 4 0.22385 0.0478563 0.589152
100 3 0.245867 0.0466128 0.664835
841 2 0.297003 0.0297766 0.590549
843 4 0.274906 0.0414717 0.590879
950 4 0.256394 0.0308029 0.656711
951 4 0.271321 0.0338094 0.609078
949 2 0.263857 0.0323062 0.632895
1005 4 0.315438 0.0190942 0.61139
1239 4 0.259064 0.0684985 0.647103
1003 2 0.333752 0.0132511 0.627378
886 2 0.328334 0.0755578 0.615143
887 4 0.348347 0.060864 0.612187
1004 4 0.352066 0.00740787 0.643366
3401 4 0.484131 0.0886057 0.652181
1199 4 0.0180469 0.0936827 0.636558
823 2 0.040338 0.0974949 0.584379
825 4 0.0210362 0.092566 0.59949
1200 4 0.0393417 0.132332 0.660085
1198 2 0.0286943 0.113007 0.648321
851 4 0.0466417 0.150343 0.66367
850 2 0.0461482 0.165174 0.643546
1154 4 0.112558 0.151887 0.599191
1155 4 0.154285 0.162477 0.624636
1153 2 0.133421 0.157182 0.611914
1284 4 0.169724 0.151673 0.627713
1073 4 0.0843817 0.148379 0.665691
945 4 0.187669 0.137434 0.588179
943 2 0.179058 0.114214 0.584734
327 4 0.207908 0.145405 0.589032
1032 4 0.186142 0.0807011 0.589278
1211 4 0.173101 0.171754 0.62373
325 2 0.230456 0.152787 0.596923
1282 2 0.180365 0.131582 0.63812
1283 4 0.191006 0.111491 0.648528
326 4 0.253004 0.16017 0.604813
888 4 0.308321 0.0902516 0.618099
1238 4 0.289931 0.0993204 0.62265
1237 2 0.274498 0.0839095 0.634876
806 4 0.305373 0.100135 0.636631
805 2 0.319621 0.105402 0.656491
1194 4 0.357291 0.156574 0.590886
1164 4 0.471595 0.0908657 0.666658
3052 2 0.44064 0.1214 0.581877
3054 4 0.453671 0.119582 0.603139
3400 2 0.476105 0.0985753 0.630702
3402 4 0.468078 0.108545 0.609223
852 4 0.0456547 0.180004 0.623421
1083 4 0.045672 0.199121 0.616719
1208 4 0.0564527 0.210716 0.62716
909 4 0.063776 0.190932 0.623569
907 2 0.076212 0.197561 0.602916
1207 2 0.0553706 0.226326 0.646662
1081 2 0.0218419 0.203117 0.61029
1209 4 0.0542885 0.241935 0.666165
908 4 0.088648 0.204191 0.582262
948 4 0.154842 0.222006 0.664865
1210 2 0.179337 0.188661 0.641063
991 2 0.231835 0.240179 0.588698
694 2 0.177246 0.244159 0.593828
992 4 0.216147 0.234085 0.607189
696 4 0.198271 0.245855 0.607253
8 3 0.223027 0.22541 0.62394
6 1 0.220967 0.226259 0.647037
9 3 0.200625 0.217169 0.653515
7 3 0.237955 0.213951 0.656475
1212 4 0.185574 0.205568 0.658396
10 3 0.222468 0.24783 0.654184
1193 4 0.316693 0.185665 0.593372
1192 2 0.336992 0.17112 0.592129
1024 2 0.403602 0.221175 0.654763
1025 4 0.380671 0.226398 0.663253
1026 4 0.426533 0.215952 0.646274
952 2 0.449113 0.244696 0.622582
954 4 0.440798 0.227053 0.638226
2847 4 0.03802 0.318829 0.587524
3263 4 0.0206632 0.309377 0.592729
984 4 0.0478817 0.324262 0.60395
982 2 0.0351645 0.327786 0.625188
857 4 0.117897 0.328033 0.605352
797 4 0.169553 0.33681 0.638674
1064 4 0.232462 0.257864 0.640316
1065 4 0.226468 0.307482 0.638616
1063 2 0.229465 0.282673 0.639466
796 2 0.188156 0.320168 0.637211
798 4 0.206759 0.303526 0.635747
803 4 0.267997 0.277453 0.592401
953 4 0.457429 0.26234 0.606938
1263 4 0.47987 0.296915 0.624061
1261 2 0.491662 0.287296 0.6439
983 4 0.0224474 0.33131 0.646425
3275 4 0.00589273 0.342056 0.651446
856 2 0.136442 0.339073 0.617978
858 4 0.154986 0.350113 0.630603
896 4 0.129352 0.410196 0.594279
941 4 0.131517 0.410215 0.662446
1175 4 0.280376 0.410799 0.661398
1068 4 0.267861 0.405684 0.676055
1008 4 0.373354 0.348384 0.630639
1006 2 0.397464 0.355004 0.630381
1007 4 0.421574 0.361623 0.630123
1953 4 0.237491 0.499773 0.66188
1176 4 0.286323 0.438747 0.620359
1174 2 0.28335 0.424773 0.640878
1951 2 0.262183 0.501144 0.658191
1001 4 0.36559 0.475592 0.588945
4147 2 0.434269 0.461103 0.577659
4148 4 0.45029 0.461261 0.596855
2167 2 0.463927 0.462062 0.630516
2169 4 0.460044 0.449815 0.609066
2168 4 0.46781 0.47431 0.651966
1185 4 0.0515168 0.0059064 0.715806
2991 4 0.0255591 0.0423243 0.727883
2989 2 0.0192723 0.025426 0.745206
98 3 0.212632 0.0297408 0.670167
96 1 0.232174 0.0370515 0.680319
97 3 0.242854 0.0189968 0.689759
2202 4 0.23047 0.0406303 0.714764
99 3 0.227176 0.052378 0.697008
2262 4 0.239816 0.0221791 0.708933
2200 2 0.227779 0.0592082 0.731281
2260 2 0.242742 0.0020531 0.723479
2201 4 0.225089 0.0777862 0.747798
2400 4 0.324385 0.0788215 0.724816
2398 2 0.346502 0.0705669 0.733055
2322 4 0.374197 0.0568751 0.723131
2399 4 0.368619 0.0623123 0.741293
2320 2 0.394582 0.0596562 0.708921
2342 4 0.405689 0.0135849 0.703439
2321 4 0.414966 0.0624372 0.694712
2343 4 0.447657 0.0133116 0.676249
2341 2 0.426673 0.0134482 0.689844
1163 4 0.433839 0.0704779 0.692341
1162 2 0.452717 0.0806718 0.679499
1077 4 0.0354485 0.136379 0.699811
864 4 0.0322893 0.131142 0.71791
1075 2 0.0160472 0.151958 0.697348
862 2 0.0357947 0.117553 0.738604
1225 2 0.1501 0.120817 0.725358
1227 4 0.141069 0.134974 0.706832
1226 4 0.159131 0.106661 0.743885
1148 4 0.176225 0.114299 0.748758
1147 2 0.198325 0.103951 0.743312
1149 4 0.220426 0.0936024 0.737865
917 4 0.202482 0.163291 0.706168
916 2 0.223992 0.167353 0.718251
829 2 0.331072 0.153488 0.680397
810 4 0.269665 0.169053 0.716409
830 4 0.333111 0.130329 0.671195
807 4 0.33387 0.11067 0.676351
846 4 0.392991 0.12689 0.727304
844 2 0.374723 0.13783 0.740411
58 3 0.0615872 0.235884 0.743092
946 2 0.133971 0.208506 0.667577
894 4 0.0866756 0.221468 0.728322
1072 2 0.0960289 0.167035 0.677585
947 4 0.113101 0.195006 0.670289
1074 4 0.107676 0.185692 0.689479
893 4 0.102575 0.203699 0.684366
892 2 0.0946256 0.212584 0.706344
60 3 0.0834595 0.205365 0.740284
918 4 0.245502 0.171415 0.730334
808 2 0.290722 0.176697 0.705302
809 4 0.311779 0.18434 0.694196
831 4 0.329033 0.176648 0.689599
3204 4 0.328325 0.196064 0.696833
3202 2 0.333641 0.206588 0.718883
3203 4 0.338957 0.217112 0.740932
3484 2 0.379432 0.233715 0.748309
989 4 0.0755425 0.251066 0.736179
821 4 0.118872 0.300404 0.723499
988 2 0.0918116 0.26671 0.72542
990 4 0.108081 0.282354 0.714661
820 2 0.140667 0.312067 0.727256
822 4 0.162463 0.32373 0.731013
1235 4 0.185849 0.261897 0.751296
1121 4 0.181548 0.328575 0.737397
1236 4 0.189217 0.310794 0.741373
1234 2 0.187533 0.286345 0.746334
3485 4 0.381026 0.25319 0.732709
3356 4 0.50104 0.278943 0.681837
3274 2 0.0132316 0.356108 0.670782
3276 4 0.0205705 0.370161 0.690117
780 4 0.0777778 0.347309 0.746464
815 4 0.105381 0.362418 0.696822
814 2 0.0960727 0.363405 0.720008
942 4 0.11332 0.366783 0.679273
940 2 0.122419 0.388499 0.670859
816 4 0.0867645 0.364393 0.743193
2013 4 0.158205 0.411403 0.685849
1067 4 0.219422 0.409763 0.664321
2012 4 0.192894 0.399059 0.719688
2011 2 0.17555 0.405231 0.702768
1066 2 0.243642 0.407724 0.670188
1028 4 0.287983 0.397553 0.673566
1027 2 0.298528 0.388226 0.694229
1029 4 0.309074 0.3789 0.714893
1230 4 0.320775 0.407065 0.746462
1280 4 0.0610999 0.439257 0.685035
1279 2 0.068138 0.434612 0.708573
1281 4 0.075176 0.429966 0.732112
2016 4 0.0825767 0.495723 0.681413
1080 4 0.145381 0.418604 0.674359
2015 4 0.117784 0.461091 0.689274
1079 4 0.134627 0.467336 0.677554
2014 2 0.10018 0.478407 0.685344
1078 2 0.140004 0.44297 0.675957
928 2 0.316137 0.475921 0.717096
1228 2 0.319616 0.424312 0.728397
929 4 0.31685 0.459619 0.698151
1229 4 0.318458 0.44156 0.710331