ITEM: TIMESTEP
1650000
ITEM: NUMBER OF ATOMS
4590
ITEM: BOX BOUNDS pp pp pp
-9.9985700000000008e+00 9.9985700000000008e+00
-9.9985700000000008e+00 9.9985700000000008e+00
-9.9985700000000008e+00 9.9985700000000008e+00
ITEM: ATOMS id type xs ys zs
2576 4 0.0113705 0.00224321 0.0747029
1666 2 0.00252848 0.0648989 0.00406296
578 4 0.172483 0.0286554 0.0700246
491 4 0.244782 0.00170388 0.0753589
359 4 0.255849 0.0646161 0.0410538
490 2 0.261531 0.0182976 0.067034
492 4 0.27828 0.0348913 0.0587091
486 4 0.293809 0.0338425 0.0459884
484 2 0.316235 0.0259682 0.0382283
485 4 0.338662 0.0180938 0.0304682
1607 4 0.354871 0.0242583 0.0409382
1606 2 0.368218 0.00426395 0.0340645
2467 2 0.438001 0.0466311 0.0466563
2468 4 0.42765 0.0577888 0.0268185
2469 4 0.448352 0.0354734 0.0664941
1760 4 0.458956 0.0229823 0.0780864
1759 2 0.48371 0.0243269 0.0748271
1246 2 0.0329995 0.147753 0.0341765
1247 4 0.0189055 0.140649 0.0535689
1248 4 0.0470936 0.154858 0.014784
591 4 0.00364903 0.129218 0.0461139
360 4 0.248398 0.104006 0.0111607
358 2 0.252124 0.0843112 0.0261072
664 2 0.345668 0.149061 0.0376195
665 4 0.352907 0.140789 0.060077
557 4 0.353014 0.151615 0.0761784
666 4 0.338429 0.157334 0.0151621
869 4 0.0700174 0.204153 0.0191496
555 4 0.123674 0.227033 0.0424528
553 2 0.138289 0.219377 0.0236658
554 4 0.152904 0.21172 0.00487886
1133 4 0.172181 0.206692 0.000890834
866 4 0.343853 0.173931 0.00515401
770 4 0.464065 0.210042 0.062523
769 2 0.475634 0.194809 0.0786257
755 4 0.242296 0.302352 0.0742082
754 2 0.264706 0.313287 0.0760578
756 4 0.287115 0.324222 0.0779075
1070 4 0.318109 0.308447 0.007431
323 4 0.346495 0.295116 0.0615289
671 4 0.444776 0.295084 0.00928489
670 2 0.450593 0.31492 0.0233521
619 2 0.0417561 0.380728 0.00190393
621 4 0.0221574 0.380002 0.0174133
2787 4 0.0152844 0.387943 0.034495
2785 2 0.0208577 0.38416 0.0585742
2786 4 0.026431 0.380377 0.0826534
551 4 0.0813472 0.410512 0.00317176
292 2 0.0829991 0.38445 0.0760443
294 4 0.0854612 0.402425 0.0588382
913 2 0.160186 0.382842 0.0341487
915 4 0.146642 0.399042 0.0475398
550 2 0.0850633 0.41594 0.0272944
914 4 0.173729 0.366643 0.0207575
288 4 0.178084 0.347517 0.0179143
251 4 0.313446 0.413859 0.0591885
250 2 0.290165 0.406344 0.0540244
252 4 0.266883 0.398829 0.0488604
1305 4 0.37659 0.400272 0.00462998
955 2 0.424633 0.393555 0.0480611
104 3 0.435572 0.350873 0.00640879
956 4 0.420911 0.374415 0.032409
105 3 0.467199 0.37123 0.00813491
672 4 0.45641 0.334756 0.0374193
562 2 0.478594 0.348009 0.0626798
563 4 0.455915 0.34944 0.0522493
957 4 0.428354 0.412695 0.0637131
552 4 0.0887794 0.421369 0.051417
1766 4 0.0909732 0.493648 0.0788445
1440 4 0.139606 0.467855 0.0472768
1438 2 0.123156 0.449065 0.0485276
243 4 0.146375 0.486099 0.0493184
1439 4 0.106707 0.430276 0.0497785
244 2 0.213226 0.493379 0.0588645
902 4 0.202107 0.46738 0.0350655
901 2 0.191984 0.446698 0.025322
903 4 0.18186 0.426016 0.0155785
246 4 0.199938 0.472388 0.0560385
1289 4 0.21265 0.479297 0.0225712
1288 2 0.221089 0.491459 0.00242081
609 4 0.331645 0.421351 0.0636463
465 4 0.0259285 0.00888222 0.0862231
2760 4 0.00176262 0.0458889 0.0873322
464 4 0.0708968 0.0248393 0.101188
463 2 0.0484127 0.0168608 0.0937053
577 2 0.161468 0.0228321 0.0917028
1806 4 0.15356 0.0217592 0.133548
582 4 0.150381 0.0681718 0.159851
579 4 0.150453 0.0170088 0.113381
1804 2 0.138623 0.00222453 0.138072
580 2 0.175342 0.0675703 0.161188
654 4 0.220542 0.0676026 0.159304
581 4 0.200302 0.0669688 0.162524
1504 2 0.312406 0.00140597 0.131355
1505 4 0.317681 0.0249481 0.124788
24 3 0.391427 0.0730053 0.140924
21 1 0.389736 0.0668921 0.163244
23 3 0.398355 0.0455651 0.166291
2723 4 0.446625 0.0371354 0.0861173
2724 4 0.420952 0.0664426 0.117466
2722 2 0.433788 0.051789 0.101792
237 4 0.0633962 0.128467 0.14358
477 4 0.0676222 0.146003 0.134078
475 2 0.0867801 0.16001 0.126206
423 4 0.158864 0.147029 0.138623
421 2 0.175799 0.131171 0.1293
422 4 0.192733 0.115313 0.119976
532 2 0.234317 0.12706 0.111927
534 4 0.211334 0.117247 0.112746
652 2 0.235862 0.0863184 0.165643
533 4 0.2573 0.136872 0.111108
556 2 0.372021 0.152835 0.0923775
296 4 0.408648 0.14725 0.115301
558 4 0.391029 0.154056 0.108577
629 4 0.407291 0.166963 0.10866
295 2 0.414905 0.123089 0.113783
297 4 0.421161 0.0989286 0.112265
476 4 0.105938 0.174016 0.118334
353 4 0.216068 0.192103 0.0929674
285 4 0.218259 0.22078 0.149305
354 4 0.229679 0.215758 0.13487
764 4 0.22844 0.236691 0.143133
352 2 0.222873 0.20393 0.113919
283 2 0.197968 0.217994 0.163646
763 2 0.252511 0.242938 0.145732
310 2 0.306714 0.218498 0.135916
312 4 0.316683 0.230209 0.116201
311 4 0.296745 0.206788 0.15563
628 2 0.4031 0.185338 0.125091
630 4 0.39891 0.203713 0.141522
728 4 0.389607 0.219459 0.149793
727 2 0.366787 0.218844 0.159994
461 4 0.334849 0.233188 0.126282
771 4 0.487203 0.179576 0.0947285
528 4 0.488514 0.212104 0.122979
517 2 0.458029 0.238699 0.111045
519 4 0.471454 0.222522 0.124582
836 4 0.0616355 0.299942 0.107801
835 2 0.0684637 0.323819 0.10489
506 4 0.142253 0.255707 0.105101
338 4 0.137287 0.269888 0.119052
339 4 0.0978947 0.275956 0.149254
337 2 0.117591 0.272922 0.134153
505 2 0.166036 0.260566 0.0991052
507 4 0.189818 0.265425 0.0931096
740 4 0.300402 0.327187 0.0930527
765 4 0.276581 0.249186 0.148331
611 4 0.288081 0.313724 0.155251
610 2 0.288227 0.288738 0.154345
612 4 0.288373 0.263751 0.153439
302 4 0.272693 0.327407 0.159245
322 2 0.349048 0.289835 0.0858347
324 4 0.351602 0.284554 0.110141
255 4 0.369593 0.277946 0.119984
460 2 0.342474 0.256942 0.127958
462 4 0.350099 0.280695 0.129633
253 2 0.393502 0.276755 0.112765
518 4 0.444604 0.254877 0.0975078
254 4 0.417411 0.275563 0.105545
624 4 0.418267 0.306775 0.155128
622 2 0.420435 0.331677 0.154525
293 4 0.0805369 0.366476 0.0932504
837 4 0.0752918 0.347695 0.10198
313 2 0.0267499 0.385585 0.126309
314 4 0.0310652 0.382149 0.101921
315 4 0.0224346 0.389021 0.150696
454 2 0.155542 0.368961 0.142957
456 4 0.141713 0.371885 0.163582
455 4 0.16937 0.366038 0.122331
739 2 0.32294 0.338012 0.0932573
741 4 0.345478 0.348837 0.093462
386 4 0.36425 0.351387 0.0964261
387 4 0.379797 0.389227 0.125186
385 2 0.372024 0.370307 0.110806
13 3 0.382448 0.388538 0.144524
11 1 0.401276 0.392312 0.15755
608 4 0.357632 0.41355 0.105652
12 3 0.411413 0.372145 0.161988
623 4 0.422603 0.356579 0.153923
15 3 0.415882 0.405753 0.146386
1757 4 0.0789098 0.431286 0.16699
1486 2 0.303896 0.468585 0.161926
1488 4 0.319964 0.474503 0.143706
524 4 0.329963 0.473657 0.12752
525 4 0.352611 0.482969 0.0839187
607 2 0.344638 0.41745 0.0846492
523 2 0.341287 0.478313 0.105719
494 4 0.428173 0.422081 0.145087
659 4 0.424302 0.487664 0.15646
495 4 0.421385 0.471625 0.14516
493 2 0.424779 0.446853 0.145124
692 4 0.155023 0.0747481 0.221167
691 2 0.132894 0.0771805 0.23255
673 2 0.161823 0.0281915 0.21557
674 4 0.157253 0.0330256 0.239672
567 4 0.145762 0.08206 0.171646
693 4 0.110765 0.0796129 0.243932
675 4 0.166393 0.0233575 0.191467
22 3 0.367541 0.066877 0.169289
757 2 0.407837 0.0694922 0.214537
759 4 0.402166 0.0669109 0.190322
758 4 0.413509 0.0720736 0.238752
25 3 0.401044 0.0817746 0.176255
235 2 0.0602337 0.130232 0.16832
545 4 0.0646009 0.0833858 0.204994
236 4 0.0570713 0.131997 0.19306
544 2 0.0810126 0.0891143 0.222967
565 2 0.138109 0.105741 0.174057
566 4 0.130456 0.129422 0.176468
546 4 0.0974243 0.0948428 0.24094
738 4 0.138406 0.148068 0.179509
598 2 0.192645 0.144625 0.226034
600 4 0.191456 0.123059 0.213437
653 4 0.251182 0.105034 0.171983
29 3 0.320029 0.137163 0.238686
26 1 0.311844 0.157274 0.246868
30 3 0.289317 0.158358 0.243703
332 4 0.475646 0.1629 0.245926
372 4 0.157836 0.210594 0.183029
370 2 0.140796 0.2274 0.190264
736 2 0.146541 0.170833 0.185892
737 4 0.154675 0.193599 0.192274
371 4 0.123755 0.244207 0.197499
599 4 0.193834 0.166191 0.23863
404 4 0.178141 0.17269 0.24658
284 4 0.177676 0.215208 0.177988
28 3 0.322215 0.175017 0.236097
496 2 0.329727 0.247032 0.191261
498 4 0.327523 0.229978 0.17311
309 4 0.331207 0.176825 0.218958
308 4 0.331612 0.214584 0.186173
307 2 0.331409 0.195705 0.202565
729 4 0.343967 0.218229 0.170194
363 4 0.0399592 0.255795 0.227638
361 2 0.0601458 0.26787 0.236116
648 4 0.0556698 0.300764 0.188639
646 2 0.0737528 0.317823 0.185962
362 4 0.0803323 0.279945 0.244594
497 4 0.331931 0.264087 0.209412
647 4 0.0918358 0.334883 0.183285
705 4 0.0858551 0.353456 0.188766
704 4 0.134216 0.363004 0.180354
417 4 0.135463 0.383913 0.180187
415 2 0.146194 0.40649 0.180748
703 2 0.110036 0.35823 0.18456
1628 4 0.258993 0.411744 0.169687
301 2 0.284397 0.344338 0.173441
303 4 0.296101 0.361269 0.187637
14 3 0.395163 0.402214 0.177625
109 3 0.487299 0.41306 0.194914
3717 4 0.0453663 0.492035 0.229868
1756 2 0.0858816 0.427778 0.190744
1758 4 0.0928534 0.42427 0.214499
603 4 0.113238 0.427157 0.223079
601 2 0.134856 0.432701 0.234353
602 4 0.156474 0.438245 0.245628
416 4 0.156925 0.429067 0.18131
638 4 0.176487 0.446333 0.244513
637 2 0.183656 0.450232 0.220879
625 2 0.230841 0.470477 0.198101
627 4 0.206317 0.465955 0.196289
639 4 0.190825 0.45413 0.197244
626 4 0.255366 0.475 0.199913
1627 2 0.266821 0.432326 0.181532
1629 4 0.27465 0.452907 0.193377
1487 4 0.287828 0.462666 0.180146
64 3 0.277477 0.472393 0.194863
61 1 0.277653 0.49526 0.198801
1573 2 0.340464 0.499272 0.196656
658 2 0.403143 0.491314 0.169272
645 4 0.401513 0.420267 0.184501
1574 4 0.364614 0.494566 0.192207
660 4 0.381983 0.494964 0.182083
643 2 0.423037 0.42245 0.197035
107 3 0.497322 0.438449 0.220753
644 4 0.444562 0.424633 0.209569
110 3 0.461821 0.436717 0.209369
106 1 0.483512 0.434562 0.202771
108 3 0.488305 0.450028 0.186151
512 4 0.0571621 0.0486443 0.266692
511 2 0.0591181 0.073293 0.270406
232 2 0.0744015 0.0084268 0.296986
429 4 0.147386 0.0306356 0.258457
234 4 0.0938348 0.0191519 0.285476
428 4 0.111811 0.0224722 0.292641
427 2 0.129599 0.0265539 0.275549
1463 4 0.166542 0.0276147 0.256138
1464 4 0.206758 0.00127663 0.26991
1462 2 0.18665 0.0144456 0.263024
466 2 0.203396 0.0713068 0.287944
467 4 0.199633 0.0788044 0.264389
468 4 0.207159 0.0638093 0.311498
682 2 0.258425 0.0438895 0.322486
683 4 0.250931 0.0204542 0.326936
684 4 0.265918 0.0673249 0.318035
706 2 0.307446 0.0790101 0.31892
707 4 0.283125 0.0773124 0.32447
708 4 0.331766 0.0807079 0.313369
744 4 0.402477 0.0818664 0.251624
479 4 0.426551 0.0317325 0.288715
478 2 0.433699 0.0554391 0.285239
480 4 0.440847 0.0791458 0.281763
513 4 0.0610741 0.0979418 0.27412
531 4 0.0407841 0.105718 0.266136
529 2 0.0160436 0.102839 0.263946
2482 2 0.0669063 0.132054 0.275208
2483 4 0.0590806 0.113538 0.260338
2484 4 0.074732 0.150569 0.290078
731 4 0.102345 0.0896165 0.259524
392 4 0.0929869 0.157563 0.289161
730 2 0.112777 0.0908721 0.282213
732 4 0.12321 0.0921276 0.304902
399 4 0.102632 0.144914 0.301688
397 2 0.0945826 0.133472 0.322412
249 4 0.194499 0.163811 0.257342
474 4 0.222741 0.110906 0.332915
632 4 0.259336 0.120511 0.279234
633 4 0.27257 0.0842842 0.311064
631 2 0.265953 0.102398 0.295149
27 3 0.316402 0.15855 0.269379
726 4 0.262812 0.0856021 0.32818
742 2 0.392559 0.100318 0.265276
743 4 0.382641 0.11877 0.278927
349 2 0.394152 0.141321 0.306235
351 4 0.377449 0.135489 0.288566
350 4 0.410854 0.147153 0.323903
451 2 0.450852 0.137172 0.308266
452 4 0.426582 0.13857 0.314114
453 4 0.475122 0.135773 0.302419
389 4 0.0246322 0.230929 0.31892
393 4 0.0833472 0.206462 0.293239
391 2 0.088167 0.182012 0.2912
405 4 0.131456 0.177009 0.263975
403 2 0.154798 0.174849 0.255277
247 2 0.214564 0.175526 0.266578
536 4 0.249125 0.247968 0.287101
248 4 0.23463 0.187241 0.275814
279 4 0.247057 0.197335 0.265865
278 4 0.266759 0.236841 0.289356
277 2 0.256908 0.217088 0.277611
419 4 0.403396 0.230445 0.268457
418 2 0.405494 0.236653 0.292587
420 4 0.407592 0.242862 0.316716
331 2 0.495607 0.176944 0.251358
306 4 0.41781 0.23321 0.330681
388 2 0.029892 0.252302 0.307057
390 4 0.0351518 0.273674 0.295194
444 4 0.0388684 0.283712 0.277991
442 2 0.0589104 0.297258 0.284317
548 4 0.0242511 0.316481 0.310273
406 2 0.0760453 0.318764 0.332644
443 4 0.0789524 0.310803 0.290643
408 4 0.0790681 0.321586 0.307984
750 4 0.0911807 0.291111 0.255471
748 2 0.113139 0.300962 0.262253
749 4 0.135096 0.310813 0.269035
299 4 0.154671 0.303695 0.270004
298 2 0.157706 0.319338 0.289272
535 2 0.22936 0.263218 0.2885
537 4 0.209594 0.278467 0.289898
344 4 0.177476 0.329918 0.316863
343 2 0.196123 0.326187 0.333097
377 4 0.377515 0.315339 0.331751
547 2 0.0135915 0.33865 0.314754
549 4 0.00293196 0.36082 0.319236
2462 4 0.00367674 0.402055 0.266171
300 4 0.160742 0.334982 0.30854
734 4 0.147599 0.349287 0.303842
767 4 0.152597 0.410629 0.298931
733 2 0.136659 0.356516 0.325132
438 4 0.267264 0.398732 0.295474
436 2 0.282947 0.407339 0.312941
437 4 0.298631 0.415947 0.330409
434 4 0.453287 0.36387 0.314457
3960 4 0.00731204 0.461624 0.305202
3958 2 0.00606414 0.440169 0.292424
3959 4 0.00481624 0.418713 0.279646
290 4 0.160102 0.457916 0.250955
289 2 0.149086 0.479626 0.256657
768 4 0.166483 0.442116 0.262648
766 2 0.15954 0.426373 0.28079
499 2 0.11562 0.488667 0.311407
500 4 0.131371 0.469425 0.30879
1659 4 0.221563 0.493662 0.257382
1437 4 0.228742 0.47824 0.303548
1435 2 0.215956 0.471044 0.323794
542 4 0.453925 0.443022 0.290258
541 2 0.451316 0.459265 0.309087
543 4 0.448706 0.475509 0.327916
317 4 0.0129199 0.0136935 0.375461
316 2 0.0330005 0.026415 0.367708
318 4 0.0530812 0.0391365 0.359955
1701 4 0.204803 0.00785026 0.38124
605 4 0.172361 0.038486 0.374552
604 2 0.179658 0.0618421 0.379692
439 2 0.246184 0.0255974 0.392111
441 4 0.233914 0.0289442 0.413638
440 4 0.258454 0.0222506 0.370583
1670 4 0.32233 0.034952 0.413219
1669 2 0.321748 0.0539892 0.397019
1671 4 0.321166 0.0730264 0.38082
1517 4 0.377927 0.0624466 0.341938
1516 2 0.356836 0.0685132 0.353919
1518 4 0.335745 0.0745797 0.365899
1427 4 0.424351 0.0301793 0.373856
1426 2 0.432562 0.00770121 0.381102
398 4 0.0865329 0.12203 0.343135
606 4 0.186956 0.0851982 0.384832
473 4 0.201362 0.0963451 0.375712
276 4 0.198871 0.0966331 0.395755
472 2 0.212051 0.103625 0.354314
274 2 0.20981 0.107731 0.415309
699 4 0.320121 0.089092 0.367773
724 2 0.2684 0.0968517 0.349799
725 4 0.273987 0.108101 0.371419
697 2 0.325481 0.113039 0.362977
698 4 0.330841 0.136985 0.358181
257 4 0.405423 0.141549 0.410417
516 4 0.421172 0.152777 0.400924
1581 4 0.418432 0.132832 0.400682
1580 4 0.449503 0.099933 0.379399
1579 2 0.433968 0.116383 0.390041
584 4 0.489457 0.146255 0.374404
583 2 0.49114 0.165159 0.390682
374 4 0.258324 0.174579 0.411683
508 2 0.29145 0.189435 0.412279
509 4 0.308489 0.204758 0.402274
488 4 0.312499 0.223333 0.399671
717 4 0.327227 0.212994 0.403745
487 2 0.30173 0.235077 0.380402
489 4 0.29096 0.246821 0.361133
514 2 0.41426 0.168861 0.383071
515 4 0.407348 0.184945 0.365219
715 2 0.347998 0.224718 0.411249
265 2 0.41165 0.219942 0.39704
267 4 0.418837 0.225286 0.373695
304 2 0.438317 0.223947 0.341581
305 4 0.458824 0.214683 0.352481
270 4 0.488684 0.201588 0.399407
585 4 0.492824 0.184064 0.406959
268 2 0.49122 0.219987 0.382667
269 4 0.493756 0.238387 0.365928
616 2 0.0723004 0.310483 0.387138
618 4 0.0640022 0.327304 0.370605
617 4 0.0805987 0.293662 0.403672
407 4 0.0730225 0.315943 0.357303
1260 4 0.239121 0.291224 0.394439
345 4 0.21477 0.322455 0.349331
402 4 0.223703 0.32354 0.369268
678 4 0.202696 0.330549 0.367625
400 2 0.232122 0.324175 0.392803
401 4 0.240541 0.324811 0.416338
1258 2 0.254101 0.274826 0.405924
378 4 0.340498 0.325863 0.363683
376 2 0.359006 0.320601 0.347717
414 4 0.161722 0.414539 0.344987
735 4 0.125718 0.363744 0.346421
677 4 0.16499 0.348552 0.3951
676 2 0.183843 0.339551 0.381362
592 2 0.307192 0.356342 0.357528
594 4 0.289498 0.372603 0.35062
593 4 0.324886 0.340082 0.364435
588 4 0.496491 0.390705 0.368178
435 4 0.424831 0.356378 0.354891
433 2 0.439059 0.360124 0.334674
119 3 0.46719 0.407061 0.397418
3989 4 0.466211 0.388693 0.403421
3988 2 0.453658 0.368179 0.410263
412 2 0.173507 0.436341 0.341682
413 4 0.185293 0.458144 0.338376
1436 4 0.203169 0.463848 0.344039
1557 4 0.198105 0.468374 0.410855
1555 2 0.219409 0.455305 0.410143
1556 4 0.240713 0.442235 0.409431
669 4 0.253889 0.457177 0.413053
614 4 0.400611 0.431904 0.361544
613 2 0.418048 0.446808 0.351593
713 4 0.4151 0.495497 0.336091
116 1 0.465161 0.428851 0.405131
117 3 0.443255 0.435514 0.402917
615 4 0.435484 0.461711 0.341642
120 3 0.478483 0.442695 0.392903
1697 4 0.458393 0.500118 0.409724
447 4 0.449891 0.473187 0.349282
445 2 0.455517 0.479823 0.372723
446 4 0.461143 0.486459 0.396165
1742 4 0.495942 0.433044 0.393401
367 2 0.0648425 0.0466357 0.476818
369 4 0.0670848 0.0486731 0.451998
1818 4 0.259843 0.000147944 0.46978
962 4 0.282369 0.0499852 0.463235
1817 4 0.287526 0.0404051 0.480443
1816 2 0.273684 0.0202765 0.475111
961 2 0.291465 0.0714359 0.472307
426 4 0.366297 0.0768504 0.476984
687 4 0.151538 0.122768 0.427618
685 2 0.164326 0.129029 0.448172
373 2 0.248118 0.153663 0.420823
686 4 0.177113 0.13529 0.468726
375 4 0.237911 0.132748 0.429963
275 4 0.220749 0.118829 0.434863
1152 4 0.194365 0.140494 0.463146
1150 2 0.205003 0.152831 0.482115
431 4 0.317709 0.126941 0.426773
430 2 0.31672 0.112133 0.446896
963 4 0.300562 0.0928866 0.481379
432 4 0.315731 0.0973255 0.467019
425 4 0.319546 0.0899649 0.488948
321 4 0.315605 0.109142 0.482713
319 2 0.319597 0.129029 0.497333
256 2 0.39641 0.128795 0.429943
424 2 0.342922 0.0834077 0.482966
258 4 0.387397 0.116041 0.449469
261 4 0.111477 0.188798 0.490054
1035 4 0.117583 0.206962 0.499239
510 4 0.274411 0.174113 0.422283
649 2 0.308287 0.201183 0.480621
650 4 0.297864 0.21659 0.463913
711 4 0.294154 0.233205 0.474887
709 2 0.281861 0.242453 0.455176
651 4 0.31871 0.185776 0.497329
266 4 0.404463 0.214598 0.420384
716 4 0.368769 0.236442 0.418752
576 4 0.372813 0.188333 0.469771
574 2 0.390199 0.195671 0.453368
410 4 0.372787 0.187269 0.491368
575 4 0.407585 0.203009 0.436965
872 4 0.491415 0.204281 0.418466
871 2 0.471202 0.207394 0.432851
873 4 0.450989 0.210507 0.447236
2814 4 0.0800928 0.317147 0.451554
2812 2 0.0642094 0.3158 0.470817
2813 4 0.0483259 0.314453 0.490081
1136 4 0.121375 0.302896 0.452607
1135 2 0.121364 0.302774 0.477611
710 4 0.269567 0.251702 0.435465
1259 4 0.269081 0.258429 0.417409
503 4 0.174793 0.410725 0.458179
753 4 0.494698 0.394191 0.467857
3990 4 0.441105 0.347666 0.417105
383 4 0.0108624 0.464617 0.462603
382 2 0.0289115 0.461457 0.44559
384 4 0.0469605 0.458297 0.428578
336 4 0.23701 0.468728 0.476949
504 4 0.189168 0.458506 0.454847
636 4 0.190358 0.494394 0.433276
773 4 0.194285 0.468147 0.471272
502 2 0.18198 0.434616 0.456513
772 2 0.202063 0.480664 0.491472
5 3 0.327769 0.474678 0.479357
667 2 0.269236 0.457378 0.432792
4 3 0.304667 0.453278 0.458717
1 1 0.311454 0.458812 0.480205
334 2 0.258175 0.475605 0.48835
3 3 0.319342 0.439922 0.491132
2 3 0.293405 0.467116 0.491798
668 4 0.284583 0.457579 0.452531
881 4 0.341348 0.439381 0.496315
1586 4 0.339344 0.487716 0.490399
1267 2 0.449546 0.434614 0.473626
3603 4 0.490236 0.426774 0.433537
118 3 0.471095 0.429908 0.427538
1268 4 0.440183 0.427301 0.451625
1269 4 0.458909 0.441928 0.495626
1057 2 0.0721129 0.0650128 0.535023
937 2 0.0534026 0.00550356 0.508543
368 4 0.0626001 0.0445983 0.501637
938 4 0.0580741 0.0293804 0.514309
1059 4 0.0686453 0.0441165 0.521738
1182 4 0.238361 0.0759712 0.569921
1180 2 0.247526 0.0782485 0.546769
843 4 0.296525 0.0357748 0.578639
841 2 0.314945 0.0458396 0.565053
842 4 0.333365 0.0559043 0.551467
1181 4 0.25669 0.0805257 0.523618
1217 4 0.349084 0.0657074 0.543229
2333 4 0.348033 0.0458729 0.542657
2332 2 0.355852 0.0270133 0.528222
2334 4 0.363672 0.00815379 0.513788
1091 4 0.39619 0.0287842 0.577504
88 3 0.412089 0.0215668 0.569808
1090 2 0.371766 0.0300127 0.582714
89 3 0.422077 0.0174856 0.533366
86 1 0.427516 0.0121201 0.555276
87 3 0.448371 0.0205747 0.560045
4465 2 0.496696 0.0401017 0.581039
4467 4 0.476498 0.0544666 0.577738
1058 4 0.0755805 0.0859091 0.548308
824 4 0.0668247 0.0916449 0.565012
2429 4 0.0801186 0.104991 0.558276
2428 2 0.104569 0.102624 0.562937
2430 4 0.12902 0.100256 0.567599
260 4 0.114052 0.145179 0.514375
944 4 0.210945 0.126611 0.558685
943 2 0.209676 0.142537 0.539452
945 4 0.208406 0.158464 0.520219
1151 4 0.215642 0.165168 0.501083
887 4 0.319615 0.0907182 0.581977
320 4 0.323588 0.148916 0.511953
1216 2 0.362165 0.0843849 0.553487
411 4 0.343457 0.154097 0.514607
1218 4 0.375245 0.103062 0.563745
150 3 0.415832 0.109492 0.582122
877 2 0.023475 0.186975 0.555412
1272 4 0.0611166 0.187261 0.552566
879 4 0.0456444 0.196342 0.562191
878 4 0.00130551 0.177608 0.548633
259 2 0.112765 0.166989 0.502215
1270 2 0.0837114 0.187413 0.563273
1033 2 0.131959 0.220973 0.514145
1034 4 0.146335 0.234984 0.529051
1271 4 0.106306 0.187564 0.57398
1154 4 0.122645 0.173872 0.578934
695 4 0.159742 0.239566 0.547291
1220 4 0.198619 0.174523 0.509863
1219 2 0.197183 0.193808 0.525713
1221 4 0.195746 0.213093 0.541562
694 2 0.180998 0.242733 0.560071
696 4 0.202254 0.245899 0.572851
325 2 0.234223 0.18196 0.569093
327 4 0.210968 0.179439 0.56026
8 3 0.231094 0.214572 0.57656
991 2 0.231155 0.245406 0.54086
992 4 0.221605 0.247791 0.563844
993 4 0.240704 0.243022 0.517875
326 4 0.257478 0.18448 0.577926
791 4 0.339643 0.242286 0.526531
409 2 0.358122 0.170683 0.502987
2845 2 0.0137732 0.317275 0.546186
1082 4 0.0297585 0.26246 0.570418
2846 4 0.0202582 0.326458 0.523852
2847 4 0.00728809 0.308092 0.568519
1041 4 0.125684 0.319915 0.510628
1137 4 0.121353 0.302652 0.502614
803 4 0.262824 0.254801 0.582096
790 2 0.325575 0.261288 0.534667
792 4 0.311507 0.280291 0.542802
812 4 0.300364 0.297119 0.541906
804 4 0.293494 0.280294 0.551928
802 2 0.278159 0.267547 0.567012
811 2 0.294548 0.32132 0.53953
1039 2 0.110039 0.334989 0.523005
1040 4 0.0943935 0.350063 0.535381
1160 4 0.156809 0.403699 0.565343
1190 4 0.230453 0.406774 0.568569
1159 2 0.179691 0.405843 0.555496
1161 4 0.202574 0.407987 0.545648
1173 4 0.218757 0.415047 0.553248
813 4 0.288732 0.345522 0.537153
1938 4 0.0370753 0.465318 0.548117
1936 2 0.0155515 0.478042 0.548135
539 4 0.142836 0.495008 0.522432
1171 2 0.224133 0.435333 0.539655
1172 4 0.229509 0.455619 0.526063
1188 4 0.228535 0.488306 0.52044
1186 2 0.242329 0.498408 0.538684
774 4 0.20984 0.493181 0.511671
238 2 0.298882 0.481501 0.530648
239 4 0.306678 0.493178 0.551337
240 4 0.291086 0.469824 0.509959
335 4 0.279339 0.482481 0.49975
663 4 0.390721 0.458751 0.527747
661 2 0.404417 0.476176 0.539321
880 2 0.36435 0.442508 0.505605
882 4 0.387352 0.445635 0.514896
1002 4 0.409631 0.490302 0.571605
662 4 0.418114 0.493601 0.550894
4149 4 0.428084 0.486561 0.565739
4084 2 0.482713 0.461441 0.523902
4085 4 0.474616 0.451656 0.502364
4086 4 0.490809 0.471226 0.54544
4147 2 0.444892 0.472299 0.57754
2318 4 0.0389014 0.00506056 0.586053
823 2 0.0505917 0.0819177 0.581354
2319 4 0.0681574 0.0263514 0.620571
825 4 0.0343587 0.0721905 0.597696
2317 2 0.0535294 0.015706 0.603312
98 3 0.223246 0.0343373 0.65089
950 4 0.269016 0.056527 0.659705
951 4 0.271643 0.0426147 0.611744
949 2 0.270329 0.0495709 0.635724
1004 4 0.331329 0.0137938 0.657244
2283 4 0.409222 0.0271496 0.589744
1003 2 0.335003 0.0201244 0.633336
1005 4 0.338678 0.026455 0.609428
1092 4 0.347342 0.0312412 0.587924
900 4 0.357388 0.082665 0.600267
2281 2 0.425044 0.0359185 0.607005
2282 4 0.440865 0.0446874 0.624267
3008 4 0.468454 0.055018 0.595585
3007 2 0.459759 0.0759879 0.606066
1199 4 0.00215512 0.119186 0.642143
1198 2 0.00747482 0.14342 0.639042
1031 4 0.237344 0.0911605 0.583777
1284 4 0.171843 0.161456 0.61295
1282 2 0.178185 0.137415 0.610301
1030 2 0.21342 0.0949498 0.589979
1032 4 0.189496 0.0987391 0.596181
1283 4 0.184526 0.113375 0.607652
886 2 0.297175 0.0976355 0.590567
888 4 0.274735 0.104553 0.599157
806 4 0.276663 0.120125 0.614815
805 2 0.290887 0.128108 0.633766
1238 4 0.267323 0.122576 0.59911
1237 2 0.268547 0.146121 0.590782
807 4 0.30511 0.136091 0.652717
898 2 0.357305 0.107411 0.603844
899 4 0.357221 0.132158 0.607421
148 3 0.394363 0.0958412 0.609878
1194 4 0.366601 0.148593 0.612584
149 3 0.414995 0.127297 0.615287
146 1 0.414204 0.106684 0.604663
3251 4 0.437735 0.120258 0.635255
905 4 0.433073 0.133923 0.622531
904 2 0.432659 0.158742 0.625531
3009 4 0.451065 0.0969578 0.616547
147 3 0.431837 0.0938579 0.611993
3052 2 0.47668 0.120752 0.633229
3053 4 0.453702 0.116783 0.624205
3250 2 0.425248 0.116586 0.656604
3054 4 0.499658 0.124721 0.642253
1200 4 0.0127945 0.167653 0.63594
850 2 0.0320068 0.205101 0.628945
1081 2 0.0375451 0.247264 0.588684
852 4 0.0365704 0.229685 0.628869
1083 4 0.0453316 0.232067 0.606949
1208 4 0.0513082 0.242301 0.622436
909 4 0.0639716 0.22843 0.614656
851 4 0.0274432 0.180518 0.629022
1155 4 0.162275 0.178109 0.609137
907 2 0.0858876 0.223209 0.603811
1153 2 0.14246 0.17599 0.594035
908 4 0.107804 0.217989 0.592966
6 1 0.232884 0.232044 0.591723
9 3 0.219137 0.249583 0.585258
1211 4 0.173682 0.173902 0.628094
1210 2 0.182864 0.196928 0.631364
7 3 0.226214 0.224617 0.612447
1212 4 0.192046 0.219953 0.634634
10 3 0.254495 0.239134 0.592893
1239 4 0.269771 0.169665 0.582455
1193 4 0.337609 0.189215 0.61574
1192 2 0.352105 0.168904 0.614162
1025 4 0.38121 0.225297 0.643861
1024 2 0.402052 0.211658 0.641676
1026 4 0.422894 0.198019 0.639491
906 4 0.432246 0.183562 0.628532
953 4 0.468591 0.2288 0.596225
952 2 0.453134 0.21531 0.610518
954 4 0.437677 0.20182 0.62481
984 4 0.00830782 0.306917 0.589742
1207 2 0.0504056 0.259004 0.641019
1209 4 0.049503 0.275708 0.659603
982 2 0.0142443 0.322088 0.608709
857 4 0.126974 0.295848 0.62032
856 2 0.142221 0.31565 0.621079
1065 4 0.213165 0.302535 0.596494
1063 2 0.231857 0.286672 0.591578
796 2 0.195729 0.325786 0.621459
798 4 0.215664 0.313197 0.613136
1064 4 0.250549 0.270809 0.586662
1263 4 0.472769 0.328227 0.653747
1261 2 0.488472 0.311996 0.664477
3274 2 0.0101023 0.354603 0.65362
3275 4 0.00496101 0.34891 0.629823
983 4 0.0201807 0.337259 0.627677
897 4 0.154892 0.407739 0.585061
858 4 0.157468 0.335453 0.621838
797 4 0.175793 0.338375 0.629782
1189 2 0.23207 0.398914 0.59225
1191 4 0.233688 0.391054 0.61593
1175 4 0.23939 0.416409 0.657399
1006 2 0.412559 0.352994 0.656167
1007 4 0.413749 0.334066 0.639872
895 2 0.131667 0.417 0.584894
896 4 0.108442 0.42626 0.584728
1174 2 0.232092 0.438403 0.64801
1176 4 0.224793 0.460398 0.638621
1001 4 0.382827 0.493742 0.613682
1000 2 0.396229 0.492022 0.592644
4148 4 0.461699 0.458036 0.58934
2167 2 0.476654 0.470417 0.630402
2169 4 0.470498 0.46472 0.606847
2168 4 0.48281 0.476115 0.653956
1250 4 0.469514 0.461696 0.658047
1185 4 0.0559578 0.00645657 0.703666
96 1 0.231508 0.0413598 0.671404
97 3 0.235364 0.0229027 0.68458
2202 4 0.219412 0.0489474 0.701311
99 3 0.215976 0.0549939 0.681952
2262 4 0.224241 0.0301822 0.701964
2200 2 0.218578 0.0657442 0.719814
2260 2 0.222248 0.00951265 0.715891
2201 4 0.217743 0.0825411 0.738317
100 3 0.251047 0.0526806 0.668448
2398 2 0.377672 0.0459613 0.723121
2400 4 0.354937 0.0422285 0.713405
2322 4 0.397083 0.0570917 0.703062
2399 4 0.400406 0.0496941 0.732836
2342 4 0.420212 0.00783373 0.71713
2320 2 0.418804 0.0577028 0.690693
1162 2 0.474237 0.0526353 0.682978
2321 4 0.440526 0.0583139 0.678325
1163 4 0.45167 0.0418997 0.682166
1164 4 0.496804 0.0633709 0.683791
1924 2 0.441506 0.0385355 0.745925
1926 4 0.419338 0.0491811 0.741405
1076 4 0.00955384 0.14989 0.675788
1077 4 0.0246313 0.12229 0.714668
864 4 0.0366599 0.117851 0.731037
1075 2 0.0170926 0.13609 0.695228
1225 2 0.141235 0.138143 0.717096
1227 4 0.121623 0.153298 0.7138
1226 4 0.160846 0.122987 0.720393
1148 4 0.176362 0.133325 0.726671
1147 2 0.192245 0.116253 0.735695
1149 4 0.208128 0.0991805 0.744719
43 3 0.250751 0.147497 0.746149
3252 4 0.412762 0.112915 0.677953
1243 2 0.00213718 0.237647 0.667754
1245 4 0.00664166 0.248015 0.690057
948 4 0.162796 0.235036 0.665945
1073 4 0.0859121 0.170563 0.685462
1072 2 0.0992956 0.189222 0.695356
1074 4 0.112679 0.207881 0.705251
893 4 0.123143 0.224333 0.713582
947 4 0.130432 0.213048 0.697086
946 2 0.146614 0.224042 0.681515
1277 4 0.157685 0.214904 0.736033
892 2 0.107606 0.239486 0.725998
917 4 0.219667 0.238428 0.748188
916 2 0.225685 0.217295 0.736259
45 3 0.238388 0.182617 0.740547
918 4 0.231703 0.196161 0.724329
1276 2 0.171025 0.231729 0.748844
830 4 0.320052 0.166997 0.683574
809 4 0.300877 0.19776 0.742914
808 2 0.276959 0.19646 0.735743
810 4 0.253041 0.19516 0.728572
3204 4 0.321419 0.205005 0.743558
831 4 0.31457 0.191222 0.726977
829 2 0.317311 0.17911 0.705276
3202 2 0.346221 0.207722 0.741928
3203 4 0.371023 0.21044 0.740297
3486 4 0.387965 0.210434 0.731525
3484 2 0.405621 0.225352 0.721991
3485 4 0.423277 0.24027 0.712457
1179 4 0.0012245 0.255034 0.707969
894 4 0.092069 0.254639 0.738414
821 4 0.112146 0.308256 0.743999
3276 4 0.0152436 0.360295 0.677418
816 4 0.0648311 0.375052 0.746236
815 4 0.102464 0.37269 0.71339
814 2 0.0836478 0.373871 0.729813
942 4 0.11017 0.37497 0.693203
940 2 0.132737 0.380268 0.702575
941 4 0.155304 0.385566 0.711948
1080 4 0.14976 0.411435 0.698406
2013 4 0.159667 0.405529 0.715752
1068 4 0.215133 0.411017 0.678576
1067 4 0.169751 0.406667 0.699124
1028 4 0.240887 0.412902 0.676671
1066 2 0.192442 0.408842 0.68885
2011 2 0.17021 0.402658 0.738241
1027 2 0.258462 0.395352 0.679552
1029 4 0.276036 0.377801 0.682432
1008 4 0.411368 0.371921 0.672461
998 4 0.391818 0.379692 0.710285
997 2 0.390974 0.402009 0.721528
1280 4 0.0750003 0.443465 0.687972
1279 2 0.0778481 0.439961 0.712565
1281 4 0.0806958 0.436458 0.737157
2015 4 0.119832 0.454549 0.686382
1079 4 0.139075 0.459901 0.69227
2014 2 0.109996 0.476601 0.679891
1078 2 0.144417 0.435668 0.695338
2016 4 0.100161 0.498654 0.6734
1952 4 0.254392 0.499238 0.668535
928 2 0.320057 0.495298 0.72019
1229 4 0.331202 0.463265 0.707459
929 4 0.329908 0.483245 0.700623
1228 2 0.33812 0.444503 0.722469
1230 4 0.345038 0.425741 0.73748
999 4 0.390131 0.424327 0.73277
1205 4 0.394547 0.443455 0.73489
1204 2 0.411542 0.454502 0.720252