ITEM: TIMESTEP
1960000
ITEM: NUMBER OF ATOMS
4590
ITEM: BOX BOUNDS pp pp pp
-9.9985700000000008e+00 9.9985700000000008e+00
-9.9985700000000008e+00 9.9985700000000008e+00
-9.9985700000000008e+00 9.9985700000000008e+00
ITEM: ATOMS id type xs ys zs
463 2 0.0157032 0.0232476 0.0618841
464 4 0.0354737 0.0383112 0.0591649
491 4 0.237001 0.0159134 0.0506841
490 2 0.256478 0.0239054 0.0371961
492 4 0.275956 0.0318974 0.023708
486 4 0.293968 0.0226976 0.0270388
484 2 0.317116 0.0138966 0.0304866
485 4 0.340264 0.00509553 0.0339343
1607 4 0.354685 0.013528 0.0218536
2724 4 0.416426 0.0396545 0.0699652
2722 2 0.428771 0.0338214 0.0490183
2469 4 0.443969 0.0224215 0.0077723
1759 2 0.479576 0.0183691 0.0372413
1761 4 0.498489 0.0137932 0.0529425
1760 4 0.460663 0.022945 0.0215401
2723 4 0.441115 0.0279882 0.0280713
358 2 0.245022 0.114237 0.0207397
360 4 0.254061 0.113074 0.0440229
664 2 0.360078 0.131801 0.061851
666 4 0.358492 0.146126 0.0414193
866 4 0.350001 0.137941 0.0245898
770 4 0.451209 0.156654 0.0703256
769 2 0.474054 0.163911 0.0774376
555 4 0.0964978 0.223027 0.0170819
505 2 0.159737 0.23316 0.0634033
507 4 0.157631 0.227042 0.0392514
353 4 0.255112 0.219549 0.0723245
826 2 0.375498 0.250715 0.00103835
288 4 0.117499 0.326635 0.0191398
286 2 0.126532 0.313345 0.999984
755 4 0.263066 0.314276 0.0344309
754 2 0.277409 0.308098 0.0539575
756 4 0.291752 0.30192 0.0734841
740 4 0.303566 0.317903 0.0725475
739 2 0.320531 0.335255 0.0785717
1071 4 0.359831 0.285325 0.0186766
827 4 0.362532 0.264776 0.0171419
1069 2 0.345889 0.296222 0.00101097
1304 4 0.458989 0.311473 0.0366788
1303 2 0.460498 0.309428 0.0615528
1306 2 0.450695 0.261853 0.0125733
1308 4 0.439564 0.273511 0.0316874
621 4 0.0363078 0.387056 0.0211642
2787 4 0.0481062 0.378592 0.0376848
2785 2 0.0548032 0.374377 0.0614031
2786 4 0.0615003 0.370162 0.0851215
913 2 0.110452 0.372106 0.0250309
914 4 0.111269 0.347732 0.0195162
915 4 0.109636 0.39648 0.0305456
251 4 0.32773 0.40844 0.0480888
609 4 0.32582 0.41445 0.0670895
1094 4 0.434042 0.364185 0.0210846
1095 4 0.474765 0.374248 0.0483069
2841 4 0.483389 0.392845 0.0431861
1093 2 0.454403 0.369217 0.0346957
102 3 0.493837 0.380038 0.0550815
1167 4 0.487175 0.332573 0.00527701
2839 2 0.48193 0.413535 0.0292233
293 4 0.117004 0.414853 0.0324741
292 2 0.120727 0.438809 0.0385909
552 4 0.119198 0.472501 0.0245015
294 4 0.12445 0.462765 0.0447077
1439 4 0.130551 0.480502 0.0387987
550 2 0.111364 0.483715 0.0035715
903 4 0.21486 0.4148 0.0227973
901 2 0.234635 0.4301 0.0229138
250 2 0.310219 0.420271 0.0347257
252 4 0.292708 0.432102 0.0213627
902 4 0.254411 0.4454 0.0230304
244 2 0.27698 0.455935 0.0575988
246 4 0.267711 0.448435 0.0356213
1289 4 0.273284 0.441638 0.0168799
245 4 0.286249 0.463436 0.0795764
2840 4 0.480471 0.434225 0.0152604
1806 4 0.139934 0.0125752 0.138709
579 4 0.148353 0.0313121 0.139468
582 4 0.162177 0.0829352 0.164557
577 2 0.168357 0.0326477 0.124527
423 4 0.173019 0.0659299 0.0897852
578 4 0.188362 0.0339832 0.109587
421 2 0.185114 0.0816477 0.105012
653 4 0.25397 0.0751333 0.162431
24 3 0.388559 0.0287696 0.147295
21 1 0.385612 0.0500531 0.156055
22 3 0.38741 0.0654166 0.139029
23 3 0.364531 0.0518486 0.165583
297 4 0.476686 0.0608138 0.135616
295 2 0.459862 0.0787746 0.140036
236 4 0.0767119 0.116992 0.138724
381 4 0.00328325 0.0880502 0.133683
235 2 0.0932471 0.135711 0.139897
237 4 0.109782 0.15443 0.14107
422 4 0.197208 0.0973654 0.120239
532 2 0.223164 0.122882 0.136822
534 4 0.20138 0.11626 0.126489
533 4 0.244948 0.129504 0.147155
665 4 0.361663 0.117476 0.0822827
557 4 0.4034 0.117282 0.0906495
556 2 0.415894 0.110338 0.111164
558 4 0.428388 0.103393 0.131679
629 4 0.429627 0.109715 0.150088
296 4 0.443037 0.0967354 0.144455
476 4 0.0814803 0.205289 0.113163
506 4 0.161844 0.239278 0.0875551
475 2 0.0972053 0.188886 0.123597
477 4 0.11293 0.172483 0.13403
736 2 0.153435 0.219024 0.157241
737 4 0.163482 0.235269 0.141106
352 2 0.244488 0.233049 0.0904921
311 4 0.288866 0.201363 0.0963492
310 2 0.290901 0.207722 0.120445
312 4 0.292936 0.21408 0.144541
461 4 0.295824 0.225455 0.161192
460 2 0.317782 0.23739 0.16196
462 4 0.33974 0.249325 0.162727
771 4 0.4969 0.171169 0.0845496
519 4 0.474832 0.245993 0.10773
528 4 0.492332 0.243761 0.114267
517 2 0.453281 0.239529 0.118636
728 4 0.415226 0.239499 0.139056
518 4 0.43173 0.233065 0.129542
648 4 0.0700497 0.306275 0.159263
836 4 0.110116 0.324568 0.0872849
338 4 0.145165 0.29189 0.109585
646 2 0.0924023 0.317468 0.158752
337 2 0.155287 0.27389 0.123681
647 4 0.114755 0.32866 0.158241
339 4 0.16541 0.255889 0.137776
372 4 0.174671 0.257822 0.15405
283 2 0.202714 0.245037 0.128363
284 4 0.177909 0.242095 0.127259
354 4 0.233863 0.246548 0.10866
285 4 0.22752 0.247979 0.129467
764 4 0.231363 0.264847 0.117535
763 2 0.251762 0.277915 0.12372
765 4 0.272162 0.290984 0.129905
610 2 0.281178 0.316107 0.159418
612 4 0.281151 0.308217 0.135691
322 2 0.330566 0.285666 0.142359
323 4 0.319271 0.303934 0.129557
324 4 0.341861 0.267398 0.15516
624 4 0.398698 0.31574 0.118829
255 4 0.357541 0.264075 0.165421
1305 4 0.462008 0.307383 0.0864269
2652 4 0.495754 0.311738 0.118309
595 2 0.49382 0.294489 0.159043
596 4 0.491896 0.301881 0.135234
837 4 0.078448 0.363124 0.0906415
313 2 0.0564671 0.385469 0.121236
314 4 0.0704722 0.371191 0.106231
315 4 0.0424621 0.399747 0.136242
1757 4 0.0536794 0.390922 0.150797
835 2 0.0942818 0.343846 0.0889632
705 4 0.130397 0.339106 0.154095
703 2 0.147502 0.356872 0.158214
704 4 0.164607 0.374638 0.162333
417 4 0.171856 0.392065 0.160848
454 2 0.194916 0.381194 0.132595
455 4 0.215281 0.389408 0.120637
456 4 0.174552 0.37298 0.144553
741 4 0.337496 0.352607 0.084596
622 2 0.40504 0.335911 0.132174
386 4 0.337277 0.349393 0.105739
387 4 0.370292 0.373877 0.134222
385 2 0.353784 0.361635 0.119981
13 3 0.37224 0.374899 0.15477
11 1 0.390832 0.388685 0.153126
623 4 0.411382 0.356082 0.145519
15 3 0.386227 0.406349 0.139509
12 3 0.408279 0.376613 0.144237
625 2 0.224405 0.498343 0.152072
627 4 0.222157 0.476078 0.163225
1628 4 0.28326 0.504413 0.0918976
607 2 0.33895 0.427909 0.0835706
494 4 0.372569 0.416985 0.129153
525 4 0.339062 0.457039 0.148066
523 2 0.339826 0.478801 0.135777
608 4 0.35208 0.441369 0.100052
524 4 0.340589 0.500563 0.123489
659 4 0.398944 0.468124 0.138445
495 4 0.398252 0.458936 0.120143
493 2 0.385411 0.43796 0.124648
658 2 0.406827 0.484746 0.155378
513 4 0.0402167 0.0743715 0.233155
531 4 0.0225034 0.0831327 0.234355
529 2 0.999601 0.081617 0.224438
511 2 0.0546571 0.0600573 0.247707
581 4 0.191968 0.0498507 0.187331
654 4 0.211083 0.0595617 0.182899
580 2 0.177072 0.066393 0.175944
652 2 0.232526 0.0673475 0.172665
675 4 0.256073 0.0287335 0.210271
673 2 0.257041 0.0248114 0.234946
759 4 0.396778 0.0580121 0.19117
25 3 0.4016 0.0542964 0.171708
757 2 0.388695 0.0601024 0.214739
758 4 0.380612 0.0621928 0.238308
479 4 0.452122 0.038504 0.242783
565 2 0.136346 0.108816 0.175984
566 4 0.128921 0.132473 0.179216
567 4 0.143771 0.0851605 0.172753
598 2 0.16078 0.149069 0.223992
599 4 0.146422 0.167016 0.233836
600 4 0.175139 0.131122 0.214148
29 3 0.293103 0.13071 0.227919
26 1 0.290998 0.153494 0.231775
28 3 0.304958 0.165273 0.217465
30 3 0.269389 0.159948 0.228606
628 2 0.42623 0.127579 0.167249
630 4 0.422832 0.145443 0.184411
738 4 0.143388 0.202778 0.173375
393 4 0.109509 0.212824 0.211197
391 2 0.118772 0.191507 0.220413
392 4 0.128034 0.170189 0.22963
249 4 0.14951 0.187502 0.23906
727 2 0.414265 0.234963 0.163626
729 4 0.413304 0.230427 0.188196
309 4 0.381554 0.187619 0.221853
307 2 0.389038 0.206762 0.207615
308 4 0.396523 0.225905 0.193378
332 4 0.493222 0.172263 0.231611
331 2 0.493793 0.197223 0.230249
333 4 0.494364 0.222182 0.228887
2682 4 0.492832 0.238836 0.238981
2453 4 0.495914 0.238613 0.217498
2452 2 0.499465 0.239338 0.192758
363 4 0.0491248 0.279898 0.231388
361 2 0.0682978 0.29134 0.220134
362 4 0.0874707 0.302781 0.208879
748 2 0.128171 0.319194 0.213656
750 4 0.106875 0.306533 0.210285
370 2 0.183635 0.268613 0.174747
371 4 0.1926 0.279404 0.195444
611 4 0.281205 0.323997 0.183144
254 4 0.380906 0.238084 0.201188
498 4 0.399323 0.245786 0.200355
253 2 0.369223 0.25108 0.183305
496 2 0.40777 0.262964 0.21644
497 4 0.416217 0.280143 0.232525
597 4 0.495744 0.287098 0.182851
521 4 0.500074 0.292783 0.202944
1756 2 0.0623515 0.401885 0.171528
1758 4 0.0710235 0.412848 0.192259
749 4 0.149467 0.331855 0.217027
415 2 0.16053 0.407198 0.177215
298 2 0.163824 0.353002 0.239339
299 4 0.167815 0.339978 0.218372
302 4 0.289266 0.340728 0.185398
301 2 0.306149 0.351106 0.200644
303 4 0.323031 0.361484 0.215891
14 3 0.396935 0.396298 0.174178
645 4 0.39899 0.394012 0.194035
643 2 0.417106 0.408523 0.203332
107 3 0.462965 0.414203 0.223052
3716 4 0.0186923 0.486255 0.192307
3715 2 0.0334216 0.495077 0.210484
1790 4 0.0135132 0.488154 0.173795
603 4 0.0871458 0.425117 0.191467
290 4 0.135566 0.43418 0.235605
416 4 0.149204 0.422331 0.193583
602 4 0.130507 0.430538 0.21578
601 2 0.108827 0.427827 0.203623
638 4 0.139078 0.447667 0.221319
637 2 0.148907 0.469629 0.214518
639 4 0.158736 0.491591 0.207717
109 3 0.478255 0.439977 0.200367
644 4 0.435222 0.423033 0.21263
110 3 0.442286 0.442886 0.211111
106 1 0.463162 0.436565 0.217658
108 3 0.469626 0.448728 0.236331
512 4 0.0690974 0.0457431 0.262259
546 4 0.128905 0.0610432 0.294272
691 2 0.150752 0.0258485 0.298563
693 4 0.13285 0.0432936 0.299186
731 4 0.130131 0.0517985 0.315398
730 2 0.115329 0.0662865 0.329405
544 2 0.124636 0.076627 0.27519
692 4 0.168653 0.00840342 0.297939
427 2 0.236839 0.00645449 0.293176
604 2 0.191618 0.0574809 0.32316
606 4 0.181103 0.0801216 0.321749
468 4 0.242047 0.077083 0.276102
605 4 0.202134 0.0348401 0.324571
429 4 0.257819 0.020031 0.292345
466 2 0.253923 0.0573173 0.28577
467 4 0.265799 0.0375516 0.295437
674 4 0.258009 0.0208894 0.259621
1463 4 0.277978 0.0207737 0.295181
1462 2 0.292249 0.0101688 0.277601
744 4 0.368906 0.0652975 0.255856
742 2 0.367703 0.0744571 0.279091
478 2 0.453969 0.0442072 0.267057
480 4 0.455816 0.0499103 0.291331
2739 4 0.0199762 0.102411 0.268706
2737 2 0.00958785 0.0916927 0.288766
545 4 0.120366 0.0922109 0.256109
399 4 0.165727 0.11986 0.323678
2483 4 0.122562 0.138741 0.281823
2482 2 0.129515 0.156472 0.265623
397 2 0.165773 0.143872 0.316708
474 4 0.221077 0.12533 0.288936
472 2 0.2048 0.11149 0.301925
473 4 0.188523 0.0976499 0.314914
276 4 0.175186 0.0994398 0.328731
27 3 0.297132 0.157958 0.253492
683 4 0.269796 0.107691 0.322857
682 2 0.279984 0.130417 0.325071
684 4 0.290172 0.153143 0.327286
707 4 0.317383 0.124385 0.299493
632 4 0.30703 0.16819 0.264793
726 4 0.308162 0.158309 0.332517
743 4 0.366501 0.0836167 0.302325
706 2 0.338344 0.112326 0.305849
708 4 0.359305 0.100267 0.312204
349 2 0.394543 0.123081 0.304121
351 4 0.371958 0.114488 0.310547
350 4 0.417127 0.131673 0.297694
451 2 0.449103 0.14187 0.299029
452 4 0.432208 0.125664 0.307811
453 4 0.465998 0.158075 0.290247
389 4 0.0296103 0.23239 0.283595
2484 4 0.136468 0.174203 0.249423
403 2 0.121125 0.207354 0.300798
404 4 0.140457 0.194184 0.291966
405 4 0.101793 0.220525 0.30963
398 4 0.16582 0.167884 0.309737
247 2 0.169179 0.191654 0.253928
248 4 0.188849 0.195805 0.268795
279 4 0.203935 0.204611 0.27803
277 2 0.220169 0.223618 0.277398
278 4 0.236403 0.242624 0.276765
633 4 0.305131 0.162914 0.314485
631 2 0.30608 0.165552 0.289639
2680 2 0.50097 0.243388 0.262181
304 2 0.437831 0.245788 0.322443
388 2 0.0429811 0.250024 0.295233
444 4 0.0742537 0.259326 0.308331
390 4 0.0563519 0.267658 0.30687
442 2 0.087955 0.271665 0.325219
735 4 0.117619 0.323432 0.290302
535 2 0.224832 0.282285 0.267494
537 4 0.222421 0.305238 0.257874
536 4 0.227244 0.259333 0.277114
419 4 0.365684 0.255006 0.272028
420 4 0.410573 0.265402 0.291461
418 2 0.388129 0.260204 0.281744
306 4 0.42296 0.255095 0.304628
548 4 0.0743685 0.350207 0.31903
547 2 0.0513347 0.355349 0.327288
3959 4 0.0102315 0.398308 0.287215
3958 2 0.0321686 0.397379 0.299176
681 4 0.0136381 0.369817 0.326288
3960 4 0.0541057 0.39645 0.311138
1319 4 0.00209627 0.397542 0.267664
733 2 0.134559 0.340119 0.282571
734 4 0.151499 0.356806 0.27484
767 4 0.162489 0.374325 0.278511
766 2 0.159783 0.390224 0.297618
300 4 0.159832 0.366026 0.260307
768 4 0.157078 0.406124 0.316724
291 4 0.155222 0.406106 0.272022
438 4 0.252895 0.386019 0.331366
436 2 0.271427 0.402754 0.330068
434 4 0.413468 0.358632 0.313963
433 2 0.431747 0.364264 0.330067
289 2 0.145394 0.420143 0.253814
499 2 0.126859 0.449414 0.305749
500 4 0.126933 0.428653 0.291816
501 4 0.126784 0.470176 0.319682
776 4 0.109212 0.480548 0.319526
414 4 0.167568 0.419978 0.321895
437 4 0.289959 0.419489 0.328769
542 4 0.453085 0.477566 0.282432
541 2 0.457447 0.474739 0.306889
543 4 0.46181 0.471911 0.331346
447 4 0.475035 0.48693 0.332191
316 2 0.00683233 0.0808198 0.36283
318 4 0.0300385 0.0755946 0.370534
732 4 0.100528 0.0807745 0.343412
439 2 0.210703 0.0329639 0.367722
440 4 0.201245 0.0330078 0.344576
441 4 0.220162 0.0329201 0.390867
699 4 0.31724 0.0141826 0.393512
1671 4 0.314049 0.99451 0.393753
697 2 0.321263 0.0364924 0.40406
1518 4 0.327241 0.00253943 0.380487
1516 2 0.34911 0.00693579 0.369191
1517 4 0.370978 0.0113321 0.357894
274 2 0.179473 0.104391 0.352862
373 2 0.212997 0.137771 0.392409
375 4 0.1997 0.119249 0.382147
275 4 0.18376 0.109342 0.376992
374 4 0.226293 0.156294 0.402671
724 2 0.32287 0.164279 0.351835
430 2 0.333288 0.137847 0.401187
431 4 0.338459 0.156106 0.384906
258 4 0.419817 0.0911669 0.413183
256 2 0.43195 0.0980099 0.392419
257 4 0.444083 0.104853 0.371655
516 4 0.43902 0.124332 0.364911
1581 4 0.456595 0.120835 0.371934
1579 2 0.48145 0.122927 0.37018
514 2 0.432129 0.146127 0.354778
510 4 0.237324 0.172383 0.397825
489 4 0.286304 0.218796 0.352177
508 2 0.249237 0.192514 0.406656
487 2 0.27963 0.219626 0.376259
488 4 0.272955 0.220455 0.400341
509 4 0.261151 0.212645 0.415486
717 4 0.26872 0.232066 0.416887
725 4 0.337579 0.170249 0.371153
305 4 0.452702 0.23648 0.340259
515 4 0.425238 0.167922 0.344645
265 2 0.432188 0.198671 0.416041
267 4 0.441726 0.199748 0.392953
616 2 0.0559386 0.306156 0.409776
617 4 0.0341997 0.296996 0.418064
618 4 0.0776775 0.315315 0.401487
407 4 0.0874348 0.323984 0.386854
443 4 0.101656 0.284005 0.342106
408 4 0.0881682 0.29932 0.343359
406 2 0.0878015 0.311652 0.365106
400 2 0.221088 0.308226 0.378455
1260 4 0.232538 0.29109 0.408463
401 4 0.227213 0.286927 0.390032
402 4 0.214963 0.329525 0.366878
715 2 0.281353 0.253616 0.415792
716 4 0.293985 0.275166 0.414697
594 4 0.2928 0.325585 0.404967
593 4 0.308998 0.327193 0.357684
592 2 0.300899 0.326389 0.381326
377 4 0.374453 0.321284 0.352688
376 2 0.350197 0.326956 0.350535
549 4 0.0283009 0.360491 0.335545
677 4 0.171948 0.348073 0.408018
344 4 0.216603 0.390509 0.334094
676 2 0.185286 0.34773 0.386872
343 2 0.216524 0.368495 0.34595
345 4 0.216445 0.346481 0.357806
678 4 0.198623 0.347387 0.365726
378 4 0.32594 0.332628 0.348381
588 4 0.498973 0.395321 0.374748
586 2 0.475917 0.388053 0.368362
587 4 0.452862 0.380785 0.361976
435 4 0.450026 0.369896 0.346171
412 2 0.172997 0.43979 0.336149
1435 2 0.21747 0.473689 0.344493
1436 4 0.197644 0.458466 0.345076
413 4 0.178426 0.459601 0.350404
1437 4 0.237296 0.488912 0.343909
1557 4 0.276541 0.448368 0.37667
1555 2 0.282882 0.471323 0.36905
1556 4 0.289222 0.494277 0.36143
336 4 0.357872 0.479295 0.394087
1741 2 0.496781 0.464712 0.399676
1742 4 0.475334 0.46148 0.412116
120 3 0.465161 0.443888 0.417926
1602 4 0.0420421 0.00634421 0.427514
939 4 0.00797775 0.0329568 0.432286
937 2 0.0035414 0.0570835 0.437123
698 4 0.325286 0.0588023 0.414608
962 4 0.249207 0.0754198 0.461175
1817 4 0.254364 0.0598894 0.470737
1816 2 0.262181 0.0364426 0.474521
1818 4 0.269998 0.0129958 0.478305
1059 4 0.00282311 0.107732 0.454232
1057 2 0.0276979 0.105217 0.453919
1058 4 0.0525727 0.102702 0.453606
260 4 0.138855 0.132578 0.475811
259 2 0.136029 0.151628 0.491757
687 4 0.197143 0.12748 0.428312
685 2 0.202394 0.125572 0.452684
686 4 0.207645 0.123664 0.477055
961 2 0.262035 0.0968209 0.462795
963 4 0.274862 0.118222 0.464415
432 4 0.328117 0.119588 0.417467
425 4 0.324051 0.103331 0.429498
424 2 0.336579 0.101064 0.451018
426 4 0.349107 0.0987977 0.472537
710 4 0.246385 0.244127 0.450637
649 2 0.322917 0.199761 0.48275
650 4 0.302637 0.214005 0.479436
711 4 0.281279 0.217996 0.475137
709 2 0.263832 0.231062 0.462887
576 4 0.419201 0.199605 0.49373
651 4 0.343198 0.185517 0.486065
320 4 0.352507 0.167419 0.486938
411 4 0.360897 0.182573 0.497349
574 2 0.425923 0.206118 0.470544
575 4 0.432646 0.212632 0.447359
266 4 0.42265 0.197594 0.439129
1135 2 0.141705 0.298113 0.480168
1136 4 0.146889 0.288755 0.457569
1258 2 0.232221 0.273268 0.425997
1259 4 0.231903 0.255446 0.443531
2813 4 0.0620461 0.339218 0.456707
2812 2 0.0734792 0.353037 0.474128
2814 4 0.0849122 0.366856 0.49155
1189 2 0.193939 0.406661 0.479839
1191 4 0.203187 0.384565 0.487011
240 4 0.333428 0.411734 0.479005
119 3 0.453092 0.409094 0.425763
3989 4 0.439362 0.394589 0.421052
3988 2 0.438153 0.370885 0.428916
3990 4 0.436943 0.347182 0.43678
383 4 0.0700348 0.436052 0.444014
382 2 0.0837632 0.427313 0.462996
384 4 0.0974915 0.418574 0.481979
503 4 0.136687 0.427941 0.424629
502 2 0.14647 0.450224 0.43037
1159 2 0.149435 0.434657 0.487013
773 4 0.158449 0.488194 0.448392
504 4 0.156253 0.472507 0.43611
772 2 0.163979 0.488652 0.472773
1160 4 0.129047 0.42862 0.500167
1190 4 0.184691 0.428756 0.472666
1172 4 0.229807 0.463695 0.44698
1161 4 0.169824 0.440695 0.47386
1173 4 0.185897 0.449712 0.466401
1171 2 0.207852 0.456703 0.456691
661 2 0.377249 0.480088 0.479503
663 4 0.381323 0.468168 0.457904
118 3 0.473379 0.428572 0.451326
1269 4 0.456137 0.484298 0.490736
1268 4 0.467489 0.445473 0.461334
116 1 0.45756 0.430152 0.434425
1267 2 0.461813 0.464886 0.476035
3603 4 0.494689 0.428092 0.452229
117 3 0.438156 0.438857 0.443191
824 4 0.0708145 0.0802671 0.531168
2319 4 0.0757721 0.0395409 0.578289
1182 4 0.226809 0.0369946 0.562831
1180 2 0.247622 0.0348558 0.549142
1031 4 0.215598 0.0355442 0.579654
1181 4 0.268436 0.032717 0.535452
2333 4 0.309478 0.0518558 0.52988
2332 2 0.298422 0.0420959 0.509688
2334 4 0.287366 0.032336 0.489497
1005 4 0.334582 0.0561863 0.549032
842 4 0.312032 0.0576801 0.547513
841 2 0.297857 0.0537513 0.567732
1217 4 0.320438 0.0692716 0.532948
1003 2 0.359328 0.0550293 0.552417
1004 4 0.384075 0.0538723 0.555803
4467 4 0.469609 0.0692188 0.550066
3007 2 0.452961 0.0347474 0.533719
3009 4 0.451612 0.0114575 0.524723
3008 4 0.45431 0.0580373 0.542716
4465 2 0.488431 0.0631823 0.565378
823 2 0.0662202 0.0877572 0.554577
2429 4 0.0770137 0.0897124 0.51476
825 4 0.0616259 0.0952473 0.577985
879 4 0.0664491 0.149489 0.554514
877 2 0.0437083 0.159455 0.551564
1272 4 0.082679 0.14087 0.562885
2428 2 0.101793 0.0906503 0.511555
1270 2 0.095369 0.154354 0.579687
2430 4 0.126573 0.0915883 0.508351
1151 4 0.217443 0.115067 0.559233
1150 2 0.241373 0.112477 0.552463
945 4 0.197957 0.115151 0.568408
1219 2 0.190972 0.146032 0.553593
1220 4 0.199765 0.122673 0.552102
943 2 0.191055 0.0968999 0.584042
1216 2 0.314767 0.0931433 0.537761
1152 4 0.265303 0.109887 0.545694
1218 4 0.309096 0.117015 0.542573
900 4 0.326624 0.126891 0.542166
321 4 0.33142 0.13063 0.513445
898 2 0.340634 0.139697 0.558442
899 4 0.354643 0.152503 0.574719
1194 4 0.368389 0.167764 0.579338
319 2 0.341963 0.149025 0.500192
3053 4 0.451801 0.104747 0.531856
3052 2 0.459627 0.10834 0.555329
3054 4 0.467454 0.111934 0.578803
878 4 0.0209676 0.169422 0.548613
470 4 0.00112828 0.174546 0.552585
908 4 0.100071 0.217802 0.576588
1033 2 0.14085 0.197989 0.542229
1034 4 0.146938 0.214374 0.560108
1035 4 0.134761 0.181605 0.52435
261 4 0.133203 0.170679 0.507703
1221 4 0.182179 0.169391 0.555085
790 2 0.282832 0.226067 0.546677
791 4 0.275144 0.203411 0.553943
409 2 0.383012 0.192202 0.503935
410 4 0.405127 0.201832 0.51052
2845 2 0.0470385 0.321983 0.582746
2846 4 0.0590542 0.316899 0.561417
1041 4 0.122482 0.313707 0.51475
1137 4 0.13652 0.307471 0.502767
792 4 0.290521 0.248722 0.539412
804 4 0.307149 0.257495 0.544675
812 4 0.288453 0.2672 0.53856
811 2 0.274239 0.287463 0.535012
813 4 0.260026 0.307726 0.531465
802 2 0.316839 0.268405 0.564979
803 4 0.326528 0.279315 0.585283
1039 2 0.108835 0.33422 0.510489
1040 4 0.0951882 0.354733 0.506228
895 2 0.118867 0.414974 0.541306
896 4 0.117354 0.414681 0.566262
239 4 0.309229 0.405988 0.522389
238 2 0.321328 0.408861 0.500697
1938 4 0.0114683 0.461062 0.562084
897 4 0.120379 0.415266 0.51635
538 2 0.170225 0.473822 0.536602
540 4 0.174288 0.485228 0.514725
774 4 0.169508 0.48911 0.497153
539 4 0.166162 0.462416 0.558478
1187 4 0.248033 0.498198 0.522681
1394 4 0.180599 0.501971 0.505712
1186 2 0.263568 0.479485 0.528485
1188 4 0.279103 0.460773 0.534289
1000 2 0.368034 0.475231 0.533996
1001 4 0.368124 0.454106 0.547371
1002 4 0.367944 0.496356 0.520621
662 4 0.373175 0.492008 0.501101
4149 4 0.429453 0.476782 0.553099
4084 2 0.476804 0.489534 0.523826
4085 4 0.467905 0.497014 0.501689
4147 2 0.443683 0.478303 0.573602
4086 4 0.485703 0.482055 0.545963
2317 2 0.0537665 0.0440901 0.589254
2318 4 0.0317609 0.0486393 0.600219
1030 2 0.206482 0.0386294 0.602731
1032 4 0.197365 0.0417146 0.625808
944 4 0.184152 0.0786489 0.599676
950 4 0.251111 0.0276614 0.647837
949 2 0.261649 0.0317826 0.62554
951 4 0.272187 0.0359039 0.603243
843 4 0.283682 0.0498225 0.587951
1198 2 0.0448869 0.143323 0.656964
1200 4 0.0598798 0.158291 0.643685
3266 4 0.0109127 0.126601 0.662361
1271 4 0.108059 0.167839 0.596489
1283 4 0.166039 0.10267 0.623858
1155 4 0.157947 0.168103 0.619379
1073 4 0.114756 0.157942 0.662948
1282 2 0.166647 0.127614 0.625472
1284 4 0.167254 0.152558 0.627087
325 2 0.241179 0.166711 0.615073
326 4 0.265902 0.163853 0.612674
887 4 0.260891 0.103815 0.611573
886 2 0.276588 0.102695 0.631003
1238 4 0.283284 0.0990234 0.666315
888 4 0.292285 0.101574 0.650433
806 4 0.30599 0.103581 0.663563
1192 2 0.355951 0.166663 0.601
830 4 0.387242 0.143313 0.663532
3401 4 0.482764 0.124434 0.63975
3400 2 0.479961 0.114799 0.616849
3402 4 0.477158 0.105164 0.593947
1164 4 0.468223 0.112015 0.649568
852 4 0.00788155 0.198728 0.624962
851 4 0.0483535 0.170773 0.633976
907 2 0.0834143 0.209196 0.593131
909 4 0.0667571 0.20059 0.609673
850 2 0.0281175 0.18475 0.629469
1208 4 0.0166779 0.21697 0.625133
1207 2 0.0280717 0.23919 0.623851
1154 4 0.11448 0.186285 0.602624
1153 2 0.136213 0.177194 0.611002
1211 4 0.171591 0.172466 0.632934
327 4 0.216455 0.16957 0.617472
1210 2 0.184974 0.185958 0.649183
694 2 0.203081 0.247263 0.637312
695 4 0.188045 0.24163 0.618145
993 4 0.267684 0.244035 0.660972
1193 4 0.343513 0.165563 0.622663
1024 2 0.392394 0.226381 0.629426
1025 4 0.371871 0.240571 0.627805
1026 4 0.412918 0.212192 0.631047
954 4 0.426592 0.225635 0.62284
952 2 0.443754 0.235551 0.607599
953 4 0.460917 0.245466 0.592357
2847 4 0.0350229 0.327067 0.604076
1209 4 0.0394654 0.261409 0.62257
984 4 0.0300156 0.327255 0.625144
3263 4 0.0168145 0.328696 0.610296
857 4 0.117585 0.332176 0.601724
856 2 0.134878 0.33098 0.619743
858 4 0.152171 0.329785 0.637762
696 4 0.218117 0.252896 0.656479
796 2 0.189019 0.324135 0.647121
798 4 0.206704 0.317276 0.663411
797 4 0.171334 0.330995 0.630831
1263 4 0.493247 0.280526 0.631058
982 2 0.0514139 0.335709 0.634933
983 4 0.0728121 0.344164 0.644721
3275 4 0.0645422 0.358269 0.656993
1029 4 0.283773 0.41732 0.669436
1008 4 0.397271 0.371994 0.607573
1006 2 0.403827 0.36921 0.631541
1007 4 0.410382 0.366426 0.655509
3329 4 0.496345 0.375992 0.624126
2172 4 0.0863307 0.493641 0.650376
2016 4 0.0915838 0.476882 0.659239
1067 4 0.211268 0.439127 0.601358
1066 2 0.235011 0.440888 0.608995
1176 4 0.319922 0.439183 0.58772
1028 4 0.276539 0.440981 0.625979
1068 4 0.258755 0.442648 0.616633
1175 4 0.27588 0.451295 0.608076
1174 2 0.297901 0.445239 0.597898
1027 2 0.280156 0.429151 0.647707
4148 4 0.457913 0.479824 0.594104
2167 2 0.480754 0.46953 0.630771
2169 4 0.466974 0.47819 0.611789
2168 4 0.494535 0.460871 0.649752
1185 4 0.0725589 0.0169929 0.676214
100 3 0.244131 0.0299665 0.667232
98 3 0.211935 0.0191185 0.683462
96 1 0.234275 0.0243174 0.68697
2202 4 0.244455 0.0344638 0.718599
99 3 0.23605 0.0418888 0.70202
2262 4 0.245882 0.0143283 0.714431
2200 2 0.237286 0.0471415 0.738923
97 3 0.244905 0.0059037 0.69575
1111 2 0.330195 0.0130287 0.727581
2398 2 0.323932 0.0753414 0.729096
2399 4 0.333453 0.0527959 0.723975
1113 4 0.341969 0.0345472 0.722731
2322 4 0.350365 0.0485009 0.733763
2320 2 0.374607 0.0503346 0.739605
2321 4 0.398849 0.0521683 0.745447
2342 4 0.415438 0.0501885 0.733147
1926 4 0.416519 0.0425822 0.75143
2341 2 0.424137 0.0351641 0.715154
2343 4 0.432836 0.0201397 0.69716
1163 4 0.476439 0.0780167 0.685307
1199 4 0.029894 0.128354 0.670243
2991 4 0.00766297 0.11063 0.717684
1077 4 0.00918297 0.135099 0.718186
864 4 0.00316776 0.123358 0.732147
1075 2 0.00865668 0.158042 0.708261
862 2 0.0209403 0.114944 0.747591
1225 2 0.161623 0.115517 0.738519
1227 4 0.14791 0.12415 0.719476
45 3 0.247409 0.165235 0.745003
916 2 0.224842 0.163797 0.712137
917 4 0.216009 0.154152 0.690826
1237 2 0.272847 0.0924281 0.688058
1239 4 0.26241 0.0858329 0.709801
2400 4 0.31441 0.0978868 0.734217
805 2 0.325578 0.111669 0.676832
807 4 0.345167 0.119756 0.690101
829 2 0.377442 0.158996 0.68036
1162 2 0.472331 0.095016 0.667437
1076 4 0.0081304 0.180985 0.698335
60 3 0.0613603 0.230146 0.748829
894 4 0.0784698 0.224926 0.74729
1072 2 0.113061 0.176904 0.679157
946 2 0.143664 0.215451 0.698483
1074 4 0.111366 0.195866 0.695367
892 2 0.0891066 0.21248 0.728392
893 4 0.0997433 0.200034 0.709494
947 4 0.120427 0.209785 0.705772
1212 4 0.198357 0.199451 0.665431
8 3 0.212691 0.249862 0.700651
7 3 0.224858 0.215503 0.691484
6 1 0.208447 0.227137 0.70264
9 3 0.187887 0.222059 0.693158
918 4 0.233674 0.173441 0.733447
948 4 0.1669 0.221118 0.691194
10 3 0.20858 0.221101 0.724599
991 2 0.248054 0.250852 0.674879
810 4 0.315115 0.188929 0.72611
808 2 0.339744 0.18779 0.72195
831 4 0.367641 0.174679 0.697187
844 2 0.393303 0.171648 0.732518
846 4 0.378627 0.176288 0.712814
809 4 0.364373 0.186652 0.717789
3204 4 0.380075 0.192626 0.704818
3202 2 0.379608 0.217485 0.702173
3203 4 0.379142 0.242343 0.699528
845 4 0.407979 0.167009 0.752223
1065 4 0.216622 0.317156 0.681416
822 4 0.174229 0.301739 0.755847
992 4 0.228424 0.257669 0.688785
1063 2 0.216409 0.294016 0.690885
1064 4 0.216197 0.270875 0.700354
1236 4 0.193886 0.30262 0.757277
3485 4 0.404228 0.27881 0.742138
3484 2 0.384241 0.269623 0.754025
3274 2 0.0557316 0.376523 0.671634
3276 4 0.0469209 0.394777 0.686274
780 4 0.087705 0.338863 0.748534
815 4 0.120502 0.360775 0.699842
814 2 0.103268 0.358406 0.717802
942 4 0.158434 0.379369 0.712342
816 4 0.0860341 0.356038 0.735762
940 2 0.169754 0.401457 0.70932
3431 4 0.0161635 0.446364 0.672887
3430 2 0.00658092 0.466669 0.683889
885 4 0.0809366 0.428126 0.73653
1280 4 0.0468316 0.480884 0.704785
1279 2 0.060007 0.463664 0.717238
1281 4 0.0731825 0.446445 0.729691
2015 4 0.131531 0.471777 0.688885
1079 4 0.152447 0.477565 0.687549
2014 2 0.111557 0.474329 0.674062
2012 4 0.23847 0.421943 0.72298
1078 2 0.167975 0.460385 0.696978
941 4 0.181075 0.423545 0.706298
2011 2 0.219703 0.431641 0.709603
2013 4 0.200937 0.441339 0.696226
1080 4 0.183503 0.443205 0.706406
928 2 0.317574 0.486373 0.715451
929 4 0.334157 0.467661 0.715284
1229 4 0.338726 0.432038 0.734418
998 4 0.350753 0.43549 0.716381
997 2 0.373141 0.446458 0.718291
999 4 0.39553 0.457425 0.720201
1205 4 0.412236 0.470094 0.716398
1019 4 0.405671 0.46639 0.736942
1250 4 0.490738 0.46361 0.669639
1206 4 0.461117 0.480012 0.720003
1249 2 0.481665 0.464079 0.692934
1251 4 0.472592 0.464548 0.716229
1204 2 0.436677 0.475053 0.7182
1202 4 0.0110386 0.0803422 0.820014
2201 4 0.230117 0.0598192 0.759247
1149 4 0.219012 0.0738177 0.766718
1257 4 0.299634 0.0794176 0.778537
1925 4 0.408909 0.0107777 0.789262
1924 2 0.412714 0.0266799 0.770346
2442 4 0.485795 0.0396859 0.753463
2441 4 0.436579 0.0485454 0.753686
2440 2 0.461187 0.0441156 0.753575
1201 2 0.0220718 0.0919034 0.800784
1203 4 0.033105 0.103465 0.781554
863 4 0.0387127 0.10653 0.763035
1131 4 0.113281 0.154129 0.825949
1226 4 0.175337 0.106885 0.757561
1148 4 0.192927 0.115662 0.758388
1147 2 0.205969 0.0947397 0.762553
977 4 0.20786 0.157148 0.782938
44 3 0.224664 0.152679 0.772255
41 1 0.246378 0.158796 0.766823
1255 2 0.30724 0.090173 0.799789
43 3 0.260783 0.140982 0.770509
1086 4 0.331914 0.11287 0.82365
1256 4 0.314847 0.100928 0.82104
1084 2 0.348208 0.123205 0.807747
1085 4 0.364502 0.13354 0.791845
819 4 0.38233 0.139908 0.794289
817 2 0.40456 0.128489 0.795069
1110 4 0.395315 0.101034 0.824769
818 4 0.42679 0.11707 0.795849
1106 4 0.0150073 0.195023 0.758511
989 4 0.072057 0.243502 0.756726
58 3 0.0400098 0.228124 0.779776
1104 4 0.0533225 0.240972 0.77787
57 3 0.0328795 0.206065 0.750192
56 1 0.0495937 0.216126 0.76238
59 3 0.063615 0.199701 0.770868
1105 2 0.000759714 0.193237 0.77898
1130 4 0.12622 0.191317 0.795122
1129 2 0.119751 0.172723 0.810536
1277 4 0.172709 0.207652 0.763221
1276 2 0.190773 0.223742 0.756897
978 4 0.170874 0.187917 0.769299
976 2 0.189367 0.172532 0.776118
1278 4 0.208837 0.239832 0.750573
42 3 0.252722 0.176385 0.780221
1298 4 0.311296 0.172022 0.824225
1143 4 0.29807 0.184624 0.82285
1142 4 0.271668 0.173103 0.781973
1141 2 0.284869 0.178863 0.802412
1297 2 0.333426 0.180789 0.831877
48 3 0.415475 0.186594 0.815528
1043 4 0.427727 0.230653 0.793004
49 3 0.430424 0.220944 0.809125
46 1 0.423282 0.206068 0.825437
1102 2 0.0415344 0.258195 0.791638
970 2 0.0554562 0.306754 0.815276
972 4 0.0747613 0.322622 0.814441
971 4 0.036151 0.290886 0.816111
1103 4 0.0297462 0.275418 0.805407
779 4 0.0775776 0.332209 0.797051
988 2 0.0923978 0.257919 0.758612
820 2 0.151946 0.290407 0.755366
821 4 0.129663 0.279075 0.754884
990 4 0.112739 0.272337 0.760498
1235 4 0.21782 0.259614 0.748425
1234 2 0.205853 0.281117 0.752851