ITEM: TIMESTEP
800000
ITEM: NUMBER OF ATOMS
4590
ITEM: BOX BOUNDS pp pp pp
-9.9985700000000008e+00 9.9985700000000008e+00
-9.9985700000000008e+00 9.9985700000000008e+00
-9.9985700000000008e+00 9.9985700000000008e+00
ITEM: ATOMS id type xs ys zs
463 2 0.0296866 0.0405355 0.0349324
464 4 0.0413423 0.053555 0.0528158
1667 4 0.0574217 0.0628725 0.0432681
1666 2 0.0752072 0.0803491 0.0414182
465 4 0.0180308 0.027516 0.0170491
994 2 0.150041 0.0118951 0.997135
533 4 0.235329 0.0811439 0.0620019
1253 4 0.175958 0.0457551 0.99525
1252 2 0.192828 0.0591933 0.00789901
1254 4 0.209697 0.0726315 0.0205485
359 4 0.224423 0.085135 0.0140211
490 2 0.282221 0.0480499 0.0500118
491 4 0.26756 0.0279416 0.0524443
492 4 0.296881 0.0681582 0.0475793
486 4 0.313196 0.0319369 0.0750674
484 2 0.329278 0.0135531 0.0697192
297 4 0.395777 0.0700916 0.0460433
485 4 0.345359 0.995169 0.064371
1607 4 0.361402 0.00464933 0.062881
746 4 0.410312 0.0575441 0.055343
745 2 0.433987 0.0521665 0.0493638
747 4 0.457662 0.0467889 0.0433846
2975 4 0.472124 0.0516767 0.0307715
1826 4 0.474124 0.038651 0.0496181
1825 2 0.491206 0.0204885 0.0477419
1827 4 0.508287 0.00232602 0.0458657
1668 4 0.0929927 0.0978258 0.0395682
423 4 0.171525 0.151315 0.024651
532 2 0.233513 0.102811 0.0496563
534 4 0.231697 0.124478 0.0373106
421 2 0.192457 0.140405 0.0328965
422 4 0.21339 0.129495 0.041142
665 4 0.312622 0.143742 0.0247223
556 2 0.334138 0.120783 0.0870267
664 2 0.332975 0.141413 0.0103867
295 2 0.381666 0.0828598 0.062261
296 4 0.367554 0.095628 0.0784788
558 4 0.35213 0.103509 0.0887738
2974 2 0.477984 0.0759508 0.029506
771 4 0.4457 0.158065 0.0576771
553 2 0.122239 0.236471 0.0188736
554 4 0.135179 0.215651 0.0139432
571 2 0.307834 0.234013 0.0510279
572 4 0.325642 0.22179 0.0636237
770 4 0.45956 0.183531 0.0169331
769 2 0.45263 0.170798 0.0373051
323 4 0.415791 0.245677 0.0455432
837 4 0.0740128 0.313502 0.0336225
293 4 0.0647434 0.326551 0.0457831
555 4 0.109299 0.25729 0.023804
835 2 0.0822026 0.290657 0.0276065
836 4 0.0903924 0.267811 0.0215904
915 4 0.0807239 0.333088 0.0340891
455 4 0.133341 0.327471 0.0879032
483 4 0.227933 0.266407 0.0539608
481 2 0.252633 0.264634 0.0505052
573 4 0.290027 0.246237 0.0384321
482 4 0.277333 0.262861 0.0470496
357 4 0.289994 0.264441 0.031182
355 2 0.292813 0.284468 0.0164798
356 4 0.295633 0.304495 0.00177753
324 4 0.40474 0.28037 0.0112648
322 2 0.410266 0.263023 0.028404
518 4 0.453597 0.262454 0.0622579
294 4 0.040298 0.368872 0.0563685
292 2 0.0525207 0.347711 0.0510758
2787 4 0.00424631 0.410309 0.0183723
913 2 0.104922 0.338346 0.0306265
914 4 0.12912 0.343604 0.027164
288 4 0.161695 0.357852 0.0123635
286 2 0.186603 0.357202 0.0102797
287 4 0.211511 0.356552 0.00819582
252 4 0.251294 0.396604 0.0585609
250 2 0.272309 0.410147 0.058211
957 4 0.339423 0.36135 0.0451475
955 2 0.347946 0.37457 0.0257115
956 4 0.356468 0.387791 0.00627556
672 4 0.461552 0.349505 0.0287216
671 4 0.424863 0.380505 0.0148063
670 2 0.443207 0.365005 0.0217639
552 4 0.0717943 0.430096 0.00535604
2771 4 0.0114473 0.4261 0.00803414
621 4 0.0294118 0.429849 0.997483
550 2 0.0749203 0.454406 0.000414492
609 4 0.31114 0.432739 0.0600831
251 4 0.293324 0.423691 0.0578612
607 2 0.33518 0.426975 0.0638297
525 4 0.326577 0.48592 0.0877239
608 4 0.35922 0.421211 0.0675764
563 4 0.409612 0.448146 0.0858331
2386 2 0.474243 0.493053 0.0611612
226 2 0.493318 0.434864 0.0667462
578 4 0.0762989 0.0263598 0.0928811
577 2 0.0997287 0.0289267 0.0845364
579 4 0.123159 0.0314935 0.0761918
24 3 0.345605 0.0609277 0.162547
589 2 0.00259781 0.136184 0.115032
591 4 0.01673 0.14232 0.134725
19 3 0.0173912 0.141706 0.155185
236 4 0.0548327 0.127433 0.153731
235 2 0.0721001 0.132945 0.136508
237 4 0.0893675 0.138456 0.119284
477 4 0.0953594 0.121448 0.110344
475 2 0.120335 0.122144 0.109383
476 4 0.14531 0.12284 0.108422
566 4 0.185503 0.0909882 0.111479
565 2 0.19798 0.107744 0.125218
567 4 0.210458 0.124499 0.138956
557 4 0.316146 0.138057 0.0852797
629 4 0.369591 0.097826 0.0989126
628 2 0.383163 0.115017 0.110972
630 4 0.396736 0.132208 0.123032
449 4 0.0161262 0.185031 0.116826
448 2 0.0232849 0.180314 0.140314
450 4 0.0304436 0.175597 0.163802
339 4 0.122365 0.204278 0.143548
337 2 0.141055 0.219359 0.136592
338 4 0.159746 0.234441 0.129636
737 4 0.246549 0.194881 0.161746
506 4 0.179544 0.242331 0.12627
352 2 0.259311 0.232714 0.142706
354 4 0.255397 0.209466 0.151037
255 4 0.370793 0.211569 0.137126
462 4 0.351203 0.214731 0.1445
253 2 0.387445 0.225196 0.12439
254 4 0.404097 0.238822 0.111653
460 2 0.34104 0.209842 0.166816
703 2 0.0510984 0.313066 0.14831
704 4 0.0557757 0.289871 0.140228
705 4 0.0464211 0.33626 0.156392
505 2 0.185802 0.259511 0.109216
507 4 0.192061 0.276691 0.0921615
353 4 0.263225 0.255961 0.134376
755 4 0.278984 0.265246 0.124542
754 2 0.297559 0.275781 0.111535
756 4 0.316134 0.286316 0.0985289
612 4 0.263278 0.298124 0.122912
610 2 0.267561 0.321167 0.131622
740 4 0.333903 0.293482 0.104724
739 2 0.351873 0.310762 0.106637
622 2 0.409536 0.321483 0.155287
624 4 0.400489 0.302885 0.141236
741 4 0.369844 0.328041 0.108549
526 2 0.481764 0.249958 0.146133
528 4 0.483073 0.258784 0.122775
519 4 0.46781 0.261948 0.1102
517 2 0.460704 0.262201 0.0862291
416 4 0.0769592 0.397091 0.146822
315 4 0.99785 0.399411 0.0982373
456 4 0.108842 0.358259 0.118768
454 2 0.121091 0.342865 0.103335
415 2 0.0850244 0.381555 0.128968
417 4 0.0930897 0.366019 0.111114
611 4 0.271843 0.34421 0.140331
387 4 0.384231 0.368103 0.149808
385 2 0.374775 0.357739 0.129111
386 4 0.36532 0.347376 0.108413
15 3 0.409683 0.389148 0.147091
623 4 0.418583 0.340081 0.169339
597 4 0.491579 0.357681 0.148912
1787 4 0.0143972 0.482557 0.108606
1466 4 0.0212835 0.491139 0.124298
1438 2 0.191386 0.501572 0.115073
1439 4 0.212989 0.489578 0.111245
639 4 0.245784 0.45858 0.167049
626 4 0.272949 0.450201 0.107446
627 4 0.251111 0.464662 0.150046
625 2 0.26203 0.457432 0.128746
658 2 0.402189 0.487393 0.142847
659 4 0.412327 0.466683 0.133179
495 4 0.423952 0.451997 0.131738
228 4 0.476349 0.45301 0.069571
2387 4 0.468874 0.470004 0.0692302
562 2 0.433329 0.451368 0.0786009
564 4 0.457046 0.454589 0.0713686
1673 4 0.469435 0.460651 0.0873548
493 2 0.437475 0.434304 0.143108
494 4 0.450998 0.416612 0.154479
1672 2 0.48027 0.462493 0.109813
674 4 0.0807273 0.059901 0.258349
673 2 0.0958008 0.0411266 0.251604
675 4 0.110874 0.0223522 0.244859
722 4 0.126877 0.0882844 0.25228
653 4 0.239151 0.0401475 0.181237
652 2 0.224427 0.0600115 0.184953
654 4 0.209703 0.0798755 0.188668
690 4 0.183251 0.995439 0.228548
23 3 0.348205 0.0627473 0.20042
21 1 0.357683 0.069577 0.180371
25 3 0.379323 0.062573 0.179222
759 4 0.394176 0.0660868 0.193188
757 2 0.413037 0.0820595 0.196971
744 4 0.387505 0.0806989 0.257236
479 4 0.480772 0.0613128 0.254613
17 3 0.0450593 0.1223 0.171633
16 1 0.0271863 0.136255 0.175501
20 3 0.0120822 0.12559 0.188797
18 3 0.0348167 0.155475 0.186026
393 4 0.0636366 0.15309 0.210997
2484 4 0.00419255 0.126993 0.237113
545 4 0.110722 0.128949 0.217772
544 2 0.108728 0.108844 0.232502
546 4 0.106734 0.0887393 0.247233
693 4 0.141359 0.0836543 0.238556
691 2 0.161343 0.0861856 0.223744
581 4 0.197087 0.0939471 0.195176
692 4 0.181327 0.0887169 0.208931
580 2 0.211673 0.11328 0.18896
582 4 0.226259 0.132614 0.182743
738 4 0.25976 0.153173 0.185966
311 4 0.324053 0.136233 0.192678
29 3 0.322631 0.149018 0.245696
310 2 0.325261 0.161202 0.192174
22 3 0.357088 0.092548 0.179309
758 4 0.431898 0.0980322 0.200755
701 4 0.0432787 0.22394 0.193265
700 2 0.0404197 0.199655 0.188046
702 4 0.0375607 0.17537 0.182827
391 2 0.0679309 0.17154 0.227316
392 4 0.0722253 0.18999 0.243636
363 4 0.0552707 0.239531 0.189941
372 4 0.140674 0.216544 0.202826
370 2 0.163335 0.213545 0.192695
371 4 0.185997 0.210545 0.182565
736 2 0.253155 0.174027 0.173856
284 4 0.295657 0.22377 0.235173
283 2 0.311584 0.211387 0.220403
312 4 0.326468 0.186172 0.19167
285 4 0.327511 0.199004 0.205633
461 4 0.330876 0.204952 0.189131
764 4 0.346574 0.193511 0.197467
763 2 0.365336 0.194589 0.213959
765 4 0.384099 0.195668 0.230451
361 2 0.0666525 0.247181 0.210848
362 4 0.0780342 0.254831 0.231755
750 4 0.0790502 0.27408 0.237737
748 2 0.0883568 0.297267 0.236753
749 4 0.0976634 0.320453 0.235769
527 4 0.480456 0.241132 0.16949
647 4 0.0496701 0.340116 0.175143
646 2 0.0628828 0.339687 0.196366
263 4 0.00407541 0.35112 0.210753
365 4 0.00248732 0.344367 0.229613
648 4 0.0760956 0.339257 0.217589
298 2 0.16299 0.328051 0.250618
299 4 0.163239 0.332874 0.226085
302 4 0.295223 0.397432 0.165124
301 2 0.303085 0.418814 0.175429
728 4 0.373693 0.338352 0.230961
13 3 0.386618 0.369463 0.169411
11 1 0.40803 0.378044 0.166906
14 3 0.412911 0.392409 0.184462
645 4 0.412131 0.404002 0.20114
12 3 0.423084 0.360652 0.167123
643 2 0.43527 0.408342 0.209564
110 3 0.475192 0.41331 0.207374
644 4 0.458408 0.412682 0.217988
1756 2 0.0688508 0.500479 0.191164
1757 4 0.0517169 0.483604 0.184321
2619 4 0.00177571 0.461543 0.203779
291 4 0.165142 0.457897 0.237677
637 2 0.230337 0.446585 0.182627
289 2 0.186237 0.452359 0.225449
290 4 0.207332 0.446822 0.213221
638 4 0.21489 0.43459 0.198206
768 4 0.217519 0.431098 0.218563
766 2 0.238135 0.431234 0.232711
1437 4 0.245868 0.50493 0.251693
303 4 0.310946 0.440196 0.185734
767 4 0.258751 0.43137 0.246858
513 4 0.0348278 0.0886404 0.28623
511 2 0.0531287 0.0729401 0.292845
428 4 0.0706124 0.0179897 0.318043
512 4 0.0714296 0.0572398 0.29946
317 4 0.04692 0.0263013 0.330985
1403 4 0.10283 0.00980047 0.257745
721 2 0.135399 0.0772613 0.273042
723 4 0.143921 0.0662382 0.293803
1464 4 0.161153 0.0578688 0.290492
1462 2 0.177262 0.0418803 0.300983
1463 4 0.193371 0.0258918 0.311474
683 4 0.257385 0.0483073 0.318741
682 2 0.271513 0.0616684 0.33446
478 2 0.490071 0.0427591 0.268558
531 4 0.0147225 0.0836725 0.287047
2483 4 0.0206194 0.0959001 0.272667
2482 2 0.012406 0.111446 0.25489
598 2 0.199164 0.132547 0.308583
600 4 0.206829 0.115258 0.324939
599 4 0.191499 0.149836 0.292226
732 4 0.167253 0.0932298 0.329283
631 2 0.308978 0.094959 0.315639
632 4 0.320462 0.104538 0.2956
30 3 0.319974 0.156158 0.282569
633 4 0.297494 0.0853805 0.335677
26 1 0.328629 0.163484 0.262818
742 2 0.407108 0.0962066 0.256584
27 3 0.351573 0.164078 0.264356
743 4 0.426711 0.111714 0.255932
351 4 0.419375 0.122052 0.273357
349 2 0.43224 0.131777 0.292464
350 4 0.445105 0.141502 0.311572
452 4 0.463552 0.137618 0.319589
389 4 0.0866539 0.240222 0.299322
279 4 0.210927 0.241881 0.239947
247 2 0.234487 0.167303 0.280762
249 4 0.212337 0.158024 0.287722
405 4 0.165611 0.191102 0.256662
404 4 0.196605 0.168579 0.288799
403 2 0.181108 0.179841 0.27273
474 4 0.204268 0.172505 0.306767
472 2 0.206397 0.190936 0.323529
248 4 0.256637 0.176583 0.273801
28 3 0.320863 0.184859 0.258215
708 4 0.394908 0.171905 0.31316
707 4 0.359987 0.176783 0.2777
706 2 0.377448 0.174344 0.29543
442 2 0.0752743 0.316716 0.293379
443 4 0.053804 0.328723 0.288902
444 4 0.0967446 0.304709 0.297855
390 4 0.0893785 0.288486 0.286518
388 2 0.0880162 0.264354 0.29292
300 4 0.162741 0.323227 0.27515
277 2 0.215652 0.259986 0.256532
278 4 0.220376 0.27809 0.273118
536 4 0.233813 0.291052 0.282508
343 2 0.209507 0.28306 0.315987
344 4 0.22041 0.280827 0.293597
535 2 0.245463 0.313166 0.281837
309 4 0.321589 0.267813 0.246423
307 2 0.327827 0.287997 0.259797
496 2 0.31274 0.320673 0.301358
497 4 0.297013 0.315471 0.320087
308 4 0.334065 0.308181 0.273171
498 4 0.328467 0.325875 0.282628
729 4 0.340616 0.326535 0.266556
727 2 0.357154 0.332443 0.248758
418 2 0.434775 0.24763 0.325098
419 4 0.448257 0.25455 0.305211
547 2 0.0402834 0.390563 0.32246
549 4 0.0256718 0.372513 0.331727
603 4 0.102984 0.419567 0.267687
734 4 0.170945 0.340416 0.278773
735 4 0.191503 0.344234 0.324199
733 2 0.181224 0.342325 0.301486
438 4 0.24296 0.408424 0.309462
537 4 0.257112 0.33528 0.281165
542 4 0.385098 0.364899 0.273159
541 2 0.382491 0.370148 0.297466
543 4 0.379884 0.375397 0.321773
447 4 0.380153 0.394466 0.326869
445 2 0.397469 0.412431 0.328478
548 4 0.0548951 0.408613 0.313192
602 4 0.0743474 0.414556 0.308376
777 4 0.0647863 0.48619 0.314545
3715 2 0.010042 0.504367 0.267704
601 2 0.0886655 0.417061 0.288032
776 4 0.110569 0.498106 0.330751
501 4 0.128801 0.492123 0.338062
775 2 0.0876778 0.492148 0.322648
414 4 0.164302 0.464294 0.296957
1436 4 0.230996 0.462223 0.273041
412 2 0.188281 0.463915 0.289882
413 4 0.21226 0.463537 0.282807
1435 2 0.238432 0.483576 0.262367
1557 4 0.229711 0.466806 0.294254
1555 2 0.234974 0.475212 0.317206
436 2 0.249934 0.419636 0.288228
437 4 0.256907 0.430847 0.266995
712 2 0.40414 0.481602 0.279208
713 4 0.396538 0.461369 0.291778
446 4 0.414784 0.430396 0.330087
1772 4 0.0178455 0.0136511 0.401374
316 2 0.0489946 0.0486365 0.342031
318 4 0.0510692 0.0709717 0.353077
1601 4 0.132731 0.999204 0.409067
429 4 0.114687 0.0177561 0.341666
1600 2 0.138431 0.0231658 0.413373
427 2 0.0926499 0.0178729 0.329854
731 4 0.12933 0.0632138 0.341994
730 2 0.148292 0.0782218 0.335639
1602 4 0.144131 0.0471271 0.417679
1699 2 0.212676 0.00083602 0.362247
1701 4 0.220936 0.0235544 0.368636
441 4 0.23492 0.037069 0.366335
439 2 0.221021 0.0566741 0.373239
440 4 0.207123 0.0762792 0.380142
684 4 0.28564 0.0750294 0.350179
699 4 0.361551 0.020027 0.3694
1427 4 0.360889 0.00212612 0.356675
1671 4 0.342849 0.995191 0.362884
698 4 0.332529 0.0537711 0.3466
697 2 0.34704 0.0368991 0.358
399 4 0.100893 0.112092 0.405906
398 4 0.100284 0.155146 0.380477
397 2 0.100588 0.133619 0.393191
687 4 0.153591 0.142747 0.405425
605 4 0.190046 0.110313 0.333899
606 4 0.201213 0.0949684 0.380165
604 2 0.19563 0.102641 0.357032
468 4 0.280509 0.0924635 0.344431
726 4 0.297608 0.0919244 0.356266
467 4 0.270953 0.140735 0.353337
466 2 0.275731 0.116599 0.348884
724 2 0.3202 0.0931686 0.366909
725 4 0.342791 0.0944128 0.377551
257 4 0.400214 0.10734 0.413132
514 2 0.425688 0.130213 0.402356
515 4 0.437384 0.141613 0.383424
451 2 0.456435 0.139128 0.343511
453 4 0.449317 0.140638 0.367432
2849 4 0.00293759 0.247407 0.401326
2655 4 0.999952 0.22783 0.397838
348 4 0.00711013 0.235361 0.414127
346 2 0.0289447 0.230292 0.425206
473 4 0.208526 0.209367 0.34029
401 4 0.194844 0.235239 0.370175
276 4 0.219793 0.214267 0.35863
274 2 0.234986 0.22693 0.373927
275 4 0.250178 0.239593 0.389224
375 4 0.255929 0.245973 0.407018
716 4 0.356617 0.206614 0.427009
306 4 0.439383 0.200834 0.384318
304 2 0.454101 0.22066 0.388258
305 4 0.468819 0.240485 0.392198
420 4 0.421293 0.24071 0.344986
270 4 0.467538 0.244395 0.372726
618 4 0.0725352 0.312526 0.371607
616 2 0.0524653 0.313087 0.386509
617 4 0.0323954 0.313648 0.401411
677 4 0.159497 0.334364 0.362359
676 2 0.164449 0.310423 0.357115
345 4 0.198604 0.285292 0.338377
678 4 0.1694 0.286482 0.351872
400 2 0.191868 0.259236 0.363815
402 4 0.188891 0.283233 0.357454
508 2 0.247445 0.313052 0.392299
503 4 0.184668 0.315483 0.411773
510 4 0.245425 0.30323 0.415204
509 4 0.249464 0.322873 0.369394
377 4 0.300451 0.304352 0.337486
378 4 0.257494 0.325776 0.351501
376 2 0.278973 0.315064 0.344494
489 4 0.30441 0.28041 0.381107
487 2 0.319455 0.267393 0.396252
435 4 0.312502 0.309447 0.352866
433 2 0.327872 0.325432 0.364417
488 4 0.334501 0.254377 0.411398
269 4 0.491615 0.276494 0.342883
268 2 0.479576 0.260445 0.357804
2927 4 0.0137543 0.356129 0.329608
2926 2 0.00365992 0.333577 0.333438
681 4 0.0180889 0.363539 0.349225
679 2 0.0246522 0.373084 0.371383
680 4 0.0312155 0.382628 0.393542
407 4 0.0684702 0.374429 0.353781
406 2 0.0893452 0.38759 0.357808
408 4 0.11022 0.400751 0.361834
502 2 0.193333 0.333095 0.396284
667 2 0.235122 0.379326 0.384651
504 4 0.201998 0.350707 0.380795
669 4 0.214429 0.366177 0.389557
636 4 0.202653 0.380517 0.398127
614 4 0.315306 0.394968 0.341385
668 4 0.255816 0.392474 0.379744
615 4 0.363676 0.385746 0.332663
613 2 0.339491 0.390357 0.337024
434 4 0.343242 0.341417 0.375968
753 4 0.444821 0.408038 0.397236
499 2 0.134564 0.475183 0.355527
500 4 0.140327 0.458244 0.372992
1556 4 0.240238 0.483619 0.340158
1714 2 0.379519 0.496739 0.409435
5 3 0.337191 0.482174 0.405588
1715 4 0.390268 0.476212 0.40004
588 4 0.399726 0.459533 0.391509
593 4 0.392069 0.474504 0.378974
592 2 0.408259 0.488177 0.365703
117 3 0.48362 0.456555 0.341283
120 3 0.473389 0.420928 0.345636
116 1 0.491185 0.434904 0.343059
586 2 0.418161 0.443404 0.396526
3989 4 0.504745 0.454496 0.361913
587 4 0.436595 0.427274 0.401544
1771 2 0.0146509 0.00278938 0.423668
2586 4 0.00848989 0.0728888 0.426757
369 4 0.102575 0.0339245 0.435827
367 2 0.0953929 0.0575986 0.432203
1817 4 0.25937 0.017027 0.478488
963 4 0.304294 0.0813947 0.481955
961 2 0.307715 0.0566279 0.481662
962 4 0.311135 0.0318612 0.481369
258 4 0.372182 0.0714232 0.433745
424 2 0.377148 0.0509506 0.470406
425 4 0.373768 0.0342289 0.488686
426 4 0.380528 0.0676722 0.452127
1579 2 0.473366 0.00893229 0.447777
1581 4 0.449529 0.00981344 0.455273
720 4 0.0221541 0.0866549 0.427938
458 4 0.0174388 0.148302 0.453979
718 2 0.0184641 0.10725 0.441627
719 4 0.0147742 0.127846 0.455316
457 2 0.032819 0.167831 0.451287
368 4 0.0882108 0.0812727 0.428579
685 2 0.157549 0.146151 0.429878
686 4 0.161507 0.149555 0.45433
1151 4 0.186551 0.103748 0.489024
1150 2 0.182933 0.124807 0.476039
1152 4 0.179315 0.145866 0.463054
432 4 0.305779 0.0982739 0.469941
321 4 0.274462 0.151265 0.42751
319 2 0.27244 0.156648 0.451843
430 2 0.317891 0.114153 0.454896
431 4 0.330002 0.130032 0.439852
320 4 0.270418 0.162031 0.476177
516 4 0.413992 0.118813 0.421288
256 2 0.386198 0.0893819 0.423438
347 4 0.0507793 0.225223 0.436284
459 4 0.0481992 0.18736 0.448594
259 2 0.108306 0.190954 0.477977
261 4 0.125753 0.203457 0.465154
1035 4 0.142905 0.212427 0.471713
1033 2 0.162103 0.225303 0.481244
260 4 0.0908583 0.178451 0.4908
1034 4 0.181301 0.238178 0.490774
373 2 0.243499 0.248914 0.428513
411 4 0.274356 0.170814 0.494541
409 2 0.294717 0.183677 0.501257
717 4 0.327568 0.24721 0.429977
715 2 0.342092 0.226912 0.428493
575 4 0.384617 0.224604 0.459214
574 2 0.381556 0.207041 0.476745
576 4 0.378496 0.189477 0.494276
266 4 0.389958 0.244258 0.452276
325 2 0.150262 0.311131 0.49992
327 4 0.13546 0.314997 0.480143
374 4 0.23107 0.251856 0.450008
695 4 0.196423 0.249863 0.494274
650 4 0.256759 0.2922 0.473228
651 4 0.296431 0.294758 0.442891
649 2 0.276595 0.293479 0.458059
265 2 0.396677 0.261887 0.468684
267 4 0.403396 0.279517 0.485092
585 4 0.469383 0.289891 0.49546
872 4 0.422744 0.278128 0.492612
584 4 0.455828 0.315056 0.454427
583 2 0.462605 0.302474 0.474943
560 4 0.444099 0.331869 0.458385
772 2 0.21633 0.363981 0.433037
773 4 0.209383 0.364623 0.409026
634 2 0.189974 0.400244 0.406804
774 4 0.223277 0.363339 0.457047
336 4 0.330549 0.383321 0.423198
240 4 0.360241 0.380286 0.485057
334 2 0.340221 0.385034 0.446192
335 4 0.349894 0.386746 0.469185
751 2 0.440157 0.402552 0.42118
926 4 0.421719 0.39389 0.45911
561 4 0.426113 0.37788 0.450625
559 2 0.435106 0.354874 0.454505
927 4 0.440274 0.413822 0.501052
925 2 0.430997 0.403856 0.480081
752 4 0.435494 0.397065 0.445124
1011 4 0.490486 0.368891 0.490642
635 4 0.177295 0.41997 0.415481
1 1 0.330618 0.4751 0.426213
4 3 0.307717 0.477948 0.428633
3 3 0.336165 0.45275 0.429058
2 3 0.341397 0.487541 0.442281
1126 2 0.065185 0.0359602 0.522053
1127 4 0.0527059 0.0143176 0.521029
2238 4 0.0421529 0.998145 0.517735
1128 4 0.0776642 0.0576028 0.523076
937 2 0.11552 0.0700437 0.511102
938 4 0.140075 0.0698324 0.506392
939 4 0.0909649 0.0702551 0.515812
2428 2 0.160629 0.00914682 0.559126
1059 4 0.123361 0.0215379 0.585887
2430 4 0.177187 0.0222784 0.57249
1181 4 0.262961 0.0766752 0.51807
1216 2 0.455552 0.996221 0.558365
1218 4 0.458508 0.0199127 0.565792
640 2 0.460969 0.0642884 0.512496
641 4 0.449406 0.0421537 0.511258
4467 4 0.485723 0.00800278 0.57775
1200 4 0.999737 0.172745 0.554397
1154 4 0.122487 0.157644 0.585719
1182 4 0.234101 0.101222 0.550708
1031 4 0.218917 0.0933651 0.560733
1180 2 0.248531 0.0889488 0.534389
642 4 0.472532 0.0864231 0.513734
877 2 0.0350376 0.189411 0.524733
1272 4 0.0728516 0.18142 0.544661
879 4 0.0554489 0.18065 0.536213
878 4 0.0146263 0.198173 0.513252
470 4 0.00191832 0.188072 0.501228
1271 4 0.108425 0.168399 0.577306
1270 2 0.0906386 0.17491 0.560983
1220 4 0.213874 0.197972 0.528439
1219 2 0.222162 0.214565 0.545207
1221 4 0.23045 0.231157 0.561976
791 4 0.308324 0.226054 0.539716
410 4 0.315079 0.196541 0.507974
790 2 0.31907 0.248276 0.543705
1193 4 0.376975 0.183315 0.572702
1136 4 0.0963586 0.321146 0.537291
1135 2 0.102181 0.325711 0.561175
1137 4 0.108003 0.330275 0.585059
326 4 0.165064 0.307266 0.519697
1259 4 0.185584 0.32248 0.583698
6 1 0.183762 0.31173 0.542804
8 3 0.182074 0.288957 0.538687
10 3 0.204017 0.319415 0.535782
9 3 0.166752 0.32305 0.531807
7 3 0.181704 0.315369 0.565424
696 4 0.175822 0.288045 0.519141
711 4 0.223485 0.321935 0.53532
694 2 0.186122 0.268954 0.506707
802 2 0.311614 0.298729 0.574474
804 4 0.324575 0.316917 0.563232
792 4 0.329816 0.270497 0.547695
812 4 0.345945 0.28313 0.548416
811 2 0.368334 0.291357 0.540918
813 4 0.390723 0.299585 0.53342
873 4 0.407578 0.308595 0.529252
871 2 0.415161 0.293362 0.510932
1010 4 0.49137 0.331079 0.523356
897 4 0.157334 0.403423 0.568678
895 2 0.13324 0.396743 0.568505
896 4 0.109146 0.390063 0.568332
384 4 0.0921226 0.413256 0.48728
1160 4 0.171596 0.406732 0.555137
709 2 0.226726 0.338639 0.516999
710 4 0.229966 0.355343 0.498678
239 4 0.378419 0.41357 0.517652
238 2 0.36933 0.396928 0.501354
1009 2 0.490928 0.349985 0.506999
382 2 0.0728085 0.42354 0.499379
383 4 0.0534944 0.433824 0.511478
539 4 0.0838747 0.49453 0.540609
538 2 0.104617 0.504416 0.53075
1159 2 0.187422 0.424755 0.548074
1161 4 0.203248 0.442778 0.541011
1171 2 0.239126 0.444358 0.553229
1173 4 0.220813 0.433521 0.540099
1172 4 0.257439 0.455195 0.566358
882 4 0.321484 0.474441 0.509961
1187 4 0.2899 0.493867 0.555987
1186 2 0.2713 0.494083 0.572695
929 4 0.370202 0.423386 0.57228
880 2 0.344922 0.466551 0.513648
1002 4 0.385266 0.427522 0.557424
1000 2 0.387098 0.441692 0.536905
1001 4 0.38893 0.455863 0.516386
881 4 0.36836 0.45866 0.517336
1951 2 0.331498 0.485815 0.571126
661 2 0.463219 0.461927 0.544114
663 4 0.440082 0.470224 0.548699
662 4 0.486356 0.45363 0.539529
4085 4 0.495315 0.464702 0.52551
1058 4 0.118413 0.0463494 0.629022
1057 2 0.120887 0.0339436 0.607455
944 4 0.113938 0.0584139 0.643672
943 2 0.115355 0.0587413 0.668633
951 4 0.316666 0.0414289 0.652664
949 2 0.295174 0.0289221 0.655284
950 4 0.273682 0.0164152 0.657904
1092 4 0.335872 0.0356499 0.651516
1090 2 0.350489 0.0168628 0.643864
2281 2 0.399372 0.00611654 0.62574
2283 4 0.375382 0.00401043 0.619017
2282 4 0.423363 0.00822266 0.632463
1082 4 0.0673174 0.121248 0.671208
1153 2 0.132726 0.136266 0.593675
1155 4 0.142965 0.114887 0.60163
1030 2 0.218266 0.0933278 0.585728
1282 2 0.234207 0.10857 0.641495
1032 4 0.217614 0.0932905 0.610723
1283 4 0.223448 0.110991 0.619055
1284 4 0.244966 0.106149 0.663935
900 4 0.313538 0.116857 0.621488
898 2 0.327451 0.137275 0.617651
1211 4 0.261598 0.14152 0.634311
899 4 0.341364 0.157693 0.613813
3007 2 0.493182 0.0895651 0.611999
3009 4 0.471873 0.0901489 0.625067
809 4 0.456954 0.0994161 0.632775
808 2 0.449083 0.100014 0.6565
1207 2 0.100766 0.230328 0.661725
1208 4 0.122285 0.221654 0.652403
857 4 0.234608 0.249544 0.605103
1212 4 0.244546 0.188089 0.640736
886 2 0.32319 0.196599 0.612383
1210 2 0.253072 0.164805 0.637523
888 4 0.307675 0.215415 0.606869
830 4 0.352213 0.166127 0.62798
1194 4 0.369093 0.173376 0.621074
887 4 0.338705 0.177783 0.617897
1192 2 0.373034 0.178346 0.596888
829 2 0.361096 0.169477 0.651111
1025 4 0.435567 0.208183 0.648297
1024 2 0.448877 0.206411 0.627204
1026 4 0.462187 0.204639 0.606112
1244 4 0.0299146 0.257223 0.641849
1243 2 0.0298121 0.26146 0.666491
983 4 0.0357831 0.319578 0.620872
982 2 0.0111065 0.320313 0.61691
991 2 0.129147 0.331499 0.622159
993 4 0.112455 0.32591 0.604401
1041 4 0.0980538 0.339191 0.599362
856 2 0.228755 0.271351 0.615845
1258 2 0.198729 0.316486 0.604105
858 4 0.222902 0.293157 0.626588
1260 4 0.211874 0.310493 0.624513
796 2 0.237289 0.316026 0.656487
797 4 0.220124 0.304075 0.642785
803 4 0.298652 0.280541 0.585715
1239 4 0.293879 0.284048 0.604074
1237 2 0.300897 0.281188 0.627901
1238 4 0.307915 0.278328 0.651728
1008 4 0.355035 0.309802 0.666735
1006 2 0.371469 0.328378 0.663572
952 2 0.486582 0.282426 0.615467
953 4 0.466179 0.29627 0.619618
1039 2 0.0757567 0.333392 0.609077
1040 4 0.0534595 0.327593 0.618793
3274 2 0.0379555 0.36203 0.640298
3275 4 0.040708 0.340084 0.628637
3276 4 0.035203 0.383976 0.65196
992 4 0.145839 0.337088 0.639916
1189 2 0.228843 0.39291 0.598178
1190 4 0.23918 0.372523 0.588043
1007 4 0.387903 0.346955 0.660408
1191 4 0.218507 0.413296 0.608313
891 4 0.313522 0.438126 0.64543
889 2 0.313953 0.448339 0.622611
1188 4 0.252699 0.494299 0.589403
890 4 0.314385 0.458552 0.599793
1953 4 0.323974 0.464741 0.582281
928 2 0.349421 0.435041 0.579863
930 4 0.328641 0.446697 0.587445
1269 4 0.437946 0.452671 0.620508
1267 2 0.446606 0.476113 0.621332
945 4 0.116773 0.0590686 0.693594
1004 4 0.317194 0.0793186 0.693264
1003 2 0.335367 0.0641564 0.701329
1005 4 0.35354 0.0489941 0.709394
43 3 0.413307 0.0629785 0.702132
846 4 0.449445 0.0708938 0.728717
42 3 0.444937 0.081173 0.711141
1163 4 0.49831 0.0216641 0.701935
2321 4 0.487232 0.0102129 0.715145
1162 2 0.502471 0.0455539 0.695841
2320 2 0.487983 0.00587175 0.739758
850 2 0.0648217 0.146568 0.73573
1075 2 0.00288215 0.126077 0.750795
851 4 0.0440348 0.136347 0.745143
1077 4 0.0260306 0.133478 0.756673
1081 2 0.0896098 0.111019 0.676065
1083 4 0.111902 0.100789 0.680921
909 4 0.120335 0.116349 0.671606
907 2 0.144015 0.117422 0.679561
852 4 0.0856085 0.15679 0.726317
908 4 0.167695 0.118496 0.687516
1227 4 0.183352 0.124306 0.698879
1225 2 0.190817 0.119466 0.722247
1226 4 0.198281 0.114626 0.745614
1141 2 0.40298 0.135776 0.731641
1143 4 0.403459 0.160739 0.732988
1142 4 0.402501 0.110814 0.730293
44 3 0.411779 0.0964224 0.72012
41 1 0.423156 0.0838805 0.704256
810 4 0.441211 0.100611 0.680225
45 3 0.422915 0.0946591 0.684196
3270 4 0.475164 0.16535 0.746154
1209 4 0.0792479 0.239002 0.671047
976 2 0.239353 0.236488 0.727474
978 4 0.217465 0.235361 0.739509
1277 4 0.199712 0.241204 0.747898
918 4 0.276027 0.233932 0.729072
977 4 0.26124 0.237616 0.715438
916 2 0.3001 0.235404 0.735668
917 4 0.324173 0.236877 0.742264
1298 4 0.395915 0.177004 0.74246
831 4 0.36998 0.172827 0.674242
1263 4 0.430132 0.230284 0.669758
1261 2 0.432519 0.242486 0.691452
1177 2 0.000822256 0.300235 0.692884
1245 4 0.0297096 0.265696 0.691133
1179 4 0.0172093 0.281384 0.694009
892 2 0.0701389 0.307425 0.717852
894 4 0.0530187 0.312397 0.70032
1074 4 0.104299 0.296998 0.724386
893 4 0.087259 0.302454 0.735384
1072 2 0.113097 0.285413 0.744722
798 4 0.254455 0.327976 0.670188
947 4 0.201568 0.287759 0.671935
820 2 0.166635 0.316433 0.736394
948 4 0.169592 0.301019 0.708024
946 2 0.18558 0.294389 0.68998
821 4 0.175286 0.294976 0.726911
1276 2 0.183978 0.259178 0.740511
1278 4 0.168243 0.277151 0.733125
806 4 0.303551 0.284136 0.670716
1065 4 0.267554 0.325273 0.685421
805 2 0.325752 0.292977 0.678073
807 4 0.347953 0.301817 0.68543
1262 4 0.434906 0.254687 0.713145
3123 4 0.49148 0.319596 0.679995
3122 4 0.459133 0.281802 0.674901
3121 2 0.475306 0.300699 0.677448
815 4 0.103576 0.372994 0.731694
1067 4 0.140449 0.377825 0.683253
940 2 0.118201 0.393625 0.714243
941 4 0.134099 0.39432 0.694957
942 4 0.102303 0.39293 0.73353
814 2 0.0880417 0.361179 0.747323
1066 2 0.164965 0.380888 0.687092
1028 4 0.198271 0.388763 0.675177
1068 4 0.189482 0.383951 0.690932
1027 2 0.222818 0.387015 0.679603
1029 4 0.247364 0.385266 0.684029
1063 2 0.281756 0.344835 0.69181
1064 4 0.295958 0.364396 0.6982
1206 4 0.407664 0.406094 0.685008
1099 2 0.482844 0.400316 0.73851
1205 4 0.44848 0.394438 0.711444
1101 4 0.465903 0.392726 0.721761
1204 2 0.428072 0.400266 0.698226
1280 4 0.048486 0.437994 0.699195
1281 4 0.0751833 0.455618 0.737631
1279 2 0.0618347 0.446806 0.718413
2014 2 0.105282 0.482391 0.733212
2016 4 0.0994644 0.494587 0.712175
1174 2 0.252179 0.469952 0.68021
1176 4 0.245052 0.489885 0.693516
1175 4 0.259306 0.450019 0.666903
1139 4 0.27117 0.442661 0.741872
1229 4 0.392012 0.471315 0.749017
1228 2 0.371554 0.457208 0.746254
1249 2 0.484284 0.480873 0.736988
1202 4 0.12508 0.0594405 0.779681
1201 2 0.107741 0.0768294 0.784391
839 4 0.257815 0.0742681 0.798444
1255 2 0.282817 0.0426474 0.802157
1256 4 0.274382 0.0647791 0.794144
1257 4 0.291252 0.0205156 0.810171
975 4 0.293183 0.0210514 0.828949
1112 4 0.45939 0.020147 0.811476
844 2 0.463215 0.0617124 0.747459
845 4 0.476985 0.0525309 0.766201
980 4 0.454226 0.0151088 0.830831
1111 2 0.46386 0.0124073 0.788125
1113 4 0.46833 0.00466765 0.764773
150 3 0.509783 0.0904274 0.839295
864 4 0.0438746 0.133688 0.766133
862 2 0.0596771 0.121379 0.781098
834 4 0.0186345 0.139194 0.825342
863 4 0.0754797 0.10907 0.796063
832 2 0.00382229 0.132963 0.806186
1203 4 0.0904027 0.0942182 0.789101
35 3 0.116209 0.140635 0.813555
1131 4 0.154082 0.161139 0.787755
838 2 0.243068 0.0890398 0.81221
1148 4 0.209582 0.110667 0.761063
1149 4 0.211289 0.137165 0.803438
1147 2 0.210436 0.123916 0.782251
840 4 0.22832 0.103811 0.825975
960 4 0.312614 0.114169 0.754366
958 2 0.298611 0.13236 0.764276
959 4 0.284608 0.15055 0.774185
1086 4 0.378472 0.119017 0.802727
1084 2 0.393035 0.115194 0.822688
3268 2 0.489725 0.148503 0.757527
3479 4 0.496753 0.122574 0.785794
1107 4 0.0359785 0.151807 0.758982
1106 4 0.0300485 0.184754 0.796131
1105 2 0.0330135 0.16828 0.777556
1130 4 0.16519 0.208556 0.776403
1129 2 0.159636 0.184847 0.782079
1297 2 0.384033 0.17628 0.764448
1299 4 0.372151 0.175556 0.786436
47 3 0.383426 0.18058 0.802958
46 1 0.40274 0.185748 0.814334
1043 4 0.405851 0.220827 0.799053
49 3 0.405445 0.208793 0.814439
1042 2 0.389303 0.231911 0.783938
1044 4 0.372755 0.242996 0.768823
1146 4 0.458817 0.16925 0.758437