ITEM: TIMESTEP
530000
ITEM: NUMBER OF ATOMS
4590
ITEM: BOX BOUNDS pp pp pp
-9.9985700000000008e+00 9.9985700000000008e+00
-9.9985700000000008e+00 9.9985700000000008e+00
-9.9985700000000008e+00 9.9985700000000008e+00
ITEM: ATOMS id type xs ys zs
463 2 0.0462972 0.0354743 0.0268284
464 4 0.0575013 0.031446 0.0488152
1667 4 0.0768225 0.0321401 0.0471442
465 4 0.0350932 0.0395027 0.00484153
1666 2 0.0836965 0.0147693 0.0637629
533 4 0.188889 0.050063 0.0289875
532 2 0.193837 0.0742958 0.0253183
490 2 0.288352 0.0356463 0.012707
491 4 0.286955 0.0194118 0.0316719
297 4 0.402578 0.0577658 0.0651104
295 2 0.386132 0.0746034 0.0735484
746 4 0.422786 0.0514326 0.0632012
745 2 0.440946 0.0500449 0.0460707
747 4 0.459106 0.0486572 0.0289402
2975 4 0.479153 0.0491456 0.0241651
1826 4 0.469849 0.0320532 0.0309394
1825 2 0.478801 0.0102655 0.0393255
589 2 0.0210374 0.0969902 0.0523989
591 4 0.0450841 0.103492 0.0502385
701 4 0.116396 0.123932 0.0582458
700 2 0.10458 0.105134 0.0697433
702 4 0.0927633 0.0863366 0.0812409
423 4 0.180168 0.158281 0.0266598
534 4 0.198786 0.0985286 0.0216491
421 2 0.182005 0.134207 0.0201594
422 4 0.183841 0.110134 0.013659
360 4 0.273436 0.120195 0.0176278
358 2 0.264008 0.0992721 0.00770282
664 2 0.32468 0.154525 0.0153384
665 4 0.334166 0.152924 0.0384173
557 4 0.351077 0.141143 0.0407165
556 2 0.360402 0.125987 0.058281
558 4 0.369726 0.110831 0.0758455
629 4 0.406735 0.12428 0.0803005
553 2 0.0982308 0.203115 0.0201526
554 4 0.0896238 0.18247 0.0313281
555 4 0.106838 0.22376 0.00897714
836 4 0.124928 0.218556 0.00492958
572 4 0.317131 0.238766 0.0623326
324 4 0.360339 0.242454 0.0281315
770 4 0.469594 0.167595 0.0583333
771 4 0.441298 0.177527 0.0183157
769 2 0.455446 0.172561 0.0383245
518 4 0.471295 0.240452 0.0715415
657 4 0.999702 0.268273 0.057471
294 4 0.110443 0.310022 0.0347809
292 2 0.124094 0.296494 0.0187873
483 4 0.223938 0.292807 0.0351507
481 2 0.240188 0.27857 0.0477381
357 4 0.321967 0.259764 0.0145102
573 4 0.271881 0.256535 0.050613
571 2 0.294506 0.24765 0.0564728
482 4 0.256437 0.264333 0.0603255
322 2 0.382601 0.252012 0.0343142
323 4 0.404862 0.261571 0.0404968
287 4 0.207871 0.379311 0.0126434
286 2 0.193286 0.361049 0.00375761
288 4 0.178702 0.342787 0.994872
956 4 0.317227 0.347865 0.0130278
955 2 0.340424 0.356524 0.00954913
957 4 0.363622 0.365183 0.00607049
672 4 0.447568 0.346365 0.0231208
671 4 0.456086 0.36742 0.0676724
670 2 0.451827 0.356892 0.0453966
551 4 0.0608378 0.4726 0.994141
550 2 0.0809054 0.458394 0.998686
552 4 0.100973 0.444187 0.00323078
252 4 0.268504 0.416255 0.0295842
1779 4 0.263451 0.487258 0.0379073
251 4 0.306827 0.430309 0.0584729
250 2 0.287666 0.423282 0.0440285
609 4 0.316517 0.447662 0.0578131
1777 2 0.28251 0.497171 0.0251136
272 4 0.313334 0.49206 0.00674396
607 2 0.340265 0.450927 0.0649215
608 4 0.364013 0.454192 0.0720299
19 3 0.0741054 0.054421 0.120049
18 3 0.110594 0.0602584 0.128932
16 1 0.0921365 0.0688512 0.117802
450 4 0.13019 0.0658061 0.125553
448 2 0.139598 0.0428448 0.128627
449 4 0.149006 0.0198835 0.131701
20 3 0.0970322 0.0717947 0.0957559
236 4 0.140056 0.0825346 0.134332
1760 4 0.480398 0.0086966 0.139821
2469 4 0.497681 0.0658835 0.115033
17 3 0.0866222 0.0891495 0.127114
235 2 0.140193 0.105968 0.125611
237 4 0.140329 0.129401 0.11689
477 4 0.15512 0.139326 0.109192
475 2 0.149561 0.163701 0.109612
578 4 0.131128 0.081974 0.153344
566 4 0.201892 0.11483 0.0887186
565 2 0.20856 0.122635 0.111518
567 4 0.215227 0.130439 0.134318
582 4 0.258163 0.158841 0.169558
296 4 0.369686 0.0914409 0.0819864
628 2 0.411255 0.144145 0.0947963
311 4 0.349508 0.143839 0.161659
630 4 0.415775 0.16401 0.109292
2468 4 0.483008 0.104631 0.0870327
2467 2 0.490344 0.0852574 0.101033
339 4 0.0945245 0.212089 0.099876
476 4 0.144003 0.188075 0.110031
337 2 0.110603 0.230937 0.103252
338 4 0.126682 0.249785 0.106629
736 2 0.242302 0.198979 0.164894
352 2 0.268843 0.23344 0.132091
354 4 0.278192 0.218239 0.149603
283 2 0.309167 0.214251 0.169591
284 4 0.284459 0.211076 0.167441
285 4 0.333875 0.217426 0.17174
737 4 0.265949 0.205491 0.160035
254 4 0.411528 0.226543 0.0876406
460 2 0.358143 0.231106 0.154155
255 4 0.369282 0.2344 0.113219
462 4 0.364156 0.241092 0.132035
253 2 0.390405 0.230472 0.10043
517 2 0.461302 0.241632 0.0944311
519 4 0.451309 0.242812 0.117321
528 4 0.459367 0.251552 0.134201
703 2 0.0290311 0.327856 0.148198
704 4 0.0228211 0.313919 0.12839
506 4 0.141987 0.254551 0.0958477
456 4 0.123117 0.320941 0.116824
505 2 0.165615 0.262271 0.0931473
507 4 0.189243 0.269991 0.090447
612 4 0.227501 0.322355 0.145591
353 4 0.259493 0.248642 0.114579
755 4 0.262493 0.268323 0.118682
754 2 0.281964 0.283921 0.120353
756 4 0.301435 0.299518 0.122023
610 2 0.252356 0.32241 0.148313
740 4 0.310931 0.289231 0.108811
611 4 0.277211 0.322465 0.151035
739 2 0.328781 0.296753 0.0930004
741 4 0.346631 0.304275 0.0771899
622 2 0.409004 0.316014 0.159291
624 4 0.413406 0.292033 0.153749
526 2 0.477921 0.264673 0.14463
527 4 0.496474 0.277794 0.15506
455 4 0.129091 0.367002 0.0982926
454 2 0.126104 0.343972 0.107558
415 2 0.123458 0.397182 0.161564
416 4 0.116373 0.410882 0.141885
623 4 0.404602 0.339995 0.164832
387 4 0.388855 0.380418 0.143083
385 2 0.367792 0.370587 0.133869
386 4 0.346729 0.360756 0.124656
13 3 0.404936 0.38282 0.155022
597 4 0.485057 0.34472 0.155924
15 3 0.436412 0.367771 0.140865
11 1 0.424721 0.371766 0.159997
1788 4 0.0295819 0.489839 0.0998917
241 2 0.14251 0.498351 0.082403
243 4 0.152231 0.485475 0.101505
1438 2 0.192976 0.495086 0.103953
639 4 0.233701 0.437442 0.14776
1440 4 0.17191 0.481627 0.103418
627 4 0.239042 0.452592 0.136016
625 2 0.244978 0.457008 0.112132
525 4 0.307804 0.495291 0.0901833
626 4 0.250914 0.461424 0.088248
1574 4 0.354139 0.485765 0.149701
658 2 0.395059 0.496181 0.132187
660 4 0.372519 0.490818 0.141586
495 4 0.424022 0.444922 0.116415
228 4 0.490774 0.453271 0.0866298
493 2 0.437915 0.431021 0.131873
494 4 0.451808 0.417121 0.147331
1539 4 0.150385 0.00278358 0.210822
673 2 0.117466 0.0343664 0.223476
674 4 0.122833 0.0559898 0.212127
675 4 0.112099 0.0127429 0.234825
579 4 0.113762 0.0589823 0.194216
577 2 0.122445 0.0704781 0.17378
653 4 0.266878 0.0522162 0.17294
652 2 0.256253 0.0742071 0.167584
21 1 0.355439 0.0600615 0.203846
24 3 0.356707 0.0417457 0.218035
25 3 0.374364 0.0614603 0.191254
759 4 0.394718 0.0623926 0.187165
22 3 0.337278 0.0574738 0.189968
23 3 0.352712 0.0794972 0.216225
757 2 0.413322 0.0779317 0.193299
531 4 0.0189956 0.156244 0.254295
512 4 0.0694751 0.165397 0.21053
544 2 0.159521 0.136376 0.217157
545 4 0.141138 0.15332 0.217552
580 2 0.247438 0.136287 0.168333
693 4 0.201052 0.0919716 0.216275
691 2 0.21551 0.09397 0.195973
692 4 0.229967 0.0959685 0.175671
654 4 0.245628 0.0961981 0.162228
581 4 0.236713 0.113734 0.167108
546 4 0.177904 0.119433 0.216761
722 4 0.183206 0.111899 0.23429
28 3 0.338202 0.170187 0.225869
310 2 0.368275 0.158397 0.169473
758 4 0.431925 0.0934708 0.199433
511 2 0.0484372 0.160156 0.222985
513 4 0.0273993 0.154916 0.23544
393 4 0.0733951 0.176331 0.227849
363 4 0.0480107 0.226431 0.197889
391 2 0.0853594 0.197128 0.234886
361 2 0.0510135 0.239194 0.219178
381 4 0.014551 0.164608 0.199124
392 4 0.0973237 0.217924 0.241924
372 4 0.138553 0.222134 0.216554
370 2 0.16091 0.232798 0.213144
738 4 0.218656 0.192467 0.169753
371 4 0.183267 0.243462 0.209735
26 1 0.328579 0.173299 0.246752
461 4 0.35213 0.221119 0.176275
764 4 0.341745 0.207612 0.187879
763 2 0.345736 0.212238 0.212125
312 4 0.387042 0.172954 0.177286
765 4 0.349727 0.216864 0.23637
362 4 0.0540162 0.251958 0.240468
748 2 0.0766846 0.289195 0.244903
750 4 0.0613837 0.269511 0.243007
298 2 0.15899 0.328094 0.247228
299 4 0.163846 0.309066 0.231751
536 4 0.238702 0.330918 0.242642
278 4 0.242523 0.312455 0.245589
277 2 0.249065 0.295072 0.22885
279 4 0.255607 0.277688 0.212111
542 4 0.425651 0.324843 0.237335
705 4 0.0352411 0.341792 0.168007
648 4 0.0839615 0.339463 0.215272
647 4 0.0539089 0.338028 0.175329
646 2 0.0689352 0.338745 0.1953
263 4 0.0192535 0.381522 0.217219
365 4 0.00907307 0.343041 0.233858
417 4 0.130543 0.383481 0.181244
535 2 0.221845 0.344394 0.230015
537 4 0.204989 0.357871 0.217389
291 4 0.168154 0.416656 0.186391
302 4 0.32188 0.399575 0.165481
727 2 0.338781 0.334917 0.250278
728 4 0.361044 0.332276 0.239208
541 2 0.413952 0.343549 0.2491
14 3 0.437492 0.384547 0.174556
12 3 0.419703 0.351735 0.170132
645 4 0.441604 0.387971 0.194232
643 2 0.449372 0.409109 0.205096
2619 4 0.999865 0.455401 0.194798
289 2 0.186901 0.429215 0.197163
290 4 0.205647 0.441773 0.207934
637 2 0.242346 0.443778 0.17035
638 4 0.250991 0.450114 0.19294
301 2 0.316133 0.420437 0.178008
768 4 0.261227 0.451436 0.209993
303 4 0.310385 0.441299 0.190535
766 2 0.26077 0.454937 0.234746
106 1 0.494042 0.442594 0.215285
644 4 0.45714 0.430247 0.215959
110 3 0.471421 0.44411 0.213139
109 3 0.502814 0.463192 0.221384
234 4 0.0299168 0.0173116 0.287931
232 2 0.00652258 0.0202161 0.279597
1464 4 0.156472 0.0359222 0.274481
723 4 0.163675 0.0781559 0.265605
731 4 0.122876 0.0778229 0.333712
1462 2 0.175973 0.0387443 0.289873
1463 4 0.195474 0.0415664 0.305265
744 4 0.405887 0.0608448 0.266229
742 2 0.401283 0.0832931 0.276232
698 4 0.361966 0.00931681 0.324532
478 2 0.487591 0.0670101 0.291531
479 4 0.466905 0.0697171 0.305314
530 4 0.996616 0.116682 0.275146
529 2 0.00780595 0.136463 0.26472
721 2 0.17344 0.0950273 0.249948
247 2 0.233682 0.148277 0.30875
248 4 0.234015 0.127538 0.294786
249 4 0.23335 0.169016 0.322713
599 4 0.222938 0.174973 0.340333
29 3 0.330024 0.15373 0.259136
632 4 0.319406 0.141289 0.268864
351 4 0.41368 0.103618 0.298443
743 4 0.396678 0.105741 0.286234
631 2 0.335499 0.126456 0.280954
633 4 0.351593 0.111623 0.293045
349 2 0.43014 0.113912 0.314199
350 4 0.446601 0.124206 0.329955
404 4 0.229051 0.188458 0.324202
403 2 0.215766 0.200776 0.30697
405 4 0.202481 0.213094 0.289737
30 3 0.30677 0.179428 0.244423
27 3 0.33999 0.189945 0.257792
707 4 0.359231 0.187316 0.265951
706 2 0.371913 0.198429 0.284413
708 4 0.384595 0.209541 0.302875
418 2 0.457859 0.247047 0.307237
420 4 0.437655 0.244755 0.321788
442 2 0.071308 0.296091 0.306728
443 4 0.0524301 0.288548 0.321285
749 4 0.0919854 0.308879 0.2468
444 4 0.090186 0.303634 0.292171
390 4 0.106361 0.294153 0.286334
388 2 0.128733 0.284958 0.292668
389 4 0.151106 0.275764 0.299001
344 4 0.240075 0.326664 0.261553
343 2 0.227499 0.311296 0.276748
676 2 0.187651 0.321011 0.32128
345 4 0.214923 0.295929 0.291942
496 2 0.316598 0.323992 0.302658
497 4 0.31779 0.321844 0.327541
377 4 0.3001 0.328266 0.332309
498 4 0.315406 0.326139 0.277776
309 4 0.256056 0.324835 0.254183
307 2 0.278342 0.33615 0.254854
419 4 0.478063 0.249339 0.292687
300 4 0.154135 0.347123 0.262705
734 4 0.164878 0.363042 0.25613
677 4 0.184943 0.340206 0.305487
735 4 0.198344 0.377003 0.290566
733 2 0.181611 0.370022 0.273348
308 4 0.300629 0.347466 0.255526
729 4 0.316518 0.337558 0.261348
435 4 0.354439 0.376872 0.323377
613 2 0.369918 0.36789 0.282637
614 4 0.357883 0.371803 0.304202
615 4 0.381952 0.363977 0.261072
543 4 0.402254 0.362254 0.260865
447 4 0.415371 0.37744 0.262328
445 2 0.428006 0.393777 0.276422
446 4 0.440642 0.410114 0.290516
2537 4 0.498027 0.342029 0.266253
602 4 0.0600079 0.428507 0.327905
601 2 0.0811131 0.426972 0.314586
548 4 0.0428349 0.438884 0.32949
603 4 0.102218 0.425436 0.301267
414 4 0.182498 0.485881 0.315753
438 4 0.227711 0.441758 0.309546
436 2 0.243567 0.442276 0.29022
767 4 0.260314 0.458438 0.259499
437 4 0.259423 0.442794 0.270893
713 4 0.413949 0.484194 0.312189
594 4 0.43017 0.482371 0.324374
714 4 0.43489 0.481472 0.266859
712 2 0.424419 0.482833 0.289524
118 3 0.488722 0.433612 0.309787
116 1 0.478708 0.440619 0.329511
117 3 0.462 0.4556 0.324455
1773 4 0.0190763 0.999273 0.399272
317 4 0.0247317 0.0563374 0.343078
316 2 0.0466501 0.0616143 0.353891
318 4 0.0685685 0.0668913 0.364703
428 4 0.0881906 0.00389107 0.34196
730 2 0.146595 0.0747646 0.341009
429 4 0.109007 0.0465902 0.357586
427 2 0.0985988 0.0252406 0.349773
1602 4 0.174095 0.00906216 0.388745
732 4 0.170314 0.0717063 0.348306
441 4 0.183771 0.0248466 0.383758
439 2 0.19571 0.0456332 0.390868
440 4 0.207649 0.0664198 0.397979
1701 4 0.232721 0.0129216 0.377256
1818 4 0.293101 0.00371712 0.420244
697 2 0.355412 0.0208909 0.345704
699 4 0.348858 0.0324649 0.366877
256 2 0.384849 0.0740739 0.410445
398 4 0.0850128 0.143329 0.338607
397 2 0.0840887 0.140298 0.363409
399 4 0.0831646 0.137268 0.388211
686 4 0.143413 0.167092 0.413299
606 4 0.211903 0.0855436 0.390846
605 4 0.199198 0.133683 0.386167
600 4 0.195488 0.147714 0.372021
604 2 0.20555 0.109613 0.388506
598 2 0.209213 0.161344 0.356177
683 4 0.308064 0.0954689 0.343314
682 2 0.32126 0.108987 0.359694
321 4 0.252632 0.134139 0.407544
684 4 0.334456 0.122504 0.376075
726 4 0.338483 0.124139 0.39806
724 2 0.326708 0.106886 0.411804
468 4 0.350411 0.133049 0.376037
257 4 0.385207 0.0959481 0.398339
466 2 0.345322 0.155568 0.366437
516 4 0.389542 0.116058 0.398378
514 2 0.410078 0.1299 0.394937
515 4 0.430614 0.143743 0.391496
452 4 0.463101 0.135365 0.343633
451 2 0.454533 0.146121 0.364515
453 4 0.445965 0.156878 0.385397
2654 4 0.0294491 0.20572 0.352744
2653 2 0.00695538 0.21576 0.357033
348 4 0.0514503 0.236439 0.400332
474 4 0.240486 0.179789 0.339039
472 2 0.251525 0.197291 0.353075
375 4 0.238157 0.248618 0.413761
473 4 0.262563 0.214792 0.367111
276 4 0.27062 0.233439 0.36995
274 2 0.252868 0.245178 0.383074
467 4 0.340232 0.178087 0.356837
717 4 0.353753 0.238304 0.399631
715 2 0.363877 0.215492 0.398121
716 4 0.374001 0.19268 0.396611
488 4 0.335509 0.240155 0.391071
306 4 0.487568 0.200594 0.385021
304 2 0.4725 0.220317 0.382002
305 4 0.457432 0.240041 0.378983
617 4 0.0814795 0.260728 0.376297
616 2 0.0878056 0.280321 0.362109
618 4 0.0941317 0.299914 0.347922
401 4 0.24175 0.256433 0.343226
678 4 0.190359 0.301816 0.337072
402 4 0.202173 0.285323 0.333241
400 2 0.221962 0.270878 0.338234
275 4 0.235116 0.256917 0.396198
487 2 0.32815 0.263503 0.396162
376 2 0.28426 0.318659 0.349101
378 4 0.26842 0.309051 0.365893
489 4 0.320791 0.28685 0.401253
509 4 0.268734 0.324353 0.378472
268 2 0.46429 0.275098 0.366394
270 4 0.447934 0.270411 0.384716
269 4 0.480647 0.279784 0.348072
560 4 0.490112 0.320772 0.413975
407 4 0.07231 0.377297 0.396788
406 2 0.0822603 0.393888 0.380948
408 4 0.0922107 0.410479 0.365109
510 4 0.243979 0.355628 0.408634
503 4 0.221364 0.402324 0.38683
508 2 0.256357 0.339991 0.393553
433 2 0.354653 0.357603 0.33931
434 4 0.354867 0.338335 0.355242
559 2 0.470979 0.336854 0.414686
561 4 0.451847 0.352935 0.415398
751 2 0.439197 0.384816 0.398944
752 4 0.442656 0.360059 0.398383
753 4 0.435738 0.409573 0.399504
547 2 0.0385213 0.438137 0.354107
549 4 0.0342076 0.43739 0.378724
499 2 0.126043 0.46767 0.365822
500 4 0.125041 0.452809 0.385905
501 4 0.127045 0.482532 0.34574
413 4 0.195126 0.495975 0.363074
502 2 0.231459 0.421522 0.399268
412 2 0.188812 0.490928 0.339414
4 3 0.316703 0.449195 0.405374
1 1 0.331998 0.462582 0.394183
5 3 0.328632 0.48444 0.399618
3 3 0.32978 0.459689 0.371267
2 3 0.353257 0.456407 0.400434
3989 4 0.487951 0.462048 0.359115
119 3 0.494359 0.451124 0.343044
120 3 0.469725 0.422769 0.340434
587 4 0.445565 0.427448 0.399065
1715 4 0.422647 0.49199 0.411154
592 2 0.426779 0.469514 0.345549
588 4 0.432469 0.4753 0.40534
593 4 0.423389 0.456657 0.366724
586 2 0.439017 0.451374 0.402202
369 4 0.0964963 0.0323652 0.444037
367 2 0.108906 0.0526885 0.451662
368 4 0.121316 0.0730119 0.459286
340 2 0.147953 0.0159825 0.494234
342 4 0.160584 0.0229594 0.473815
1817 4 0.259418 0.00304914 0.4572
1816 2 0.27626 0.00338313 0.438722
963 4 0.287716 0.0562878 0.489577
432 4 0.295749 0.0702484 0.477675
258 4 0.38449 0.0521998 0.422552
424 2 0.373877 0.0314421 0.455357
425 4 0.374059 0.0126998 0.471906
426 4 0.373695 0.0501844 0.438808
642 4 0.424468 0.0688555 0.495836
720 4 0.0461478 0.0915175 0.425151
458 4 0.0300779 0.135733 0.476251
718 2 0.0395237 0.108067 0.442685
719 4 0.0328996 0.124616 0.460219
457 2 0.0175285 0.15517 0.466769
687 4 0.0972198 0.150383 0.422663
685 2 0.120317 0.158738 0.417981
260 4 0.0909011 0.146337 0.49848
1151 4 0.170526 0.0965657 0.472656
1150 2 0.181592 0.112196 0.488732
319 2 0.256595 0.153279 0.423136
430 2 0.29903 0.092573 0.466904
431 4 0.302312 0.114898 0.456133
725 4 0.314934 0.0896335 0.425547
346 2 0.0374048 0.231228 0.420351
347 4 0.0233593 0.226018 0.44037
259 2 0.0990348 0.169185 0.492398
1035 4 0.123667 0.204211 0.488782
1033 2 0.135997 0.224683 0.496134
261 4 0.107168 0.192033 0.486316
1034 4 0.148327 0.245155 0.503486
320 4 0.260559 0.17242 0.438728
411 4 0.277054 0.172715 0.449008
409 2 0.278798 0.179165 0.473103
410 4 0.280543 0.185614 0.497197
575 4 0.380281 0.226377 0.469021
574 2 0.388954 0.203487 0.463926
576 4 0.397628 0.180596 0.45883
266 4 0.379782 0.235192 0.451024
325 2 0.151055 0.324817 0.487745
327 4 0.12964 0.329427 0.47569
373 2 0.230994 0.262403 0.433353
374 4 0.223832 0.276188 0.452945
326 4 0.17247 0.320208 0.4998
650 4 0.25382 0.309472 0.460976
651 4 0.302537 0.310912 0.449786
649 2 0.278179 0.310192 0.455381
267 4 0.401988 0.272399 0.426059
265 2 0.390885 0.253796 0.438541
584 4 0.502495 0.294535 0.447967
872 4 0.441743 0.306645 0.476404
871 2 0.433537 0.29689 0.497914
384 4 0.103054 0.389833 0.491139
9 3 0.184724 0.336806 0.502399
710 4 0.249985 0.388557 0.484214
709 2 0.237939 0.367887 0.491479
772 2 0.246781 0.417757 0.449578
774 4 0.245796 0.403084 0.4698
336 4 0.321966 0.399923 0.413577
334 2 0.33646 0.393514 0.432917
335 4 0.350954 0.387104 0.452256
238 2 0.370666 0.382583 0.483194
240 4 0.34893 0.381378 0.470896
239 4 0.392403 0.383788 0.495493
680 4 0.00460605 0.442243 0.427169
773 4 0.247766 0.43243 0.429356
636 4 0.242509 0.448764 0.439686
669 4 0.254519 0.450833 0.423772
635 4 0.213106 0.488549 0.432388
504 4 0.241555 0.44072 0.411706
568 2 0.180592 0.499331 0.430277
634 2 0.227807 0.468656 0.436037
570 4 0.199566 0.488875 0.417795
667 2 0.279436 0.45015 0.421809
668 4 0.304353 0.449467 0.419845
1332 4 0.494171 0.502113 0.456898
1126 2 0.0664485 0.0617934 0.547756
1127 4 0.0535982 0.0406465 0.54417
2236 2 0.0695973 0.0039879 0.523652
2238 4 0.0634643 0.0250717 0.535612
1128 4 0.0792987 0.0829403 0.551342
1059 4 0.10083 0.0512472 0.571927
939 4 0.0976663 0.0811206 0.545065
341 4 0.135322 0.00900567 0.514654
937 2 0.120531 0.0784308 0.535311
938 4 0.143396 0.0757409 0.525558
2430 4 0.188835 0.0214462 0.565291
962 4 0.269969 0.0145485 0.510639
1181 4 0.258326 0.0688574 0.527097
961 2 0.278842 0.0354181 0.500108
842 4 0.345921 0.0364817 0.548665
841 2 0.343696 0.0140578 0.5595
1216 2 0.414531 0.0175768 0.578206
640 2 0.443099 0.0786912 0.509301
1271 4 0.116346 0.156774 0.562306
1154 4 0.125737 0.140947 0.572369
1153 2 0.121366 0.116527 0.575491
1155 4 0.116996 0.0921075 0.578614
1152 4 0.192658 0.127826 0.504807
1220 4 0.207491 0.153243 0.541917
1182 4 0.243831 0.11658 0.523463
1031 4 0.254272 0.0896419 0.571008
1180 2 0.251079 0.0927186 0.52528
900 4 0.327168 0.156643 0.532083
898 2 0.333852 0.145982 0.55369
899 4 0.340536 0.135321 0.575297
641 4 0.46173 0.0885268 0.522767
1198 2 0.00180885 0.177501 0.554922
1200 4 0.0250491 0.18244 0.562711
877 2 0.051818 0.192258 0.528708
879 4 0.0737018 0.198935 0.538792
878 4 0.0299343 0.185581 0.518623
1270 2 0.104669 0.1778 0.555472
1272 4 0.0929919 0.198827 0.548637
1221 4 0.219174 0.201758 0.545161
856 2 0.226548 0.243975 0.551329
1219 2 0.213332 0.177501 0.543539
857 4 0.238771 0.238658 0.530175
791 4 0.300984 0.235441 0.559572
790 2 0.318423 0.244843 0.544319
858 4 0.214324 0.249292 0.572483
695 4 0.166961 0.253778 0.503378
694 2 0.173393 0.277783 0.500627
696 4 0.179826 0.301788 0.497875
1260 4 0.193499 0.270687 0.581196
1259 4 0.181355 0.29371 0.538497
1258 2 0.187427 0.282198 0.559846
8 3 0.195221 0.301185 0.510487
6 1 0.200329 0.32363 0.513413
7 3 0.199674 0.328538 0.535877
10 3 0.221199 0.327959 0.505394
802 2 0.294758 0.294414 0.557534
804 4 0.286272 0.288884 0.534674
803 4 0.303244 0.299945 0.580394
792 4 0.335863 0.254245 0.529067
812 4 0.341478 0.272615 0.531281
811 2 0.357672 0.289895 0.539302
813 4 0.373865 0.307175 0.547323
873 4 0.425331 0.287135 0.519424
1136 4 0.0507359 0.349313 0.549458
935 4 0.00956957 0.409892 0.547006
1135 2 0.0592792 0.355256 0.572192
382 2 0.097646 0.407654 0.507822
897 4 0.167787 0.39184 0.570646
711 4 0.225892 0.347216 0.498743
1160 4 0.169411 0.411687 0.568885
1002 4 0.384318 0.415178 0.537298
925 2 0.454203 0.396814 0.518968
926 4 0.440928 0.383188 0.535194
927 4 0.467478 0.410441 0.502743
1010 4 0.48947 0.371351 0.528945
383 4 0.0922381 0.425476 0.524506
2244 4 0.149313 0.502627 0.515749
1159 2 0.190162 0.422615 0.560215
1161 4 0.210913 0.433542 0.551545
1171 2 0.235475 0.464241 0.563009
1173 4 0.214147 0.451927 0.558689
1172 4 0.256803 0.476556 0.567329
882 4 0.333486 0.487014 0.524855
929 4 0.384297 0.415747 0.556116
928 2 0.370418 0.419831 0.576509
880 2 0.351668 0.47625 0.511485
881 4 0.369849 0.465485 0.498116
1000 2 0.384691 0.434821 0.521832
1001 4 0.385065 0.454465 0.506367
661 2 0.472866 0.491884 0.553218
662 4 0.491496 0.478394 0.56302
1058 4 0.137663 0.050554 0.605744
1057 2 0.119246 0.0509006 0.588836
1092 4 0.321229 0.0104853 0.626311
951 4 0.304443 0.0207503 0.630211
949 2 0.290556 0.0050623 0.643857
1090 2 0.344201 0.00212574 0.631563
1218 4 0.416661 0.0416228 0.584721
1081 2 0.0480563 0.119104 0.648959
1083 4 0.0624858 0.101488 0.638633
1082 4 0.0336268 0.136721 0.659285
1030 2 0.237699 0.0961685 0.588556
1032 4 0.221126 0.102695 0.606104
1282 2 0.233491 0.104885 0.646671
1283 4 0.229745 0.111472 0.622844
3009 4 0.496517 0.117376 0.594237
809 4 0.457 0.117998 0.636901
808 2 0.456122 0.111113 0.660922
1244 4 0.053172 0.245681 0.62705
1243 2 0.0424553 0.248033 0.649518
1207 2 0.104303 0.231852 0.655409
1208 4 0.115686 0.209592 0.655153
1212 4 0.208015 0.199535 0.662189
1210 2 0.226383 0.205024 0.646137
796 2 0.221007 0.248419 0.608342
798 4 0.234625 0.238958 0.627056
1211 4 0.244751 0.210512 0.630084
888 4 0.293579 0.184788 0.585092
886 2 0.311565 0.182106 0.602253
887 4 0.329551 0.179425 0.619414
830 4 0.334693 0.17745 0.638677
829 2 0.348625 0.177539 0.65944
1194 4 0.347024 0.170274 0.619987
1193 4 0.384658 0.177778 0.587924
1192 2 0.365841 0.174026 0.603956
1025 4 0.458847 0.174219 0.638767
1024 2 0.456368 0.193708 0.654234
954 4 0.486217 0.238965 0.607591
1026 4 0.453888 0.213196 0.669701
983 4 0.022814 0.325345 0.597088
1209 4 0.0929193 0.254113 0.655664
947 4 0.174535 0.295936 0.655239
797 4 0.207389 0.25788 0.589628
946 2 0.191973 0.313854 0.654953
948 4 0.20941 0.331772 0.654666
1239 4 0.301921 0.293814 0.599264
1237 2 0.308118 0.288739 0.62295
1238 4 0.314314 0.283664 0.646636
806 4 0.325001 0.29443 0.660009
952 2 0.470726 0.257732 0.613335
953 4 0.455234 0.276498 0.619079
1137 4 0.0678225 0.3612 0.594927
1039 2 0.0396872 0.383911 0.612792
1041 4 0.0629433 0.376231 0.607757
993 4 0.0713373 0.354892 0.612478
991 2 0.081566 0.350846 0.634932
992 4 0.0917947 0.346799 0.657386
1040 4 0.0164311 0.391592 0.617827
3275 4 0.00658216 0.400243 0.632788
895 2 0.149184 0.39209 0.587349
896 4 0.13058 0.392339 0.604053
1191 4 0.2441 0.407163 0.621173
1189 2 0.253995 0.390743 0.605122
1190 4 0.26389 0.374322 0.589071
891 4 0.303959 0.422875 0.614493
1188 4 0.280212 0.449912 0.585452
1186 2 0.275912 0.470808 0.598491
889 2 0.320965 0.436894 0.602686
1187 4 0.271612 0.491704 0.611531
890 4 0.337971 0.450914 0.590878
1953 4 0.346919 0.468095 0.596597
930 4 0.356539 0.423914 0.596902
1951 2 0.339634 0.491688 0.60053
1267 2 0.459692 0.489573 0.607966
1269 4 0.473311 0.472952 0.62075
1185 4 0.0607732 0.00444083 0.693383
944 4 0.0956117 0.0793736 0.663548
943 2 0.113731 0.0763252 0.680507
945 4 0.131849 0.0732768 0.697465
1004 4 0.313157 0.0812862 0.677851
1003 2 0.319583 0.071526 0.699955
1005 4 0.326009 0.0617659 0.72206
2320 2 0.467762 0.00738326 0.741904
43 3 0.434859 0.0720597 0.703528
1163 4 0.498645 0.0238224 0.680756
844 2 0.468719 0.0722827 0.741114
846 4 0.480436 0.0778199 0.719732
1076 4 0.0289155 0.136997 0.690348
1075 2 0.0246171 0.149368 0.711647
1077 4 0.0203186 0.16174 0.732946
864 4 0.0368976 0.156187 0.745268
851 4 0.0557289 0.160691 0.730429
909 4 0.113605 0.128008 0.713817
907 2 0.136921 0.126241 0.704963
908 4 0.160238 0.124473 0.696108
1284 4 0.237238 0.098299 0.670499
1227 4 0.179342 0.116597 0.69362
1225 2 0.197285 0.11486 0.710947
1226 4 0.215228 0.113124 0.728273
1148 4 0.21165 0.10413 0.746386
44 3 0.404476 0.0948824 0.702896
1141 2 0.389873 0.134272 0.715184
1142 4 0.3986 0.110874 0.713955
1143 4 0.381146 0.157671 0.716413
42 3 0.432882 0.101708 0.726543
41 1 0.427509 0.0939746 0.705556
810 4 0.455243 0.104229 0.684944
45 3 0.437658 0.107053 0.689916
1107 4 0.0266941 0.178271 0.744895
850 2 0.0779134 0.169598 0.723102
1245 4 0.0317387 0.250386 0.671986
852 4 0.100098 0.178505 0.715775
978 4 0.225911 0.222262 0.747898
976 2 0.245801 0.217366 0.733559
1130 4 0.174848 0.186539 0.73896
918 4 0.284393 0.221079 0.718454
977 4 0.26569 0.21247 0.719221
916 2 0.306972 0.221912 0.729162
917 4 0.329551 0.222745 0.73987
831 4 0.362557 0.177628 0.680202
1298 4 0.37559 0.169805 0.733732
1263 4 0.414412 0.238712 0.708641
1261 2 0.435513 0.241387 0.721784
1262 4 0.456615 0.244063 0.734928
1177 2 0.0104054 0.266738 0.694487
1179 4 0.029512 0.250982 0.691041
894 4 0.0808342 0.327857 0.68199
892 2 0.0889671 0.315619 0.702221
893 4 0.0971 0.303382 0.722451
1074 4 0.116073 0.295466 0.723526
1072 2 0.114156 0.275659 0.738665
1276 2 0.202268 0.250851 0.744477
821 4 0.18074 0.284013 0.729011
1278 4 0.186356 0.26459 0.730939
820 2 0.176106 0.30561 0.74073
1064 4 0.275183 0.307329 0.713887
805 2 0.330444 0.31254 0.676367
1063 2 0.259195 0.324806 0.70588
1006 2 0.374787 0.331258 0.709025
1007 4 0.39956 0.332339 0.712238
807 4 0.335887 0.330651 0.692725
1008 4 0.350015 0.330176 0.705811
3372 4 0.501582 0.271247 0.741798
3122 4 0.458948 0.309396 0.70744
3121 2 0.454196 0.288319 0.694856
3123 4 0.449444 0.267241 0.682272
1067 4 0.145793 0.363241 0.698018
940 2 0.126427 0.378228 0.730135
941 4 0.146219 0.374982 0.715205
942 4 0.106635 0.381474 0.745065
1066 2 0.168982 0.360402 0.689107
1065 4 0.243208 0.342284 0.697874
1028 4 0.197644 0.369734 0.695987
1068 4 0.192171 0.357563 0.680196
1027 2 0.215826 0.386312 0.691544
1029 4 0.234008 0.402891 0.687101
1099 2 0.455349 0.390698 0.723326
1100 4 0.477589 0.390257 0.734743
1205 4 0.429345 0.410738 0.706593
1101 4 0.433109 0.391138 0.711908
1280 4 0.0278706 0.455253 0.676694
1281 4 0.066551 0.45349 0.708339
1279 2 0.0472108 0.454371 0.692516
885 4 0.0613149 0.453362 0.728446
883 2 0.0701286 0.446999 0.750963
2014 2 0.108463 0.497536 0.707774
2015 4 0.111276 0.4756 0.719439
1176 4 0.210285 0.485698 0.708537
1174 2 0.22728 0.485225 0.690203
1175 4 0.244275 0.484751 0.671869
1138 2 0.314474 0.443167 0.748906
1139 4 0.303207 0.463811 0.740417
1228 2 0.404191 0.450563 0.739648
1229 4 0.420048 0.467235 0.729861
1206 4 0.424368 0.445918 0.671404
1204 2 0.426857 0.428328 0.688999
1249 2 0.483796 0.489801 0.736409
911 4 0.0758618 0.0280124 0.827977
1202 4 0.111292 0.0682381 0.789314
1197 4 0.152489 0.0176788 0.820693
1201 2 0.0954652 0.0864113 0.782648
838 2 0.241681 0.0737306 0.802396
1255 2 0.300304 0.0459904 0.792341
1256 4 0.27693 0.0535301 0.78765
1257 4 0.323677 0.0384507 0.797033
839 4 0.258089 0.0571469 0.793399
975 4 0.33824 0.0430341 0.808955
973 2 0.343115 0.0244479 0.824954
2322 4 0.45301 0.0136413 0.761097
1113 4 0.452795 0.00196908 0.776623
1111 2 0.449801 0.00692173 0.800948
1112 4 0.446806 0.0118744 0.825272
845 4 0.457001 0.0667456 0.762497
862 2 0.0519664 0.139128 0.755616
834 4 0.00629469 0.134308 0.796784
832 2 0.00367124 0.128476 0.772612
863 4 0.0670352 0.122068 0.765964
1203 4 0.0796387 0.104585 0.775982
35 3 0.11902 0.146772 0.814462
1131 4 0.165854 0.150213 0.772131
1149 4 0.181232 0.103588 0.786074
1147 2 0.196441 0.103859 0.76623
840 4 0.225274 0.0903143 0.811394
1129 2 0.170351 0.168376 0.755546
960 4 0.270206 0.135556 0.804302
958 2 0.294564 0.139093 0.808699
959 4 0.318923 0.14263 0.813096
1086 4 0.366669 0.1105 0.789426
1084 2 0.374876 0.0998623 0.810513
1085 4 0.383084 0.0892245 0.831599
1146 4 0.498995 0.154939 0.793633
3270 4 0.496313 0.143782 0.811039
1105 2 0.0403999 0.193261 0.759477
1106 4 0.0541056 0.208252 0.774058
1214 4 0.00490568 0.210451 0.782179
1277 4 0.218179 0.237113 0.758015
1297 2 0.388463 0.17793 0.753568
1299 4 0.401335 0.186056 0.773404
47 3 0.404006 0.185254 0.793283
50 3 0.387904 0.180027 0.826544
46 1 0.405701 0.189382 0.815849
1043 4 0.410285 0.219108 0.799475
49 3 0.405837 0.212329 0.819287
1042 2 0.398436 0.241062 0.797802
1144 2 0.483394 0.174412 0.795243
48 3 0.425449 0.180077 0.823714
1145 4 0.467792 0.193885 0.796853
1307 4 0.481299 0.248019 0.824874
1073 4 0.112239 0.255852 0.753804
822 4 0.171473 0.327206 0.752448
1236 4 0.223674 0.331483 0.808983
1096 2 0.306554 0.31712 0.790793
1098 4 0.322442 0.299546 0.782799
1097 4 0.290665 0.334694 0.798787
801 4 0.277137 0.326323 0.811305
799 2 0.263732 0.312307 0.827085
1044 4 0.386587 0.263015 0.796129
1308 4 0.488387 0.293248 0.804753
1166 4 0.449479 0.25451 0.762576
998 4 0.465031 0.318013 0.783614
1165 2 0.455893 0.278311 0.766762
1167 4 0.462307 0.302113 0.770948
1306 2 0.484843 0.270634 0.814814
997 2 0.489585 0.322655 0.782779
1094 4 0.453177 0.331925 0.818882
778 2 0.0713876 0.336153 0.813736
816 4 0.0546664 0.381447 0.760085
780 4 0.0691568 0.341262 0.789362
814 2 0.0794341 0.384394 0.761833
815 4 0.104202 0.387342 0.763581
1234 2 0.226521 0.349745 0.792144
1235 4 0.229367 0.368008 0.775305
1121 4 0.186739 0.394816 0.813728
1017 4 0.379582 0.410863 0.821392
37 3 0.359369 0.401472 0.825455
1019 4 0.438454 0.3621 0.757084
1018 2 0.444036 0.378369 0.775231
1020 4 0.449619 0.394638 0.793379
884 4 0.0789424 0.440635 0.77348
1080 4 0.141822 0.442948 0.757089
1078 2 0.128355 0.463992 0.758095
1079 4 0.114889 0.485035 0.759101
2175 4 0.104318 0.487164 0.822752