ITEM: TIMESTEP
2200000
ITEM: NUMBER OF ATOMS
4590
ITEM: BOX BOUNDS pp pp pp
-9.9985700000000008e+00 9.9985700000000008e+00
-9.9985700000000008e+00 9.9985700000000008e+00
-9.9985700000000008e+00 9.9985700000000008e+00
ITEM: ATOMS id type xs ys zs
3232 2 0.0564476 0.999919 0.0173393
3234 4 0.0636293 0.0223636 0.00898154
1248 4 0.0463812 0.034295 0.00393629
1246 2 0.0229038 0.0426074 0.00614834
491 4 0.225845 0.020433 0.0539177
490 2 0.24611 0.0210226 0.039284
484 2 0.304482 0.0117174 0.0122643
485 4 0.329462 0.0108061 0.0116768
486 4 0.279502 0.0126286 0.0128519
492 4 0.266375 0.0216122 0.0246502
1607 4 0.335542 0.0308223 0.0135248
1606 2 0.357338 0.0187029 0.0117212
2724 4 0.384784 0.0662611 0.029715
2722 2 0.406654 0.0547271 0.0334376
1608 4 0.379134 0.00658361 0.00991769
2723 4 0.428524 0.0431931 0.0371601
2469 4 0.434156 0.033827 0.0182514
1759 2 0.469742 0.0246683 0.0326167
1760 4 0.447983 0.0367982 0.0347514
1761 4 0.491502 0.0125385 0.0304821
297 4 0.449601 0.0455034 0.0827694
360 4 0.221612 0.122769 0.0206649
358 2 0.232064 0.110419 0.039728
359 4 0.242516 0.0980682 0.0587912
665 4 0.371788 0.0910671 0.0645515
664 2 0.362849 0.1103 0.0513088
666 4 0.353909 0.129533 0.038066
866 4 0.360768 0.129228 0.0188506
769 2 0.460586 0.165517 0.0840499
2624 4 0.0218224 0.188646 0.0325475
2623 2 0.0136274 0.211631 0.0270949
2625 4 0.00543233 0.234615 0.0216423
506 4 0.162298 0.229035 0.0785565
505 2 0.174635 0.225454 0.0571056
507 4 0.186972 0.221872 0.0356546
353 4 0.265101 0.219506 0.0611342
352 2 0.260508 0.243946 0.063733
311 4 0.269753 0.214764 0.0797558
2519 4 0.489009 0.184252 0.0674847
771 4 0.484856 0.170451 0.0806144
2807 4 0.99789 0.316281 0.0385906
656 4 0.00174385 0.296385 0.0390492
481 2 0.0815202 0.30993 0.0205392
655 2 0.000626194 0.271418 0.0382802
3285 4 0.00286941 0.304892 0.0128485
657 4 0.999509 0.246451 0.0375113
483 4 0.0751457 0.294043 0.00231422
1232 4 0.0600336 0.285304 0.996633
355 2 0.125514 0.315297 0.0545864
356 4 0.14352 0.303414 0.067225
482 4 0.0878948 0.325817 0.0387641
357 4 0.107507 0.32718 0.0419478
755 4 0.260036 0.304764 0.0376186
754 2 0.279101 0.296834 0.0517184
756 4 0.298167 0.288904 0.0658181
740 4 0.30636 0.307112 0.0666322
739 2 0.320989 0.322589 0.0797331
354 4 0.255914 0.268386 0.0663317
1304 4 0.46984 0.300491 0.0183382
1303 2 0.46975 0.300194 0.0433399
1305 4 0.46966 0.299897 0.0683415
1306 2 0.441912 0.268826 0.00672151
1308 4 0.45898 0.284325 0.0163965
621 4 0.0247006 0.385551 0.00840519
2787 4 0.0160089 0.371855 0.0211591
2785 2 0.0272265 0.38186 0.04114
2786 4 0.0384441 0.391866 0.0611209
837 4 0.0428002 0.375415 0.071879
314 4 0.060814 0.406358 0.0643395
914 4 0.050848 0.40289 0.0484045
288 4 0.0683648 0.386529 0.0540222
913 2 0.0665342 0.418112 0.0362621
286 2 0.0800262 0.365247 0.0479983
287 4 0.0916876 0.343966 0.0419745
573 4 0.100795 0.335063 0.0227896
571 2 0.116041 0.35083 0.0107845
572 4 0.131287 0.366598 0.998779
2840 4 0.403987 0.408186 0.0542134
1094 4 0.455051 0.3545 0.0225284
1095 4 0.472656 0.401166 0.0261395
1093 2 0.463853 0.377833 0.024334
672 4 0.495675 0.395584 0.0730512
2841 4 0.439222 0.382631 0.0788331
2839 2 0.421605 0.395409 0.0665233
293 4 0.0600957 0.447014 0.0690726
292 2 0.081818 0.458529 0.0736253
3228 4 0.00512771 0.460238 0.00496944
915 4 0.0822204 0.433333 0.0241197
552 4 0.10939 0.467812 0.0611151
550 2 0.119649 0.462212 0.0390117
1439 4 0.124127 0.476935 0.0732935
294 4 0.10354 0.470044 0.0781781
1659 4 0.150933 0.487028 0.0246989
1766 4 0.107179 0.485504 0.0691785
551 4 0.129908 0.456611 0.0169082
64 3 0.222975 0.464894 0.059529
63 3 0.235905 0.448849 0.0275947
61 1 0.229628 0.468799 0.0376453
65 3 0.212602 0.478377 0.0259393
1658 4 0.19932 0.486706 0.0120753
1657 2 0.175127 0.486867 0.0183871
626 4 0.233838 0.480602 0.0648284
62 3 0.247681 0.483054 0.0377926
903 4 0.283219 0.445865 0.034602
901 2 0.305378 0.457282 0.0365539
902 4 0.327537 0.468699 0.0385059
1289 4 0.332545 0.472876 0.0198178
246 4 0.316042 0.486652 0.0653265
252 4 0.351197 0.469696 0.0270362
250 2 0.364952 0.459285 0.0451351
251 4 0.378707 0.448873 0.063234
609 4 0.36408 0.441748 0.0740899
1045 2 0.463204 0.421726 0.0794209
1047 4 0.470131 0.445658 0.0773129
379 2 0.0283655 0.0545054 0.158897
381 4 0.0246631 0.0592799 0.134634
1806 4 0.118411 0.998815 0.116984
579 4 0.13116 0.0168328 0.118326
577 2 0.147971 0.0350416 0.115009
423 4 0.167106 0.0706482 0.100954
578 4 0.164783 0.0532504 0.111692
652 2 0.219625 0.0333261 0.156577
654 4 0.195804 0.0293886 0.150079
581 4 0.184735 0.0457965 0.153951
653 4 0.243447 0.0372637 0.163074
24 3 0.38075 0.0410574 0.114415
21 1 0.376789 0.0571633 0.130642
22 3 0.39607 0.0692567 0.133978
23 3 0.360026 0.0715694 0.123579
25 3 0.370723 0.0471731 0.150188
759 4 0.370377 0.0553389 0.16849
295 2 0.442994 0.0448919 0.106876
296 4 0.436387 0.0442803 0.130983
628 2 0.431813 0.0633568 0.157569
629 4 0.431946 0.0621069 0.132597
558 4 0.439368 0.0768143 0.12105
2893 2 0.488449 0.0594558 0.156945
236 4 0.0956663 0.118039 0.147456
235 2 0.106752 0.137044 0.135577
237 4 0.117837 0.156049 0.123698
477 4 0.115798 0.163544 0.106038
421 2 0.184841 0.0854996 0.110445
534 4 0.215997 0.100079 0.104545
422 4 0.202576 0.100351 0.119936
532 2 0.236141 0.112993 0.1118
533 4 0.256285 0.125906 0.119056
770 4 0.436316 0.160583 0.0874853
557 4 0.446734 0.126273 0.121542
556 2 0.443051 0.101544 0.121296
396 4 0.0105663 0.202555 0.0964359
476 4 0.13148 0.210483 0.113213
475 2 0.123639 0.187014 0.109626
738 4 0.164853 0.22829 0.160109
736 2 0.174644 0.251268 0.15896
310 2 0.267302 0.202467 0.101388
312 4 0.26485 0.190171 0.123021
461 4 0.276135 0.198593 0.137451
460 2 0.29305 0.193128 0.155036
322 2 0.325257 0.236429 0.164515
517 2 0.492768 0.234115 0.126116
518 4 0.474607 0.239363 0.142482
648 4 0.0678509 0.291618 0.141542
646 2 0.0924671 0.290729 0.137248
647 4 0.117083 0.28984 0.132955
337 2 0.151207 0.285219 0.102901
339 4 0.131303 0.285041 0.118033
705 4 0.121071 0.317857 0.103724
338 4 0.171111 0.285398 0.0877695
285 4 0.205709 0.302248 0.115168
283 2 0.203217 0.295275 0.139051
284 4 0.200725 0.288303 0.162933
764 4 0.262394 0.271169 0.0862202
763 2 0.268581 0.277142 0.109698
765 4 0.274768 0.283114 0.133177
612 4 0.285243 0.30004 0.137316
610 2 0.283229 0.316004 0.156454
323 4 0.326885 0.259752 0.155649
624 4 0.409396 0.319932 0.114648
728 4 0.460615 0.24944 0.152754
836 4 0.0407426 0.333927 0.0997218
835 2 0.0417714 0.354671 0.0858004
313 2 0.0635198 0.404114 0.0890947
315 4 0.0662256 0.401869 0.11385
1757 4 0.0680708 0.389206 0.129365
1756 2 0.0671031 0.398802 0.152434
703 2 0.125163 0.340733 0.112949
704 4 0.129254 0.36361 0.122175
417 4 0.130248 0.367306 0.143136
415 2 0.137598 0.369661 0.166919
456 4 0.148021 0.361921 0.131981
455 4 0.19735 0.356157 0.126137
454 2 0.172686 0.359039 0.129059
741 4 0.335618 0.338066 0.0928341
386 4 0.352748 0.347227 0.0977915
387 4 0.358705 0.38154 0.133678
385 2 0.355726 0.364383 0.115735
13 3 0.364888 0.378013 0.151899
11 1 0.385915 0.385567 0.158162
15 3 0.393727 0.400439 0.142786
12 3 0.40024 0.367604 0.159287
623 4 0.405776 0.362837 0.14008
494 4 0.408302 0.413584 0.139185
622 2 0.407586 0.341385 0.127364
104 3 0.459427 0.373179 0.0816483
1046 4 0.456276 0.397794 0.0815288
105 3 0.439955 0.39273 0.107266
101 1 0.456358 0.377214 0.104291
102 3 0.450176 0.357587 0.114572
956 4 0.493793 0.395292 0.109349
103 3 0.476169 0.384723 0.113755
563 4 0.494524 0.387115 0.0909596
1438 2 0.145916 0.473102 0.084944
1440 4 0.167705 0.469268 0.0965945
627 4 0.229177 0.496821 0.111902
625 2 0.231507 0.488712 0.0883652
243 4 0.177962 0.462717 0.108839
242 4 0.213908 0.432274 0.0920516
241 2 0.195935 0.447495 0.100445
244 2 0.31489 0.491821 0.0897628
1573 2 0.287286 0.488506 0.139226
1574 4 0.272008 0.469982 0.146198
523 2 0.35851 0.499266 0.147631
608 4 0.353167 0.424295 0.119664
658 2 0.413517 0.491122 0.162714
525 4 0.346801 0.477804 0.142393
607 2 0.358623 0.433022 0.0968771
659 4 0.40115 0.470977 0.154566
495 4 0.395973 0.462036 0.138123
493 2 0.402138 0.43781 0.138654
380 4 0.0320679 0.0497309 0.183159
511 2 0.0452269 0.060907 0.244112
513 4 0.0319607 0.0801002 0.235123
582 4 0.15176 0.0689427 0.183576
567 4 0.139324 0.0828188 0.191108
234 4 0.100176 0.0377187 0.251213
580 2 0.168248 0.0573696 0.168764
673 2 0.214251 0.0212077 0.222872
674 4 0.221304 0.02343 0.246757
675 4 0.207198 0.0189854 0.198987
1464 4 0.310421 0.0133683 0.240878
757 2 0.378576 0.0677102 0.188612
758 4 0.386774 0.0800815 0.208734
2895 4 0.471875 0.0755686 0.166478
630 4 0.43168 0.0646068 0.18254
531 4 0.0238798 0.0889219 0.220031
565 2 0.155218 0.0985314 0.202318
566 4 0.171112 0.114244 0.213529
599 4 0.194514 0.142818 0.251857
598 2 0.191269 0.132938 0.229119
600 4 0.188024 0.123058 0.20638
632 4 0.281639 0.147071 0.247056
390 4 0.0521262 0.241782 0.233627
405 4 0.0711541 0.232038 0.236093
388 2 0.0282416 0.248949 0.235451
444 4 0.0682301 0.24666 0.2466
393 4 0.152257 0.193644 0.223231
404 4 0.109014 0.202084 0.223047
403 2 0.0900838 0.217061 0.22957
391 2 0.165129 0.181181 0.240672
462 4 0.309964 0.187664 0.17262
324 4 0.32363 0.213107 0.17338
27 3 0.291243 0.169461 0.214834
255 4 0.332097 0.194236 0.179692
29 3 0.302451 0.194766 0.189404
26 1 0.305102 0.187472 0.211271
30 3 0.299587 0.20416 0.225753
28 3 0.32706 0.180856 0.214807
253 2 0.356145 0.197967 0.185433
254 4 0.380193 0.201698 0.191173
332 4 0.470153 0.181069 0.24068
331 2 0.481344 0.203247 0.24352
333 4 0.492535 0.225426 0.246361
309 4 0.419197 0.243768 0.253726
363 4 0.0497548 0.275914 0.176953
361 2 0.0634003 0.282474 0.196851
362 4 0.0770458 0.289034 0.216749
389 4 0.00435699 0.256117 0.237276
750 4 0.0893775 0.305006 0.220515
748 2 0.0946084 0.314615 0.242998
737 4 0.184434 0.274247 0.157811
371 4 0.176329 0.305259 0.218461
372 4 0.184354 0.286145 0.172953
370 2 0.180342 0.295702 0.195707
498 4 0.427205 0.276622 0.207503
727 2 0.448507 0.257773 0.172981
497 4 0.426548 0.326041 0.199886
307 2 0.429826 0.252713 0.232936
308 4 0.440455 0.261659 0.212147
496 2 0.426877 0.301332 0.203695
729 4 0.4364 0.266107 0.193208
522 4 0.492456 0.305284 0.239469
762 4 0.497408 0.325249 0.237837
1758 4 0.0661354 0.408397 0.175503
603 4 0.0580463 0.417318 0.231515
601 2 0.0829657 0.417367 0.229466
416 4 0.144948 0.372016 0.190701
290 4 0.126097 0.410745 0.231094
602 4 0.107885 0.417416 0.227417
638 4 0.121222 0.423365 0.214186
611 4 0.281215 0.331969 0.175592
302 4 0.287318 0.34905 0.18328
301 2 0.301938 0.368644 0.188522
303 4 0.316558 0.388239 0.193764
14 3 0.384825 0.395612 0.17905
645 4 0.388189 0.394508 0.199338
643 2 0.411049 0.402856 0.205077
644 4 0.433908 0.411205 0.210815
3715 2 0.0145893 0.499854 0.218494
3716 4 0.0110955 0.490673 0.195501
637 2 0.136026 0.4435 0.213423
639 4 0.150831 0.463635 0.212661
107 3 0.48304 0.424114 0.215954
109 3 0.462957 0.421752 0.184272
110 3 0.44576 0.424519 0.217653
106 1 0.463817 0.431158 0.205466
108 3 0.464203 0.454302 0.203851
512 4 0.0584931 0.0417138 0.253101
2739 4 0.998194 0.0718544 0.302624
233 4 0.0976555 0.00951336 0.29243
232 2 0.0989157 0.023616 0.271821
544 2 0.0865416 0.0714476 0.315498
546 4 0.0975005 0.0584087 0.333803
467 4 0.226695 0.0313855 0.263635
466 2 0.236392 0.0544319 0.263566
440 4 0.2202 0.0160165 0.309196
429 4 0.207612 0.0194277 0.260417
427 2 0.213527 0.00747684 0.281568
468 4 0.24609 0.0774782 0.263497
439 2 0.233583 0.0158394 0.330316
1462 2 0.287958 0.00595296 0.248977
707 4 0.296201 0.0747929 0.337346
479 4 0.441086 0.0440675 0.286232
478 2 0.464027 0.0486636 0.277414
480 4 0.486969 0.0532596 0.268596
545 4 0.0755827 0.0844865 0.297193
683 4 0.236749 0.0855706 0.280053
2483 4 0.173877 0.114628 0.295089
2482 2 0.181761 0.134115 0.281551
474 4 0.238987 0.127985 0.329678
2484 4 0.189646 0.153601 0.268013
682 2 0.249029 0.10175 0.294634
392 4 0.178 0.168719 0.258113
706 2 0.316962 0.088332 0.334048
684 4 0.26131 0.117929 0.309215
633 4 0.276414 0.138043 0.295963
631 2 0.279027 0.142557 0.271509
726 4 0.27423 0.131919 0.315886
743 4 0.347137 0.106986 0.315222
744 4 0.339774 0.100995 0.266124
742 2 0.343455 0.103991 0.290673
351 4 0.352406 0.116567 0.333525
452 4 0.412816 0.124973 0.331659
451 2 0.429221 0.134384 0.315304
453 4 0.445626 0.143795 0.298948
249 4 0.191181 0.174434 0.271839
247 2 0.209679 0.187381 0.282581
248 4 0.228176 0.200329 0.293323
279 4 0.235748 0.214684 0.281463
277 2 0.250325 0.234985 0.280737
2682 4 0.491696 0.242937 0.256854
305 4 0.442219 0.243183 0.32221
442 2 0.0727191 0.252946 0.27038
443 4 0.0772081 0.259231 0.294161
749 4 0.0998393 0.324224 0.265481
299 4 0.107274 0.326566 0.306732
536 4 0.25134 0.262995 0.265743
535 2 0.254568 0.287674 0.268127
278 4 0.264903 0.255287 0.280011
537 4 0.257795 0.312354 0.270511
419 4 0.363737 0.289389 0.269537
418 2 0.382543 0.273373 0.273415
420 4 0.401348 0.257358 0.277293
306 4 0.410929 0.267547 0.291746
304 2 0.426574 0.255365 0.306978
2681 4 0.480385 0.281222 0.286971
2680 2 0.486041 0.262079 0.271912
548 4 0.0696523 0.359881 0.312533
547 2 0.0448735 0.356687 0.313528
549 4 0.0200946 0.353494 0.314522
681 4 0.0105148 0.351244 0.332182
289 2 0.136566 0.397589 0.249601
298 2 0.11895 0.342025 0.322539
291 4 0.147036 0.384434 0.268107
345 4 0.23337 0.342501 0.335886
343 2 0.2493 0.359392 0.326606
344 4 0.265229 0.376283 0.317326
436 2 0.298168 0.403239 0.31818
438 4 0.279909 0.38796 0.325816
434 4 0.424747 0.371807 0.316533
433 2 0.443473 0.383175 0.328586
3958 2 0.0310231 0.449107 0.322971
3959 4 0.019783 0.459194 0.303043
2462 4 0.0118452 0.443117 0.290841
1319 4 0.0108695 0.464103 0.284403
499 2 0.0961591 0.451835 0.318834
500 4 0.103409 0.429054 0.31151
501 4 0.088909 0.474616 0.326159
437 4 0.316428 0.418518 0.310543
1557 4 0.253121 0.4461 0.334119
541 2 0.475394 0.487333 0.306351
542 4 0.482033 0.466347 0.294489
318 4 0.00110235 0.0657563 0.377309
732 4 0.0776314 0.0630865 0.388793
691 2 0.129076 0.0159137 0.345084
693 4 0.122355 0.0394947 0.349977
605 4 0.156612 0.0647695 0.376876
731 4 0.106608 0.050814 0.349928
730 2 0.0921195 0.0569503 0.369361
604 2 0.173413 0.0832838 0.376523
441 4 0.246965 0.0156623 0.351436
1670 4 0.318637 0.0408589 0.402948
1517 4 0.373935 0.00557806 0.332435
1669 2 0.337508 0.0454423 0.387199
1516 2 0.370424 0.0277864 0.343373
697 2 0.393783 0.0608704 0.386076
699 4 0.373837 0.0591023 0.371103
1671 4 0.35638 0.0500257 0.37145
1518 4 0.366912 0.0499947 0.354311
698 4 0.413729 0.0626386 0.40105
398 4 0.146143 0.128575 0.338165
397 2 0.165915 0.136887 0.351016
399 4 0.185688 0.145199 0.363867
276 4 0.192031 0.127333 0.373648
606 4 0.190214 0.101798 0.37617
473 4 0.20226 0.1402 0.361343
274 2 0.197837 0.133928 0.397056
472 2 0.220623 0.134093 0.345511
724 2 0.284198 0.138368 0.337891
708 4 0.337722 0.101871 0.330751
725 4 0.294166 0.144817 0.359896
430 2 0.322838 0.125522 0.392297
431 4 0.320666 0.134353 0.369006
432 4 0.32501 0.116691 0.415588
349 2 0.376489 0.118873 0.339836
350 4 0.400573 0.121178 0.346148
256 2 0.381746 0.118205 0.402669
257 4 0.376511 0.139226 0.390184
1581 4 0.392428 0.148794 0.381735
516 4 0.379454 0.15793 0.395143
514 2 0.365933 0.177499 0.387432
1579 2 0.417114 0.152262 0.379806
1580 4 0.441801 0.155729 0.377877
373 2 0.221823 0.180122 0.413724
510 4 0.245092 0.211993 0.396544
374 4 0.231938 0.202341 0.408326
508 2 0.267746 0.204986 0.404474
487 2 0.312147 0.205684 0.37289
488 4 0.297782 0.205182 0.393349
509 4 0.2904 0.197979 0.412404
717 4 0.309143 0.204813 0.409548
489 4 0.326512 0.206185 0.352431
515 4 0.352413 0.197067 0.379722
584 4 0.465795 0.186391 0.37911
267 4 0.451981 0.172995 0.385958
583 2 0.487954 0.197296 0.375204
265 2 0.449724 0.178871 0.410157
618 4 0.0524388 0.287082 0.390094
407 4 0.0581622 0.291795 0.372321
406 2 0.0794135 0.290277 0.359235
616 2 0.0540662 0.298723 0.412163
408 4 0.100665 0.288758 0.346148
402 4 0.229722 0.324333 0.34493
1260 4 0.23987 0.282688 0.379092
400 2 0.242544 0.305638 0.355479
1258 2 0.24766 0.271951 0.400287
401 4 0.255365 0.286942 0.366027
593 4 0.316344 0.318392 0.368787
378 4 0.332218 0.319653 0.357399
377 4 0.375336 0.32925 0.33396
376 2 0.353777 0.324451 0.345679
269 4 0.499386 0.277904 0.38313
735 4 0.0730635 0.369056 0.376542
733 2 0.0939965 0.367971 0.36291
300 4 0.130627 0.357484 0.338346
766 2 0.149187 0.378751 0.35548
767 4 0.129443 0.375596 0.340467
734 4 0.114929 0.366886 0.349279
678 4 0.217231 0.339778 0.348134
768 4 0.168932 0.381907 0.370492
677 4 0.18514 0.375045 0.363203
676 2 0.201186 0.357411 0.355668
592 2 0.316876 0.338718 0.383338
594 4 0.317408 0.359045 0.397889
435 4 0.462199 0.394543 0.340638
586 2 0.492331 0.369607 0.36177
587 4 0.472882 0.380034 0.350015
3960 4 0.0422632 0.439021 0.342898
776 4 0.0729277 0.473976 0.33684
775 2 0.0814321 0.495954 0.345195
503 4 0.150518 0.423044 0.389432
502 2 0.159334 0.443733 0.400359
414 4 0.180527 0.420157 0.342474
1436 4 0.21144 0.468869 0.354681
412 2 0.187057 0.442189 0.352328
504 4 0.168151 0.464422 0.411286
1435 2 0.219706 0.490854 0.363256
413 4 0.193587 0.464222 0.362182
667 2 0.310321 0.498986 0.370522
1555 2 0.267439 0.464807 0.342499
1556 4 0.281757 0.483513 0.350879
669 4 0.300315 0.48005 0.357621
1743 4 0.477748 0.483706 0.361421
1741 2 0.474027 0.492578 0.3845
1742 4 0.470306 0.501449 0.407579
1602 4 0.0427033 0.00932537 0.440005
1058 4 0.00403047 0.0638677 0.469606
2430 4 0.112425 0.0760519 0.492639
1816 2 0.236297 0.00430433 0.463205
962 4 0.243139 0.046196 0.460954
961 2 0.240062 0.0648089 0.477364
1817 4 0.233387 0.029043 0.461036
963 4 0.236986 0.0834218 0.493774
88 3 0.467293 0.00595201 0.467422
1059 4 0.0089917 0.112789 0.460504
368 4 0.0168647 0.128247 0.448762
1057 2 0.00651109 0.0883282 0.465055
260 4 0.140568 0.148496 0.498529
375 4 0.211707 0.157902 0.419121
275 4 0.203643 0.140524 0.420465
687 4 0.193497 0.110213 0.477492
685 2 0.201922 0.117756 0.455192
686 4 0.210347 0.125299 0.432892
425 4 0.322769 0.120153 0.436198
258 4 0.386981 0.0971844 0.415155
424 2 0.339962 0.109831 0.451133
426 4 0.357154 0.099509 0.466068
321 4 0.350142 0.157939 0.459297
715 2 0.328672 0.209394 0.424476
711 4 0.304196 0.244694 0.46841
650 4 0.317625 0.240407 0.48319
649 2 0.337255 0.229927 0.471788
716 4 0.3482 0.213974 0.439404
651 4 0.356885 0.219447 0.460386
409 2 0.397529 0.230365 0.475815
410 4 0.41922 0.237535 0.485979
411 4 0.375839 0.223194 0.465651
319 2 0.359839 0.180842 0.461869
320 4 0.369536 0.203745 0.464441
576 4 0.439857 0.23224 0.482492
574 2 0.447376 0.215742 0.465274
575 4 0.454895 0.199245 0.448055
266 4 0.447468 0.184747 0.434355
617 4 0.0556935 0.310364 0.434231
1135 2 0.144252 0.292955 0.484688
1136 4 0.162633 0.280409 0.473289
1137 4 0.12587 0.3055 0.496086
709 2 0.285385 0.249918 0.452789
1259 4 0.25545 0.261214 0.421482
710 4 0.266574 0.255143 0.437168
2813 4 0.0382126 0.347826 0.457513
2812 2 0.0525608 0.35239 0.477475
1191 4 0.192474 0.397246 0.466872
1189 2 0.179185 0.416044 0.47663
3602 4 0.462268 0.415094 0.469609
561 4 0.477399 0.40399 0.481375
559 2 0.494592 0.390823 0.493874
384 4 0.0474712 0.422205 0.494217
383 4 0.0660516 0.461925 0.470179
382 2 0.0567614 0.442065 0.482198
1161 4 0.148833 0.423588 0.487957
1190 4 0.165897 0.434842 0.486389
1159 2 0.125702 0.420118 0.496793
1173 4 0.158902 0.451738 0.479577
1171 2 0.164421 0.468384 0.461754
1172 4 0.16994 0.485029 0.443932
3988 2 0.43683 0.451325 0.434805
3990 4 0.42268 0.430711 0.434753
751 2 0.496558 0.433229 0.458912
1267 2 0.459414 0.492671 0.468913
752 4 0.4803 0.422455 0.474558
1715 4 0.479392 0.500163 0.426056
117 3 0.436296 0.483443 0.429123
1714 2 0.495559 0.481589 0.430397
3601 2 0.446749 0.419179 0.488783
3989 4 0.45098 0.47194 0.434856
1268 4 0.462721 0.477307 0.449466
823 2 0.0452418 0.0759711 0.540323
824 4 0.0628004 0.0599086 0.53265
2429 4 0.0686539 0.0673961 0.515219
2428 2 0.0905396 0.071724 0.503929
1180 2 0.235143 0.0633603 0.566208
1181 4 0.246492 0.0574237 0.544734
2333 4 0.344475 0.00245572 0.581143
825 4 0.0276832 0.0920336 0.547996
879 4 0.0690412 0.153427 0.532481
877 2 0.0456433 0.144862 0.534568
470 4 0.0141006 0.122259 0.546844
878 4 0.0222454 0.136297 0.536656
1272 4 0.0771082 0.145041 0.550523
259 2 0.126185 0.160923 0.514774
1270 2 0.0877072 0.152127 0.572032
944 4 0.236845 0.130635 0.559001
945 4 0.262292 0.165155 0.533282
943 2 0.249569 0.147895 0.546142
1150 2 0.297602 0.154374 0.520582
1152 4 0.314526 0.136157 0.517955
900 4 0.367096 0.120907 0.551056
898 2 0.354994 0.135482 0.567375
1218 4 0.398578 0.0948944 0.58448
3053 4 0.463591 0.142123 0.549876
3052 2 0.477336 0.125581 0.562627
3054 4 0.491082 0.10904 0.575379
261 4 0.111802 0.173349 0.531019
1033 2 0.127705 0.196744 0.557978
1034 4 0.134869 0.219168 0.566407
1035 4 0.120541 0.174321 0.549549
1219 2 0.241621 0.193899 0.516715
1221 4 0.220291 0.206808 0.51482
1220 4 0.26295 0.180989 0.518611
1151 4 0.280678 0.172591 0.52321
327 4 0.271524 0.181116 0.540431
791 4 0.261051 0.220688 0.510635
790 2 0.27317 0.242143 0.514875
325 2 0.278123 0.1866 0.563916
2847 4 0.0258944 0.308661 0.581668
2846 4 0.0391771 0.320145 0.534845
2845 2 0.0325357 0.314403 0.558256
3327 4 0.00570398 0.308165 0.590924
1041 4 0.111957 0.312643 0.506273
1039 2 0.0950426 0.330889 0.508757
813 4 0.247499 0.318622 0.534494
792 4 0.28529 0.263598 0.519115
804 4 0.295715 0.2814 0.532373
812 4 0.277466 0.279169 0.527698
811 2 0.262482 0.298895 0.531096
802 2 0.320109 0.286427 0.530167
803 4 0.344502 0.291453 0.527962
1263 4 0.500272 0.291045 0.576407
2814 4 0.0669089 0.356953 0.497437
1040 4 0.0781284 0.349135 0.511241
896 4 0.0968007 0.366316 0.548807
895 2 0.10359 0.383584 0.532047
897 4 0.110379 0.400853 0.515288
238 2 0.320602 0.414526 0.508428
239 4 0.295992 0.417032 0.512069
240 4 0.345211 0.412021 0.504786
1160 4 0.10257 0.416647 0.50563
538 2 0.14491 0.486493 0.5338
539 4 0.142169 0.462608 0.540667
1395 4 0.216811 0.496418 0.500702
1187 4 0.233263 0.486716 0.50787
1174 2 0.323189 0.491303 0.580219
1002 4 0.422744 0.498741 0.562549
1000 2 0.407481 0.485005 0.576816
4084 2 0.486328 0.49645 0.517319
4147 2 0.457823 0.49764 0.562447
4148 4 0.475148 0.481242 0.569939
4149 4 0.440498 0.514038 0.554954
4086 4 0.500456 0.493148 0.537682
3603 4 0.431229 0.423264 0.507958
2317 2 0.067931 0.00281277 0.588927
2318 4 0.0570166 0.0107251 0.609985
1032 4 0.163053 0.0519693 0.618203
1283 4 0.143296 0.058061 0.663017
1182 4 0.223794 0.0692968 0.587682
1031 4 0.206055 0.0640229 0.595703
1030 2 0.184554 0.0579961 0.606953
950 4 0.235086 0.0106732 0.608446
99 3 0.202715 0.00133296 0.631378
949 2 0.258376 0.0183517 0.613323
951 4 0.281666 0.0260301 0.618201
841 2 0.34142 0.0438242 0.60702
843 4 0.318766 0.0459058 0.617395
1003 2 0.390363 0.0113395 0.592911
1216 2 0.389659 0.0716141 0.586391
842 4 0.364074 0.0417427 0.596645
1217 4 0.380739 0.0483339 0.588302
1005 4 0.378836 0.0312114 0.60278
2343 4 0.431547 0.00994538 0.645828
1198 2 0.0147857 0.118389 0.640094
1200 4 0.0372565 0.109291 0.646215
1073 4 0.0346976 0.11462 0.66491
1153 2 0.126974 0.136086 0.614588
1282 2 0.144445 0.0792675 0.649821
1155 4 0.140201 0.116565 0.622901
1284 4 0.145594 0.100474 0.636624
1271 4 0.0983063 0.159213 0.59354
1154 4 0.113746 0.155608 0.606275
1211 4 0.158337 0.114079 0.630705
1210 2 0.176613 0.128631 0.639617
1212 4 0.194889 0.143182 0.648529
886 2 0.305416 0.087505 0.663342
887 4 0.304005 0.0985506 0.640955
899 4 0.342891 0.150057 0.583693
1194 4 0.355497 0.158257 0.598216
3401 4 0.482 0.103234 0.624641
3400 2 0.498016 0.0984831 0.606038
1164 4 0.473809 0.110549 0.643779
1207 2 0.00658734 0.207679 0.643989
1209 4 0.0136784 0.225577 0.659945
1076 4 0.997297 0.173756 0.664279
907 2 0.0886177 0.230226 0.618732
909 4 0.101277 0.211001 0.628496
1065 4 0.13147 0.215924 0.639712
1063 2 0.144555 0.200888 0.654808
695 4 0.144774 0.241155 0.592578
694 2 0.166372 0.242628 0.605089
798 4 0.153933 0.24839 0.657747
696 4 0.18797 0.2441 0.617601
326 4 0.284722 0.192084 0.587402
1192 2 0.354587 0.175972 0.615838
1193 4 0.353678 0.193686 0.633461
953 4 0.475776 0.198028 0.586151
1024 2 0.416691 0.212614 0.654841
1026 4 0.42544 0.207465 0.631991
954 4 0.44016 0.198714 0.621247
952 2 0.457968 0.198371 0.603699
3263 4 0.0135322 0.325134 0.58611
984 4 0.0219626 0.311673 0.602742
908 4 0.0759585 0.249451 0.608969
982 2 0.0352923 0.329524 0.614093
856 2 0.13265 0.328154 0.635817
858 4 0.147653 0.309613 0.643322
796 2 0.157749 0.272678 0.653197
797 4 0.161566 0.296966 0.648646
3123 4 0.487918 0.269012 0.639505
3356 4 0.493327 0.250988 0.629718
3121 2 0.476148 0.289227 0.648338
3122 4 0.464379 0.309442 0.657171
1261 2 0.498074 0.281018 0.599207
983 4 0.048622 0.347375 0.625443
3275 4 0.0408736 0.340152 0.642337
3274 2 0.049312 0.351068 0.663189
857 4 0.117647 0.346695 0.628313
1007 4 0.408219 0.363856 0.635283
1006 2 0.417274 0.385122 0.625748
1008 4 0.426329 0.406389 0.616214
3329 4 0.4936 0.344651 0.662459
2172 4 0.0829703 0.496709 0.636011
2014 2 0.109858 0.467673 0.654505
2016 4 0.0966265 0.483236 0.640086
1067 4 0.250855 0.470878 0.582772
1066 2 0.267541 0.481876 0.597798
1027 2 0.313901 0.48147 0.636827
1068 4 0.284228 0.492873 0.612825
1175 4 0.305671 0.491733 0.598055
1028 4 0.303309 0.49351 0.617644
1029 4 0.324494 0.469429 0.65601
1001 4 0.392219 0.471268 0.591083
2169 4 0.489295 0.487723 0.583393
1250 4 0.491506 0.479039 0.652012
2167 2 0.489599 0.483181 0.607978
2168 4 0.489904 0.478638 0.632564
1296 4 0.000913057 0.0159048 0.706183
1185 4 0.0892516 0.0164686 0.686425
2200 2 0.22178 0.000670534 0.666339
2201 4 0.212509 0.0144975 0.684995
1149 4 0.210137 0.0467446 0.710902
1147 2 0.194009 0.0567676 0.727168
1148 4 0.17788 0.0667907 0.743435
1239 4 0.247793 0.0368253 0.686802
1237 2 0.269827 0.0483461 0.689442
1238 4 0.29186 0.0598668 0.692083
888 4 0.306827 0.0764595 0.685729
806 4 0.295482 0.0778978 0.701208
1112 4 0.355172 0.035454 0.744285
1111 2 0.369527 0.0555459 0.748212
1113 4 0.383882 0.0756378 0.752139
1072 2 0.0478806 0.127709 0.681646
1074 4 0.0610635 0.140797 0.698381
862 2 0.00182058 0.138094 0.733033
947 4 0.075002 0.151225 0.688258
9 3 0.153651 0.131653 0.669909
10 3 0.136455 0.102587 0.686555
6 1 0.143018 0.124239 0.689154
946 2 0.099629 0.154485 0.691097
8 3 0.124599 0.137606 0.693678
948 4 0.124256 0.157744 0.693937
1277 4 0.162519 0.159386 0.7075
7 3 0.157728 0.125633 0.706785
916 2 0.237775 0.126736 0.711847
917 4 0.233066 0.108977 0.694888
918 4 0.242485 0.144495 0.728807
992 4 0.171274 0.140875 0.705437
978 4 0.167192 0.134835 0.723734
976 2 0.17609 0.14682 0.743793
991 2 0.18926 0.149828 0.690554
993 4 0.207246 0.158782 0.675671
45 3 0.257993 0.158541 0.730363
805 2 0.301115 0.0944422 0.719089
807 4 0.306749 0.110987 0.73697
2399 4 0.382744 0.0920367 0.741984
2398 2 0.372151 0.103905 0.722694
2400 4 0.361558 0.115774 0.703404
2322 4 0.390198 0.0934309 0.760271
1162 2 0.481333 0.114595 0.667278
1163 4 0.488856 0.118642 0.690777
1276 2 0.145822 0.177904 0.709368
1278 4 0.129125 0.196421 0.711236
1064 4 0.15764 0.185852 0.669904
830 4 0.3692 0.243849 0.67677
1025 4 0.407943 0.217763 0.677691
846 4 0.378754 0.178495 0.711995
844 2 0.396319 0.190329 0.725284
845 4 0.413884 0.202163 0.738573
821 4 0.0690375 0.294117 0.74846
829 2 0.364172 0.254904 0.698626
831 4 0.359144 0.265959 0.720482
809 4 0.359884 0.274118 0.736346
3204 4 0.377059 0.273887 0.723582
3202 2 0.399924 0.275171 0.733617
808 2 0.340696 0.266207 0.750291
3203 4 0.42279 0.276456 0.743652
3276 4 0.0577503 0.361984 0.684041
780 4 0.080971 0.376046 0.748419
816 4 0.0784317 0.374164 0.728298
814 2 0.0726694 0.377708 0.704227
815 4 0.066907 0.381252 0.680156
885 4 0.0728475 0.410753 0.728125
940 2 0.128934 0.371305 0.740349
941 4 0.122811 0.390944 0.726137
1080 4 0.11725 0.402964 0.710399
2013 4 0.137912 0.395674 0.712468
883 2 0.0942041 0.412427 0.74102
2011 2 0.162329 0.397603 0.707441
2012 4 0.186745 0.399531 0.702414
1230 4 0.336465 0.399591 0.742647
859 2 0.489096 0.410711 0.725752
3328 2 0.494827 0.359719 0.682375
1281 4 0.059252 0.423304 0.720859
1280 4 0.0579022 0.439846 0.673687
1279 2 0.0585771 0.431575 0.697273
2015 4 0.123089 0.45211 0.668923
1079 4 0.112765 0.435697 0.672861
1078 2 0.115008 0.419331 0.69163
929 4 0.295942 0.466423 0.726786
928 2 0.28238 0.486439 0.73316
1228 2 0.341741 0.422633 0.734498
1229 4 0.347016 0.445675 0.726349
998 4 0.34944 0.465474 0.73278
997 2 0.36792 0.471157 0.748633
860 4 0.491807 0.428634 0.742974
1249 2 0.492482 0.470722 0.675572
1206 4 0.439927 0.457014 0.737706
1251 4 0.493458 0.462406 0.699132
1226 4 0.182088 0.0746289 0.761989
2321 4 0.427715 0.0761918 0.788484
863 4 0.0152751 0.135463 0.753943
1203 4 0.0235606 0.126625 0.770197
1201 2 0.0141535 0.106995 0.7825
893 4 0.0157268 0.147387 0.833352
1227 4 0.158256 0.117721 0.770696
1130 4 0.152567 0.158444 0.832462
1225 2 0.170172 0.0961748 0.766342
44 3 0.246065 0.163426 0.76574
977 4 0.184989 0.158804 0.763852
41 1 0.264494 0.159632 0.752162
43 3 0.274925 0.139839 0.758313
1257 4 0.312375 0.121534 0.756266
1255 2 0.327549 0.118699 0.775935
2320 2 0.408957 0.0848113 0.774378
958 2 0.374972 0.102349 0.821591
1256 4 0.342724 0.115863 0.795604
1086 4 0.343983 0.129343 0.809347
959 4 0.359748 0.115965 0.807168
819 4 0.400742 0.133457 0.784133
817 2 0.404393 0.157848 0.780017
960 4 0.390196 0.0887329 0.836013
1084 2 0.337539 0.149508 0.822652
1110 4 0.451999 0.111746 0.813054
1108 2 0.452564 0.0964637 0.832836
1235 4 0.146079 0.246115 0.772961
42 3 0.279356 0.176994 0.754776
1143 4 0.307168 0.203293 0.802009
1142 4 0.274531 0.177108 0.774625
1141 2 0.290849 0.1902 0.788317
1298 4 0.321231 0.200522 0.815868
1297 2 0.320704 0.221875 0.828867
48 3 0.403866 0.213597 0.799266
818 4 0.408044 0.182239 0.775901
46 1 0.416991 0.216957 0.818103
49 3 0.425274 0.238631 0.818223
50 3 0.434212 0.202056 0.818332
1104 4 0.0111207 0.248935 0.815784
1102 2 0.0306547 0.263808 0.81105
970 2 0.0468478 0.319234 0.805293
971 4 0.0487119 0.296272 0.815012
1103 4 0.0501887 0.278681 0.806316
820 2 0.0905876 0.294406 0.761137
822 4 0.112138 0.294696 0.773813
1236 4 0.119902 0.284439 0.791582
1234 2 0.13299 0.265277 0.782272
1121 4 0.129673 0.297932 0.778294
1120 2 0.136088 0.321921 0.775367
810 4 0.321509 0.258296 0.764235
1096 2 0.294128 0.302155 0.810764