ITEM: TIMESTEP
2850000
ITEM: NUMBER OF ATOMS
4590
ITEM: BOX BOUNDS pp pp pp
-9.9985700000000008e+00 9.9985700000000008e+00
-9.9985700000000008e+00 9.9985700000000008e+00
-9.9985700000000008e+00 9.9985700000000008e+00
ITEM: ATOMS id type xs ys zs
1247 4 0.0637932 0.0610766 0.0417506
379 2 0.0710478 0.0502177 0.0732901
380 4 0.0720695 0.0453045 0.0487953
1246 2 0.0538723 0.0697731 0.0205109
490 2 0.284722 0.0201982 0.0473218
492 4 0.293605 0.0251514 0.0244801
486 4 0.309124 0.0130003 0.0268668
491 4 0.27584 0.0152449 0.0701635
484 2 0.320997 0.0116434 0.00490384
2722 2 0.390243 0.0414163 0.0392828
2724 4 0.374768 0.0517466 0.0225799
2723 4 0.405718 0.031086 0.0559858
2469 4 0.421609 0.0206447 0.0432954
1760 4 0.416366 0.0136478 0.0630043
1759 2 0.432562 0.0149498 0.0820086
2467 2 0.435897 0.0175671 0.0230084
358 2 0.238855 0.143182 0.0306259
422 4 0.191836 0.0887253 0.0698524
360 4 0.220462 0.15646 0.0201096
665 4 0.301176 0.0889461 0.0546813
359 4 0.257247 0.129905 0.0411422
664 2 0.319494 0.105959 0.0542417
666 4 0.337812 0.122972 0.053802
866 4 0.357258 0.128532 0.0490411
865 2 0.378043 0.132806 0.0358164
867 4 0.398828 0.137081 0.0225917
505 2 0.14859 0.243886 0.0497454
1133 4 0.165058 0.221524 0.0162738
507 4 0.163245 0.232089 0.033276
555 4 0.176565 0.173641 0.0441594
554 4 0.179756 0.221785 0.0310178
553 2 0.17816 0.197713 0.0375886
1132 2 0.169701 0.238539 0.998551
311 4 0.280292 0.186626 0.055721
310 2 0.302425 0.192513 0.065755
353 4 0.266761 0.225433 0.0555629
352 2 0.256535 0.234902 0.0763224
312 4 0.324557 0.1984 0.0757889
770 4 0.445336 0.19176 0.0728002
1307 4 0.446569 0.224909 0.0192209
1306 2 0.43732 0.240799 0.00227599
657 4 0.0245173 0.320495 0.0678401
2623 2 0.0812272 0.253162 0.00243238
2624 4 0.0776637 0.270556 0.0200372
837 4 0.0868521 0.318212 0.00962415
338 4 0.131356 0.309534 0.0549722
356 4 0.131893 0.319168 0.0377111
506 4 0.133934 0.255682 0.0662148
337 2 0.131604 0.30854 0.0799547
38 3 0.192577 0.275026 0.0115738
36 1 0.213203 0.272042 0.0217765
37 3 0.210828 0.257121 0.0391228
40 3 0.228178 0.263756 0.00675169
1512 4 0.216853 0.271344 0.0520458
39 3 0.220845 0.292244 0.0302526
1710 4 0.223363 0.290503 0.050305
1708 2 0.236502 0.311612 0.0529372
1709 4 0.249641 0.332722 0.0555694
755 4 0.271475 0.256081 0.0532984
754 2 0.280631 0.278433 0.0597601
756 4 0.289787 0.300784 0.0662218
740 4 0.30475 0.313733 0.0679861
739 2 0.317571 0.335199 0.068066
624 4 0.391431 0.29685 0.0776534
655 2 0.0300327 0.335956 0.0489797
836 4 0.0474078 0.348722 0.0133654
835 2 0.06713 0.333467 0.0114948
2807 4 0.0319695 0.36281 0.0144727
656 4 0.0355482 0.351417 0.0301192
2806 2 0.0246262 0.38504 0.0232518
2808 4 0.017283 0.407271 0.0320309
286 2 0.083561 0.377845 0.0502304
288 4 0.0753126 0.396599 0.0645636
314 4 0.0665439 0.40868 0.0785402
357 4 0.132808 0.369084 0.0348357
287 4 0.0918093 0.359091 0.0358973
355 2 0.13235 0.344126 0.0362734
251 4 0.309428 0.398454 0.028412
741 4 0.330392 0.356665 0.0681458
387 4 0.387546 0.391186 0.0649211
386 4 0.344399 0.367569 0.0739359
385 2 0.365972 0.379378 0.0694285
13 3 0.398505 0.407368 0.0651975
2840 4 0.462159 0.334218 0.0485365
2839 2 0.458355 0.357772 0.0410587
2841 4 0.454551 0.381326 0.0335809
12 3 0.435098 0.403174 0.0577129
914 4 0.0605079 0.410109 0.0597116
913 2 0.0552699 0.433268 0.0518748
915 4 0.0500319 0.456427 0.0440381
2786 4 0.0316732 0.460898 0.0351904
2785 2 0.0165107 0.459089 0.0153913
552 4 0.148621 0.495746 0.0281487
294 4 0.134073 0.508962 0.03017
1439 4 0.132713 0.488499 0.0373695
1438 2 0.128815 0.465096 0.0452615
1440 4 0.124916 0.441693 0.0531534
550 2 0.170722 0.489655 0.0181676
551 4 0.192823 0.483563 0.00818644
246 4 0.263789 0.448698 0.0720912
15 3 0.414343 0.425665 0.0363525
11 1 0.41761 0.418117 0.0575892
4304 4 0.393291 0.474408 0.0481248
14 3 0.422816 0.435873 0.0715897
672 4 0.468053 0.446287 0.0663646
670 2 0.489588 0.446895 0.0790561
381 4 0.0700262 0.0551309 0.0977849
2481 4 0.0512679 0.0509121 0.107747
2479 2 0.0395832 0.0364555 0.12447
2480 4 0.0278985 0.0219989 0.141193
529 2 0.997213 0.0805409 0.134769
3783 4 0.0309228 0.016787 0.16105
579 4 0.166629 0.0257638 0.115903
577 2 0.181664 0.0445033 0.122829
578 4 0.196698 0.0632428 0.129756
652 2 0.235915 0.06354 0.144579
654 4 0.213082 0.0709263 0.137561
653 4 0.258749 0.0561537 0.151596
24 3 0.37301 0.0519506 0.165787
21 1 0.366197 0.0656591 0.148349
25 3 0.351664 0.0814039 0.156065
23 3 0.356054 0.0529604 0.131788
22 3 0.384661 0.0761032 0.139451
297 4 0.3991 0.067827 0.129297
1761 4 0.448759 0.0162519 0.101013
2592 4 0.441368 0.00398849 0.115352
2590 2 0.44516 0.999016 0.13956
295 2 0.420411 0.0777916 0.137767
531 4 0.0212979 0.0870888 0.136254
581 4 0.196292 0.0838607 0.136718
423 4 0.194503 0.0921908 0.119668
580 2 0.184675 0.0865192 0.158698
421 2 0.19317 0.090458 0.0947602
534 4 0.235627 0.104576 0.102095
532 2 0.254547 0.118061 0.0928562
533 4 0.273468 0.131546 0.0836179
296 4 0.441721 0.0877561 0.146237
558 4 0.453211 0.102909 0.140626
556 2 0.449796 0.123369 0.126665
557 4 0.446381 0.143829 0.112703
771 4 0.458245 0.158146 0.107501
396 4 0.014003 0.230509 0.0973763
236 4 0.140052 0.175967 0.136245
235 2 0.121136 0.190885 0.129551
237 4 0.102219 0.205803 0.122856
477 4 0.132791 0.243136 0.114839
283 2 0.245118 0.207359 0.119409
284 4 0.237906 0.185093 0.128205
354 4 0.24631 0.244372 0.0970819
285 4 0.25233 0.229625 0.110612
764 4 0.262386 0.247842 0.10988
763 2 0.26048 0.255837 0.133494
769 2 0.45179 0.174953 0.0901507
2519 4 0.482833 0.217492 0.115272
2518 2 0.497579 0.222479 0.134839
363 4 0.0531064 0.285108 0.151309
648 4 0.0588963 0.282291 0.131846
646 2 0.0827792 0.285253 0.125063
475 2 0.132158 0.267951 0.117838
476 4 0.131525 0.292766 0.120837
738 4 0.14786 0.315103 0.114037
647 4 0.106662 0.288215 0.118281
339 4 0.131852 0.307546 0.104937
736 2 0.156805 0.3138 0.137349
455 4 0.12488 0.318078 0.119606
737 4 0.165751 0.312496 0.160661
1510 2 0.214423 0.26864 0.0767837
1511 4 0.211994 0.265937 0.101522
765 4 0.258575 0.263833 0.157108
612 4 0.262256 0.283507 0.154719
610 2 0.275872 0.303418 0.148136
611 4 0.289488 0.323329 0.141552
622 2 0.40115 0.317206 0.0884402
518 4 0.478261 0.276736 0.144689
1304 4 0.484008 0.289134 0.0863916
517 2 0.485472 0.288518 0.16553
705 4 0.034057 0.346674 0.104638
703 2 0.0567262 0.356549 0.10835
1758 4 0.0271297 0.378405 0.168662
1756 2 0.0243849 0.39483 0.15001
704 4 0.0793955 0.366423 0.112062
313 2 0.0515053 0.408276 0.0985115
1757 4 0.0216401 0.411254 0.131359
417 4 0.0966508 0.376128 0.121379
456 4 0.0923263 0.355214 0.127476
454 2 0.108603 0.336646 0.123541
415 2 0.105163 0.399636 0.121096
416 4 0.113676 0.423145 0.120813
303 4 0.30797 0.373873 0.164219
301 2 0.301698 0.356532 0.147333
302 4 0.295425 0.339191 0.130448
729 4 0.406996 0.383678 0.143445
728 4 0.401979 0.340834 0.118147
727 2 0.404487 0.362256 0.130796
608 4 0.410041 0.402996 0.138035
623 4 0.410868 0.337562 0.099227
607 2 0.39372 0.416244 0.124495
498 4 0.425864 0.350602 0.0926354
103 3 0.477087 0.391397 0.111861
496 2 0.446369 0.364604 0.0955835
497 4 0.466873 0.378606 0.0985317
105 3 0.491562 0.376059 0.143051
101 1 0.496578 0.386623 0.123509
315 4 0.0364666 0.407872 0.118483
244 2 0.274888 0.464008 0.0884488
245 4 0.285987 0.479319 0.104806
1629 4 0.301789 0.484488 0.11737
1627 2 0.310547 0.496648 0.137385
1575 4 0.288117 0.469757 0.122015
1573 2 0.279544 0.45481 0.140133
1574 4 0.270972 0.439862 0.158252
609 4 0.3774 0.429491 0.110955
955 2 0.47182 0.451116 0.148581
957 4 0.456186 0.453165 0.167985
956 4 0.487455 0.449066 0.129176
512 4 0.069033 0.0813617 0.214645
567 4 0.173346 0.085629 0.199206
690 4 0.200209 0.00780693 0.22181
675 4 0.208657 0.0198522 0.20939
673 2 0.216303 0.0338332 0.228658
674 4 0.22395 0.0478142 0.247926
2895 4 0.393948 0.0260935 0.183357
2893 2 0.414237 0.0119421 0.179715
757 2 0.355163 0.0759627 0.199901
758 4 0.356784 0.0683712 0.223669
511 2 0.0905601 0.0940362 0.215705
513 4 0.112087 0.106711 0.216764
582 4 0.173058 0.0891777 0.180679
565 2 0.179822 0.100165 0.218492
566 4 0.186299 0.1147 0.237777
598 2 0.209004 0.145952 0.226864
600 4 0.204604 0.122514 0.234377
468 4 0.219467 0.110968 0.240463
466 2 0.223212 0.0877505 0.248954
759 4 0.353542 0.0835541 0.176133
629 4 0.455036 0.0959173 0.158974
628 2 0.45715 0.107292 0.18114
630 4 0.459264 0.118667 0.203306
393 4 0.111693 0.209919 0.229288
599 4 0.213403 0.169391 0.21935
361 2 0.0590112 0.29171 0.174691
750 4 0.0726914 0.313879 0.207049
362 4 0.064916 0.298312 0.198073
372 4 0.177018 0.297155 0.168229
371 4 0.216989 0.323855 0.182018
370 2 0.197003 0.310505 0.175124
309 4 0.358968 0.323942 0.198527
520 2 0.49115 0.324904 0.221309
521 4 0.486606 0.308353 0.203126
519 4 0.492683 0.300301 0.186371
2463 4 0.0661587 0.37935 0.241998
2461 2 0.0627147 0.399601 0.256253
748 2 0.0899166 0.331351 0.202234
749 4 0.107142 0.348824 0.197419
602 4 0.221905 0.401864 0.25263
603 4 0.220685 0.352053 0.248384
601 2 0.221295 0.376959 0.250507
494 4 0.410337 0.398694 0.157688
308 4 0.366278 0.364651 0.170418
307 2 0.362623 0.344297 0.184472
644 4 0.40862 0.358497 0.230518
493 2 0.422479 0.40906 0.176932
645 4 0.431074 0.352039 0.186305
643 2 0.419847 0.355268 0.208411
109 3 0.497384 0.416021 0.236615
522 4 0.495695 0.341454 0.239492
1320 4 0.0382839 0.462001 0.227794
3717 4 0.0777994 0.506227 0.193405
3715 2 0.0528824 0.504846 0.191852
1318 2 0.0460861 0.450424 0.248537
3716 4 0.0279654 0.503464 0.190298
1319 4 0.0538883 0.438848 0.269281
639 4 0.225893 0.46286 0.22658
637 2 0.229256 0.440501 0.237254
638 4 0.23262 0.418141 0.247927
525 4 0.32726 0.47722 0.194909
523 2 0.340143 0.466383 0.213395
524 4 0.353026 0.455546 0.231882
495 4 0.434621 0.419425 0.196175
659 4 0.467727 0.461029 0.18101
658 2 0.459686 0.454014 0.203622
660 4 0.451645 0.446999 0.226234
108 3 0.463635 0.432298 0.230251
106 1 0.477798 0.423628 0.246459
233 4 0.103768 0.00936327 0.27058
605 4 0.0940743 0.0510269 0.324234
232 2 0.0852123 0.00101596 0.285112
429 4 0.212443 0.0512573 0.263751
467 4 0.226957 0.0645329 0.257445
427 2 0.225302 0.0447951 0.284198
428 4 0.23816 0.0383328 0.304645
440 4 0.248059 0.0542266 0.314424
1517 4 0.370785 0.0215289 0.29362
1516 2 0.373744 0.0342494 0.314942
1496 4 0.374768 0.00420266 0.301875
1518 4 0.376703 0.0469699 0.336263
478 2 0.498434 0.0841079 0.271437
479 4 0.475293 0.0783679 0.278969
2739 4 0.0165479 0.0920246 0.326321
683 4 0.237444 0.118181 0.274856
682 2 0.234816 0.143011 0.273528
684 4 0.232189 0.167841 0.272199
451 2 0.382737 0.109864 0.324243
453 4 0.394785 0.098896 0.305277
28 3 0.411937 0.140514 0.312092
2482 2 0.0477547 0.204677 0.294952
2483 4 0.0287069 0.21029 0.310146
2484 4 0.0668025 0.199064 0.279758
392 4 0.0840845 0.207174 0.270893
249 4 0.0836499 0.210096 0.289855
391 2 0.0978888 0.208546 0.25009
247 2 0.0981936 0.219722 0.307771
474 4 0.223797 0.186283 0.278844
279 4 0.180984 0.212237 0.294801
277 2 0.18898 0.234659 0.287151
473 4 0.177955 0.188642 0.298685
472 2 0.200876 0.187462 0.288765
633 4 0.243001 0.186604 0.270049
726 4 0.239931 0.174505 0.287076
724 2 0.251426 0.172808 0.309215
631 2 0.265337 0.186555 0.258813
632 4 0.287674 0.186507 0.247576
254 4 0.41298 0.180087 0.261228
253 2 0.420197 0.180479 0.285164
304 2 0.370506 0.211555 0.325361
306 4 0.372816 0.236063 0.320976
27 3 0.399733 0.170926 0.3305
305 4 0.368195 0.187048 0.329745
515 4 0.350119 0.182761 0.335989
255 4 0.427414 0.180872 0.309101
323 4 0.476818 0.212194 0.31951
322 2 0.456946 0.197493 0.323274
29 3 0.4359 0.161072 0.333248
324 4 0.437074 0.182792 0.327038
536 4 0.189573 0.267614 0.294859
278 4 0.196976 0.257081 0.279502
535 2 0.200492 0.286836 0.283177
537 4 0.211411 0.306058 0.271496
402 4 0.228636 0.313764 0.282539
678 4 0.208477 0.321942 0.283892
400 2 0.245087 0.316403 0.301183
345 4 0.294146 0.326952 0.253656
343 2 0.295106 0.324666 0.278536
401 4 0.261538 0.319042 0.319826
344 4 0.296067 0.322381 0.303417
418 2 0.392305 0.272762 0.331603
420 4 0.3775 0.252712 0.329596
2955 4 0.00418674 0.398838 0.275091
298 2 0.156075 0.407084 0.310619
299 4 0.161082 0.415452 0.287595
676 2 0.198631 0.344243 0.289452
677 4 0.188786 0.366544 0.295013
300 4 0.151069 0.398717 0.333643
436 2 0.346745 0.406685 0.287547
438 4 0.356191 0.387344 0.300271
110 3 0.46749 0.406557 0.257459
2462 4 0.0592708 0.419852 0.270508
3959 4 0.0653561 0.430832 0.28545
2953 2 0.00442931 0.423804 0.27645
2954 4 0.00467188 0.448769 0.277809
3958 2 0.0622706 0.44163 0.307789
3960 4 0.0591851 0.452428 0.330129
290 4 0.240657 0.404274 0.26038
291 4 0.278108 0.425658 0.285694
289 2 0.259383 0.414966 0.273037
437 4 0.337298 0.426025 0.274823
1583 4 0.485239 0.4581 0.256995
107 3 0.482994 0.440269 0.261466
1582 2 0.4838 0.483054 0.256349
604 2 0.116733 0.0562824 0.333407
606 4 0.139392 0.0615378 0.342579
545 4 0.104726 0.0190881 0.378222
544 2 0.127606 0.0288248 0.380846
546 4 0.150486 0.0385614 0.38347
731 4 0.164415 0.0297131 0.393732
730 2 0.174685 0.0252781 0.416093
439 2 0.244873 0.0553292 0.339199
441 4 0.241687 0.0564318 0.363974
1670 4 0.300919 0.0149184 0.381906
1669 2 0.314371 0.0206248 0.402195
744 4 0.371991 0.0465572 0.355502
699 4 0.390946 0.0440958 0.353221
697 2 0.401615 0.0359355 0.374311
742 2 0.352357 0.0598106 0.363504
698 4 0.412284 0.0277752 0.3954
743 4 0.332723 0.073064 0.371506
317 4 0.996648 0.0902094 0.388831
2737 2 0.00675934 0.0868963 0.34875
2738 4 0.996971 0.081768 0.371179
2655 4 0.0489138 0.162253 0.423565
399 4 0.148015 0.0785352 0.336034
397 2 0.15684 0.0867976 0.357921
398 4 0.165665 0.09506 0.379808
707 4 0.230534 0.115196 0.386622
706 2 0.254348 0.116539 0.394124
430 2 0.288019 0.16887 0.369837
425 4 0.310611 0.15655 0.402457
708 4 0.278161 0.117883 0.401626
351 4 0.329372 0.0927375 0.364299
431 4 0.272198 0.167493 0.350524
350 4 0.35556 0.134377 0.355296
349 2 0.342466 0.113557 0.359798
452 4 0.370689 0.120833 0.343209
257 4 0.377034 0.135005 0.353296
516 4 0.371274 0.137764 0.330665
256 2 0.388542 0.135875 0.375477
514 2 0.360697 0.160263 0.333327
258 4 0.40005 0.136745 0.397658
2653 2 0.0644141 0.168554 0.404985
2654 4 0.0799144 0.174855 0.386404
248 4 0.112737 0.229348 0.325688
408 4 0.092535 0.239891 0.377635
432 4 0.303839 0.170247 0.38915
725 4 0.262921 0.171111 0.331355
717 4 0.31983 0.173936 0.401647
508 2 0.286275 0.229201 0.40517
488 4 0.309259 0.215404 0.373808
509 4 0.30086 0.230246 0.384888
487 2 0.329076 0.205942 0.361851
489 4 0.348893 0.196481 0.349894
26 1 0.414194 0.153063 0.331479
30 3 0.40912 0.14029 0.349638
460 2 0.411175 0.198917 0.362275
462 4 0.41702 0.174627 0.361256
461 4 0.405329 0.223206 0.363294
1581 4 0.432032 0.160146 0.36467
1579 2 0.443685 0.163885 0.386474
1580 4 0.455337 0.167624 0.408278
267 4 0.46008 0.187473 0.409656
407 4 0.0909673 0.270264 0.417331
548 4 0.0691425 0.277799 0.416182
547 2 0.0499469 0.288473 0.404233
549 4 0.0307513 0.299147 0.392284
681 4 0.0172095 0.311417 0.380661
406 2 0.0917512 0.255077 0.397483
710 4 0.245922 0.287398 0.403788
1260 4 0.281572 0.306031 0.352579
1258 2 0.272908 0.298605 0.374827
1259 4 0.264243 0.29118 0.397075
419 4 0.40711 0.292811 0.333609
377 4 0.388443 0.328064 0.352446
584 4 0.490578 0.325319 0.372156
501 4 0.0632729 0.420589 0.360694
768 4 0.15599 0.336162 0.340345
499 2 0.0796522 0.403259 0.353174
766 2 0.153019 0.360712 0.344045
767 4 0.150048 0.385261 0.347746
500 4 0.0960315 0.385928 0.345654
733 2 0.136482 0.41468 0.374059
734 4 0.144733 0.404731 0.352656
735 4 0.12823 0.424629 0.395463
414 4 0.166182 0.410895 0.34685
412 2 0.187694 0.422788 0.35143
592 2 0.342214 0.385705 0.390258
593 4 0.344994 0.377293 0.366877
378 4 0.357182 0.361917 0.371873
376 2 0.372812 0.34499 0.36216
433 2 0.417674 0.40629 0.367255
434 4 0.398733 0.410387 0.383054
594 4 0.339433 0.394117 0.41364
435 4 0.436615 0.402193 0.351455
588 4 0.486415 0.380299 0.366178
586 2 0.467595 0.387764 0.351507
587 4 0.448775 0.395229 0.336836
776 4 0.0492177 0.432671 0.36905
3671 4 0.0189194 0.488874 0.341745
777 4 0.0270082 0.472147 0.347859
775 2 0.038113 0.452409 0.358455
504 4 0.140949 0.434009 0.407659
502 2 0.160813 0.449079 0.409532
1556 4 0.247026 0.493332 0.352622
503 4 0.180677 0.464149 0.411405
413 4 0.209206 0.434681 0.356011
1557 4 0.223059 0.44966 0.356988
1436 4 0.225256 0.434601 0.370879
1435 2 0.235582 0.426239 0.39206
1555 2 0.235043 0.471496 0.354805
1437 4 0.245908 0.417877 0.41324
1058 4 0.0166827 0.0749779 0.444243
938 4 0.0148979 0.0552539 0.441313
1602 4 0.0331849 0.0649755 0.440135
1600 2 0.054849 0.0599411 0.451559
1601 4 0.0765131 0.0549067 0.462983
1478 4 0.0960646 0.0345437 0.460945
1477 2 0.108437 0.0130655 0.457662
1818 4 0.23548 0.0176649 0.418639
732 4 0.184955 0.020843 0.438455
1816 2 0.230541 0.0271058 0.441259
1817 4 0.225602 0.0365467 0.463879
961 2 0.206233 0.0292303 0.492917
962 4 0.214532 0.0211976 0.470741
1671 4 0.327823 0.0263312 0.422484
95 3 0.423328 0.991707 0.457107
1427 4 0.448673 0.0242601 0.441489
1426 2 0.466509 0.0211565 0.458735
1428 4 0.484345 0.0180529 0.47598
94 3 0.439952 0.996069 0.490607
369 4 0.0538921 0.153901 0.441211
348 4 0.0390155 0.164739 0.446903
1057 2 0.00941169 0.0981212 0.450301
367 2 0.0685196 0.134595 0.447414
368 4 0.0831471 0.115288 0.453617
260 4 0.138125 0.160469 0.460397
276 4 0.251616 0.133406 0.456116
274 2 0.256808 0.156209 0.464962
424 2 0.305937 0.135901 0.415759
426 4 0.301262 0.115252 0.42906
346 2 0.0182923 0.174558 0.436937
259 2 0.143008 0.173411 0.481226
261 4 0.147891 0.186353 0.502055
510 4 0.271689 0.228157 0.425451
374 4 0.275009 0.209908 0.433647
275 4 0.262 0.179012 0.473808
375 4 0.286675 0.200135 0.481282
373 2 0.280842 0.205021 0.457464
650 4 0.33886 0.225732 0.477382
715 2 0.334687 0.180854 0.420531
716 4 0.349543 0.187771 0.439415
649 2 0.346451 0.224208 0.453607
651 4 0.354042 0.222684 0.429832
411 4 0.37327 0.220524 0.432708
409 2 0.396025 0.211204 0.437234
410 4 0.418781 0.201884 0.44176
265 2 0.467913 0.201093 0.429106
266 4 0.475746 0.214713 0.448557
575 4 0.458487 0.200376 0.473026
574 2 0.469179 0.189333 0.492747
618 4 0.0801895 0.275901 0.435058
616 2 0.0724489 0.292841 0.45174
617 4 0.0647084 0.309782 0.468422
1136 4 0.170486 0.277968 0.500117
802 2 0.281712 0.27155 0.480487
709 2 0.2536 0.283561 0.427272
803 4 0.276701 0.283845 0.459299
711 4 0.261278 0.279725 0.450757
2813 4 0.0578761 0.34055 0.481635
2812 2 0.075531 0.353551 0.493654
561 4 0.503426 0.385631 0.471628
3602 4 0.49274 0.398763 0.482578
752 4 0.483583 0.393078 0.464328
753 4 0.469114 0.362157 0.427786
751 2 0.476349 0.377617 0.446057
382 2 0.01822 0.466309 0.478691
384 4 0.0280827 0.470442 0.456089
383 4 0.00835726 0.462177 0.501292
1191 4 0.158607 0.422519 0.469592
1189 2 0.144792 0.42945 0.489246
825 4 0.0494519 0.0372947 0.567037
2319 4 0.0314514 0.0392767 0.575333
823 2 0.0712435 0.0452979 0.55775
824 4 0.0930352 0.053301 0.548463
2429 4 0.0909363 0.0681551 0.535574
2428 2 0.0946913 0.0828582 0.515702
1180 2 0.22742 0.0394641 0.546199
963 4 0.197935 0.037263 0.515093
1181 4 0.205825 0.0421578 0.533887
1182 4 0.249015 0.0367704 0.55851
951 4 0.310733 0.0573937 0.565332
949 2 0.297926 0.0503596 0.585622
841 2 0.343803 0.0815609 0.543781
842 4 0.366159 0.0773264 0.554148
1005 4 0.384301 0.0704092 0.558385
2333 4 0.36541 0.0582471 0.556063
2332 2 0.37219 0.0351491 0.549304
1003 2 0.408255 0.0765159 0.562143
1723 2 0.449065 0.00803956 0.530448
1725 4 0.461241 0.0132096 0.551666
4239 4 0.463475 0.0276203 0.564254
4466 4 0.468563 0.042384 0.551931
4237 2 0.47432 0.0133017 0.581647
4465 2 0.491576 0.0497386 0.545492
1004 4 0.432208 0.0826227 0.5659
877 2 0.0393858 0.119151 0.549673
878 4 0.0219412 0.101748 0.553915
1272 4 0.0705166 0.135952 0.559701
879 4 0.0568304 0.136554 0.545432
470 4 0.00371404 0.103158 0.544969
1270 2 0.0951286 0.138302 0.555971
1271 4 0.119741 0.140651 0.552242
2430 4 0.0984463 0.0975612 0.49583
843 4 0.321447 0.0857954 0.533414
944 4 0.260271 0.164273 0.546046
3054 4 0.402138 0.128938 0.54049
3052 2 0.407968 0.14892 0.526636
2846 4 0.0218334 0.244313 0.561024
1033 2 0.158303 0.202244 0.530795
1034 4 0.153137 0.205801 0.554999
909 4 0.134836 0.210113 0.548491
907 2 0.121502 0.207473 0.569477
1035 4 0.163469 0.198688 0.506591
1221 4 0.209794 0.241787 0.521073
1219 2 0.206771 0.224718 0.539093
1220 4 0.203748 0.207649 0.557112
945 4 0.22143 0.194528 0.554802
695 4 0.207649 0.198905 0.573508
943 2 0.240851 0.1794 0.550424
687 4 0.273188 0.173468 0.532814
791 4 0.296667 0.246875 0.570967
685 2 0.28617 0.184991 0.514818
686 4 0.299152 0.196513 0.496821
1150 2 0.321782 0.232383 0.501037
3053 4 0.413798 0.168901 0.512783
321 4 0.329324 0.191277 0.555287
319 2 0.34752 0.197914 0.539474
320 4 0.365716 0.204551 0.523661
900 4 0.346441 0.189709 0.567584
1152 4 0.342888 0.219892 0.496173
576 4 0.47987 0.178291 0.512468
3263 4 0.0445414 0.302035 0.5446
3262 2 0.0269811 0.317255 0.535372
2845 2 0.0346271 0.265694 0.558938
3264 4 0.00942079 0.332476 0.526144
2847 4 0.0474208 0.287075 0.556852
984 4 0.0488497 0.291519 0.57548
3327 4 0.0297193 0.291264 0.577662
1137 4 0.154699 0.322418 0.51672
1135 2 0.162592 0.300193 0.508418
1041 4 0.139528 0.324557 0.530231
813 4 0.223155 0.255079 0.526491
811 2 0.247756 0.256495 0.522254
790 2 0.294198 0.250338 0.546328
1151 4 0.300675 0.244873 0.505902
792 4 0.291728 0.253802 0.521689
812 4 0.272358 0.25791 0.518017
804 4 0.286722 0.259256 0.501674
1159 2 0.0756547 0.383022 0.539483
1161 4 0.0584151 0.392519 0.554903
1160 4 0.0928943 0.373524 0.524063
1039 2 0.124131 0.343529 0.524923
895 2 0.133189 0.399025 0.549582
897 4 0.115175 0.3835 0.557304
896 4 0.151203 0.414551 0.541859
1040 4 0.108734 0.3625 0.519614
2814 4 0.0931858 0.366552 0.505674
238 2 0.314148 0.365003 0.549465
240 4 0.309811 0.367162 0.524935
239 4 0.318485 0.362844 0.573994
1067 4 0.285289 0.423991 0.574407
1000 2 0.446754 0.38057 0.577964
1002 4 0.457814 0.402818 0.575157
3601 2 0.487497 0.407962 0.505229
1001 4 0.435694 0.358322 0.58077
1938 4 0.0143833 0.474387 0.516287
1936 2 0.0075999 0.496858 0.524903
1172 4 0.078527 0.440526 0.534275
1171 2 0.100962 0.447256 0.525526
538 2 0.163022 0.450166 0.566749
1173 4 0.123397 0.453987 0.516776
1190 4 0.130977 0.436381 0.5089
539 4 0.153805 0.431346 0.55311
1752 4 0.207791 0.495806 0.515135
4084 2 0.461415 0.456664 0.524899
4085 4 0.4662 0.432325 0.528049
4086 4 0.456631 0.481002 0.52175
3603 4 0.482253 0.417161 0.52788
2317 2 0.0328978 0.0256407 0.596241
2318 4 0.0343442 0.0120048 0.617149
946 2 0.134774 0.0377797 0.657256
947 4 0.13451 0.0211735 0.638566
950 4 0.285119 0.0433255 0.605912
1030 2 0.254958 0.0178008 0.605767
1032 4 0.266946 0.039093 0.611067
2201 4 0.308806 0.0641061 0.661197
2200 2 0.294503 0.058803 0.641386
2202 4 0.280201 0.0534998 0.621574
1239 4 0.313697 0.05177 0.677213
1217 4 0.389125 0.0105947 0.660772
1216 2 0.381506 0.0211251 0.639412
1218 4 0.373886 0.0316555 0.618052
2656 2 0.497498 0.0775642 0.645597
2657 4 0.493066 0.0534021 0.640935
148 3 0.476998 0.00918508 0.615156
150 3 0.468714 0.998629 0.650335
1072 2 0.0321388 0.160927 0.640431
1074 4 0.0510742 0.153326 0.654883
1278 4 0.162493 0.138763 0.663475
1064 4 0.160789 0.157626 0.65943
1192 2 0.388123 0.135006 0.616785
1194 4 0.37242 0.154401 0.618349
1193 4 0.403825 0.115611 0.615221
899 4 0.36104 0.169609 0.610985
3402 4 0.493061 0.125484 0.588893
3400 2 0.494559 0.121706 0.613564
1073 4 0.0132034 0.168528 0.62598
1296 4 0.992982 0.167225 0.617783
1200 4 0.00766126 0.175672 0.606413
1199 4 0.0446542 0.199529 0.582683
1198 2 0.0261577 0.1876 0.594548
908 4 0.108169 0.204833 0.590463
851 4 0.11004 0.170499 0.64076
850 2 0.115907 0.180395 0.61856
852 4 0.121775 0.19029 0.59636
1208 4 0.0928696 0.207838 0.602514
1207 2 0.0894186 0.231897 0.608384
1063 2 0.16879 0.17851 0.648249
1065 4 0.176792 0.199394 0.637068
696 4 0.189768 0.202954 0.620034
694 2 0.198708 0.20093 0.596771
798 4 0.185601 0.217823 0.638212
796 2 0.20105 0.227805 0.65515
797 4 0.216498 0.237786 0.672088
326 4 0.328877 0.19904 0.574714
327 4 0.301265 0.237085 0.591768
325 2 0.315071 0.218063 0.583241
898 2 0.353741 0.179659 0.589284
1026 4 0.409266 0.226253 0.62447
954 4 0.408406 0.21181 0.609286
1024 2 0.414026 0.223137 0.648817
953 4 0.452747 0.197313 0.591274
952 2 0.430576 0.204562 0.60028
3325 2 0.0140755 0.306446 0.589908
982 2 0.0692163 0.297776 0.588566
3326 4 0.998432 0.321628 0.602154
983 4 0.089583 0.304032 0.601651
1209 4 0.0859676 0.255955 0.614253
3275 4 0.114474 0.327405 0.648609
856 2 0.127756 0.293564 0.662377
857 4 0.11517 0.315041 0.664717
858 4 0.140342 0.272086 0.660037
3274 2 0.102241 0.34206 0.664757
1066 2 0.287815 0.408592 0.593943
1068 4 0.290341 0.393192 0.613479
1028 4 0.299682 0.384315 0.628805
1027 2 0.307987 0.374673 0.650328
1953 4 0.290514 0.401988 0.631777
1006 2 0.411956 0.377909 0.638435
1007 4 0.395999 0.396022 0.63192
1008 4 0.427914 0.359795 0.64495
2015 4 0.0465156 0.487054 0.63116
540 4 0.17224 0.468986 0.580388
1951 2 0.283405 0.421809 0.64526
1176 4 0.375864 0.442429 0.630852
1174 2 0.365244 0.443026 0.653481
662 4 0.504216 0.426292 0.66141
663 4 0.480332 0.430531 0.617681
661 2 0.492274 0.428411 0.639546
921 4 0.0596712 0.0734531 0.713138
948 4 0.135038 0.0543859 0.675947
1237 2 0.312415 0.0683308 0.695902
1238 4 0.311133 0.0848916 0.714591
2441 4 0.484504 0.0254586 0.722544
2342 4 0.471733 0.0197134 0.70806
2343 4 0.441694 0.0360051 0.67155
2341 2 0.456713 0.0278593 0.689805
2034 4 0.485922 0.00861741 0.715605
35 3 0.0725677 0.147585 0.699695
31 1 0.0503834 0.150988 0.695832
1131 4 0.0817159 0.13921 0.71618
33 3 0.0382441 0.132356 0.702456
920 4 0.0340327 0.116375 0.714173
919 2 0.046852 0.0949142 0.713655
1287 4 0.0181714 0.109747 0.724488
34 3 0.0468216 0.155158 0.673286
32 3 0.0432837 0.169191 0.707973
1056 4 0.0381897 0.160409 0.727868
1277 4 0.135644 0.103178 0.686138
1276 2 0.149068 0.120971 0.674806
1129 2 0.0903106 0.13528 0.739328
1226 4 0.156744 0.0954438 0.749169
888 4 0.326084 0.0952804 0.705988
886 2 0.330763 0.119754 0.70391
887 4 0.335441 0.144228 0.701832
1124 4 0.0351578 0.180993 0.723707
846 4 0.386359 0.19628 0.745183
1025 4 0.418785 0.22002 0.673165
818 4 0.477458 0.205052 0.73997
817 2 0.462262 0.190258 0.753213
816 4 0.079761 0.328007 0.734314
1142 4 0.315626 0.331229 0.748176
1141 2 0.302468 0.309968 0.748245
1143 4 0.28931 0.288707 0.748314
830 4 0.366634 0.314173 0.728142
1178 4 0.998074 0.388949 0.717149
814 2 0.0795257 0.344928 0.715908
780 4 0.0765635 0.343478 0.747788
815 4 0.0792905 0.36185 0.697501
1281 4 0.0723816 0.412384 0.674281
885 4 0.0828669 0.394995 0.675671
3276 4 0.090009 0.356715 0.680906
883 2 0.103749 0.391331 0.688925
1078 2 0.154907 0.374162 0.729264
884 4 0.124631 0.387667 0.70218
1079 4 0.134336 0.383499 0.718549
2175 4 0.116376 0.39091 0.721327
2173 2 0.107797 0.399715 0.7431
1080 4 0.175479 0.364825 0.739979
2011 2 0.216698 0.370963 0.738853
2012 4 0.237492 0.383813 0.733588
806 4 0.296971 0.405789 0.723988
918 4 0.340471 0.372681 0.752671
805 2 0.311419 0.396287 0.742048
1029 4 0.316292 0.365031 0.671851
917 4 0.356592 0.353074 0.709585
916 2 0.348532 0.362877 0.731128
1280 4 0.0420642 0.451997 0.677801
1279 2 0.0572229 0.43219 0.676041
1952 4 0.276295 0.441629 0.658742
929 4 0.263874 0.46385 0.722756
928 2 0.2673 0.485072 0.735526
1175 4 0.354625 0.443623 0.676109
4149 4 0.510744 0.422278 0.680796
1910 4 0.490811 0.427379 0.6775
1909 2 0.470674 0.437145 0.68865
1911 4 0.450537 0.44691 0.699799
1148 4 0.171009 0.0814451 0.747414
1147 2 0.189597 0.071011 0.760483
1149 4 0.208185 0.0605768 0.773552
1197 4 0.235788 0.0150023 0.805671
966 4 0.173825 0.0372428 0.838721
1054 2 0.03683 0.143072 0.745833
1055 4 0.0354703 0.125736 0.763799
1130 4 0.0989052 0.131349 0.762477
1227 4 0.117577 0.123066 0.763441
1225 2 0.137161 0.109255 0.756305
958 2 0.235429 0.0981553 0.824693
959 4 0.250766 0.108255 0.807724
1086 4 0.283152 0.144216 0.82683
1084 2 0.295108 0.147254 0.805081
1085 4 0.307063 0.150293 0.783332
1112 4 0.389982 0.0950777 0.811376
1111 2 0.413607 0.0941786 0.803237
1113 4 0.437231 0.0932796 0.795097
2398 2 0.440384 0.133558 0.779285
2399 4 0.444317 0.109344 0.784126
2320 2 0.47562 0.0926231 0.795697
2322 4 0.45403 0.0875466 0.784153
2321 4 0.497211 0.0976996 0.807241
1123 2 0.0274285 0.19253 0.7445
1676 4 0.0118113 0.201047 0.801216
922 2 0.0260976 0.234043 0.787142
924 4 0.0154062 0.211539 0.785041
1125 4 0.0196992 0.204067 0.765292
1675 2 0.0102608 0.189853 0.82352
1235 4 0.152249 0.237915 0.756821
1299 4 0.265744 0.240082 0.789347
844 2 0.406725 0.18641 0.755813
48 3 0.403787 0.24166 0.802981
1053 4 0.416406 0.216443 0.822757
845 4 0.42709 0.176539 0.766442
819 4 0.447065 0.175464 0.766457
2400 4 0.436451 0.157771 0.774445
3425 4 0.480804 0.183196 0.802183
46 1 0.425941 0.235683 0.799537
50 3 0.430843 0.236493 0.777312
49 3 0.439927 0.250018 0.811256
47 3 0.429141 0.21424 0.807225
3424 2 0.496931 0.171829 0.81754
923 4 0.036789 0.256548 0.789243
970 2 0.0593798 0.306776 0.816043
1103 4 0.0178396 0.300355 0.820215
971 4 0.0377719 0.29696 0.823912
972 4 0.0809876 0.316593 0.808174
779 4 0.0696458 0.321498 0.79217
778 2 0.0731047 0.332488 0.769979
1234 2 0.15069 0.259293 0.769694
1236 4 0.149131 0.280671 0.782568
1121 4 0.139601 0.296262 0.773874
1120 2 0.123947 0.314342 0.78117
1297 2 0.272942 0.255817 0.771298
1298 4 0.280141 0.271552 0.753248
808 2 0.3148 0.312123 0.803434
810 4 0.295518 0.316831 0.818641
829 2 0.359144 0.310169 0.751659
831 4 0.351654 0.306164 0.775176
809 4 0.334081 0.307415 0.788228
3204 4 0.350069 0.312213 0.794543
3202 2 0.370039 0.305858 0.80818
3203 4 0.39001 0.299504 0.821817
3486 4 0.408202 0.249355 0.820947
1043 4 0.426848 0.257229 0.824582
1042 2 0.444745 0.27008 0.836403
1983 4 0.068357 0.419536 0.8321
1122 4 0.108293 0.332423 0.788467
2174 4 0.0992171 0.40852 0.764872
1224 4 0.0881087 0.415645 0.836283
2013 4 0.195905 0.358114 0.744117
1301 4 0.212333 0.371769 0.820456
941 4 0.183338 0.361996 0.761649
942 4 0.174795 0.364702 0.810846
940 2 0.179066 0.363349 0.786248
1300 2 0.235503 0.374925 0.811603
807 4 0.325867 0.386786 0.760108
43 3 0.339284 0.378245 0.775158
42 3 0.324754 0.346268 0.761779
1139 4 0.258509 0.401143 0.792101
1302 4 0.258673 0.37808 0.80275