ITEM: TIMESTEP
1590000
ITEM: NUMBER OF ATOMS
4590
ITEM: BOX BOUNDS pp pp pp
-9.9985700000000008e+00 9.9985700000000008e+00
-9.9985700000000008e+00 9.9985700000000008e+00
-9.9985700000000008e+00 9.9985700000000008e+00
ITEM: ATOMS id type xs ys zs
2760 4 0.00918156 0.0451731 0.0824306
578 4 0.154264 0.0467814 0.0666647
491 4 0.24032 0.0154516 0.0621507
490 2 0.263398 0.0233498 0.0566544
492 4 0.286476 0.031248 0.0511581
486 4 0.30379 0.0332316 0.0614855
484 2 0.32237 0.0328855 0.0447566
358 2 0.252714 0.0773398 0.0125132
359 4 0.257561 0.0639415 0.0330598
485 4 0.340949 0.0325393 0.0280276
1607 4 0.348413 0.0172623 0.037544
1606 2 0.368771 0.00274707 0.0374003
2467 2 0.432477 0.0649961 0.0457575
2468 4 0.42917 0.0754702 0.0232957
2469 4 0.435784 0.054522 0.0682193
1667 4 0.00546076 0.0880653 0.0118936
1666 2 0.0303526 0.0861997 0.0133411
1668 4 0.0552444 0.084334 0.0147885
1246 2 0.0269124 0.157935 0.0359218
1248 4 0.0398919 0.162608 0.0150682
1247 4 0.0139328 0.153262 0.0567754
3234 4 0.0282065 0.148441 0.00640757
591 4 0.00230487 0.123921 0.0681181
664 2 0.332656 0.14024 0.0350007
665 4 0.330785 0.136253 0.0596132
557 4 0.326282 0.135915 0.0779741
666 4 0.334528 0.144228 0.0103881
869 4 0.0732866 0.25145 0.0380845
555 4 0.134608 0.20849 0.0490299
553 2 0.141222 0.209695 0.0249472
554 4 0.147837 0.210901 0.000864483
770 4 0.457183 0.20885 0.0547625
769 2 0.47309 0.19648 0.069566
868 2 0.0682289 0.24973 0.0136583
754 2 0.280541 0.302044 0.0726811
755 4 0.262003 0.286939 0.0799868
756 4 0.299078 0.317149 0.0653755
322 2 0.386401 0.286329 0.0517177
323 4 0.378988 0.280267 0.0286203
1070 4 0.341532 0.319092 0.0219645
324 4 0.393813 0.292391 0.074815
1069 2 0.349099 0.303186 0.00421792
255 4 0.412263 0.290888 0.0773972
671 4 0.438074 0.312173 0.00977422
1308 4 0.428232 0.295664 0.00438928
619 2 0.0381272 0.387362 0.00640856
621 4 0.0199804 0.379226 0.0215635
2787 4 0.00584497 0.369415 0.0310855
292 2 0.0757451 0.39686 0.0759288
2785 2 0.00818433 0.372429 0.0557963
294 4 0.0803184 0.413029 0.0574137
2786 4 0.0105237 0.375442 0.0805072
552 4 0.0865615 0.401099 0.0418089
913 2 0.153902 0.375645 0.0449145
915 4 0.142435 0.384901 0.0651137
914 4 0.16537 0.36639 0.0247154
288 4 0.170232 0.352002 0.0102277
286 2 0.188212 0.338388 0.999432
355 2 0.240586 0.338043 0.999704
356 4 0.255451 0.35386 0.0121142
740 4 0.300368 0.336448 0.0696102
739 2 0.322326 0.345246 0.0777103
251 4 0.309486 0.402521 0.0631068
250 2 0.287351 0.407757 0.0527237
609 4 0.329833 0.401281 0.0571374
252 4 0.265216 0.412993 0.0423407
955 2 0.411038 0.411908 0.0351147
105 3 0.416204 0.376891 0.0113453
607 2 0.337636 0.404597 0.0806594
670 2 0.449196 0.334058 0.0145176
956 4 0.415094 0.396438 0.0158955
672 4 0.460319 0.355943 0.019261
562 2 0.477476 0.351938 0.0582787
563 4 0.46171 0.355582 0.0392175
564 4 0.493242 0.348293 0.0773398
551 4 0.0819364 0.436178 0.0064706
550 2 0.0842489 0.418639 0.0241398
1440 4 0.142849 0.470955 0.0766325
1438 2 0.14005 0.453895 0.0585684
243 4 0.152719 0.48802 0.0716692
1439 4 0.137251 0.436835 0.0405044
244 2 0.226375 0.494847 0.0492594
902 4 0.213468 0.469871 0.0168894
901 2 0.207355 0.44853 0.0283941
903 4 0.201242 0.427189 0.0398987
1289 4 0.224144 0.483914 0.00633224
246 4 0.221749 0.484218 0.0271051
524 4 0.328953 0.488773 0.0742302
957 4 0.406983 0.427379 0.0543339
523 2 0.352808 0.482421 0.0702568
525 4 0.376663 0.476069 0.0662835
464 4 0.0803811 0.00766218 0.0898158
381 4 0.00417162 0.0788496 0.154621
379 2 0.00114512 0.0562522 0.144356
463 2 0.0575895 0.00826234 0.10008
2576 4 0.0194427 0.00713747 0.0996651
465 4 0.0347978 0.0088625 0.110345
577 2 0.158812 0.0339193 0.0876186
1806 4 0.152664 0.0174512 0.125909
582 4 0.151826 0.0720334 0.157334
579 4 0.16336 0.0210573 0.108572
654 4 0.21917 0.0693758 0.155816
580 2 0.176163 0.0665485 0.159017
581 4 0.200499 0.0610637 0.160701
1505 4 0.321524 0.0123198 0.134019
24 3 0.401844 0.0678683 0.155364
2724 4 0.406206 0.0534106 0.129426
2722 2 0.420267 0.0546721 0.10879
1761 4 0.485855 0.0285504 0.107371
2723 4 0.434329 0.0559335 0.0881533
1760 4 0.45298 0.0560896 0.0816504
1759 2 0.469418 0.04232 0.0945105
235 2 0.0634003 0.124028 0.162491
237 4 0.077405 0.120408 0.142096
477 4 0.080318 0.135261 0.129384
475 2 0.0934316 0.154957 0.121304
567 4 0.144863 0.090816 0.160543
565 2 0.14545 0.115193 0.166074
421 2 0.184389 0.142433 0.121328
422 4 0.200051 0.124031 0.114902
532 2 0.229551 0.11424 0.11113
534 4 0.206933 0.105175 0.116737
423 4 0.168728 0.160834 0.127754
533 4 0.252169 0.123305 0.105523
297 4 0.413817 0.107629 0.088759
556 2 0.348413 0.14327 0.0869921
295 2 0.401488 0.129379 0.0884438
296 4 0.389158 0.15113 0.0881285
558 4 0.370544 0.150624 0.0960101
629 4 0.383576 0.160895 0.105596
476 4 0.106545 0.174653 0.113224
506 4 0.151713 0.24485 0.10633
285 4 0.223491 0.219938 0.157557
354 4 0.234998 0.220602 0.141265
764 4 0.241909 0.228441 0.160457
352 2 0.241812 0.216851 0.117502
763 2 0.250483 0.251635 0.164161
353 4 0.248626 0.213101 0.0937389
310 2 0.309344 0.212781 0.150441
312 4 0.321661 0.220113 0.129954
628 2 0.397598 0.173049 0.122355
630 4 0.411621 0.185202 0.139113
771 4 0.488996 0.18411 0.0843695
528 4 0.487624 0.226316 0.127782
517 2 0.457968 0.226725 0.116528
519 4 0.477534 0.211375 0.119121
518 4 0.438401 0.242074 0.113935
836 4 0.0633363 0.315549 0.0829274
338 4 0.141444 0.255608 0.120235
339 4 0.0966131 0.261012 0.141724
337 2 0.119028 0.25831 0.130979
505 2 0.168094 0.263651 0.108165
507 4 0.184474 0.282453 0.109999
611 4 0.298608 0.322562 0.146818
610 2 0.287777 0.302587 0.157254
461 4 0.35466 0.261697 0.122911
460 2 0.366956 0.274722 0.105466
462 4 0.379253 0.287748 0.0880216
624 4 0.412988 0.309704 0.144298
728 4 0.367105 0.260358 0.158384
622 2 0.416889 0.33183 0.15527
254 4 0.431348 0.260666 0.11237
253 2 0.421806 0.275777 0.0948838
293 4 0.0711717 0.38069 0.0944438
835 2 0.0680388 0.338842 0.0907073
837 4 0.0727414 0.362134 0.0984872
313 2 0.0259938 0.38458 0.119937
314 4 0.0220669 0.376032 0.0967707
315 4 0.0299207 0.393127 0.143104
455 4 0.167711 0.355888 0.122795
454 2 0.160718 0.366081 0.144529
302 4 0.313374 0.334501 0.153118
741 4 0.344284 0.354044 0.0858104
386 4 0.36369 0.353664 0.0913606
387 4 0.389872 0.367576 0.13163
385 2 0.376781 0.36062 0.111495
13 3 0.386337 0.380973 0.145169
11 1 0.405682 0.39039 0.153857
15 3 0.416207 0.402693 0.13784
608 4 0.34544 0.407913 0.104181
623 4 0.420791 0.353957 0.166242
596 4 0.499683 0.339002 0.145834
12 3 0.419666 0.373522 0.160862
1757 4 0.0721493 0.434109 0.146732
1488 4 0.321968 0.491771 0.0943052
1628 4 0.25354 0.450676 0.118085
1627 2 0.269979 0.463714 0.131683
1629 4 0.286419 0.476753 0.145281
64 3 0.29547 0.489411 0.158768
1487 4 0.303344 0.488001 0.140562
1486 2 0.312656 0.489886 0.117434
494 4 0.40874 0.420911 0.133042
658 2 0.409293 0.485073 0.160369
1574 4 0.378095 0.488239 0.162179
659 4 0.42684 0.47359 0.14675
495 4 0.436852 0.462262 0.132306
493 2 0.422796 0.441586 0.132674
675 4 0.133802 0.0331321 0.210244
545 4 0.104561 0.0842312 0.170034
673 2 0.137039 0.0255583 0.233852
652 2 0.236595 0.0825172 0.168016
21 1 0.39117 0.071729 0.175601
23 3 0.38488 0.0515678 0.185212
757 2 0.408892 0.0669873 0.229403
759 4 0.412272 0.072435 0.205236
22 3 0.372319 0.0843457 0.171777
236 4 0.0493956 0.127648 0.182885
566 4 0.146037 0.13957 0.171605
544 2 0.103111 0.0872554 0.194812
546 4 0.10166 0.0902795 0.219589
693 4 0.120128 0.0921114 0.231069
691 2 0.144582 0.0892117 0.226739
738 4 0.162705 0.145193 0.181762
731 4 0.107554 0.0982612 0.248908
692 4 0.169037 0.086312 0.22241
598 2 0.206915 0.131268 0.218122
600 4 0.206658 0.122482 0.194714
599 4 0.207171 0.140054 0.24153
653 4 0.254021 0.0956587 0.180216
30 3 0.290573 0.161612 0.244758
29 3 0.318686 0.140388 0.231458
26 1 0.311561 0.15384 0.248971
25 3 0.405046 0.0830495 0.189671
363 4 0.0294583 0.24828 0.242037
371 4 0.12433 0.247622 0.178256
370 2 0.142545 0.230866 0.1747
737 4 0.164321 0.195102 0.179076
372 4 0.160759 0.214109 0.171144
736 2 0.163513 0.170148 0.180419
283 2 0.201622 0.21419 0.168229
284 4 0.179753 0.208442 0.178902
311 4 0.297026 0.20545 0.170928
496 2 0.327758 0.244416 0.21747
307 2 0.339631 0.193471 0.216972
498 4 0.340023 0.230646 0.200584
308 4 0.341605 0.208517 0.197099
309 4 0.337657 0.178426 0.236844
729 4 0.356701 0.222041 0.188787
727 2 0.361903 0.241199 0.173586
2493 4 0.00401011 0.324171 0.210491
361 2 0.0514223 0.260173 0.240885
362 4 0.0733863 0.272065 0.239733
648 4 0.0472428 0.303662 0.187455
646 2 0.0676566 0.316799 0.193445
750 4 0.0895334 0.284045 0.242884
647 4 0.0880705 0.329936 0.199434
612 4 0.276947 0.282613 0.16769
765 4 0.259057 0.274829 0.167865
497 4 0.315493 0.258186 0.234356
366 4 0.00452931 0.340266 0.198015
456 4 0.153726 0.376274 0.166264
704 4 0.137045 0.373997 0.176924
705 4 0.102116 0.343361 0.19542
415 2 0.152218 0.409391 0.191715
417 4 0.143675 0.392609 0.175267
703 2 0.11958 0.358679 0.186172
301 2 0.306141 0.35505 0.16539
303 4 0.298908 0.375599 0.177661
14 3 0.400472 0.403847 0.172027
645 4 0.396624 0.413695 0.188434
109 3 0.489053 0.41238 0.199271
3717 4 0.0240048 0.493754 0.234325
603 4 0.0806885 0.442204 0.214775
3715 2 0.0299751 0.493473 0.210046
1756 2 0.0745342 0.433241 0.171606
3716 4 0.0359453 0.493191 0.185768
1758 4 0.076919 0.432374 0.196481
416 4 0.160762 0.426174 0.208163
601 2 0.0921175 0.449619 0.235741
638 4 0.143741 0.461458 0.251126
637 2 0.1644 0.458666 0.23732
626 4 0.250472 0.464362 0.173025
1659 4 0.229558 0.474426 0.233234
625 2 0.22867 0.45557 0.181544
627 4 0.206869 0.446777 0.190063
639 4 0.185059 0.455874 0.223514
1657 2 0.234913 0.496567 0.222925
61 1 0.278515 0.493062 0.174183
63 3 0.267071 0.473281 0.178203
65 3 0.287276 0.501059 0.193623
660 4 0.391747 0.496555 0.173988
1575 4 0.33966 0.493675 0.193706
1573 2 0.358878 0.490957 0.177943
643 2 0.417209 0.425075 0.196916
107 3 0.48691 0.434104 0.229868
644 4 0.437794 0.436454 0.205397
110 3 0.457187 0.430641 0.207564
106 1 0.479925 0.431813 0.20807
108 3 0.487178 0.450189 0.195899
233 4 0.0387701 0.00941832 0.313301
512 4 0.0676616 0.0495871 0.267241
511 2 0.0602404 0.073462 0.267544
232 2 0.061583 0.0179304 0.318984
234 4 0.0843958 0.0264424 0.324667
428 4 0.1025 0.0187481 0.319214
674 4 0.140275 0.0179845 0.25746
1463 4 0.143353 0.0157125 0.27616
429 4 0.126565 0.025758 0.275942
427 2 0.114533 0.022253 0.297578
1462 2 0.166247 0.00773591 0.282276
466 2 0.213964 0.0670367 0.291211
467 4 0.191637 0.0702254 0.280417
468 4 0.236291 0.0638481 0.302005
706 2 0.316715 0.0669521 0.31859
707 4 0.293113 0.068731 0.32665
633 4 0.258671 0.0721199 0.329295
682 2 0.276976 0.0347791 0.328482
683 4 0.279669 0.0100173 0.326297
684 4 0.274282 0.0595409 0.330668
758 4 0.405513 0.0615395 0.253571
708 4 0.340317 0.0651731 0.31053
744 4 0.39835 0.0805135 0.25382
1517 4 0.390047 0.0616982 0.328148
480 4 0.443429 0.0733818 0.264567
479 4 0.439312 0.0486876 0.307857
478 2 0.44137 0.0610347 0.286212
513 4 0.0528192 0.097337 0.267846
531 4 0.0366126 0.10417 0.278157
529 2 0.0121548 0.102179 0.273358
2482 2 0.0703092 0.126013 0.292352
2483 4 0.0542129 0.108021 0.285842
2484 4 0.0864056 0.144005 0.298861
392 4 0.0969491 0.158228 0.286994
730 2 0.116093 0.0907855 0.271188
732 4 0.124631 0.0833099 0.293468
399 4 0.125949 0.141692 0.330291
249 4 0.219934 0.140281 0.256302
404 4 0.203563 0.153553 0.256007
247 2 0.237096 0.158225 0.259246
474 4 0.229782 0.108704 0.333227
631 2 0.260359 0.0869905 0.309265
632 4 0.262047 0.101861 0.289235
27 3 0.311283 0.141363 0.268294
742 2 0.390164 0.0971291 0.270615
743 4 0.381978 0.113745 0.287411
349 2 0.395473 0.141929 0.301297
351 4 0.374468 0.129855 0.295115
332 4 0.463405 0.155978 0.25143
350 4 0.416478 0.154003 0.307478
451 2 0.452915 0.12707 0.314393
452 4 0.432076 0.140299 0.310406
453 4 0.473754 0.11384 0.318381
393 4 0.0823158 0.206046 0.286801
405 4 0.161304 0.179789 0.250851
391 2 0.0896325 0.182137 0.286897
403 2 0.182433 0.166671 0.253429
536 4 0.243613 0.244477 0.297867
279 4 0.258481 0.193572 0.255785
248 4 0.254258 0.176168 0.262189
278 4 0.256992 0.234328 0.284724
277 2 0.257736 0.21395 0.270255
28 3 0.326187 0.171639 0.251744
331 2 0.478126 0.175771 0.255515
420 4 0.417295 0.226555 0.323421
333 4 0.492847 0.195564 0.259599
419 4 0.42115 0.219241 0.274102
418 2 0.419222 0.222898 0.298762
2682 4 0.49147 0.208759 0.274379
388 2 0.0222643 0.262138 0.319374
390 4 0.0249466 0.272006 0.296557
444 4 0.0379374 0.280464 0.281502
442 2 0.0583449 0.293017 0.288653
443 4 0.0787523 0.30557 0.295803
547 2 0.0160748 0.320274 0.313219
548 4 0.0387577 0.309755 0.313331
408 4 0.081864 0.323396 0.306069
406 2 0.079444 0.325909 0.330828
748 2 0.112108 0.292378 0.249675
749 4 0.134683 0.300712 0.256466
299 4 0.142459 0.303615 0.273844
298 2 0.147324 0.323735 0.287869
535 2 0.230584 0.264345 0.290078
537 4 0.217554 0.284213 0.282288
300 4 0.152189 0.343855 0.301894
734 4 0.137231 0.350181 0.312503
438 4 0.253407 0.399816 0.297367
436 2 0.277068 0.407249 0.300545
437 4 0.300729 0.414682 0.303723
602 4 0.103546 0.457034 0.256707
289 2 0.141746 0.497406 0.268538
501 4 0.100344 0.499577 0.308752
768 4 0.136571 0.444304 0.25783
766 2 0.140713 0.441177 0.282289
290 4 0.134817 0.474029 0.263004
767 4 0.144854 0.438051 0.306748
499 2 0.110949 0.482445 0.323558
1437 4 0.233221 0.480741 0.310734
1435 2 0.219323 0.474832 0.330662
543 4 0.413426 0.467871 0.324961
542 4 0.443237 0.449361 0.289332
541 2 0.428332 0.458616 0.307147
2756 4 0.00231791 0.0571138 0.378905
317 4 0.0217865 0.0581774 0.384124
316 2 0.0385683 0.039685 0.385381
318 4 0.0553502 0.0211926 0.386638
1602 4 0.0698801 0.00637361 0.382034
605 4 0.177928 0.038998 0.384281
604 2 0.196353 0.0556678 0.38148
440 4 0.231237 0.0194046 0.385518
439 2 0.250058 0.0256383 0.400752
606 4 0.214777 0.0723376 0.378679
726 4 0.276503 0.0775139 0.338709
724 2 0.283653 0.080606 0.362468
1670 4 0.32456 0.0269071 0.376189
441 4 0.268879 0.0318721 0.415986
1669 2 0.330515 0.0511494 0.374765
1516 2 0.369538 0.0676652 0.341147
1671 4 0.336469 0.0753918 0.373341
1427 4 0.416261 0.0262279 0.41127
1518 4 0.34903 0.0736322 0.354147
1426 2 0.427211 0.00944567 0.396316
2654 4 0.0088816 0.159134 0.403318
398 4 0.0880692 0.147582 0.362402
397 2 0.107009 0.144637 0.346346
473 4 0.227745 0.0862315 0.377853
276 4 0.222699 0.0846397 0.397136
472 2 0.228763 0.0974678 0.35554
274 2 0.223464 0.106862 0.408571
725 4 0.290804 0.0836982 0.386226
699 4 0.329809 0.0855561 0.354499
697 2 0.33825 0.10907 0.353496
698 4 0.346692 0.132584 0.352494
514 2 0.414333 0.154981 0.380573
257 4 0.422256 0.126933 0.412155
516 4 0.424514 0.137814 0.395634
1581 4 0.432433 0.11753 0.396179
1580 4 0.479663 0.11926 0.379837
1579 2 0.456048 0.118395 0.388008
373 2 0.240838 0.16757 0.415087
374 4 0.249666 0.188433 0.404505
510 4 0.292751 0.198523 0.403199
508 2 0.306611 0.219115 0.40019
509 4 0.320471 0.239707 0.397181
306 4 0.4162 0.227092 0.343432
515 4 0.404153 0.172149 0.365512
715 2 0.354484 0.247147 0.413375
266 4 0.409606 0.196818 0.416529
304 2 0.440832 0.223812 0.346205
305 4 0.465464 0.220533 0.348977
270 4 0.483226 0.229223 0.342627
583 2 0.497989 0.189622 0.358567
585 4 0.493564 0.207259 0.341405
267 4 0.445934 0.221347 0.392459
872 4 0.479794 0.223648 0.362601
265 2 0.42777 0.209083 0.404494
871 2 0.475666 0.2309 0.386171
873 4 0.471538 0.238152 0.409741
389 4 0.0195821 0.252269 0.34219
616 2 0.0700395 0.304244 0.383135
617 4 0.0765733 0.29341 0.404701
618 4 0.0635056 0.315079 0.361569
407 4 0.077024 0.328423 0.355587
344 4 0.201808 0.320475 0.345804
488 4 0.322747 0.255692 0.385592
717 4 0.332087 0.254335 0.404896
487 2 0.30998 0.260989 0.364756
489 4 0.297212 0.266285 0.343921
1260 4 0.264579 0.29033 0.384648
1258 2 0.275219 0.277245 0.403107
378 4 0.344319 0.334609 0.365328
376 2 0.363414 0.326064 0.351633
377 4 0.382509 0.317519 0.337938
268 2 0.492365 0.252472 0.341552
733 2 0.133872 0.358873 0.335705
735 4 0.130512 0.367565 0.358907
677 4 0.130619 0.374119 0.377383
676 2 0.154516 0.370971 0.384031
414 4 0.179433 0.408692 0.346539
343 2 0.192762 0.335546 0.363586
345 4 0.183715 0.350617 0.381368
402 4 0.193641 0.355348 0.399014
678 4 0.178413 0.367823 0.390678
400 2 0.211033 0.344167 0.413073
592 2 0.310606 0.361154 0.356213
594 4 0.293761 0.379001 0.351428
593 4 0.327451 0.343306 0.360998
435 4 0.42145 0.337487 0.35567
433 2 0.444426 0.34484 0.349098
434 4 0.467403 0.352194 0.342527
119 3 0.492168 0.398626 0.384123
3989 4 0.481067 0.385978 0.393032
3988 2 0.470526 0.378062 0.414279
500 4 0.121554 0.465313 0.338364
413 4 0.198362 0.454512 0.339986
412 2 0.188898 0.431602 0.343263
1436 4 0.205426 0.468924 0.350591
1557 4 0.198542 0.45641 0.41341
1555 2 0.223012 0.451768 0.415616
614 4 0.39491 0.432579 0.379439
613 2 0.398188 0.446498 0.358928
615 4 0.401465 0.460418 0.338417
713 4 0.416723 0.476284 0.344712
712 2 0.413385 0.501033 0.345949
117 3 0.495476 0.4177 0.41634
120 3 0.493936 0.436236 0.383984
1697 4 0.465612 0.494662 0.407491
446 4 0.458049 0.477007 0.400478
447 4 0.431954 0.470638 0.358297
445 2 0.445002 0.473822 0.379387
367 2 0.0540124 0.0527057 0.472104
369 4 0.0668495 0.0597169 0.451826
368 4 0.0411753 0.0456945 0.492383
938 4 0.0360801 0.0256934 0.489974
1818 4 0.236546 0.0188241 0.472069
962 4 0.291468 0.0399717 0.490547
1817 4 0.285887 0.0269289 0.472734
1816 2 0.261216 0.0228765 0.472401
961 2 0.301919 0.0626617 0.48949
963 4 0.31237 0.0853516 0.488433
425 4 0.331258 0.0889692 0.491496
424 2 0.3536 0.0793494 0.497284
687 4 0.134767 0.109809 0.432731
685 2 0.149337 0.114778 0.452434
686 4 0.163907 0.119747 0.472137
375 4 0.232009 0.146707 0.425669
275 4 0.224229 0.129084 0.420007
1152 4 0.181465 0.12248 0.481743
432 4 0.31801 0.103232 0.479946
431 4 0.318278 0.109181 0.430295
430 2 0.318144 0.106207 0.45512
321 4 0.319481 0.101571 0.500943
256 2 0.408665 0.134561 0.431706
258 4 0.395074 0.142189 0.451258
346 2 0.00890658 0.180822 0.475136
347 4 0.0291947 0.188274 0.487707
649 2 0.301221 0.195871 0.48553
650 4 0.286248 0.20967 0.471018
711 4 0.27132 0.223927 0.473729
709 2 0.273916 0.241043 0.455688
651 4 0.316194 0.182073 0.500041
576 4 0.378296 0.18785 0.474745
574 2 0.393732 0.188107 0.455076
410 4 0.3669 0.184403 0.490843
716 4 0.376881 0.23996 0.421854
575 4 0.409167 0.188365 0.435408
409 2 0.350119 0.168264 0.49996
2814 4 0.0607779 0.316168 0.451887
2812 2 0.0546051 0.307144 0.474373
2813 4 0.0484323 0.298121 0.49686
1136 4 0.109958 0.288413 0.460912
1135 2 0.11331 0.305251 0.479089
1137 4 0.116663 0.32209 0.497266
401 4 0.228426 0.332986 0.427133
993 4 0.249054 0.258543 0.49801
1259 4 0.285858 0.26416 0.421566
710 4 0.276511 0.258158 0.437646
503 4 0.196239 0.410294 0.481983
1268 4 0.430492 0.410823 0.484737
3990 4 0.459985 0.370147 0.435525
753 4 0.474898 0.375068 0.492103
751 2 0.499331 0.371255 0.495801
383 4 0.0282012 0.436765 0.481008
382 2 0.0380733 0.45179 0.463631
384 4 0.0479454 0.466815 0.446254
1556 4 0.247481 0.447126 0.417822
502 2 0.195833 0.434905 0.477592
773 4 0.200031 0.47758 0.470729
636 4 0.194744 0.490425 0.455858
772 2 0.213831 0.48704 0.489309
504 4 0.195427 0.459517 0.4732
1 1 0.316129 0.482733 0.497663
667 2 0.272126 0.462534 0.450661
669 4 0.25716 0.452665 0.433231
668 4 0.287092 0.472402 0.468091
4 3 0.299757 0.481382 0.481276
5 3 0.336686 0.484333 0.487995
1586 4 0.356655 0.485747 0.483134
882 4 0.380378 0.4506 0.482607
1267 2 0.437062 0.433352 0.493366
1059 4 0.0482441 0.0527181 0.510243
1057 2 0.0549503 0.06464 0.531174
937 2 0.0463599 0.00653905 0.502328
1058 4 0.0616564 0.0765618 0.552104
1031 4 0.22176 0.0746727 0.580901
1182 4 0.234995 0.0823105 0.568565
843 4 0.305124 0.0307729 0.575075
841 2 0.328177 0.0401417 0.57752
1217 4 0.349708 0.0666761 0.571341
1216 2 0.363145 0.0761041 0.55248
842 4 0.351229 0.0495104 0.579965
2333 4 0.354892 0.0353048 0.566623
89 3 0.414663 0.0399478 0.574439
2332 2 0.373552 0.0236242 0.554768
2334 4 0.392212 0.0119435 0.542913
426 4 0.375941 0.0697296 0.503073
90 3 0.428144 0.00483066 0.572787
86 1 0.432696 0.0261755 0.579292
87 3 0.451158 0.0337992 0.567883
824 4 0.0626596 0.0852377 0.571548
2429 4 0.0770858 0.0862439 0.559648
2428 2 0.100222 0.0930727 0.566224
2430 4 0.123359 0.0999015 0.5728
944 4 0.143134 0.104994 0.572206
943 2 0.148989 0.11991 0.553012
260 4 0.114632 0.13335 0.501202
259 2 0.113707 0.158203 0.503776
945 4 0.154843 0.134826 0.533818
1151 4 0.173191 0.138391 0.528424
1220 4 0.172587 0.138015 0.547947
1150 2 0.177328 0.130435 0.505083
1219 2 0.186061 0.157611 0.555671
1181 4 0.267477 0.090547 0.531446
1180 2 0.251236 0.0864288 0.550006
320 4 0.322138 0.145749 0.524223
319 2 0.32081 0.12366 0.512583
1218 4 0.376582 0.0855321 0.533619
411 4 0.333338 0.152125 0.509077
1062 4 0.492549 0.126967 0.581766
877 2 0.0254329 0.193326 0.547952
1272 4 0.062167 0.219641 0.54725
879 4 0.0467528 0.206104 0.545238
878 4 0.00411313 0.180548 0.550667
1270 2 0.0841678 0.208083 0.550002
1033 2 0.123783 0.22281 0.511592
1034 4 0.137079 0.243419 0.516456
1035 4 0.110487 0.202201 0.506728
261 4 0.112782 0.183057 0.506349
1271 4 0.106168 0.196526 0.552754
1154 4 0.115247 0.18 0.544938
695 4 0.149876 0.238013 0.531428
1153 2 0.124707 0.173644 0.567193
1221 4 0.199535 0.177206 0.563395
694 2 0.174776 0.236464 0.529753
696 4 0.199675 0.234914 0.528078
325 2 0.237951 0.18994 0.565916
327 4 0.214352 0.188011 0.557883
8 3 0.235151 0.226239 0.558195
6 1 0.233249 0.243428 0.573666
326 4 0.261551 0.191869 0.573949
1239 4 0.270529 0.178441 0.583131
10 3 0.253837 0.249023 0.581633
953 4 0.466311 0.229304 0.576816
1082 4 0.00877507 0.252805 0.584631
2845 2 0.00462265 0.311756 0.556075
2847 4 0.0102408 0.321315 0.578486
1041 4 0.0988662 0.326187 0.505567
991 2 0.239711 0.260664 0.521105
992 4 0.230368 0.262786 0.544201
9 3 0.223291 0.261911 0.563787
1064 4 0.235374 0.278126 0.57097
790 2 0.325643 0.277316 0.544002
792 4 0.310948 0.295488 0.552891
812 4 0.322281 0.310971 0.546685
804 4 0.290378 0.294446 0.552634
802 2 0.271913 0.281404 0.563317
803 4 0.253448 0.268362 0.574
791 4 0.340339 0.259145 0.535113
560 4 0.504642 0.303387 0.516461
1039 2 0.0992993 0.34598 0.520839
1040 4 0.0997324 0.365774 0.53611
1190 4 0.226755 0.408164 0.568752
1159 2 0.175238 0.411642 0.570944
1161 4 0.189674 0.414523 0.550733
811 2 0.327066 0.334905 0.552107
813 4 0.331852 0.35884 0.557529
1938 4 0.0370266 0.485289 0.561649
1936 2 0.0167909 0.492277 0.548732
1173 4 0.207535 0.420336 0.544912
1171 2 0.227851 0.434316 0.549036
774 4 0.227631 0.4965 0.50789
1172 4 0.248167 0.448297 0.553159
1188 4 0.246644 0.495846 0.516085
3 3 0.315237 0.463991 0.511315
881 4 0.352356 0.454289 0.523861
663 4 0.382083 0.482542 0.544499
661 2 0.402287 0.487566 0.558346
880 2 0.366367 0.452445 0.503234
662 4 0.422492 0.49259 0.572193
4084 2 0.46655 0.47159 0.532775
1269 4 0.443631 0.45588 0.501996
4085 4 0.4512 0.455057 0.521994
4086 4 0.481899 0.488123 0.543555
823 2 0.0545761 0.0713293 0.590689
2319 4 0.0533507 0.027467 0.613961
825 4 0.0464926 0.0574209 0.60983
2317 2 0.0525731 0.0086067 0.597564
98 3 0.223375 0.054712 0.649656
950 4 0.256998 0.0415916 0.643905
100 3 0.257302 0.0461657 0.663569
951 4 0.29233 0.0527616 0.610325
949 2 0.274664 0.0471766 0.627115
1003 2 0.326584 0.0182499 0.634342
1004 4 0.308261 0.00508038 0.645112
1005 4 0.344908 0.0314194 0.623572
1092 4 0.358889 0.035425 0.610599
1090 2 0.38331 0.0344003 0.615865
1091 4 0.407732 0.0333755 0.621132
88 3 0.437186 0.0267289 0.602051
2283 4 0.424484 0.0246692 0.617896
2281 2 0.436014 0.0221734 0.639942
2282 4 0.447544 0.0196776 0.661988
3007 2 0.459705 0.0697902 0.607231
3008 4 0.465953 0.0470612 0.598892
4467 4 0.482036 0.0452346 0.587424
4465 2 0.499013 0.0269805 0.589356
1198 2 0.00270264 0.139198 0.63904
1200 4 0.00614815 0.161906 0.629158
1155 4 0.134168 0.167288 0.589448
1284 4 0.146596 0.158649 0.601864
1282 2 0.160567 0.138204 0.605332
1030 2 0.204288 0.0917034 0.586365
1032 4 0.186816 0.108734 0.59183
1283 4 0.174538 0.11776 0.6088
887 4 0.31872 0.108558 0.595621
886 2 0.304393 0.125087 0.607733
888 4 0.290065 0.141616 0.619845
806 4 0.289979 0.152556 0.638823
805 2 0.309604 0.146382 0.653032
1238 4 0.271548 0.155803 0.627709
1237 2 0.271039 0.167122 0.60542
900 4 0.351438 0.0829582 0.607255
898 2 0.359016 0.10597 0.613435
899 4 0.366594 0.128982 0.619616
148 3 0.404078 0.0954629 0.61515
1194 4 0.362682 0.14744 0.623225
149 3 0.40289 0.132767 0.607979
146 1 0.416432 0.113931 0.608464
905 4 0.418003 0.146413 0.612127
150 3 0.425368 0.110251 0.587843
3009 4 0.453457 0.0925192 0.615569
147 3 0.433426 0.117378 0.62358
3052 2 0.471474 0.120695 0.626663
3053 4 0.450707 0.113816 0.614556
3251 4 0.424515 0.135916 0.629178
3250 2 0.426402 0.140974 0.653592
3054 4 0.492241 0.127575 0.63877
850 2 0.0289731 0.203781 0.641097
1081 2 0.0270964 0.242822 0.59841
852 4 0.0434515 0.219632 0.628279
1083 4 0.0454177 0.232838 0.612188
1208 4 0.0485531 0.237801 0.632014
851 4 0.0144946 0.187931 0.653915
909 4 0.0639083 0.236733 0.619207
907 2 0.0803238 0.220243 0.610053
1211 4 0.150343 0.176661 0.601668
908 4 0.0967392 0.203753 0.600899
1210 2 0.164906 0.193632 0.612851
948 4 0.139717 0.251567 0.663131
7 3 0.220053 0.236306 0.59111
1212 4 0.17947 0.210604 0.624033
1193 4 0.35275 0.196189 0.618168
1192 2 0.357716 0.171815 0.620697
1025 4 0.397269 0.227421 0.656134
1024 2 0.410791 0.213863 0.640056
904 2 0.42108 0.170873 0.607954
906 4 0.424158 0.195333 0.603781
1026 4 0.424312 0.200304 0.623977
952 2 0.450699 0.220294 0.594144
954 4 0.435087 0.211285 0.611473
1207 2 0.0507757 0.25483 0.650187
857 4 0.126595 0.293301 0.629947
856 2 0.145827 0.309217 0.631364
858 4 0.165058 0.325133 0.63278
1065 4 0.212661 0.313686 0.597808
1063 2 0.224018 0.295906 0.584389
796 2 0.19934 0.326106 0.62922
798 4 0.218774 0.319287 0.615044
3274 2 0.0283147 0.372035 0.652733
3275 4 0.00816268 0.367579 0.638618
984 4 0.0154641 0.335726 0.590713
982 2 0.00489224 0.345985 0.610916
1160 4 0.160803 0.408761 0.591155
897 4 0.143301 0.401556 0.588438
797 4 0.179905 0.332926 0.643396
1189 2 0.233157 0.397316 0.590351
1191 4 0.23956 0.386468 0.61195
1068 4 0.233619 0.389525 0.667609
1175 4 0.242651 0.404194 0.660543
1007 4 0.393937 0.351344 0.642542
895 2 0.125036 0.418581 0.589746
896 4 0.106771 0.435607 0.591055
1174 2 0.248791 0.425973 0.649905
1176 4 0.25493 0.447751 0.639267
1952 4 0.252264 0.488243 0.660194
4148 4 0.471228 0.473856 0.609184
2167 2 0.488229 0.481671 0.637812
2169 4 0.482767 0.489169 0.614593
2168 4 0.493691 0.474172 0.661031
4147 2 0.456555 0.486715 0.593547
1250 4 0.473383 0.471408 0.666322
1185 4 0.0546968 0.00451886 0.681347
96 1 0.235316 0.0490892 0.66874
97 3 0.22687 0.0294741 0.677288
2202 4 0.227455 0.053648 0.700714
99 3 0.233088 0.0657952 0.684688
2262 4 0.226002 0.0345399 0.696322
2200 2 0.228553 0.0730846 0.716404
2260 2 0.225879 0.0176722 0.714779
2261 4 0.225757 0.000804516 0.733236
2398 2 0.372655 0.0338835 0.726345
2400 4 0.355426 0.030639 0.708518
2399 4 0.389884 0.0371279 0.744172
2322 4 0.401367 0.0510754 0.719383
1162 2 0.477133 0.0572065 0.676735
2321 4 0.434718 0.0465878 0.682393
2320 2 0.418042 0.0488316 0.700888
1163 4 0.454517 0.0514909 0.685736
2342 4 0.432879 0.0111324 0.704189
1924 2 0.436256 0.0236267 0.746438
1925 4 0.454634 0.00734046 0.741725
1164 4 0.49975 0.0629222 0.667734
1076 4 0.0158217 0.158973 0.706007
1077 4 0.0500756 0.122636 0.708661
864 4 0.0496261 0.118371 0.728703
1075 2 0.0329487 0.140805 0.707334
1225 2 0.148052 0.135117 0.709114
1227 4 0.128585 0.146899 0.69875
2201 4 0.229651 0.0925212 0.732095
1226 4 0.167519 0.123335 0.719478
1148 4 0.177401 0.133759 0.73388
1147 2 0.193871 0.115049 0.73584
1149 4 0.210341 0.096339 0.7378
807 4 0.32923 0.140207 0.667241
43 3 0.252975 0.143259 0.746723
830 4 0.337549 0.156456 0.675888
829 2 0.334764 0.165543 0.699015
3252 4 0.428288 0.146032 0.678006
1073 4 0.0676658 0.190597 0.720688
1072 2 0.0856356 0.207548 0.716825
1074 4 0.103605 0.2245 0.712963
893 4 0.113349 0.239287 0.721978
947 4 0.12058 0.230636 0.704317
946 2 0.130149 0.241102 0.683724
1277 4 0.143704 0.244695 0.737378
977 4 0.218025 0.166187 0.74826
976 2 0.202278 0.185602 0.748789
917 4 0.239446 0.233617 0.724805
918 4 0.264419 0.191157 0.733419
916 2 0.251932 0.212387 0.729112
809 4 0.321085 0.187108 0.737583
808 2 0.296818 0.182344 0.741267
810 4 0.27255 0.177579 0.74495
45 3 0.25667 0.180507 0.750794
3204 4 0.338931 0.17997 0.738134
831 4 0.331979 0.17463 0.722142
3202 2 0.353049 0.200598 0.738724
3203 4 0.367167 0.221226 0.739314
3486 4 0.381009 0.216593 0.726988
3484 2 0.40064 0.231109 0.721596
3485 4 0.420271 0.245626 0.716203
1209 4 0.0529983 0.271858 0.66836
892 2 0.105522 0.259278 0.734795
894 4 0.0976936 0.279269 0.747612
1263 4 0.462774 0.32005 0.685606
1261 2 0.487155 0.315902 0.689286
3276 4 0.0484666 0.376492 0.666847
780 4 0.0610891 0.364904 0.74906
815 4 0.10997 0.373823 0.718002
814 2 0.0948054 0.371218 0.737711
942 4 0.112843 0.369373 0.698348
940 2 0.132096 0.384723 0.702691
941 4 0.15135 0.400073 0.707034
2013 4 0.153475 0.412207 0.723707
1067 4 0.193378 0.40493 0.692987
1066 2 0.213499 0.397228 0.680298
2011 2 0.176703 0.409524 0.732563
2012 4 0.199931 0.406841 0.741419
1028 4 0.253524 0.387835 0.667519
1029 4 0.283973 0.390676 0.707085
1027 2 0.268749 0.389256 0.687302
1006 2 0.401547 0.359163 0.665039
1008 4 0.409156 0.366982 0.687537
998 4 0.381072 0.360159 0.722109
997 2 0.389861 0.383559 0.72152
999 4 0.398651 0.40696 0.720931
1019 4 0.392419 0.407209 0.745111
3431 4 0.00898383 0.424014 0.706425
1280 4 0.0701001 0.4392 0.689132
1279 2 0.0729109 0.438496 0.713967
1281 4 0.0757218 0.437792 0.738802
1080 4 0.161409 0.417873 0.7058
2015 4 0.128017 0.462946 0.699413
1079 4 0.138249 0.456269 0.683662
2014 2 0.119301 0.483656 0.688445
1078 2 0.149829 0.437071 0.694731
929 4 0.294614 0.484664 0.728625
1228 2 0.325374 0.461925 0.723808
1229 4 0.305361 0.473849 0.714724
1230 4 0.345387 0.450002 0.732891
1205 4 0.401445 0.420493 0.734072
1204 2 0.409344 0.437758 0.717802
1140 4 0.34344 0.439576 0.750261
1206 4 0.417244 0.455022 0.701532
1249 2 0.451652 0.46354 0.675863
1251 4 0.429921 0.455672 0.685405
1202 4 0.0239983 0.0655981 0.815674
1201 2 0.0364456 0.0825477 0.802148