ITEM: TIMESTEP
2010000
ITEM: NUMBER OF ATOMS
4590
ITEM: BOX BOUNDS pp pp pp
-9.9985700000000008e+00 9.9985700000000008e+00
-9.9985700000000008e+00 9.9985700000000008e+00
-9.9985700000000008e+00 9.9985700000000008e+00
ITEM: ATOMS id type xs ys zs
463 2 0.0162201 0.0283166 0.0553462
464 4 0.0381089 0.039506 0.0507791
3234 4 0.0336316 0.0599525 0.996662
1248 4 0.0168254 0.0689912 0.00168941
490 2 0.255073 0.00798952 0.031944
492 4 0.272877 0.0161377 0.0163931
486 4 0.292593 0.0207959 0.0213168
484 2 0.316292 0.0173604 0.0285091
485 4 0.339991 0.0139249 0.0357015
1607 4 0.35754 0.00583884 0.0301929
2722 2 0.412974 0.0368377 0.0562408
2723 4 0.417447 0.0390203 0.0317375
2724 4 0.408502 0.0346551 0.080744
2469 4 0.436285 0.0374378 0.0231641
1759 2 0.471552 0.021993 0.0476999
1760 4 0.45135 0.0289434 0.0347088
1761 4 0.491753 0.0150426 0.0606911
2467 2 0.424639 0.0304646 0.00216556
358 2 0.245674 0.122618 0.0285339
360 4 0.236593 0.102119 0.0396015
359 4 0.254754 0.143118 0.0174662
664 2 0.371367 0.123401 0.052909
666 4 0.362817 0.141759 0.038245
866 4 0.347463 0.137834 0.0258029
665 4 0.379918 0.105042 0.0675729
770 4 0.462416 0.157702 0.0717368
555 4 0.100264 0.242673 0.0111539
505 2 0.167583 0.232324 0.0514788
507 4 0.157792 0.224279 0.0299247
506 4 0.177374 0.24037 0.0730329
353 4 0.26272 0.224962 0.0834986
769 2 0.481798 0.168104 0.0836233
1232 4 0.0453453 0.281486 0.00666542
286 2 0.13346 0.329377 0.0422958
288 4 0.11332 0.337507 0.0546839
836 4 0.0863268 0.343112 0.0734385
287 4 0.1536 0.321247 0.0299078
482 4 0.134936 0.312553 0.00217072
355 2 0.170249 0.295479 0.0101004
357 4 0.153621 0.314128 0.0110457
356 4 0.186877 0.27683 0.00915515
755 4 0.263719 0.310304 0.0334796
754 2 0.279936 0.306898 0.0522033
756 4 0.296153 0.303492 0.0709271
740 4 0.307403 0.319255 0.0696868
1071 4 0.362906 0.278238 0.0142721
827 4 0.358337 0.263653 0.00101871
1069 2 0.34699 0.294471 0.00386282
1304 4 0.442507 0.316458 0.0397803
1303 2 0.455631 0.306092 0.0583675
1306 2 0.433315 0.274893 0.00125597
1308 4 0.431553 0.264449 0.0239053
1305 4 0.468754 0.295725 0.0769547
1167 4 0.484615 0.319208 0.00985675
621 4 0.0336099 0.393174 0.0236867
2787 4 0.0383596 0.406739 0.0384127
2785 2 0.0317725 0.390708 0.0564346
2786 4 0.0251854 0.374677 0.0744566
837 4 0.0400578 0.361161 0.0792825
835 2 0.0631923 0.352136 0.0763605
619 2 0.0380728 0.394069 0.999101
913 2 0.120802 0.38617 0.0342796
914 4 0.128436 0.362609 0.0308465
915 4 0.113169 0.409731 0.0377127
1094 4 0.422092 0.348278 0.0462541
1095 4 0.461917 0.377539 0.0386089
2841 4 0.462452 0.397225 0.0388531
1093 2 0.442004 0.362909 0.0424315
102 3 0.470045 0.385241 0.0807013
1165 2 0.488045 0.338697 0.0251413
101 1 0.487325 0.38754 0.0656933
105 3 0.479022 0.386685 0.0445044
1166 4 0.491475 0.358185 0.0404259
104 3 0.502456 0.370256 0.0689706
3348 4 0.497367 0.400756 0.0118644
293 4 0.106024 0.427706 0.0356378
292 2 0.117654 0.448902 0.0420162
552 4 0.127791 0.479717 0.0301008
294 4 0.129284 0.470097 0.0483946
1439 4 0.132479 0.489767 0.0472498
550 2 0.128329 0.487361 0.00630053
903 4 0.229427 0.446435 0.0446625
241 2 0.19822 0.49877 0.0826565
901 2 0.253121 0.447826 0.0367992
609 4 0.338556 0.4159 0.0573072
902 4 0.276815 0.449217 0.0289358
251 4 0.324743 0.427547 0.0458249
250 2 0.305147 0.443074 0.0461572
252 4 0.285552 0.458601 0.0464895
244 2 0.291642 0.494537 0.061015
246 4 0.2794 0.480658 0.0442015
1289 4 0.285483 0.469555 0.0302168
1288 2 0.288268 0.479495 0.00744347
607 2 0.344139 0.423992 0.080297
2839 2 0.450004 0.418096 0.0329698
2840 4 0.437555 0.438967 0.0270866
379 2 0.00765919 0.0623899 0.152837
380 4 0.00750407 0.0429036 0.168503
1806 4 0.142022 0.0106314 0.138844
579 4 0.157367 0.0143673 0.124872
577 2 0.158799 0.0347906 0.110519
578 4 0.160231 0.0552139 0.0961656
423 4 0.180704 0.0536418 0.093774
421 2 0.189074 0.0770564 0.0963966
654 4 0.208143 0.0535458 0.154699
652 2 0.232544 0.0586263 0.156685
581 4 0.191199 0.0602582 0.162074
580 2 0.167051 0.0661839 0.164704
653 4 0.256946 0.0637069 0.15867
24 3 0.384084 0.0249283 0.15484
21 1 0.379558 0.0476851 0.154625
22 3 0.386653 0.0564889 0.134592
23 3 0.356724 0.0512401 0.156714
297 4 0.489083 0.0481251 0.144058
295 2 0.471915 0.066077 0.1412
296 4 0.454747 0.0840289 0.138342
381 4 0.0078143 0.0818761 0.13717
236 4 0.0905471 0.123409 0.139446
235 2 0.100866 0.145246 0.13298
566 4 0.137802 0.137672 0.162027
422 4 0.197444 0.100471 0.0990192
532 2 0.230057 0.110021 0.123223
534 4 0.209967 0.0977354 0.11482
533 4 0.250148 0.122306 0.131626
557 4 0.40964 0.11602 0.0996019
556 2 0.4267 0.108453 0.116242
558 4 0.44376 0.100887 0.132881
629 4 0.444583 0.094544 0.151683
237 4 0.111186 0.167084 0.126514
476 4 0.0975578 0.218181 0.119389
475 2 0.112245 0.198131 0.122123
477 4 0.126933 0.178082 0.124856
738 4 0.164589 0.21686 0.145215
736 2 0.177819 0.238071 0.145691
352 2 0.263036 0.248026 0.0931505
311 4 0.271338 0.208088 0.0928899
310 2 0.274742 0.201022 0.116632
312 4 0.278146 0.193957 0.140373
461 4 0.277147 0.213082 0.14788
460 2 0.288038 0.23216 0.159822
728 4 0.413967 0.231714 0.150288
727 2 0.409415 0.228365 0.174644
519 4 0.474229 0.236078 0.120483
528 4 0.491526 0.22768 0.126152
517 2 0.450205 0.236027 0.127413
518 4 0.426182 0.235976 0.134344
648 4 0.0648044 0.306961 0.152416
338 4 0.148321 0.304838 0.110315
646 2 0.0888198 0.312678 0.148447
647 4 0.112835 0.318395 0.144478
705 4 0.123187 0.335126 0.138103
337 2 0.164965 0.290714 0.12251
737 4 0.191049 0.259282 0.146167
284 4 0.196658 0.267549 0.127709
285 4 0.24098 0.271341 0.104864
339 4 0.181608 0.276591 0.134705
372 4 0.196531 0.277882 0.145835
283 2 0.218819 0.269445 0.116287
370 2 0.199693 0.288325 0.168333
354 4 0.263352 0.271089 0.102802
764 4 0.254611 0.276449 0.119713
763 2 0.274118 0.291192 0.124936
765 4 0.293626 0.305936 0.130158
612 4 0.290069 0.303798 0.14977
324 4 0.31265 0.262036 0.16038
322 2 0.323857 0.274854 0.142069
323 4 0.335063 0.287672 0.123757
624 4 0.40556 0.312775 0.134864
2652 4 0.49458 0.295095 0.122317
596 4 0.489654 0.288671 0.142575
595 2 0.487838 0.296078 0.166387
313 2 0.0402034 0.385057 0.112933
314 4 0.0259128 0.382053 0.0926372
315 4 0.0544939 0.388062 0.133229
1757 4 0.0523228 0.378493 0.151625
1756 2 0.057543 0.399543 0.164068
703 2 0.137998 0.341702 0.157143
454 2 0.181103 0.375253 0.161521
455 4 0.196993 0.386096 0.145549
739 2 0.315637 0.33726 0.0849577
741 4 0.32387 0.355266 0.100229
622 2 0.414754 0.335525 0.139666
386 4 0.343984 0.352861 0.0965786
387 4 0.355894 0.375405 0.139597
385 2 0.349939 0.364133 0.118088
13 3 0.373536 0.376154 0.147936
11 1 0.393508 0.387318 0.151798
15 3 0.393063 0.407744 0.141736
12 3 0.410777 0.374919 0.143014
494 4 0.393138 0.412704 0.122216
623 4 0.423949 0.358276 0.144467
242 4 0.207531 0.483539 0.100164
625 2 0.236029 0.496553 0.123235
627 4 0.233723 0.484834 0.145201
524 4 0.336698 0.498586 0.124384
525 4 0.33733 0.458298 0.154001
523 2 0.337014 0.478442 0.139193
608 4 0.349722 0.432084 0.103287
659 4 0.391839 0.473488 0.138413
495 4 0.382679 0.461545 0.124639
493 2 0.387909 0.437124 0.123428
658 2 0.401679 0.491693 0.152445
513 4 0.0448478 0.0676965 0.23229
511 2 0.061203 0.0535761 0.244872
531 4 0.0336612 0.0832618 0.221733
582 4 0.142902 0.0721096 0.167335
759 4 0.391328 0.0594365 0.191992
25 3 0.390615 0.0579684 0.171673
757 2 0.386284 0.0663785 0.215477
758 4 0.381241 0.0733204 0.238962
479 4 0.43341 0.0184765 0.25227
529 2 0.0087111 0.0830677 0.22011
567 4 0.134259 0.0890545 0.173186
565 2 0.13603 0.113363 0.167607
2484 4 0.151013 0.170164 0.263897
599 4 0.155545 0.168761 0.227466
598 2 0.169545 0.155697 0.211388
600 4 0.183545 0.142633 0.19531
29 3 0.291122 0.148863 0.223026
26 1 0.288119 0.168218 0.235468
744 4 0.382478 0.0882067 0.251885
630 4 0.424457 0.109977 0.194782
628 2 0.43452 0.102261 0.173233
393 4 0.119003 0.198767 0.206809
391 2 0.133332 0.19084 0.225704
392 4 0.147661 0.182913 0.244599
249 4 0.162056 0.188417 0.259248
247 2 0.181329 0.199118 0.247448
248 4 0.200601 0.209819 0.235647
462 4 0.298929 0.251239 0.171763
30 3 0.267965 0.177593 0.230511
28 3 0.305183 0.183274 0.230938
729 4 0.404863 0.225017 0.199001
309 4 0.36622 0.191209 0.216558
307 2 0.38422 0.208415 0.218824
308 4 0.40222 0.225621 0.22109
254 4 0.360483 0.23496 0.197202
498 4 0.407522 0.241387 0.208459
253 2 0.340185 0.241748 0.184274
332 4 0.486245 0.199332 0.218677
331 2 0.50065 0.219473 0.222142
333 4 0.515055 0.239614 0.225607
363 4 0.047871 0.27535 0.218713
361 2 0.0692811 0.288262 0.218457
362 4 0.0906912 0.301174 0.218201
748 2 0.126453 0.323222 0.217183
750 4 0.107437 0.309118 0.209142
371 4 0.202854 0.298767 0.19083
255 4 0.319888 0.248536 0.171347
610 2 0.293393 0.313625 0.172519
611 4 0.296717 0.323452 0.195269
496 2 0.405676 0.264885 0.216803
497 4 0.403831 0.288383 0.225147
597 4 0.486023 0.303486 0.190199
456 4 0.165212 0.364409 0.177493
749 4 0.145469 0.337326 0.225223
704 4 0.15281 0.348279 0.176184
417 4 0.145011 0.372615 0.181223
415 2 0.134559 0.394741 0.186358
416 4 0.124108 0.416868 0.191492
299 4 0.158344 0.352507 0.231701
302 4 0.303156 0.341962 0.191586
301 2 0.315745 0.361067 0.201671
303 4 0.328333 0.380172 0.211756
14 3 0.396909 0.389805 0.174616
645 4 0.390995 0.396261 0.193393
643 2 0.41026 0.407623 0.204572
107 3 0.471732 0.398918 0.224074
1758 4 0.0627632 0.420593 0.176512
3715 2 0.0280587 0.49389 0.208664
3716 4 0.0156164 0.477786 0.194138
1790 4 0.00683197 0.483924 0.175442
603 4 0.0679733 0.43713 0.184536
290 4 0.122248 0.429594 0.206326
602 4 0.117933 0.436417 0.186587
601 2 0.0929533 0.436773 0.185561
638 4 0.135913 0.433641 0.195933
637 2 0.151752 0.452658 0.192372
639 4 0.16759 0.471674 0.188812
289 2 0.122167 0.427836 0.231268
109 3 0.484099 0.425346 0.200383
644 4 0.429524 0.418985 0.215752
110 3 0.447191 0.420454 0.205996
106 1 0.467691 0.42004 0.215907
108 3 0.468274 0.435132 0.233522
2477 4 0.0246149 0.0525918 0.308439
512 4 0.0775583 0.0394557 0.257453
2738 4 0.0285392 0.0734887 0.303918
544 2 0.124962 0.0410636 0.321159
545 4 0.113803 0.0573033 0.305767
234 4 0.117092 0.0141335 0.30575
605 4 0.16932 0.0574521 0.336169
466 2 0.259444 0.0134781 0.286373
468 4 0.263374 0.0340024 0.300102
478 2 0.451841 0.0311471 0.263447
480 4 0.470272 0.0438178 0.274625
2739 4 0.0511109 0.102569 0.270072
2737 2 0.0398251 0.088029 0.286995
2482 2 0.135237 0.151006 0.260854
2483 4 0.11946 0.131848 0.257812
398 4 0.155895 0.151747 0.302508
397 2 0.16219 0.13961 0.323442
474 4 0.233291 0.112285 0.285915
472 2 0.216506 0.110102 0.304318
473 4 0.199722 0.107919 0.322722
683 4 0.263774 0.0891354 0.321964
27 3 0.288682 0.162847 0.257828
707 4 0.321344 0.123188 0.319122
684 4 0.299791 0.123653 0.32543
633 4 0.309501 0.138166 0.315535
631 2 0.304374 0.152014 0.295357
726 4 0.314823 0.132523 0.333469
682 2 0.281783 0.106394 0.323697
632 4 0.299247 0.165861 0.27518
706 2 0.345678 0.122429 0.313426
742 2 0.382551 0.104585 0.270777
743 4 0.382625 0.120964 0.28967
708 4 0.370013 0.12167 0.30773
349 2 0.408606 0.133205 0.311288
351 4 0.384993 0.133305 0.303067
350 4 0.432219 0.133106 0.31951
451 2 0.460674 0.147743 0.301479
452 4 0.450753 0.126611 0.310433
453 4 0.470595 0.168876 0.292526
389 4 0.0279358 0.24348 0.264921
388 2 0.0434793 0.247792 0.284026
403 2 0.11115 0.21799 0.294754
404 4 0.12852 0.20134 0.287957
405 4 0.0937794 0.234641 0.301552
279 4 0.209636 0.205227 0.274206
277 2 0.214635 0.229648 0.276151
444 4 0.0759847 0.258156 0.311013
390 4 0.0590227 0.252103 0.303131
442 2 0.0863745 0.270809 0.329911
735 4 0.0944447 0.310695 0.297294
537 4 0.242191 0.304033 0.254902
278 4 0.219633 0.25407 0.278095
535 2 0.239204 0.28362 0.269029
536 4 0.236218 0.263207 0.283156
419 4 0.371325 0.255236 0.262721
418 2 0.394906 0.259332 0.269955
377 4 0.373251 0.322658 0.332326
420 4 0.418487 0.263429 0.277189
304 2 0.428985 0.255766 0.316679
306 4 0.421728 0.26723 0.295677
548 4 0.0706687 0.356794 0.315149
547 2 0.0506431 0.350504 0.328735
3958 2 0.0137468 0.409979 0.287763
3959 4 0.00350002 0.391034 0.275065
2463 4 0.00508635 0.326147 0.286434
298 2 0.152811 0.347882 0.255642
733 2 0.115342 0.324419 0.297663
734 4 0.13624 0.338142 0.298031
300 4 0.147278 0.343258 0.279583
766 2 0.153345 0.378093 0.300508
767 4 0.144798 0.355379 0.294492
768 4 0.161892 0.400807 0.306523
414 4 0.170416 0.410127 0.324705
344 4 0.246148 0.38468 0.328526
438 4 0.264581 0.393306 0.326947
436 2 0.287905 0.399787 0.320689
437 4 0.311229 0.406269 0.31443
434 4 0.430427 0.346201 0.303718
433 2 0.438019 0.358042 0.32439
3960 4 0.0239936 0.428924 0.300462
775 2 0.099965 0.491429 0.323143
291 4 0.122085 0.426078 0.256209
499 2 0.119867 0.445948 0.293119
500 4 0.129378 0.433767 0.273463
501 4 0.110356 0.458128 0.312776
776 4 0.0941451 0.467185 0.321261
542 4 0.461006 0.484045 0.275438
541 2 0.462449 0.490004 0.299678
543 4 0.463892 0.495963 0.323919
447 4 0.480422 0.484265 0.327189
316 2 0.00989346 0.0821901 0.355003
318 4 0.0337307 0.0784134 0.348468
546 4 0.136121 0.0248239 0.336552
691 2 0.1634 0.0072255 0.339183
693 4 0.141285 0.0113328 0.350103
731 4 0.126823 0.0251913 0.355218
730 2 0.116997 0.0366604 0.375146
732 4 0.107172 0.0481295 0.395073
439 2 0.214046 0.0321926 0.358155
440 4 0.208195 0.0283613 0.334149
441 4 0.219897 0.0360239 0.38216
1669 2 0.334411 0.0129666 0.383205
698 4 0.32554 0.0801692 0.409904
697 2 0.338102 0.0663793 0.393254
699 4 0.350664 0.0525893 0.376605
1671 4 0.349342 0.03159 0.375761
1517 4 0.383689 0.00969325 0.332465
1518 4 0.360797 0.0427442 0.362203
1516 2 0.372243 0.0262187 0.347334
276 4 0.171895 0.111133 0.35641
399 4 0.168485 0.127472 0.344376
604 2 0.169307 0.0824437 0.336941
606 4 0.169295 0.107435 0.337713
274 2 0.181758 0.115136 0.379035
373 2 0.208201 0.158857 0.408079
375 4 0.198527 0.135821 0.407098
275 4 0.19162 0.119139 0.40166
724 2 0.31777 0.148703 0.352302
725 4 0.320717 0.164884 0.371135
430 2 0.332798 0.141415 0.406593
431 4 0.324137 0.151733 0.38553
3081 4 0.498524 0.0949016 0.387221
256 2 0.436433 0.124933 0.401179
257 4 0.444387 0.139967 0.382852
516 4 0.444788 0.151799 0.367427
1581 4 0.459316 0.134245 0.36828
1579 2 0.482707 0.143079 0.368342
374 4 0.217876 0.181892 0.409061
508 2 0.246646 0.203821 0.413043
489 4 0.306023 0.203259 0.368746
487 2 0.29177 0.217364 0.383682
488 4 0.277517 0.231468 0.398618
717 4 0.284677 0.250175 0.403056
509 4 0.260798 0.221836 0.403024
268 2 0.499138 0.250249 0.407987
514 2 0.434212 0.172913 0.359208
515 4 0.423637 0.194027 0.35099
305 4 0.436242 0.244302 0.337681
267 4 0.433678 0.187118 0.402671
616 2 0.0604708 0.298231 0.414637
618 4 0.0715993 0.310074 0.395635
2550 4 0.00970675 0.322446 0.407022
407 4 0.0849162 0.32249 0.388918
443 4 0.0967643 0.283462 0.348809
408 4 0.101875 0.302592 0.346289
406 2 0.0933957 0.312541 0.367604
400 2 0.243102 0.305916 0.372292
1260 4 0.236974 0.289794 0.400188
401 4 0.249862 0.286495 0.386516
594 4 0.279085 0.313659 0.399172
593 4 0.314759 0.328719 0.367529
592 2 0.296922 0.321189 0.38335
378 4 0.331635 0.319591 0.359882
376 2 0.352443 0.321125 0.346104
269 4 0.492236 0.272981 0.415783
549 4 0.0306175 0.344213 0.342321
681 4 0.0107714 0.346895 0.345264
402 4 0.236342 0.325337 0.358069
677 4 0.17477 0.350002 0.376262
676 2 0.198349 0.345163 0.369494
343 2 0.242446 0.364985 0.343479
345 4 0.238744 0.34529 0.358431
678 4 0.221928 0.340324 0.362726
1716 4 0.501492 0.402429 0.381637
588 4 0.497715 0.407089 0.362496
586 2 0.481182 0.389283 0.356599
587 4 0.464648 0.371477 0.350702
435 4 0.44561 0.369884 0.345062
504 4 0.151665 0.4754 0.410176
412 2 0.177366 0.431253 0.33613
1435 2 0.212026 0.477385 0.351746
1436 4 0.187991 0.471399 0.355158
413 4 0.184316 0.45238 0.347556
1437 4 0.236062 0.483372 0.348333
669 4 0.285703 0.503319 0.342837
1557 4 0.260405 0.447307 0.361946
1555 2 0.275289 0.466743 0.356859
1556 4 0.290172 0.48618 0.351771
336 4 0.362257 0.479387 0.385735
445 2 0.487766 0.496729 0.347583
1741 2 0.49908 0.465809 0.390256
1742 4 0.481372 0.454627 0.403914
120 3 0.465321 0.443515 0.411954
1602 4 0.050212 0.00857316 0.436935
962 4 0.244768 0.0593235 0.47272
1818 4 0.250334 0.00727944 0.494073
1817 4 0.262788 0.0523649 0.476384
1816 2 0.256561 0.0298222 0.485229
1059 4 0.00429794 0.0804227 0.442268
1057 2 0.028423 0.0860705 0.445624
1058 4 0.052548 0.0917183 0.44898
260 4 0.136471 0.156531 0.480957
687 4 0.186898 0.109629 0.441038
685 2 0.198891 0.128561 0.452125
686 4 0.210883 0.147492 0.463213
961 2 0.246933 0.0841172 0.470318
963 4 0.249097 0.108911 0.467916
425 4 0.334865 0.134599 0.446835
432 4 0.34146 0.131096 0.427657
424 2 0.35032 0.11932 0.4592
426 4 0.365775 0.104042 0.471565
258 4 0.428479 0.109898 0.419505
510 4 0.232495 0.185806 0.423063
649 2 0.302061 0.205886 0.486132
650 4 0.278582 0.213079 0.481425
711 4 0.267729 0.228485 0.478227
709 2 0.255927 0.239722 0.459264
320 4 0.337196 0.183182 0.494431
651 4 0.325541 0.198692 0.490838
411 4 0.343739 0.204472 0.487085
409 2 0.367185 0.205925 0.49565
410 4 0.390631 0.207379 0.504215
576 4 0.407224 0.205263 0.493299
265 2 0.437072 0.205875 0.418852
574 2 0.418124 0.209081 0.471123
575 4 0.429024 0.212899 0.448947
266 4 0.440467 0.224632 0.435033
617 4 0.0493423 0.286388 0.433639
1135 2 0.150077 0.290664 0.478028
1136 4 0.154298 0.283644 0.454405
710 4 0.244124 0.250959 0.4403
1258 2 0.237908 0.279521 0.422965
1259 4 0.238843 0.269248 0.445741
715 2 0.292446 0.259997 0.424697
716 4 0.300216 0.26982 0.446338
2813 4 0.0682194 0.352341 0.443414
2812 2 0.0796341 0.350676 0.465597
2814 4 0.0910487 0.349012 0.487781
384 4 0.0899238 0.416691 0.488998
1189 2 0.215772 0.385906 0.484383
1190 4 0.208822 0.407218 0.473308
1159 2 0.172787 0.418135 0.480184
1161 4 0.19166 0.414265 0.464246
240 4 0.329464 0.40429 0.497397
119 3 0.456549 0.409438 0.42535
3989 4 0.444827 0.399165 0.437487
3988 2 0.439442 0.375011 0.433912
3990 4 0.434057 0.350857 0.430337
383 4 0.0706784 0.44208 0.450454
382 2 0.0803011 0.429386 0.469726
503 4 0.151179 0.427218 0.423556
502 2 0.151422 0.451309 0.416866
772 2 0.153095 0.494674 0.480161
773 4 0.145021 0.492366 0.456609
1160 4 0.153915 0.422006 0.496123
1171 2 0.213745 0.448512 0.464157
1173 4 0.210425 0.423817 0.462085
1172 4 0.217066 0.473208 0.466228
663 4 0.375613 0.467204 0.48613
116 1 0.461797 0.431353 0.430883
1267 2 0.467862 0.460409 0.477476
3603 4 0.493954 0.416602 0.445151
117 3 0.444225 0.440479 0.442591
1268 4 0.473531 0.444853 0.45874
118 3 0.480763 0.431825 0.444242
1269 4 0.462193 0.475966 0.496213
2319 4 0.0528312 0.0232965 0.558523
825 4 0.0475744 0.07447 0.576668
823 2 0.0570319 0.0802147 0.554246
2317 2 0.0523197 0.0288903 0.582888
2114 4 0.00776655 0.997649 0.571173
1182 4 0.233514 0.0560952 0.577764
1180 2 0.245029 0.0485619 0.556887
1181 4 0.256545 0.0410286 0.536011
841 2 0.317399 0.0452847 0.576563
842 4 0.33723 0.0451627 0.561335
2333 4 0.336374 0.0543184 0.544291
2332 2 0.334919 0.0405439 0.523474
1217 4 0.338868 0.0699823 0.553803
1005 4 0.353429 0.0571268 0.548758
1003 2 0.37336 0.0476849 0.560539
1004 4 0.393292 0.0382429 0.572319
2334 4 0.333465 0.0267693 0.502658
4467 4 0.479998 0.0449771 0.550757
3007 2 0.475875 0.0192377 0.523556
3009 4 0.48484 0.000297305 0.509915
3008 4 0.466909 0.0381781 0.537196
4465 2 0.499107 0.0497791 0.566151
824 4 0.0664893 0.0859594 0.531824
879 4 0.0697315 0.155872 0.555314
877 2 0.0462905 0.16177 0.548919
1272 4 0.0836387 0.148376 0.566573
2429 4 0.0797602 0.090514 0.518263
470 4 0.0033054 0.163523 0.542411
2428 2 0.103331 0.0863477 0.511034
259 2 0.131273 0.157466 0.505396
2430 4 0.126901 0.0821814 0.503806
261 4 0.126074 0.158401 0.529835
1151 4 0.246159 0.139096 0.559291
945 4 0.21221 0.130782 0.56604
1219 2 0.208603 0.159372 0.553784
1220 4 0.225941 0.141494 0.556011
943 2 0.203731 0.109262 0.575538
1150 2 0.253722 0.115664 0.554937
1152 4 0.261284 0.092233 0.550584
321 4 0.323946 0.140863 0.517546
319 2 0.330571 0.162022 0.505988
900 4 0.341887 0.122918 0.546862
1218 4 0.337375 0.114009 0.530136
1216 2 0.338121 0.0919956 0.541969
898 2 0.349037 0.141457 0.56204
899 4 0.356186 0.159996 0.577217
3053 4 0.453637 0.103552 0.532758
3052 2 0.460553 0.1092 0.556113
3054 4 0.467468 0.114849 0.579467
878 4 0.0228494 0.167668 0.542523
908 4 0.0827951 0.209083 0.576454
1033 2 0.130449 0.192701 0.551223
1034 4 0.132283 0.217448 0.554293
1035 4 0.128615 0.167955 0.548153
1221 4 0.191264 0.177249 0.551557
790 2 0.268904 0.239891 0.551459
791 4 0.258046 0.217697 0.555296
2846 4 0.0426844 0.307011 0.55126
2845 2 0.0231769 0.30698 0.566901
2847 4 0.0036695 0.30695 0.582542
1041 4 0.140032 0.317494 0.501883
1137 4 0.145856 0.297684 0.501652
1039 2 0.117185 0.327598 0.502928
792 4 0.279761 0.262085 0.547621
804 4 0.296928 0.266362 0.5549
812 4 0.286954 0.283251 0.55475
811 2 0.266241 0.292537 0.544267
813 4 0.245528 0.301823 0.533783
802 2 0.318373 0.260716 0.566451
803 4 0.339817 0.255069 0.578001
1040 4 0.094338 0.337703 0.503972
896 4 0.118551 0.411799 0.547891
895 2 0.127616 0.412352 0.524595
1191 4 0.222721 0.364593 0.495458
239 4 0.292753 0.391793 0.528969
238 2 0.311108 0.398041 0.513183
1008 4 0.402173 0.385521 0.581438
1936 2 0.00315094 0.477286 0.560162
1937 4 0.00476545 0.495405 0.543008
897 4 0.136681 0.412904 0.501299
538 2 0.162871 0.467721 0.538045
540 4 0.162706 0.481582 0.517236
539 4 0.163036 0.45386 0.558854
1187 4 0.235631 0.487516 0.530359
1394 4 0.172105 0.499589 0.521884
1186 2 0.257477 0.481638 0.519711
1188 4 0.279322 0.475761 0.509062
1000 2 0.375978 0.450757 0.561659
1001 4 0.377272 0.427674 0.571183
1002 4 0.374683 0.473839 0.552135
662 4 0.365035 0.47575 0.534253
661 2 0.370324 0.471477 0.510191
1910 4 0.377306 0.497942 0.546283
4149 4 0.44037 0.482998 0.553704
4084 2 0.471788 0.486114 0.529816
4086 4 0.471182 0.482305 0.55452
4147 2 0.440323 0.47629 0.577791
4085 4 0.472394 0.489922 0.505112
2318 4 0.0518082 0.0344841 0.607252
1031 4 0.22076 0.0458251 0.58816
1030 2 0.20091 0.0446279 0.603316
1032 4 0.181059 0.0434307 0.618471
100 3 0.245244 0.0111838 0.650611
950 4 0.254878 0.0260554 0.641484
949 2 0.271248 0.0304935 0.623112
951 4 0.287617 0.0349315 0.604741
843 4 0.297568 0.0454066 0.591791
1198 2 0.0462884 0.127914 0.650316
1200 4 0.0643426 0.144504 0.645416
851 4 0.018995 0.160493 0.631655
3266 4 0.0123949 0.123994 0.65978
1199 4 0.0282342 0.111325 0.655216
1270 2 0.0982878 0.154061 0.586022
1271 4 0.112937 0.159747 0.605471
1154 4 0.132144 0.160673 0.605842
1153 2 0.150002 0.158762 0.623239
944 4 0.195253 0.0877429 0.585036
1283 4 0.20064 0.0997199 0.635122
1282 2 0.193059 0.123531 0.63599
1284 4 0.185478 0.147341 0.636858
1155 4 0.16786 0.156852 0.640635
1211 4 0.184421 0.167835 0.638687
327 4 0.234929 0.167822 0.620836
887 4 0.264248 0.127081 0.625547
886 2 0.27452 0.111568 0.642251
1193 4 0.345968 0.171369 0.642589
3401 4 0.472564 0.123292 0.633485
3400 2 0.465482 0.112096 0.612279
3402 4 0.4584 0.100901 0.591073
1164 4 0.470853 0.120548 0.652323
850 2 0.0122998 0.184583 0.631848
1207 2 0.024432 0.239731 0.641625
1209 4 0.0427037 0.251873 0.653621
907 2 0.0835044 0.213479 0.601057
909 4 0.0842137 0.217875 0.625661
1210 2 0.196164 0.187415 0.64888
695 4 0.192021 0.232947 0.602885
694 2 0.194021 0.244318 0.625063
1212 4 0.207906 0.206996 0.659073
325 2 0.256255 0.180609 0.618218
326 4 0.277582 0.193396 0.6156
1192 2 0.346127 0.169319 0.617671
1194 4 0.346286 0.167269 0.592752
1024 2 0.396574 0.22876 0.633242
1025 4 0.377875 0.239993 0.645463
1026 4 0.415272 0.217527 0.621021
954 4 0.43389 0.223903 0.627447
952 2 0.447279 0.229062 0.60697
953 4 0.460667 0.234221 0.586493
984 4 0.0113006 0.32067 0.595657
982 2 0.0196667 0.327917 0.618077
857 4 0.123945 0.334074 0.610871
696 4 0.196021 0.255688 0.647242
797 4 0.18017 0.32395 0.641255
796 2 0.176742 0.306651 0.658979
1262 4 0.505814 0.308847 0.655893
983 4 0.0280327 0.335165 0.640497
3275 4 0.0450077 0.34348 0.646911
3274 2 0.0483285 0.363635 0.661329
856 2 0.147328 0.334888 0.619688
858 4 0.170711 0.335703 0.628506
1006 2 0.395044 0.379123 0.604534
1007 4 0.387915 0.372725 0.62763
3329 4 0.463467 0.364406 0.639431
3328 2 0.469422 0.378176 0.659433
2172 4 0.0781667 0.493892 0.638825
2014 2 0.116988 0.492035 0.662405
1067 4 0.214922 0.459012 0.597693
1066 2 0.236835 0.469006 0.604407
1068 4 0.258749 0.479001 0.611122
1176 4 0.304488 0.444573 0.5868
1174 2 0.291825 0.462191 0.599227
1028 4 0.268544 0.472865 0.627385
1175 4 0.279161 0.479809 0.611654
1027 2 0.266239 0.460332 0.648898
1029 4 0.263934 0.447799 0.67041
4148 4 0.440276 0.469582 0.601878
2167 2 0.475322 0.478544 0.620128
2169 4 0.458706 0.478615 0.601444
2168 4 0.491938 0.478474 0.638812
1185 4 0.0644517 0.0100725 0.671416
98 3 0.21848 0.0313445 0.667784
96 1 0.241146 0.0264366 0.667019
2202 4 0.251437 0.0461904 0.691435
99 3 0.253312 0.0457924 0.663053
2262 4 0.248733 0.00853516 0.704808
2200 2 0.244345 0.0479012 0.71535
97 3 0.247542 0.017656 0.687295
1239 4 0.267358 0.0457813 0.676335
1237 2 0.27499 0.0695781 0.677134
1112 4 0.346001 0.999014 0.724387
2398 2 0.335681 0.0777965 0.735599
1111 2 0.349593 0.0206673 0.736362
2399 4 0.353323 0.0621364 0.743887
1113 4 0.353185 0.0423208 0.748337
2322 4 0.369261 0.0552059 0.748429
2342 4 0.432719 0.0137253 0.733171
2341 2 0.431497 0.0235859 0.710227
2343 4 0.430275 0.0334466 0.687282
862 2 0.00967933 0.131836 0.75537
2991 4 0.999144 0.122368 0.716257
1073 4 0.0936102 0.126918 0.680966
1225 2 0.156982 0.114012 0.749459
1227 4 0.134402 0.114754 0.738748
1072 2 0.0990987 0.150498 0.687214
45 3 0.242 0.16113 0.74408
916 2 0.225594 0.150167 0.715147
917 4 0.218446 0.155361 0.691757
918 4 0.232742 0.144972 0.738537
888 4 0.284793 0.0960551 0.658954
2400 4 0.318039 0.0934566 0.727311
806 4 0.301563 0.0963539 0.668968
1238 4 0.282622 0.0933749 0.677934
805 2 0.308693 0.113819 0.685379
807 4 0.315822 0.131284 0.70179
830 4 0.399205 0.161666 0.670749
1162 2 0.479506 0.111947 0.674148
1163 4 0.488159 0.103347 0.695973
60 3 0.0580623 0.211619 0.74603
989 4 0.0816449 0.236437 0.733982
894 4 0.069415 0.221118 0.731437
892 2 0.0830901 0.204284 0.718996
1076 4 0.00880063 0.178822 0.687996
946 2 0.127775 0.200109 0.687603
1074 4 0.104587 0.174078 0.693462
893 4 0.0967652 0.18745 0.706554
947 4 0.103753 0.193232 0.68853
948 4 0.151796 0.206986 0.686676
9 3 0.159891 0.202277 0.704065
10 3 0.154961 0.206807 0.741117
8 3 0.174059 0.232812 0.721709
1064 4 0.17291 0.251615 0.713095
6 1 0.169293 0.210194 0.723746
7 3 0.188872 0.1988 0.727744
991 2 0.21048 0.245055 0.713083
992 4 0.186893 0.239249 0.707157
993 4 0.234067 0.250861 0.719009
810 4 0.316994 0.20373 0.731907
829 2 0.387266 0.174645 0.688475
808 2 0.339061 0.202561 0.720209
831 4 0.375326 0.187623 0.706201
846 4 0.381126 0.196 0.723269
809 4 0.361128 0.201392 0.708511
3204 4 0.378965 0.208248 0.707433
3202 2 0.389334 0.230183 0.70139
1065 4 0.154283 0.28977 0.686677
1063 2 0.163596 0.270692 0.699886
798 4 0.173314 0.289351 0.676703
3203 4 0.399703 0.252117 0.695347
3485 4 0.386834 0.274524 0.722284
3484 2 0.378972 0.268371 0.745208
3121 2 0.496957 0.329644 0.693756
3123 4 0.500277 0.311961 0.676393
3276 4 0.0516493 0.383791 0.675748
815 4 0.109639 0.373364 0.691223
814 2 0.0993266 0.368271 0.713424
942 4 0.148628 0.374724 0.722485
816 4 0.0890145 0.363178 0.735626
940 2 0.154309 0.399073 0.722454
1228 2 0.330005 0.414904 0.739449
3330 4 0.475377 0.391947 0.679435
861 4 0.488 0.395977 0.693882
859 2 0.492225 0.403452 0.717365
860 4 0.49645 0.410928 0.740848
1100 4 0.506307 0.344251 0.727052
3122 4 0.493638 0.347327 0.711119
3431 4 0.00230287 0.456381 0.674944
3430 2 0.00264378 0.47716 0.688847
1280 4 0.043426 0.462821 0.699262
1279 2 0.0582251 0.446706 0.711364
1281 4 0.0730243 0.43059 0.723465
885 4 0.0906345 0.427286 0.73211
2015 4 0.138242 0.489098 0.675243
1079 4 0.150921 0.473697 0.674602
1078 2 0.154103 0.454124 0.689832
941 4 0.159991 0.423423 0.722422
1080 4 0.157285 0.434551 0.705062
2012 4 0.224534 0.438503 0.707822
2011 2 0.199909 0.435057 0.710451
2013 4 0.175284 0.431611 0.71308
928 2 0.311605 0.467816 0.724854
929 4 0.319715 0.44558 0.716795
930 4 0.303495 0.490052 0.732913
1229 4 0.332988 0.4323 0.721738
998 4 0.349447 0.427429 0.712247
997 2 0.368915 0.442637 0.708384
999 4 0.388382 0.457844 0.704522
1205 4 0.407155 0.463289 0.707748
1019 4 0.393694 0.465667 0.722295
1206 4 0.453333 0.477352 0.694687
1249 2 0.48682 0.471449 0.675893
1251 4 0.473378 0.473023 0.696917
1204 2 0.430244 0.47032 0.701217
1202 4 0.0264424 0.072839 0.804704
3315 4 0.992772 0.036765 0.809617
2201 4 0.237252 0.0496119 0.739266
1149 4 0.229932 0.0659826 0.765253
2320 2 0.391984 0.0525208 0.75851
2321 4 0.414708 0.0498357 0.76859
1926 4 0.430663 0.0178554 0.752049
2441 4 0.447042 0.0281969 0.746145
2442 4 0.488455 0.0377055 0.772512
2440 2 0.467748 0.0329512 0.759329
1201 2 0.0235069 0.0933275 0.790676
1203 4 0.0205714 0.113816 0.776648
863 4 0.0239668 0.134203 0.775753
1131 4 0.112158 0.151312 0.823252
1129 2 0.132419 0.165381 0.819157
1226 4 0.179563 0.113269 0.760171
1148 4 0.193909 0.100658 0.766069
1147 2 0.21192 0.0833203 0.765661
44 3 0.236608 0.159434 0.781305
977 4 0.223898 0.172889 0.772447
1257 4 0.316167 0.0881606 0.783469
41 1 0.252309 0.158674 0.764237
1255 2 0.328249 0.105191 0.797222
43 3 0.263736 0.138489 0.764878
1256 4 0.340331 0.122222 0.810976
1086 4 0.345242 0.137203 0.819613
1084 2 0.364107 0.151316 0.811239
1085 4 0.382971 0.165429 0.802864
819 4 0.392577 0.149032 0.798357
817 2 0.412267 0.137852 0.787752
959 4 0.337817 0.11999 0.830844
818 4 0.431958 0.126673 0.777147
57 3 0.0320392 0.190299 0.76219
1106 4 0.0174727 0.196687 0.775427
58 3 0.0330646 0.227149 0.769516
56 1 0.0459629 0.208384 0.765051
59 3 0.0602071 0.20414 0.782869
1104 4 0.0458272 0.245538 0.771274
1130 4 0.152679 0.17945 0.815063
1277 4 0.176219 0.210431 0.765709
1276 2 0.183126 0.233387 0.772814
978 4 0.181181 0.193555 0.756669
976 2 0.202539 0.183222 0.764558
42 3 0.267346 0.175829 0.767197
1298 4 0.329086 0.190346 0.813773
1143 4 0.311519 0.181128 0.814232
1142 4 0.279707 0.188613 0.776381
1141 2 0.295613 0.184871 0.795306
844 2 0.39703 0.18851 0.74105
845 4 0.412933 0.181019 0.75883
48 3 0.410861 0.191565 0.826258
1043 4 0.421497 0.228928 0.787311
49 3 0.42654 0.219285 0.805516