ITEM: TIMESTEP
2810000
ITEM: NUMBER OF ATOMS
4590
ITEM: BOX BOUNDS pp pp pp
-9.9985700000000008e+00 9.9985700000000008e+00
-9.9985700000000008e+00 9.9985700000000008e+00
-9.9985700000000008e+00 9.9985700000000008e+00
ITEM: ATOMS id type xs ys zs
1247 4 0.0645024 0.0650405 0.0336305
379 2 0.0637476 0.0579852 0.0705429
380 4 0.0720497 0.0535167 0.047385
1246 2 0.0510814 0.065413 0.0125374
490 2 0.289667 0.0271261 0.0541302
492 4 0.300796 0.0444414 0.0399356
486 4 0.299753 0.0338758 0.0226837
491 4 0.278537 0.00981068 0.0683247
484 2 0.314864 0.0260282 0.00437311
2722 2 0.408545 0.0324817 0.0249803
2724 4 0.387056 0.0446085 0.0290238
2723 4 0.430034 0.0203549 0.0209367
2469 4 0.449129 0.0207839 0.0153888
1760 4 0.460883 0.0133892 0.0316502
1759 2 0.453091 0.0203689 0.0543603
1761 4 0.445299 0.0273486 0.0770704
358 2 0.245024 0.1471 0.0284587
665 4 0.307102 0.0858975 0.0540781
359 4 0.256221 0.126494 0.0371298
664 2 0.325032 0.10324 0.0523685
666 4 0.342961 0.120583 0.0506589
866 4 0.349617 0.12617 0.032333
865 2 0.374007 0.125613 0.026858
867 4 0.398398 0.125055 0.0213829
507 4 0.147139 0.233151 0.0209791
554 4 0.154661 0.217356 0.0141647
505 2 0.141356 0.248385 0.0399436
553 2 0.167892 0.196682 0.0189313
1133 4 0.160096 0.23554 0.00562788
360 4 0.233826 0.167706 0.0197876
555 4 0.181124 0.176009 0.0236978
311 4 0.271367 0.200199 0.051938
310 2 0.289906 0.196776 0.0683623
352 2 0.251251 0.241823 0.0657869
770 4 0.432722 0.211215 0.0592611
769 2 0.437937 0.193267 0.0758705
2624 4 0.0692813 0.259216 0.0231632
657 4 0.999163 0.335742 0.066657
2623 2 0.0802372 0.258924 0.000689613
338 4 0.125613 0.29821 0.069049
356 4 0.133307 0.315948 0.0633772
506 4 0.135573 0.263619 0.0589081
38 3 0.212261 0.31228 0.0376623
36 1 0.232134 0.321895 0.0448045
37 3 0.232964 0.321062 0.0677777
353 4 0.256436 0.257902 0.0473542
755 4 0.267348 0.274721 0.0569422
754 2 0.279212 0.295617 0.0638549
756 4 0.291076 0.316513 0.0707676
740 4 0.310996 0.322168 0.0721448
40 3 0.24984 0.310416 0.0362376
624 4 0.404251 0.302606 0.0805929
2840 4 0.434317 0.319708 0.0487609
655 2 0.0168928 0.342522 0.0503829
836 4 0.049286 0.352552 0.0205097
835 2 0.0673787 0.336327 0.0263918
2807 4 0.0372662 0.367528 0.0254545
656 4 0.0346231 0.349303 0.0341089
2806 2 0.0233503 0.388231 0.0271707
286 2 0.0843407 0.394593 0.0386825
837 4 0.0854714 0.320103 0.0322738
357 4 0.145726 0.362503 0.0499927
287 4 0.0978804 0.377899 0.0259091
355 2 0.139517 0.339225 0.0566849
39 3 0.233072 0.344079 0.0380649
1710 4 0.240535 0.339751 0.0741363
1708 2 0.243408 0.36439 0.0710008
1709 4 0.246281 0.389029 0.0678652
251 4 0.311245 0.409495 0.0365538
250 2 0.321791 0.405059 0.0143213
739 2 0.327037 0.341337 0.0727965
741 4 0.343077 0.360506 0.0734482
387 4 0.398587 0.383491 0.0580529
386 4 0.350196 0.379954 0.0701599
385 2 0.374392 0.381722 0.0641064
13 3 0.412285 0.396858 0.0562889
2839 2 0.452792 0.335107 0.0419285
2841 4 0.471268 0.350507 0.035096
288 4 0.0708009 0.411287 0.0514558
314 4 0.0601529 0.413734 0.0679567
914 4 0.0604196 0.428298 0.0529584
913 2 0.0585593 0.44707 0.0365469
915 4 0.056699 0.465842 0.0201355
292 2 0.111622 0.491858 0.0638762
552 4 0.138247 0.47272 0.0566693
294 4 0.11973 0.468854 0.0693746
1439 4 0.132973 0.455518 0.0640438
1438 2 0.124654 0.440552 0.0822643
550 2 0.160992 0.466195 0.0485897
551 4 0.183737 0.45967 0.0405101
15 3 0.408978 0.425824 0.0324628
11 1 0.418061 0.418953 0.0521846
4304 4 0.404378 0.498439 0.070866
14 3 0.41054 0.432453 0.0694935
609 4 0.361553 0.443239 0.0892356
12 3 0.440975 0.420541 0.0509342
672 4 0.460634 0.449113 0.0787107
4303 2 0.411686 0.502748 0.0473456
4305 4 0.418993 0.507058 0.0238253
381 4 0.0554455 0.0624536 0.0937007
2481 4 0.0399425 0.0509008 0.0929845
2479 2 0.0351217 0.0343598 0.111105
2480 4 0.0303009 0.0178189 0.129225
529 2 0.0151161 0.0727909 0.143067
3783 4 0.0327554 0.0239598 0.149958
531 4 0.0274439 0.094127 0.138827
3781 2 0.0263795 0.0022138 0.160524
579 4 0.149717 0.0171575 0.11569
577 2 0.171371 0.0229714 0.126758
578 4 0.193025 0.0287853 0.137825
423 4 0.199678 0.0496708 0.133088
652 2 0.230651 0.0224737 0.144809
654 4 0.210301 0.033607 0.135477
581 4 0.197671 0.0426552 0.149941
421 2 0.208694 0.06591 0.116349
653 4 0.251002 0.0113404 0.154141
422 4 0.21771 0.0821492 0.0996106
580 2 0.187013 0.0594509 0.16509
24 3 0.37737 0.0422193 0.135527
21 1 0.370412 0.0639358 0.131241
25 3 0.355278 0.070489 0.146946
23 3 0.360929 0.0651882 0.1101
759 4 0.362091 0.0673682 0.165259
2894 4 0.40638 0.0156651 0.142005
297 4 0.407708 0.0864983 0.12669
2591 4 0.423028 0.0130408 0.128189
2592 4 0.425823 0.0355613 0.0836275
2590 2 0.424426 0.0243011 0.105908
2466 4 0.422255 0.00497901 0.146939
236 4 0.12526 0.158771 0.130523
534 4 0.232765 0.0915729 0.0913521
532 2 0.247043 0.110921 0.0982051
533 4 0.261321 0.13027 0.105058
22 3 0.38868 0.077892 0.132035
296 4 0.443662 0.115421 0.145965
295 2 0.425685 0.10096 0.136327
558 4 0.455747 0.131292 0.144938
556 2 0.452323 0.148465 0.12709
629 4 0.458957 0.113173 0.158085
235 2 0.114858 0.181221 0.126926
237 4 0.104455 0.203672 0.123328
477 4 0.119213 0.216305 0.117715
475 2 0.122564 0.241083 0.117766
283 2 0.240139 0.199127 0.120033
284 4 0.236454 0.184923 0.140278
285 4 0.243824 0.213331 0.0997887
354 4 0.246066 0.225744 0.0842197
764 4 0.244162 0.233934 0.103615
312 4 0.308446 0.193354 0.0847866
557 4 0.448899 0.165637 0.109242
771 4 0.443153 0.17532 0.09248
2519 4 0.492177 0.219264 0.104685
396 4 0.000483016 0.268362 0.100711
363 4 0.0552579 0.288363 0.153428
648 4 0.0743663 0.291428 0.147809
646 2 0.0956378 0.288086 0.1351
476 4 0.125916 0.265861 0.117817
337 2 0.130114 0.290397 0.0923702
738 4 0.131771 0.276698 0.13553
647 4 0.116909 0.284745 0.12239
339 4 0.134616 0.282584 0.115691
736 2 0.152711 0.281438 0.148347
455 4 0.0993453 0.324033 0.150334
737 4 0.17365 0.286178 0.161163
372 4 0.190806 0.294377 0.153266
763 2 0.250179 0.252999 0.118632
765 4 0.256197 0.272064 0.133648
612 4 0.266697 0.289022 0.140918
610 2 0.277209 0.309309 0.151072
622 2 0.405285 0.324617 0.09241
518 4 0.487063 0.279429 0.136274
1304 4 0.498244 0.276993 0.0918348
705 4 0.0353783 0.350059 0.0869387
703 2 0.05193 0.359589 0.103075
1758 4 0.0335696 0.388025 0.153487
1756 2 0.0292894 0.406868 0.13762
704 4 0.0684817 0.36912 0.119212
417 4 0.0805393 0.386734 0.122435
456 4 0.0859784 0.368832 0.132585
454 2 0.0926618 0.346433 0.141459
415 2 0.101885 0.399071 0.118272
416 4 0.12323 0.411409 0.114108
1512 4 0.240492 0.324368 0.0874072
1510 2 0.24846 0.330245 0.110367
1511 4 0.256427 0.336123 0.133327
303 4 0.327001 0.38744 0.163983
729 4 0.3868 0.395667 0.126753
728 4 0.391256 0.346868 0.116776
727 2 0.389028 0.371267 0.121764
608 4 0.391752 0.410833 0.112444
623 4 0.406319 0.346627 0.104227
494 4 0.405282 0.404125 0.127607
498 4 0.417165 0.364089 0.100596
493 2 0.421639 0.414228 0.143593
101 1 0.488395 0.3782 0.120322
103 3 0.468529 0.384869 0.110359
496 2 0.4395 0.374436 0.0962046
497 4 0.461835 0.384782 0.0918134
105 3 0.48426 0.369963 0.141148
104 3 0.498736 0.362007 0.107313
313 2 0.0482198 0.423371 0.0877027
315 4 0.0362867 0.433008 0.107449
1757 4 0.0250091 0.425712 0.121752
1440 4 0.116334 0.425586 0.100485
246 4 0.273984 0.444635 0.0901639
244 2 0.275031 0.449495 0.114668
245 4 0.276079 0.454355 0.139172
1629 4 0.290433 0.458043 0.152938
1627 2 0.303702 0.479107 0.150608
1575 4 0.280041 0.441919 0.156885
607 2 0.376652 0.427036 0.10084
670 2 0.484765 0.45175 0.0847048
495 4 0.437996 0.424332 0.159579
955 2 0.472518 0.44499 0.151783
957 4 0.449192 0.449486 0.159582
956 4 0.495845 0.440493 0.143984
512 4 0.0659857 0.0738508 0.210888
690 4 0.197125 0.00741734 0.22213
675 4 0.212875 0.0183619 0.212773
673 2 0.218392 0.0415286 0.220392
567 4 0.187177 0.0837406 0.196392
674 4 0.223908 0.0646954 0.228011
582 4 0.176354 0.0762465 0.180238
688 2 0.187706 0.998626 0.200702
467 4 0.229073 0.0835377 0.235784
757 2 0.35432 0.0661937 0.188996
758 4 0.34655 0.0650193 0.212732
2895 4 0.381947 0.0284087 0.183734
2893 2 0.394164 0.0220369 0.162869
511 2 0.0875925 0.086384 0.209774
513 4 0.109199 0.0989172 0.20866
565 2 0.184717 0.101391 0.21393
566 4 0.182257 0.119041 0.231468
598 2 0.20775 0.150849 0.218217
600 4 0.198208 0.128315 0.223348
628 2 0.453773 0.123 0.180485
630 4 0.448588 0.132826 0.202884
393 4 0.11043 0.208599 0.237497
599 4 0.217292 0.173384 0.213086
361 2 0.0558672 0.303777 0.173105
750 4 0.0740911 0.319228 0.20282
362 4 0.0564765 0.319191 0.192783
371 4 0.204965 0.314418 0.196839
370 2 0.197886 0.304398 0.175052
611 4 0.28772 0.329597 0.161227
309 4 0.366156 0.313387 0.191128
748 2 0.0942273 0.333796 0.205557
749 4 0.114363 0.348364 0.208293
301 2 0.314706 0.365673 0.163521
302 4 0.302412 0.343906 0.163058
308 4 0.365005 0.362853 0.183881
307 2 0.36558 0.33812 0.187504
644 4 0.416174 0.36603 0.224031
645 4 0.430087 0.352889 0.177831
643 2 0.42313 0.359459 0.200931
109 3 0.470867 0.414544 0.23491
1320 4 0.043889 0.455341 0.236853
3717 4 0.0698612 0.475845 0.182176
3715 2 0.0476885 0.487369 0.18131
3716 4 0.0255158 0.498893 0.180445
639 4 0.220372 0.451924 0.240335
1574 4 0.288494 0.428789 0.204391
1573 2 0.284268 0.435354 0.180638
525 4 0.336501 0.474877 0.187479
523 2 0.340236 0.461133 0.20803
524 4 0.343971 0.447388 0.22858
659 4 0.447487 0.454342 0.178935
658 2 0.452634 0.458655 0.20302
660 4 0.457781 0.462968 0.227105
1583 4 0.481465 0.490586 0.236887
106 1 0.467209 0.429975 0.251849
108 3 0.459604 0.449964 0.242849
233 4 0.10449 0.0166799 0.285564
605 4 0.109605 0.0367153 0.321488
604 2 0.126243 0.0546419 0.326683
606 4 0.142882 0.0725684 0.331878
399 4 0.16083 0.0805385 0.329693
232 2 0.0854678 0.00259599 0.293625
429 4 0.222098 0.0667489 0.247881
427 2 0.219088 0.056415 0.27045
428 4 0.216079 0.0460811 0.293018
440 4 0.210997 0.0465308 0.313264
1517 4 0.379523 0.0180787 0.294502
1516 2 0.378043 0.0342585 0.313508
1496 4 0.379817 0.00166179 0.305696
478 2 0.491153 0.0776479 0.279078
479 4 0.483714 0.0563172 0.289795
2739 4 0.00981656 0.0961062 0.288283
2737 2 0.996647 0.088837 0.308256
466 2 0.225002 0.10433 0.249061
468 4 0.220932 0.125122 0.262339
683 4 0.231198 0.11649 0.277019
682 2 0.227544 0.132272 0.296066
684 4 0.22389 0.148053 0.315113
726 4 0.229264 0.157253 0.331206
480 4 0.498593 0.0989786 0.268362
2482 2 0.0497076 0.210829 0.291646
2483 4 0.0249149 0.212469 0.288851
2484 4 0.0745002 0.209189 0.294441
392 4 0.0915592 0.210598 0.283764
249 4 0.0923597 0.216717 0.302386
391 2 0.100994 0.209599 0.26063
247 2 0.111425 0.215917 0.318543
279 4 0.200565 0.223496 0.313577
277 2 0.197291 0.241043 0.296069
473 4 0.18893 0.207484 0.311243
472 2 0.204726 0.18851 0.3152
474 4 0.220521 0.169536 0.319157
633 4 0.238822 0.16584 0.313162
631 2 0.253691 0.1785 0.297548
632 4 0.268559 0.191161 0.281933
254 4 0.396596 0.16764 0.267996
253 2 0.406535 0.177823 0.288555
304 2 0.373881 0.216664 0.325387
306 4 0.375221 0.240736 0.318761
27 3 0.390631 0.185821 0.334459
255 4 0.416475 0.188006 0.309115
323 4 0.476402 0.21183 0.305002
322 2 0.456275 0.207526 0.319199
29 3 0.427541 0.184256 0.32754
324 4 0.436148 0.203222 0.333396
536 4 0.211871 0.280997 0.28419
278 4 0.194018 0.258591 0.27856
535 2 0.218304 0.300667 0.298222
537 4 0.224737 0.320336 0.312254
400 2 0.263821 0.321304 0.329135
345 4 0.276852 0.311429 0.267044
343 2 0.291168 0.330462 0.274659
418 2 0.395018 0.276478 0.32252
420 4 0.383996 0.257384 0.310725
419 4 0.40604 0.295572 0.334315
2463 4 0.0539723 0.360128 0.275089
2461 2 0.0628407 0.383471 0.276372
734 4 0.15991 0.401831 0.331907
768 4 0.14204 0.334195 0.326329
767 4 0.157726 0.381531 0.330067
766 2 0.149883 0.357863 0.328198
402 4 0.242845 0.326429 0.316529
678 4 0.227742 0.337707 0.307815
603 4 0.230908 0.363586 0.253705
601 2 0.247256 0.382491 0.252988
676 2 0.213324 0.354607 0.296339
298 2 0.172511 0.399211 0.296926
300 4 0.162127 0.412175 0.315615
299 4 0.182895 0.386246 0.278237
677 4 0.198906 0.371508 0.284864
602 4 0.263605 0.401396 0.252272
290 4 0.267962 0.411218 0.27014
289 2 0.286192 0.414789 0.286875
344 4 0.305483 0.349495 0.282274
291 4 0.304422 0.41836 0.303611
436 2 0.343846 0.407459 0.287722
438 4 0.336098 0.384541 0.281401
1318 2 0.0532752 0.439367 0.253644
2462 4 0.0717092 0.406813 0.277655
2953 2 0.0040825 0.41604 0.276086
3959 4 0.0635255 0.42095 0.292356
2954 4 0.0150979 0.437486 0.282713
1319 4 0.0626614 0.423393 0.270434
3958 2 0.0596116 0.423299 0.316939
414 4 0.183523 0.41477 0.325959
637 2 0.237229 0.435403 0.248587
412 2 0.201545 0.423066 0.341176
638 4 0.254086 0.418881 0.256838
437 4 0.351593 0.430376 0.294042
107 3 0.487062 0.433831 0.26281
110 3 0.45194 0.421804 0.266639
2476 2 0.00406985 0.0504699 0.345129
2478 4 0.0220479 0.0349269 0.3529
545 4 0.0916749 0.0189818 0.37389
544 2 0.110713 0.00861075 0.386347
731 4 0.138944 5.36866e-05 0.414989
441 4 0.239969 0.0510009 0.353778
439 2 0.225483 0.0487659 0.333521
1818 4 0.223826 0.0288808 0.406897
1670 4 0.302485 0.0379517 0.372532
1669 2 0.325479 0.0347083 0.381802
1518 4 0.376563 0.0504383 0.332513
1671 4 0.348473 0.0314649 0.391072
744 4 0.374263 0.0512563 0.352171
699 4 0.387864 0.0365737 0.347692
697 2 0.39969 0.0237419 0.365599
742 2 0.361793 0.0701281 0.362826
698 4 0.411517 0.0109101 0.383506
318 4 0.994341 0.127431 0.369808
369 4 0.060246 0.173756 0.40167
397 2 0.165032 0.0913515 0.351842
398 4 0.169234 0.102164 0.373992
707 4 0.236588 0.112513 0.380745
706 2 0.252147 0.122818 0.397386
432 4 0.309019 0.143359 0.403228
430 2 0.299154 0.155136 0.3835
425 4 0.31346 0.128768 0.415102
350 4 0.341733 0.139923 0.371451
717 4 0.31455 0.159678 0.413611
743 4 0.349323 0.0889998 0.373481
351 4 0.333366 0.0922865 0.384156
349 2 0.33755 0.116105 0.377804
452 4 0.36942 0.12831 0.369332
257 4 0.369704 0.135969 0.387712
516 4 0.362328 0.145448 0.370027
451 2 0.388573 0.120886 0.355076
28 3 0.411718 0.16072 0.352841
453 4 0.407726 0.113461 0.340821
256 2 0.384517 0.146003 0.405179
347 4 0.000844624 0.191291 0.40197
2653 2 0.0751024 0.199446 0.368584
2654 4 0.0841569 0.217574 0.353936
2655 4 0.0660479 0.181319 0.383232
348 4 0.0491093 0.186418 0.389826
346 2 0.024977 0.188855 0.395898
248 4 0.130491 0.215116 0.3347
431 4 0.28929 0.166913 0.363772
724 2 0.248702 0.164105 0.345363
725 4 0.268139 0.170957 0.359519
508 2 0.283179 0.222211 0.404505
488 4 0.310837 0.230047 0.374763
509 4 0.292151 0.228583 0.382053
487 2 0.329992 0.216649 0.365888
305 4 0.372541 0.192591 0.332012
514 2 0.361268 0.167613 0.358505
489 4 0.349147 0.203251 0.357013
515 4 0.360209 0.189778 0.346982
1581 4 0.417153 0.202439 0.379548
26 1 0.411264 0.182144 0.343942
30 3 0.414791 0.197476 0.360409
460 2 0.420356 0.233884 0.353415
462 4 0.424635 0.209809 0.348192
1579 2 0.43786 0.199352 0.393218
1580 4 0.458567 0.196266 0.406888
267 4 0.477727 0.202851 0.407321
407 4 0.0593089 0.269028 0.406286
406 2 0.0734855 0.260134 0.387709
548 4 0.044382 0.279951 0.396996
547 2 0.0307866 0.296362 0.383919
549 4 0.0171912 0.312773 0.370842
681 4 0.0130747 0.33229 0.373695
408 4 0.0876621 0.251239 0.369133
401 4 0.284797 0.31618 0.341742
1260 4 0.275663 0.300918 0.350352
1258 2 0.276722 0.292881 0.374005
1259 4 0.277781 0.284844 0.397658
710 4 0.25982 0.292268 0.404018
377 4 0.3935 0.32428 0.357494
584 4 0.481952 0.32309 0.361915
461 4 0.416076 0.257958 0.358638
499 2 0.0789023 0.396696 0.358541
500 4 0.0980832 0.380674 0.357798
733 2 0.152167 0.404916 0.355481
504 4 0.156438 0.41286 0.393692
735 4 0.144424 0.408002 0.379054
594 4 0.340051 0.382803 0.413086
592 2 0.343631 0.380039 0.388495
593 4 0.347211 0.377276 0.363904
378 4 0.361825 0.362965 0.358427
376 2 0.377663 0.343622 0.35796
433 2 0.399673 0.40214 0.361979
435 4 0.416144 0.400262 0.343261
434 4 0.383202 0.404019 0.380697
583 2 0.495892 0.340288 0.350292
588 4 0.474048 0.377771 0.361909
586 2 0.451046 0.380274 0.352431
587 4 0.428044 0.382777 0.342954
3960 4 0.0556978 0.425649 0.341522
501 4 0.0597214 0.412719 0.359285
776 4 0.0533882 0.432946 0.365314
3671 4 0.011104 0.481115 0.349523
777 4 0.0301715 0.47566 0.3536
775 2 0.0417798 0.454303 0.359457
502 2 0.163903 0.435503 0.401227
503 4 0.171368 0.458145 0.408762
413 4 0.219567 0.431362 0.356393
1557 4 0.231015 0.447944 0.36316
1437 4 0.23979 0.425167 0.41966
1436 4 0.232533 0.427467 0.370236
1435 2 0.236161 0.426317 0.394948
1555 2 0.229877 0.472468 0.358422
937 2 0.00111057 0.0255402 0.466076
1058 4 0.0232532 0.0539274 0.470242
938 4 0.0243772 0.0346349 0.467138
1602 4 0.0408461 0.0473253 0.472683
1600 2 0.063505 0.0406486 0.464486
1601 4 0.0861638 0.0339719 0.45629
1478 4 0.0892698 0.014091 0.456219
730 2 0.154718 0.0180243 0.422298
732 4 0.170492 0.035995 0.429608
1816 2 0.227419 0.0224368 0.430787
1817 4 0.231012 0.0159929 0.454677
961 2 0.219331 0.02611 0.497261
962 4 0.226028 0.0242116 0.473247
91 1 0.422191 0.00418214 0.483035
95 3 0.410884 0.00825156 0.46369
89 3 0.507242 0.0100323 0.488418
1427 4 0.457924 0.0246151 0.443425
1426 2 0.474391 0.0174224 0.46081
1428 4 0.490858 0.0102297 0.478196
94 3 0.431435 0.0238792 0.491095
367 2 0.0625417 0.15601 0.419134
1057 2 0.0166798 0.0776127 0.465662
1059 4 0.0101064 0.101298 0.461082
368 4 0.0648374 0.138263 0.436597
2430 4 0.0903079 0.0982211 0.496364
276 4 0.232437 0.143505 0.453836
274 2 0.24848 0.160784 0.462159
708 4 0.267705 0.133123 0.414027
424 2 0.303786 0.120342 0.436563
426 4 0.294112 0.111915 0.458025
258 4 0.399329 0.156037 0.422646
260 4 0.144525 0.171586 0.450899
259 2 0.146086 0.181202 0.473927
261 4 0.147648 0.190818 0.496955
510 4 0.274208 0.215839 0.426957
374 4 0.267723 0.210143 0.445121
275 4 0.264522 0.178062 0.470482
686 4 0.298334 0.212822 0.508516
375 4 0.286145 0.211431 0.491594
373 2 0.276934 0.210787 0.468357
1150 2 0.318117 0.235581 0.499625
1152 4 0.34027 0.236454 0.488063
715 2 0.334788 0.172226 0.421237
716 4 0.355026 0.184774 0.428862
650 4 0.331048 0.233582 0.470243
649 2 0.34275 0.228613 0.448712
651 4 0.354451 0.223644 0.427182
411 4 0.371347 0.213388 0.431279
409 2 0.393802 0.20883 0.441286
410 4 0.416258 0.204272 0.451294
265 2 0.486462 0.213467 0.428205
266 4 0.495197 0.224084 0.44909
575 4 0.456787 0.203091 0.484507
574 2 0.467568 0.184883 0.497828
618 4 0.0494674 0.284618 0.415485
616 2 0.0530338 0.293099 0.438734
617 4 0.0566002 0.301579 0.461984
2813 4 0.0722256 0.338587 0.488305
1136 4 0.17419 0.275683 0.491783
711 4 0.26542 0.269195 0.448029
803 4 0.280097 0.281694 0.457166
709 2 0.26262 0.280732 0.426024
802 2 0.278293 0.266897 0.477239
2812 2 0.0820971 0.354286 0.505076
753 4 0.476296 0.38489 0.435148
384 4 0.0245618 0.456448 0.460609
382 2 0.0207908 0.458708 0.485223
1189 2 0.150688 0.437227 0.485757
1191 4 0.147522 0.438558 0.46099
825 4 0.0642561 0.0306521 0.566039
823 2 0.0826871 0.0461 0.559195
2319 4 0.0551385 0.0147688 0.572353
469 2 0.000580864 0.0792032 0.535567
824 4 0.101118 0.061548 0.552351
2429 4 0.0920705 0.0662988 0.534816
1180 2 0.221003 0.0346085 0.55407
963 4 0.212633 0.0280084 0.521276
1181 4 0.201214 0.0302012 0.539436
1182 4 0.240792 0.0390159 0.568704
843 4 0.331645 0.0771148 0.535252
951 4 0.316451 0.0320737 0.536653
949 2 0.306789 0.0360507 0.559369
841 2 0.353227 0.0699416 0.545642
842 4 0.374809 0.0627683 0.556032
1005 4 0.389938 0.0637889 0.5674
2333 4 0.391364 0.0458291 0.560981
2332 2 0.38412 0.0231965 0.553206
2334 4 0.376875 0.000563912 0.545431
1723 2 0.43858 0.0177288 0.533778
1724 4 0.439794 0.0159153 0.50887
1725 4 0.437366 0.0195423 0.558686
4239 4 0.457174 0.0184505 0.558232
4466 4 0.471776 0.0287597 0.549483
4237 2 0.467613 0.00952114 0.579123
4465 2 0.490305 0.0440887 0.542636
877 2 0.0384279 0.125621 0.551554
878 4 0.0163074 0.116739 0.544005
1272 4 0.0732572 0.148224 0.553905
879 4 0.0605485 0.134502 0.559102
470 4 0.00114411 0.103351 0.54203
2428 2 0.0911892 0.08226 0.51559
1270 2 0.098227 0.149456 0.554315
1271 4 0.123197 0.150688 0.554726
944 4 0.269579 0.161272 0.534172
687 4 0.285307 0.165897 0.519874
1003 2 0.40897 0.0799369 0.568877
3054 4 0.40649 0.117226 0.530385
3052 2 0.413 0.13877 0.519491
1004 4 0.428003 0.0960849 0.570354
3053 4 0.419509 0.160314 0.508598
3402 4 0.485701 0.129518 0.585777
1199 4 0.058638 0.19084 0.585754
2845 2 0.00547126 0.251582 0.576677
1033 2 0.160122 0.200566 0.524503
1034 4 0.159059 0.19604 0.54907
1035 4 0.161185 0.205091 0.499935
909 4 0.143511 0.207421 0.553619
907 2 0.126132 0.201479 0.570585
908 4 0.108752 0.195538 0.58755
1221 4 0.210804 0.236777 0.523842
1219 2 0.214647 0.21709 0.538771
1220 4 0.21849 0.197404 0.553699
945 4 0.232342 0.184913 0.557736
943 2 0.250961 0.173092 0.545954
791 4 0.283014 0.221486 0.559941
327 4 0.291942 0.229302 0.575847
325 2 0.314753 0.220847 0.581622
790 2 0.281827 0.23432 0.538516
685 2 0.291821 0.189359 0.514195
792 4 0.28064 0.247155 0.517091
1151 4 0.295964 0.234708 0.511186
321 4 0.34433 0.207072 0.57038
326 4 0.337564 0.212392 0.587397
319 2 0.347671 0.194488 0.549034
320 4 0.351012 0.181904 0.527688
900 4 0.34766 0.192513 0.583154
576 4 0.478348 0.166676 0.511149
3263 4 0.0132462 0.289991 0.574911
2847 4 0.0124565 0.272256 0.588884
1137 4 0.155366 0.317305 0.512128
1041 4 0.149663 0.331533 0.525951
1135 2 0.164778 0.296494 0.501956
813 4 0.22343 0.278444 0.525163
811 2 0.242671 0.26405 0.518253
812 4 0.261913 0.249655 0.511344
804 4 0.276489 0.252099 0.497313
1159 2 0.0681613 0.396491 0.533406
1161 4 0.0455244 0.4069 0.53131
1039 2 0.131829 0.349047 0.526593
1160 4 0.0907982 0.386081 0.535501
895 2 0.13653 0.399803 0.556857
897 4 0.116462 0.384896 0.5564
896 4 0.156599 0.41471 0.557313
1040 4 0.113995 0.36656 0.527236
2814 4 0.0919685 0.369985 0.521848
238 2 0.309864 0.372822 0.542498
240 4 0.298424 0.379098 0.521168
239 4 0.321303 0.366546 0.563827
1000 2 0.43371 0.386303 0.582879
1002 4 0.451225 0.402963 0.576486
1936 2 0.00775129 0.493159 0.531421
383 4 0.0170198 0.460969 0.509837
1938 4 0.0157933 0.46962 0.528886
1172 4 0.0894931 0.439313 0.535674
1171 2 0.112888 0.440012 0.526879
538 2 0.16206 0.44849 0.572074
1173 4 0.136284 0.440711 0.518085
1190 4 0.153853 0.435896 0.510523
540 4 0.169225 0.472295 0.569398
539 4 0.154894 0.424685 0.574751
4084 2 0.460439 0.452594 0.524872
4085 4 0.478103 0.435095 0.527507
4086 4 0.442775 0.470093 0.522237
3603 4 0.491517 0.42366 0.516658
2317 2 0.0389982 0.0120991 0.591262
993 4 0.0675642 0.0116216 0.64319
2318 4 0.0228578 0.00942933 0.610171
977 4 0.128482 0.0141207 0.583399
946 2 0.131173 0.0419859 0.660024
947 4 0.119441 0.0274466 0.643406
1210 2 0.22478 0.00297897 0.652928
1155 4 0.202791 0.995496 0.614353
950 4 0.297127 0.0400277 0.582085
1030 2 0.270981 0.00932423 0.598434
1032 4 0.2877 0.0275797 0.59491
2201 4 0.307328 0.059373 0.645183
2200 2 0.298881 0.0530945 0.622502
2202 4 0.290434 0.046816 0.599822
1239 4 0.308124 0.0516818 0.66344
1217 4 0.400376 0.00653233 0.649283
1216 2 0.386406 0.0198939 0.633425
1218 4 0.372436 0.0332554 0.617567
2656 2 0.487022 0.0643997 0.639888
2657 4 0.497564 0.0417797 0.64143
148 3 0.478695 0.00903888 0.618672
1073 4 0.0595098 0.163958 0.649796
1296 4 0.0432869 0.154145 0.63857
1294 2 0.0192342 0.151641 0.632215
1072 2 0.0724387 0.143305 0.655404
1074 4 0.0853676 0.122651 0.661011
1200 4 0.0560063 0.165442 0.628751
1192 2 0.375758 0.135441 0.622061
1194 4 0.363946 0.155565 0.631045
1193 4 0.38757 0.115318 0.613077
899 4 0.347633 0.158233 0.619563
3400 2 0.483895 0.116841 0.607253
3401 4 0.482089 0.104164 0.628729
1164 4 0.487399 0.102284 0.647312
1162 2 0.499547 0.118182 0.662308
2658 4 0.476479 0.0870197 0.638346
1198 2 0.0573221 0.178141 0.607252
851 4 0.102032 0.183903 0.647491
850 2 0.108442 0.182368 0.623372
852 4 0.114852 0.180832 0.599253
1208 4 0.098878 0.212504 0.590928
1063 2 0.160531 0.177393 0.660338
1065 4 0.172606 0.196457 0.649572
1209 4 0.0886512 0.250937 0.621244
1207 2 0.0937646 0.231721 0.606086
695 4 0.201405 0.174197 0.588162
696 4 0.182041 0.188155 0.632105
694 2 0.191723 0.181176 0.610133
798 4 0.190792 0.202364 0.646265
796 2 0.199545 0.222692 0.6579
898 2 0.347647 0.175373 0.601358
954 4 0.421059 0.220662 0.621503
1026 4 0.414567 0.231011 0.637653
953 4 0.446891 0.205398 0.581498
952 2 0.433975 0.21303 0.601501
1024 2 0.419443 0.22778 0.661962
982 2 0.040812 0.283943 0.600974
983 4 0.0559398 0.267534 0.612247
984 4 0.0256842 0.300353 0.589702
3275 4 0.119005 0.330975 0.6478
856 2 0.127784 0.289271 0.662501
857 4 0.120837 0.313062 0.659201
858 4 0.134732 0.26548 0.665802
3274 2 0.0991029 0.340028 0.659929
1066 2 0.294939 0.406618 0.630689
1067 4 0.282669 0.410242 0.609207
1001 4 0.416195 0.369644 0.589271
1006 2 0.401793 0.369989 0.635954
1007 4 0.381741 0.38491 0.63662
1008 4 0.421846 0.355068 0.635289
2014 2 0.0448395 0.499212 0.655121
1068 4 0.307208 0.402993 0.652172
1176 4 0.369218 0.432119 0.619556
1174 2 0.362281 0.428745 0.64334
663 4 0.488476 0.428437 0.598201
662 4 0.491784 0.420382 0.647445
661 2 0.49013 0.42441 0.622823
921 4 0.0585984 0.0749469 0.73751
948 4 0.142905 0.0565252 0.676642
1212 4 0.236878 0.0057076 0.674639
1148 4 0.169238 0.0845993 0.732855
1147 2 0.187738 0.080415 0.749146
1237 2 0.309461 0.0684266 0.68196
2343 4 0.440035 0.0255085 0.674875
2341 2 0.454059 0.00763026 0.68531
2440 2 0.492871 0.00874216 0.723238
35 3 0.0579951 0.147875 0.714976
31 1 0.0361104 0.146715 0.708782
1131 4 0.0745983 0.139499 0.720311
33 3 0.0305853 0.124858 0.703289
920 4 0.0319149 0.113065 0.719187
919 2 0.0452566 0.094006 0.728348
1287 4 0.0160923 0.109196 0.731506
32 3 0.0228972 0.153538 0.726332
1277 4 0.145952 0.0928269 0.682527
1276 2 0.142877 0.116792 0.676093
1278 4 0.139802 0.140757 0.669659
1129 2 0.0902613 0.129533 0.73706
1226 4 0.157904 0.0891566 0.748439
1064 4 0.148455 0.158328 0.671104
1238 4 0.310798 0.0851713 0.70048
888 4 0.306692 0.103517 0.695795
886 2 0.324358 0.121212 0.69586
887 4 0.342023 0.138907 0.695925
34 3 0.0322679 0.160656 0.690636
1076 4 0.000419425 0.198386 0.680912
797 4 0.208297 0.243019 0.669535
1025 4 0.424319 0.22455 0.686272
818 4 0.487382 0.192627 0.747794
817 2 0.463158 0.186677 0.74607
917 4 0.308733 0.303698 0.673001
916 2 0.307969 0.321481 0.690561
1142 4 0.319414 0.305139 0.72836
918 4 0.307205 0.339264 0.708121
42 3 0.326363 0.326006 0.730664
1141 2 0.310123 0.286292 0.741911
830 4 0.374042 0.29216 0.713091
829 2 0.362191 0.297978 0.734325
831 4 0.35034 0.303795 0.755559
3122 4 0.498737 0.311947 0.704278
3276 4 0.0792005 0.349081 0.672058
816 4 0.0731883 0.33408 0.737048
814 2 0.0715945 0.342474 0.713549
780 4 0.0645806 0.349899 0.748459
815 4 0.0700007 0.350867 0.690051
885 4 0.0796917 0.404866 0.676993
883 2 0.0942322 0.406386 0.697277
1078 2 0.147731 0.380638 0.738089
884 4 0.108773 0.407906 0.717561
1079 4 0.132838 0.392954 0.722226
2175 4 0.123731 0.409414 0.731847
806 4 0.244784 0.355388 0.692036
1080 4 0.162625 0.368321 0.753953
2013 4 0.181384 0.370527 0.761482
2011 2 0.200953 0.37368 0.74624
2012 4 0.220522 0.376833 0.730999
805 2 0.268484 0.35408 0.699896
807 4 0.292184 0.352772 0.707756
43 3 0.309782 0.357292 0.718059
41 1 0.323659 0.348532 0.734463
44 3 0.314062 0.351512 0.755377
1027 2 0.332223 0.389227 0.685246
1028 4 0.322722 0.399927 0.664742
1257 4 0.295724 0.347356 0.750139
1029 4 0.341725 0.378527 0.705749
45 3 0.343993 0.358759 0.733714
2015 4 0.0454841 0.482664 0.673854
1281 4 0.0641299 0.415985 0.669124
1280 4 0.0538141 0.464915 0.668742
1279 2 0.058972 0.44045 0.668933
1953 4 0.31483 0.418689 0.662735
1951 2 0.308572 0.438281 0.676953
1952 4 0.302314 0.457873 0.691172
929 4 0.291257 0.467426 0.707448
928 2 0.282432 0.489862 0.714077
1175 4 0.355345 0.42537 0.667124
1910 4 0.494899 0.423038 0.67101
1909 2 0.47473 0.436453 0.677211
1911 4 0.454562 0.449868 0.683411
2049 4 0.200968 0.991114 0.795217
1196 4 0.211115 0.00768716 0.801309
1195 2 0.236069 0.00816176 0.799811
966 4 0.184323 0.0444129 0.824434
1149 4 0.206238 0.0762307 0.765437
1197 4 0.261023 0.00863636 0.798314
1112 4 0.389312 0.0668616 0.808724
1111 2 0.404098 0.0861882 0.802977
1056 4 0.0320065 0.147153 0.744964
1054 2 0.0419994 0.135278 0.764568
1055 4 0.0519924 0.123403 0.784171
1124 4 0.0274772 0.167093 0.742112
1285 2 0.998201 0.113024 0.748548
1227 4 0.116825 0.10902 0.7689
1225 2 0.137365 0.0990885 0.75867
1130 4 0.105924 0.119566 0.753808
958 2 0.244632 0.0884552 0.824279
959 4 0.249838 0.108774 0.810668
1086 4 0.285023 0.140031 0.818394
1084 2 0.297681 0.156716 0.804735
1113 4 0.418885 0.105515 0.79723
2398 2 0.427892 0.145075 0.780756
2399 4 0.422776 0.123684 0.792647
2320 2 0.459844 0.1006 0.802004
2322 4 0.436464 0.109298 0.803715
2321 4 0.483223 0.0919027 0.800292
2400 4 0.433009 0.166467 0.768864
1123 2 0.030618 0.184468 0.759815
1676 4 0.0273426 0.200145 0.81544
922 2 0.0277026 0.229605 0.80069
924 4 0.0357552 0.206129 0.797657
1125 4 0.0337588 0.201844 0.777519
1235 4 0.164148 0.235917 0.774524
1085 4 0.310339 0.173401 0.791076
846 4 0.377811 0.197119 0.759261
844 2 0.401261 0.188452 0.758835
48 3 0.414074 0.251141 0.792892
1051 2 0.402576 0.187894 0.826875
1053 4 0.412941 0.200995 0.808271
3425 4 0.482204 0.221693 0.801053
819 4 0.438934 0.180727 0.744346
845 4 0.42471 0.179785 0.758409
46 1 0.432022 0.237133 0.797367
50 3 0.446392 0.237028 0.779699
49 3 0.443051 0.244254 0.8165
47 3 0.424126 0.215807 0.800837
3424 2 0.496929 0.216826 0.820666
923 4 0.0196499 0.253082 0.803722
970 2 0.0434929 0.311899 0.817795
1103 4 0.00778611 0.291616 0.813009
971 4 0.0207143 0.303586 0.823895
779 4 0.0647857 0.331388 0.794914
972 4 0.0662716 0.320212 0.811696
1234 2 0.146774 0.253782 0.772481
1236 4 0.1294 0.271647 0.770437
1121 4 0.13228 0.285258 0.784016
1120 2 0.118924 0.305174 0.776931
1122 4 0.105569 0.325089 0.769845
1299 4 0.254044 0.242629 0.803312
1298 4 0.287598 0.258328 0.769721
1297 2 0.270821 0.250478 0.786516
1143 4 0.300831 0.267444 0.755461
808 2 0.324049 0.321172 0.781935
1098 4 0.3203 0.267648 0.83942
809 4 0.336901 0.302388 0.771583
3204 4 0.356042 0.305288 0.77487
3202 2 0.375922 0.301734 0.789613
3203 4 0.395802 0.29818 0.804355
3484 2 0.392337 0.256564 0.826896
3486 4 0.412729 0.254301 0.812606
1043 4 0.430952 0.258444 0.823627
778 2 0.0646831 0.340644 0.771687
2173 2 0.108984 0.413699 0.751579
2174 4 0.0942367 0.417984 0.77131
941 4 0.163214 0.372282 0.775649