ITEM: TIMESTEP
1180000
ITEM: NUMBER OF ATOMS
4590
ITEM: BOX BOUNDS pp pp pp
-9.9985700000000008e+00 9.9985700000000008e+00
-9.9985700000000008e+00 9.9985700000000008e+00
-9.9985700000000008e+00 9.9985700000000008e+00
ITEM: ATOMS id type xs ys zs
463 2 0.0387493 0.027525 0.0403196
464 4 0.0494013 0.0498569 0.0439247
1667 4 0.065984 0.0616794 0.0428468
465 4 0.0280972 0.00519303 0.0367144
3291 4 0.00909648 0.0040285 0.0434701
579 4 0.135767 0.0157808 0.0709914
1254 4 0.14619 0.0179504 0.0239643
491 4 0.239369 0.0320008 0.0183332
359 4 0.24897 0.0808451 0.0239988
490 2 0.26359 0.0368987 0.0221393
492 4 0.287812 0.0417966 0.0259455
486 4 0.299061 0.024685 0.028736
484 2 0.319704 0.0289479 0.042185
485 4 0.340347 0.0332109 0.055634
746 4 0.404099 0.069258 0.0253252
297 4 0.330987 0.0748259 0.0211178
1607 4 0.351462 0.0194972 0.0456632
1606 2 0.367617 0.000734268 0.0421804
745 2 0.428147 0.0645976 0.0203125
747 4 0.452196 0.0599373 0.0152998
1826 4 0.471124 0.0593486 0.0140933
1825 2 0.47625 0.0364765 0.022798
1827 4 0.481377 0.0136045 0.0315026
2975 4 0.459995 0.0717658 0.999962
1666 2 0.0635756 0.0863924 0.0399059
1246 2 0.0309177 0.134937 0.0502348
1247 4 0.048351 0.128781 0.0670679
1248 4 0.0134843 0.141094 0.0334017
3234 4 0.0123884 0.133363 0.0143807
1668 4 0.0611671 0.111105 0.036965
423 4 0.168013 0.146907 0.0229787
532 2 0.220275 0.105027 0.0772694
534 4 0.199741 0.118558 0.0727464
421 2 0.183914 0.140127 0.0410446
422 4 0.199814 0.133347 0.0591105
358 2 0.244331 0.0951377 0.00401414
295 2 0.344455 0.080326 0.0414533
296 4 0.357923 0.085826 0.0617888
666 4 0.353647 0.147928 0.00852617
866 4 0.365946 0.163467 0.00667484
628 2 0.377823 0.121754 0.0827504
629 4 0.368265 0.103168 0.069025
554 4 0.130216 0.214306 0.0145631
553 2 0.109649 0.225652 0.0231343
555 4 0.0890825 0.236998 0.0317055
323 4 0.388184 0.212054 0.0256381
322 2 0.391971 0.226692 0.0455521
324 4 0.395758 0.24133 0.0654662
770 4 0.474453 0.191691 0.0547885
769 2 0.469835 0.181466 0.0771337
836 4 0.064056 0.305835 0.0383182
835 2 0.08411 0.319957 0.0431757
619 2 0.0237177 0.379776 0.0158297
294 4 0.0797548 0.393579 0.036372
552 4 0.0662255 0.411973 0.0418214
2785 2 0.0103086 0.360746 0.0693067
621 4 0.0130725 0.372879 0.0373772
2787 4 0.00551429 0.356154 0.0452007
292 2 0.0932067 0.373205 0.0417653
293 4 0.106659 0.35283 0.0471585
837 4 0.104164 0.334078 0.0480333
915 4 0.123189 0.334763 0.0506742
913 2 0.141127 0.343076 0.0353681
914 4 0.159065 0.35139 0.020062
455 4 0.116114 0.347316 0.0633155
288 4 0.164975 0.357318 0.000378291
286 2 0.185109 0.370383 0.00738657
287 4 0.205242 0.383448 0.0143949
252 4 0.256979 0.38641 0.0568644
250 2 0.277015 0.394012 0.069747
357 4 0.294707 0.392526 0.00163712
482 4 0.287814 0.3733 0.00180768
573 4 0.305672 0.375791 0.994481
355 2 0.277227 0.410366 0.00280629
251 4 0.297051 0.401614 0.0826295
571 2 0.326211 0.362765 0.000283601
741 4 0.362045 0.356245 0.0796225
672 4 0.442109 0.380015 0.0301586
670 2 0.441614 0.38274 0.0053089
563 4 0.481457 0.400195 0.0426822
562 2 0.49158 0.389968 0.06313
550 2 0.0663583 0.436638 0.0377225
551 4 0.0664911 0.461303 0.0336235
1438 2 0.149457 0.474358 0.0727984
1439 4 0.152689 0.450051 0.0679098
903 4 0.240133 0.437937 0.00594955
356 4 0.259748 0.428206 0.00397547
523 2 0.34139 0.499514 0.0640715
524 4 0.357147 0.48881 0.0802677
2760 4 0.0227776 0.0555648 0.0938441
2758 2 0.0171198 0.0792677 0.0994425
577 2 0.120152 0.0207236 0.089884
578 4 0.104537 0.0256664 0.108777
1806 4 0.128911 0.00287973 0.121866
22 3 0.360617 0.0820927 0.163755
2468 4 0.476342 0.0720712 0.102659
2467 2 0.482317 0.0521639 0.116558
2469 4 0.488292 0.0322566 0.130457
2723 4 0.501438 0.0323353 0.142694
1760 4 0.502168 0.0193638 0.126438
235 2 0.0471322 0.118146 0.158723
589 2 0.0195584 0.141309 0.10689
591 4 0.0316962 0.161572 0.0986887
590 4 0.00742067 0.121046 0.115091
237 4 0.071795 0.117007 0.154769
236 4 0.0224694 0.119284 0.162676
2759 4 0.011462 0.102971 0.105041
477 4 0.0856084 0.126385 0.143618
475 2 0.109928 0.129399 0.138655
476 4 0.134248 0.132413 0.133692
567 4 0.151477 0.139622 0.124333
533 4 0.240809 0.0914964 0.0817923
566 4 0.186059 0.120572 0.0936421
565 2 0.168768 0.130097 0.108988
556 2 0.325564 0.109568 0.0806692
557 4 0.303546 0.118517 0.0884338
558 4 0.347582 0.100618 0.0729046
630 4 0.387381 0.14034 0.0964759
2893 2 0.491004 0.159905 0.12942
2895 4 0.471261 0.159757 0.114078
339 4 0.117155 0.231748 0.117218
337 2 0.139921 0.240978 0.112562
338 4 0.162687 0.250209 0.107905
372 4 0.187986 0.236794 0.166798
370 2 0.179428 0.214214 0.160311
371 4 0.170871 0.191634 0.153823
738 4 0.230944 0.172225 0.154339
736 2 0.252829 0.179006 0.164352
285 4 0.306738 0.243185 0.174569
283 2 0.290604 0.224122 0.173372
284 4 0.274469 0.205058 0.172176
354 4 0.323226 0.247369 0.158378
312 4 0.322992 0.228397 0.165379
311 4 0.352141 0.194867 0.142428
310 2 0.337567 0.211632 0.153904
764 4 0.328279 0.243189 0.178437
461 4 0.348209 0.226769 0.111608
255 4 0.403855 0.23568 0.0832769
462 4 0.385728 0.24378 0.0832593
460 2 0.366968 0.235274 0.0974338
771 4 0.465216 0.171241 0.0994789
253 2 0.427994 0.239726 0.0883855
254 4 0.452134 0.243771 0.093494
527 4 0.491515 0.189498 0.138628
526 2 0.495667 0.214054 0.136406
528 4 0.499819 0.23861 0.134183
704 4 0.0809498 0.326695 0.15206
506 4 0.178517 0.259973 0.101115
505 2 0.188858 0.279639 0.112582
507 4 0.199199 0.299305 0.124049
756 4 0.307618 0.317742 0.0805456
352 2 0.317831 0.253745 0.13481
740 4 0.325369 0.322996 0.0866957
353 4 0.312437 0.260121 0.111243
755 4 0.319151 0.271326 0.0951487
754 2 0.313384 0.294534 0.0878471
612 4 0.29226 0.303825 0.14563
610 2 0.288755 0.319665 0.164656
517 2 0.480958 0.259406 0.11008
518 4 0.462819 0.261176 0.0929628
519 4 0.499098 0.257635 0.127197
313 2 0.00477519 0.392504 0.12624
2786 4 0.015103 0.365339 0.0934127
314 4 0.00982504 0.381435 0.104396
416 4 0.0806596 0.386883 0.156669
315 4 0.999725 0.403573 0.148083
417 4 0.108674 0.362659 0.123067
456 4 0.101668 0.348464 0.111177
454 2 0.108891 0.34789 0.0872461
415 2 0.0946666 0.374771 0.139868
609 4 0.311236 0.388173 0.0852271
607 2 0.325085 0.405409 0.0969026
739 2 0.343707 0.33962 0.0831591
387 4 0.382176 0.377333 0.13578
385 2 0.380932 0.369314 0.11213
386 4 0.379687 0.361294 0.0884804
13 3 0.377295 0.374357 0.154613
15 3 0.411803 0.38941 0.155108
11 1 0.397323 0.375805 0.166239
12 3 0.406476 0.354769 0.167933
494 4 0.428154 0.398876 0.145816
627 4 0.222849 0.463913 0.147931
639 4 0.205992 0.452411 0.151636
625 2 0.244962 0.46893 0.137394
626 4 0.267075 0.473947 0.126857
301 2 0.305854 0.421836 0.166854
303 4 0.322268 0.439878 0.161353
608 4 0.338934 0.422645 0.108578
658 2 0.408935 0.478748 0.150564
495 4 0.41975 0.446475 0.158637
659 4 0.422636 0.459131 0.143308
493 2 0.423952 0.422675 0.152226
512 4 0.0714544 0.0661374 0.240134
673 2 0.0792082 0.0323316 0.22016
674 4 0.0803664 0.0483477 0.239325
675 4 0.07805 0.0163155 0.200994
545 4 0.0970746 0.0522573 0.24858
653 4 0.219342 0.0447754 0.180515
652 2 0.202952 0.0625601 0.186859
654 4 0.186562 0.0803448 0.193204
1505 4 0.240144 0.0426718 0.208533
1829 4 0.28923 0.0139068 0.235788
1504 2 0.257796 0.0361002 0.224977
1506 4 0.275448 0.0295285 0.241421
1661 4 0.279756 0.00402014 0.220111
24 3 0.358989 0.0493012 0.182051
21 1 0.366144 0.0713374 0.183324
25 3 0.388733 0.0720228 0.186138
480 4 0.478562 0.0530949 0.241494
511 2 0.0545704 0.084333 0.237129
2482 2 0.0081858 0.130045 0.222685
2483 4 0.0265151 0.11814 0.23483
513 4 0.0376864 0.102529 0.234124
582 4 0.161382 0.128352 0.203561
392 4 0.0986809 0.164145 0.241787
581 4 0.198831 0.0952619 0.201734
580 2 0.180106 0.111807 0.202648
759 4 0.400619 0.079719 0.200556
23 3 0.355633 0.0820692 0.201009
757 2 0.404929 0.0873515 0.223973
758 4 0.409238 0.094984 0.24739
2592 4 0.493028 0.137597 0.206858
2590 2 0.497936 0.145382 0.18361
361 2 0.0708321 0.243404 0.221477
363 4 0.0514178 0.239734 0.206154
362 4 0.0902465 0.247074 0.2368
737 4 0.274713 0.185788 0.174364
763 2 0.349757 0.250615 0.188864
332 4 0.488895 0.207957 0.195692
703 2 0.0635648 0.326292 0.170026
705 4 0.0461798 0.325888 0.187992
648 4 0.0408545 0.304157 0.249937
646 2 0.0465342 0.308998 0.226073
647 4 0.0522138 0.313839 0.202209
748 2 0.111699 0.284874 0.238089
750 4 0.0980604 0.264246 0.234394
749 4 0.125338 0.305502 0.241784
299 4 0.140576 0.316543 0.249929
765 4 0.371236 0.258042 0.199291
622 2 0.414663 0.322757 0.179209
624 4 0.418047 0.29863 0.173588
611 4 0.285249 0.335505 0.183682
302 4 0.28944 0.403794 0.172354
623 4 0.411278 0.346884 0.18483
14 3 0.393513 0.384069 0.187583
728 4 0.338352 0.34305 0.24
645 4 0.411526 0.391906 0.193329
643 2 0.433697 0.39741 0.203496
110 3 0.467278 0.419219 0.218118
644 4 0.455867 0.402915 0.213662
2461 2 0.00539305 0.455211 0.231538
3716 4 0.0716238 0.483339 0.208856
1757 4 0.0713653 0.490594 0.191301
3715 2 0.0492622 0.488334 0.218865
3717 4 0.0269006 0.493329 0.228874
2462 4 0.0148163 0.47837 0.231731
291 4 0.130685 0.485422 0.196519
289 2 0.154472 0.478663 0.200215
1756 2 0.0956934 0.496237 0.192521
290 4 0.17826 0.471904 0.203911
637 2 0.196134 0.45369 0.174578
638 4 0.186275 0.454968 0.197521
768 4 0.199684 0.468041 0.207628
766 2 0.201095 0.469126 0.232568
107 3 0.499709 0.431983 0.204767
106 1 0.477062 0.435828 0.205991
109 3 0.468333 0.43613 0.184494
108 3 0.473477 0.456312 0.216285
232 2 0.0326256 0.0150859 0.292
234 4 0.0385474 0.0202244 0.315743
233 4 0.0267038 0.0099473 0.268258
427 2 0.0990124 0.0191214 0.319386
546 4 0.120438 0.0505518 0.292762
429 4 0.0981263 0.0419861 0.309307
544 2 0.108756 0.0514045 0.270671
731 4 0.123856 0.0524749 0.313431
693 4 0.135193 0.0630548 0.297494
1463 4 0.139547 0.0444193 0.300465
730 2 0.135363 0.0540914 0.33557
1462 2 0.154956 0.0284995 0.288876
1464 4 0.170365 0.0125796 0.277287
683 4 0.259103 0.0398512 0.303122
682 2 0.267326 0.0634577 0.302575
1517 4 0.369757 0.00332024 0.318111
1516 2 0.36096 0.0107949 0.34029
479 4 0.449675 0.052076 0.282301
478 2 0.464118 0.0525855 0.261897
531 4 0.0200369 0.101877 0.24333
393 4 0.0634397 0.141363 0.268985
529 2 0.00779123 0.0928611 0.263178
391 2 0.0810603 0.152754 0.255386
405 4 0.140347 0.15841 0.274416
399 4 0.117439 0.136104 0.315395
691 2 0.151873 0.0799921 0.289743
403 2 0.164498 0.152663 0.2774
692 4 0.168554 0.0969293 0.281993
600 4 0.191032 0.0929258 0.28238
598 2 0.205439 0.11336 0.282631
599 4 0.219845 0.133795 0.282882
249 4 0.207013 0.144966 0.272543
404 4 0.188648 0.146917 0.280383
247 2 0.222643 0.164344 0.274859
684 4 0.275548 0.0870643 0.302028
30 3 0.326416 0.137488 0.271499
631 2 0.294831 0.122191 0.282622
632 4 0.306866 0.143198 0.276373
707 4 0.316351 0.117238 0.316287
26 1 0.331867 0.159599 0.271341
633 4 0.282797 0.101184 0.288872
726 4 0.28042 0.104795 0.309067
744 4 0.398398 0.0854979 0.261836
706 2 0.341321 0.116155 0.315574
708 4 0.366291 0.115072 0.314862
743 4 0.379585 0.103532 0.304516
742 2 0.388992 0.094515 0.283176
349 2 0.394355 0.135909 0.322814
29 3 0.353446 0.162376 0.263276
351 4 0.374284 0.132946 0.3082
389 4 0.0728717 0.230169 0.308111
474 4 0.177804 0.178983 0.319249
248 4 0.238274 0.183722 0.277175
279 4 0.245431 0.20001 0.288929
277 2 0.248506 0.219704 0.273834
27 3 0.330836 0.16781 0.292804
28 3 0.316882 0.171353 0.258086
278 4 0.251582 0.239398 0.258739
419 4 0.434722 0.207044 0.300618
418 2 0.435497 0.205404 0.325556
388 2 0.075355 0.25407 0.301203
443 4 0.0847662 0.334085 0.301166
390 4 0.0778384 0.277972 0.294296
442 2 0.0831303 0.311753 0.290041
444 4 0.0814943 0.28942 0.278915
677 4 0.125322 0.29663 0.329092
535 2 0.246789 0.281861 0.268293
536 4 0.245939 0.258281 0.260021
344 4 0.214263 0.291022 0.333702
537 4 0.247638 0.305442 0.276565
496 2 0.305677 0.292228 0.302353
497 4 0.290538 0.293106 0.322233
498 4 0.320816 0.29135 0.282472
308 4 0.335066 0.284398 0.270433
729 4 0.332452 0.302854 0.269158
307 2 0.329898 0.262135 0.260294
309 4 0.32473 0.239872 0.250155
727 2 0.335402 0.322952 0.254579
547 2 0.01402 0.366187 0.316663
548 4 0.0280478 0.38422 0.306504
408 4 0.0846242 0.368483 0.331889
298 2 0.153734 0.335478 0.259599
734 4 0.161728 0.363289 0.286339
733 2 0.165887 0.363038 0.310993
300 4 0.166892 0.354413 0.269269
438 4 0.235999 0.404689 0.304827
615 4 0.403134 0.401179 0.297806
613 2 0.383188 0.395551 0.311793
543 4 0.408712 0.382279 0.293305
614 4 0.363242 0.389922 0.325781
447 4 0.422034 0.406978 0.305654
541 2 0.425233 0.369049 0.279993
542 4 0.441754 0.355819 0.266681
777 4 0.0639581 0.495126 0.308819
3958 2 0.0143016 0.496948 0.270274
3960 4 0.00837051 0.503967 0.293528
775 2 0.0852877 0.486776 0.318844
603 4 0.0952009 0.454264 0.259278
602 4 0.130293 0.429905 0.285276
601 2 0.112747 0.442085 0.272277
414 4 0.157449 0.435383 0.301922
776 4 0.106617 0.478426 0.328869
767 4 0.202507 0.47021 0.257508
436 2 0.237986 0.420119 0.285253
412 2 0.178819 0.436764 0.314828
437 4 0.239973 0.43555 0.265679
413 4 0.200189 0.438145 0.327735
1437 4 0.251215 0.473912 0.306798
1435 2 0.232598 0.465528 0.321229
1436 4 0.21398 0.457145 0.335661
1658 4 0.227392 0.496954 0.260655
714 4 0.391348 0.504611 0.292906
712 2 0.382608 0.481254 0.291095
713 4 0.373869 0.457898 0.289283
445 2 0.444092 0.416653 0.312366
446 4 0.466149 0.426327 0.319079
120 3 0.458542 0.441389 0.329078
317 4 0.0360799 0.0632948 0.360372
316 2 0.0557423 0.0520959 0.371009
318 4 0.0754047 0.0408969 0.381646
1602 4 0.0759188 0.0364519 0.400824
2756 4 0.00706267 0.0684455 0.383444
1600 2 0.0808498 0.0119462 0.400246
732 4 0.146869 0.0557079 0.35771
605 4 0.158055 0.0701336 0.3518
439 2 0.236156 0.0789258 0.39131
440 4 0.214687 0.0663397 0.388884
698 4 0.333118 0.072204 0.344455
1427 4 0.373974 0.0127426 0.36499
1518 4 0.352163 0.0182696 0.362469
699 4 0.340463 0.0337776 0.375603
1426 2 0.391423 0.0248578 0.378179
1428 4 0.408871 0.0369731 0.391368
697 2 0.33679 0.0529908 0.360029
1671 4 0.342278 0.0130324 0.382565
1579 2 0.467937 0.0354157 0.414492
1580 4 0.477356 0.0131638 0.408064
1581 4 0.458518 0.0576677 0.42092
398 4 0.0887347 0.139398 0.35621
397 2 0.103087 0.137751 0.335802
468 4 0.248211 0.135609 0.329822
604 2 0.172837 0.0902448 0.353289
606 4 0.187619 0.110356 0.354779
466 2 0.233752 0.151958 0.342023
441 4 0.257624 0.0915119 0.393736
725 4 0.278803 0.115691 0.357846
724 2 0.279611 0.110243 0.333456
431 4 0.330892 0.0994913 0.40951
452 4 0.426579 0.154346 0.333967
514 2 0.478044 0.0882381 0.395734
350 4 0.414426 0.138871 0.337428
515 4 0.493399 0.100427 0.380215
451 2 0.445326 0.158081 0.350085
453 4 0.464073 0.161816 0.366203
2654 4 0.0224902 0.181959 0.385886
2653 2 0.0277773 0.193085 0.407644
472 2 0.19149 0.191508 0.336012
467 4 0.219294 0.168307 0.354223
473 4 0.205176 0.204032 0.352776
276 4 0.212286 0.186875 0.361232
274 2 0.224172 0.199183 0.379465
275 4 0.236058 0.211491 0.397697
375 4 0.239448 0.197707 0.412113
270 4 0.497148 0.237531 0.377366
306 4 0.435467 0.22046 0.362595
304 2 0.457105 0.226121 0.373772
305 4 0.478743 0.231782 0.384949
420 4 0.436273 0.203765 0.350494
616 2 0.0708679 0.30393 0.376966
617 4 0.0515978 0.297404 0.3915
407 4 0.0834844 0.320481 0.34586
618 4 0.090138 0.310456 0.362431
676 2 0.141292 0.30319 0.347179
678 4 0.157262 0.309749 0.365265
343 2 0.195055 0.297803 0.348202
345 4 0.175847 0.304583 0.362703
402 4 0.172955 0.309622 0.381341
400 2 0.180671 0.329393 0.394559
378 4 0.260079 0.298264 0.400373
488 4 0.328168 0.26085 0.401872
376 2 0.277597 0.30523 0.383948
377 4 0.295114 0.312196 0.367523
435 4 0.314977 0.319042 0.372944
487 2 0.331009 0.258095 0.377184
489 4 0.333851 0.25534 0.352495
509 4 0.259339 0.286962 0.418315
406 2 0.0840543 0.344482 0.338875
735 4 0.170046 0.362787 0.335647
401 4 0.188388 0.349165 0.407777
433 2 0.323979 0.342272 0.370819
434 4 0.332981 0.365502 0.368695
588 4 0.361325 0.390545 0.378634
586 2 0.37229 0.36859 0.373847
587 4 0.383254 0.346634 0.36906
1715 4 0.352722 0.390094 0.395387
593 4 0.351963 0.408064 0.386257
499 2 0.131784 0.467482 0.361856
500 4 0.142793 0.466987 0.3843
501 4 0.120774 0.467978 0.339412
1557 4 0.215986 0.437989 0.339348
1555 2 0.210317 0.431311 0.362768
1556 4 0.204649 0.424634 0.386187
592 2 0.357541 0.431437 0.379345
594 4 0.36312 0.45481 0.372433
3988 2 0.483719 0.432943 0.404363
3602 4 0.496906 0.493596 0.400747
118 3 0.483152 0.465966 0.343501
119 3 0.464934 0.441511 0.366183
117 3 0.446322 0.46983 0.349927
116 1 0.46327 0.454543 0.347058
3989 4 0.467331 0.434983 0.385589
2586 4 0.00371333 0.0689075 0.45933
720 4 0.0218134 0.0647097 0.467852
368 4 0.0880301 0.0698317 0.457927
1816 2 0.252352 0.00242364 0.469652
961 2 0.296678 0.0537927 0.471713
962 4 0.281178 0.0413581 0.486889
963 4 0.312178 0.0662274 0.456538
1818 4 0.254089 0.022391 0.454704
1216 2 0.39895 0.0491323 0.488954
1218 4 0.397376 0.0714218 0.477734
841 2 0.363574 0.00753409 0.493173
258 4 0.420211 0.0813948 0.46262
516 4 0.46269 0.0760495 0.411254
257 4 0.444697 0.073552 0.419729
256 2 0.432454 0.0774734 0.441175
458 4 0.0425883 0.130754 0.456039
718 2 0.0267241 0.0885766 0.462245
719 4 0.0316348 0.112443 0.456638
457 2 0.0239646 0.145209 0.464368
459 4 0.00534091 0.159665 0.472697
687 4 0.158082 0.125922 0.420571
367 2 0.104694 0.0810897 0.443069
369 4 0.121357 0.0923477 0.428211
686 4 0.185168 0.114671 0.461074
685 2 0.171625 0.120296 0.440822
1152 4 0.173852 0.120442 0.477582
1150 2 0.18722 0.129312 0.49676
321 4 0.240989 0.151102 0.446021
432 4 0.324316 0.0822029 0.45597
319 2 0.261419 0.151015 0.460436
320 4 0.281849 0.150928 0.47485
411 4 0.299857 0.14202 0.479172
430 2 0.327604 0.0908471 0.43274
409 2 0.317627 0.15853 0.485238
426 4 0.403556 0.0887288 0.470921
425 4 0.363788 0.102395 0.443858
424 2 0.383672 0.0955618 0.45739
2655 4 0.0330643 0.204211 0.429402
346 2 0.0560869 0.231127 0.458205
347 4 0.0681506 0.248443 0.471613
348 4 0.0440232 0.21381 0.444796
2848 2 0.0208606 0.245398 0.42294
2849 4 0.0320316 0.224672 0.431357
260 4 0.0916467 0.169682 0.46078
259 2 0.113791 0.172748 0.471978
261 4 0.135935 0.175814 0.483177
1035 4 0.14131 0.195925 0.484589
1033 2 0.149279 0.212497 0.501532
373 2 0.248115 0.214789 0.428184
374 4 0.256783 0.23187 0.444254
650 4 0.266928 0.232382 0.462236
649 2 0.285977 0.229113 0.478099
715 2 0.330353 0.247441 0.443026
651 4 0.305026 0.225844 0.493962
410 4 0.335397 0.175041 0.491305
716 4 0.327549 0.233561 0.463634
575 4 0.382449 0.189688 0.456369
574 2 0.367535 0.187483 0.476316
266 4 0.387265 0.207596 0.448935
576 4 0.352622 0.185278 0.496263
265 2 0.404657 0.224089 0.441815
267 4 0.422049 0.240582 0.434696
583 2 0.457255 0.240355 0.44298
584 4 0.475455 0.22549 0.451523
2850 4 0.00968958 0.266123 0.414523
327 4 0.138928 0.30599 0.448819
325 2 0.150607 0.302521 0.470653
326 4 0.162286 0.299053 0.492488
9 3 0.180866 0.306208 0.485922
510 4 0.267513 0.247945 0.448507
717 4 0.333157 0.26132 0.422419
508 2 0.263426 0.267454 0.433411
872 4 0.422075 0.257924 0.44386
585 4 0.439055 0.25522 0.434438
871 2 0.420315 0.276481 0.460525
560 4 0.439309 0.299653 0.472934
873 4 0.418554 0.295039 0.47719
559 2 0.452177 0.321 0.470958
2812 2 0.0199118 0.35508 0.458528
2814 4 0.0390635 0.362783 0.44442
503 4 0.188857 0.367495 0.414475
502 2 0.197914 0.389757 0.407579
504 4 0.206971 0.412019 0.400684
773 4 0.212563 0.413334 0.429821
772 2 0.220041 0.407701 0.453006
774 4 0.22752 0.402067 0.47619
710 4 0.239811 0.368817 0.506917
334 2 0.322825 0.356281 0.467088
335 4 0.319627 0.379836 0.474843
336 4 0.326022 0.332726 0.459334
240 4 0.324187 0.393738 0.489174
1714 2 0.349234 0.391092 0.420126
1716 4 0.345745 0.392091 0.444865
1011 4 0.4827 0.34773 0.473256
752 4 0.471163 0.35917 0.459498
753 4 0.488765 0.397038 0.431986
2924 4 0.502421 0.33734 0.426511
926 4 0.468538 0.372643 0.488521
751 2 0.479964 0.378104 0.445742
561 4 0.465045 0.342347 0.468983
1009 2 0.502678 0.34861 0.488265
384 4 0.0403688 0.461401 0.470404
382 2 0.0465656 0.442005 0.484916
1395 4 0.139284 0.485172 0.468244
635 4 0.161643 0.445344 0.443
1393 2 0.124877 0.497369 0.484641
669 4 0.221389 0.426016 0.401308
636 4 0.199107 0.42456 0.417209
667 2 0.245031 0.423547 0.409064
634 2 0.180375 0.434952 0.430104
1 1 0.325803 0.458325 0.450527
5 3 0.32328 0.479326 0.458968
4 3 0.311148 0.455092 0.43283
1586 4 0.320828 0.499057 0.457333
2 3 0.321115 0.442936 0.46697
668 4 0.268673 0.421078 0.41682
3 3 0.347661 0.455239 0.443377
3990 4 0.500107 0.430903 0.423136
1128 4 0.07471 0.0051975 0.508302
939 4 0.0753174 0.0252625 0.501709
937 2 0.077053 0.0386893 0.52273
938 4 0.0787886 0.0521161 0.543751
1059 4 0.0793477 0.0631842 0.560742
2430 4 0.163805 0.00409181 0.574034
89 3 0.408668 0.0335544 0.517646
842 4 0.383645 0.0171171 0.504595
1217 4 0.400524 0.0268428 0.500173
86 1 0.406974 0.0118837 0.525765
90 3 0.399145 0.012187 0.547149
87 3 0.392333 9.74558e-05 0.512503
1062 4 0.477314 0.0574975 0.525269
88 3 0.427724 0.00152211 0.525077
1031 4 0.23802 0.0889449 0.557574
1180 2 0.241442 0.101822 0.530035
1182 4 0.22513 0.0876009 0.542559
1151 4 0.200588 0.138182 0.515938
1030 2 0.229597 0.0882994 0.581108
1220 4 0.209194 0.161362 0.542864
1181 4 0.257755 0.116043 0.517512
877 2 0.0327036 0.197137 0.535201
1272 4 0.0736727 0.191135 0.551459
879 4 0.0568378 0.197367 0.541733
878 4 0.00856945 0.196907 0.528669
1270 2 0.0863528 0.181711 0.570838
695 4 0.146803 0.245908 0.521876
1034 4 0.157248 0.229068 0.518475
1219 2 0.200622 0.184435 0.547261
1221 4 0.19205 0.207507 0.551659
791 4 0.298159 0.23692 0.510433
1136 4 0.078077 0.292997 0.512822
1137 4 0.105248 0.325582 0.539291
1135 2 0.0916627 0.30929 0.526057
696 4 0.169686 0.288561 0.509315
694 2 0.158245 0.267235 0.515595
8 3 0.179767 0.300764 0.52352
1258 2 0.185027 0.332353 0.554892
6 1 0.189776 0.312717 0.506334
10 3 0.212272 0.309171 0.506477
711 4 0.224398 0.322065 0.515713
1259 4 0.183607 0.332108 0.52993
790 2 0.312122 0.250295 0.526286
804 4 0.330876 0.268785 0.561596
792 4 0.326085 0.26367 0.54214
812 4 0.3456 0.264028 0.549914
811 2 0.365042 0.279638 0.548038
813 4 0.384484 0.295248 0.546161
2847 4 0.00973987 0.336089 0.533592
1039 2 0.082264 0.350583 0.567542
1040 4 0.0648329 0.363193 0.580283
1041 4 0.0996951 0.337973 0.554802
992 4 0.166669 0.335756 0.517794
991 2 0.142274 0.336087 0.523267
897 4 0.138728 0.407268 0.575037
993 4 0.117879 0.336419 0.528741
1160 4 0.157801 0.403405 0.57035
7 3 0.185619 0.335125 0.509456
709 2 0.232105 0.345441 0.511315
1159 2 0.180152 0.40094 0.559418
1161 4 0.202503 0.398474 0.548486
1173 4 0.212962 0.416287 0.547095
238 2 0.319503 0.410079 0.507511
927 4 0.447139 0.406924 0.517976
925 2 0.457839 0.389783 0.503249
383 4 0.0527624 0.42261 0.499428
538 2 0.0778004 0.500936 0.531502
539 4 0.0567954 0.495818 0.544063
1171 2 0.22275 0.437183 0.556727
1172 4 0.232538 0.458078 0.566358
1188 4 0.24816 0.494908 0.56362
1186 2 0.262729 0.490776 0.543725
1187 4 0.277299 0.486645 0.523829
239 4 0.314819 0.42642 0.525847
882 4 0.325173 0.439688 0.535276
880 2 0.34278 0.454036 0.545731
1000 2 0.39063 0.496563 0.549573
1001 4 0.367737 0.48655 0.550474
881 4 0.360387 0.468383 0.556187
1267 2 0.459162 0.457652 0.519208
1269 4 0.481934 0.458099 0.508893
4085 4 0.486802 0.473937 0.520723
1268 4 0.43639 0.457205 0.529523
4149 4 0.429069 0.494815 0.554597
4147 2 0.437062 0.487214 0.577036
662 4 0.427975 0.503533 0.535282
2319 4 0.0380407 0.0160585 0.634963
1057 2 0.0930977 0.0469109 0.57383
2428 2 0.14395 0.0141702 0.585409
2429 4 0.124095 0.0242486 0.596784
1058 4 0.106848 0.0306377 0.586918
944 4 0.115214 0.0426918 0.600207
824 4 0.124021 0.0119517 0.611853
943 2 0.125822 0.0591042 0.615804
823 2 0.105228 0.00240533 0.625301
98 3 0.218437 0.00527242 0.660808
100 3 0.256013 0.00738657 0.659721
951 4 0.310048 0.0296462 0.660123
1092 4 0.323013 0.0191559 0.648488
949 2 0.285134 0.0282748 0.658522
950 4 0.260219 0.0269034 0.656922
1090 2 0.34742 0.0150657 0.64492
1091 4 0.371828 0.0109755 0.641351
2283 4 0.373564 0.0159724 0.621375
2281 2 0.395821 0.00702728 0.61432
3007 2 0.488808 0.0521844 0.613983
3009 4 0.471861 0.0682318 0.622952
809 4 0.45389 0.0753791 0.628705
1164 4 0.496723 0.0825981 0.661099
945 4 0.13643 0.0755165 0.631402
1083 4 0.0840084 0.1548 0.656077
1155 4 0.138852 0.155662 0.621458
1032 4 0.221175 0.0876539 0.604642
1282 2 0.222159 0.116394 0.631142
1283 4 0.21418 0.0943014 0.622572
1284 4 0.230138 0.138486 0.639712
1211 4 0.227995 0.157032 0.632589
900 4 0.365561 0.167442 0.603993
808 2 0.442432 0.085579 0.64845
1081 2 0.0650197 0.167132 0.645469
1082 4 0.046031 0.179464 0.63486
1208 4 0.066874 0.225553 0.661113
1271 4 0.099033 0.172286 0.590218
1153 2 0.123342 0.17192 0.61049
1154 4 0.107832 0.188178 0.599522
1210 2 0.238864 0.17842 0.63963
1212 4 0.249733 0.199809 0.646671
888 4 0.280476 0.227836 0.631674
886 2 0.299917 0.215905 0.621433
887 4 0.319359 0.203975 0.611192
806 4 0.28796 0.241898 0.645538
898 2 0.37853 0.185365 0.615645
899 4 0.391498 0.203288 0.627297
1194 4 0.400631 0.220523 0.623379
1192 2 0.401439 0.233741 0.602171
830 4 0.410403 0.215002 0.638282
829 2 0.400102 0.21724 0.660955
905 4 0.484787 0.247912 0.628467
857 4 0.139591 0.280963 0.633274
856 2 0.159731 0.289686 0.621295
1260 4 0.186446 0.332599 0.579854
858 4 0.17987 0.298408 0.609315
797 4 0.196053 0.305293 0.621154
796 2 0.217099 0.318332 0.624655
798 4 0.238144 0.331371 0.628155
802 2 0.316646 0.28156 0.577705
1238 4 0.263621 0.238948 0.640539
803 4 0.302416 0.294334 0.593813
1239 4 0.262955 0.283845 0.618527
1237 2 0.263288 0.261397 0.629533
1064 4 0.306428 0.329421 0.628929
805 2 0.307563 0.25261 0.65677
1193 4 0.402247 0.24696 0.580962
1025 4 0.383797 0.278606 0.64351
1024 2 0.407431 0.282873 0.636554
904 2 0.462376 0.258871 0.626786
1026 4 0.431066 0.28714 0.629598
954 4 0.435507 0.30576 0.623404
952 2 0.452966 0.313565 0.639511
953 4 0.470426 0.321369 0.655618
906 4 0.439966 0.269831 0.625104
983 4 0.0101305 0.336657 0.62091
3275 4 0.0209548 0.351737 0.628941
3274 2 0.0272852 0.364176 0.649686
895 2 0.126198 0.402543 0.596153
896 4 0.113668 0.397819 0.617268
1191 4 0.212881 0.393586 0.598934
1029 4 0.243993 0.348134 0.638396
1027 2 0.239465 0.364633 0.65663
1189 2 0.20465 0.409096 0.616735
1065 4 0.25711 0.337021 0.625656
1063 2 0.281769 0.333221 0.627292
1190 4 0.196419 0.424606 0.634536
1176 4 0.242564 0.44561 0.654935
929 4 0.32288 0.486825 0.650569
928 2 0.304501 0.502882 0.645134
2167 2 0.470092 0.484502 0.629474
2168 4 0.481304 0.477718 0.650768
4148 4 0.445056 0.479613 0.599475
2169 4 0.45888 0.491286 0.60818
1250 4 0.462083 0.47329 0.658874
2989 2 0.0141123 0.0422539 0.748598
2991 4 0.0365806 0.0352902 0.740121
1185 4 0.0848874 0.00845255 0.708522
1004 4 0.313781 0.0334193 0.712173
1003 2 0.333444 0.036839 0.697112
1005 4 0.353107 0.0402586 0.682051
2321 4 0.461106 0.0335284 0.694033
2320 2 0.440659 0.0371576 0.707959
2322 4 0.420212 0.0407868 0.721885
1163 4 0.474513 0.0432389 0.682506
1162 2 0.485618 0.0629185 0.671802
1113 4 0.428511 0.0414304 0.740822
3204 4 0.465266 0.0638188 0.719487
852 4 0.0612465 0.156087 0.680263
850 2 0.0494303 0.137763 0.692502
851 4 0.0376141 0.119439 0.704741
1077 4 0.0186825 0.117773 0.702608
864 4 0.0289873 0.119229 0.720658
862 2 0.0346629 0.116097 0.744807
909 4 0.0800002 0.155226 0.674844
907 2 0.103523 0.153591 0.683161
908 4 0.127046 0.151956 0.691479
1227 4 0.134021 0.14472 0.708504
1225 2 0.155414 0.142449 0.721246
1226 4 0.176807 0.140178 0.733988
1148 4 0.181651 0.138504 0.753379
43 3 0.40076 0.0966671 0.698018
1141 2 0.391373 0.131152 0.740483
1142 4 0.41149 0.11985 0.730852
3485 4 0.493004 0.117632 0.728045
810 4 0.430974 0.0957788 0.668195
3202 2 0.470115 0.0883308 0.718575
3203 4 0.474963 0.112843 0.717663
44 3 0.420528 0.124574 0.714596
41 1 0.421852 0.105906 0.700878
42 3 0.435513 0.0903103 0.710842
45 3 0.430595 0.111718 0.680669
148 3 0.48494 0.130497 0.711634
150 3 0.49675 0.165655 0.705147
1207 2 0.0742323 0.240605 0.679674
1074 4 0.0410812 0.241183 0.747637
947 4 0.0575086 0.241869 0.762822
977 4 0.235818 0.2319 0.727815
976 2 0.222306 0.245749 0.743652
918 4 0.249965 0.229146 0.740168
916 2 0.270723 0.223118 0.727601
917 4 0.291482 0.21709 0.715035
831 4 0.389801 0.219478 0.683628
1263 4 0.412512 0.222255 0.684268
3355 2 0.505072 0.227476 0.693384
1261 2 0.430668 0.231646 0.698668
1262 4 0.448824 0.241037 0.713068
3356 4 0.485519 0.227489 0.6778
1209 4 0.0815906 0.255656 0.698234
1008 4 0.352969 0.290516 0.672563
807 4 0.327166 0.263321 0.668001
1006 2 0.374218 0.303244 0.675979
1007 4 0.395466 0.315973 0.679396
3123 4 0.455758 0.258269 0.715039
3122 4 0.450801 0.303737 0.694821
3121 2 0.45328 0.281003 0.70493
3276 4 0.0336155 0.376616 0.670431
815 4 0.109223 0.363974 0.734422
940 2 0.149981 0.362919 0.729238
942 4 0.126811 0.370303 0.735056
814 2 0.0927622 0.35787 0.752226
1028 4 0.234936 0.381131 0.674864
941 4 0.17315 0.355536 0.723421
1067 4 0.184838 0.373988 0.720285
1066 2 0.205365 0.383607 0.709736
1068 4 0.225892 0.393226 0.699186
1175 4 0.231613 0.409163 0.687376
1206 4 0.462001 0.409736 0.706885
1204 2 0.45257 0.395355 0.725036
1205 4 0.44314 0.380974 0.743186
3430 2 0.00693585 0.471173 0.743202
1280 4 0.0906717 0.440634 0.694852
1279 2 0.0873839 0.455927 0.714358
1281 4 0.0840961 0.471221 0.733863
2015 4 0.132663 0.491163 0.743221
1079 4 0.151413 0.485251 0.74093
1078 2 0.163787 0.464899 0.748536
1174 2 0.237088 0.427386 0.671156
2028 4 0.22897 0.498067 0.697302
1228 2 0.317778 0.470576 0.720893
1229 4 0.312439 0.466014 0.696896
1230 4 0.323118 0.475138 0.74489
859 2 0.497962 0.412254 0.682265
860 4 0.475958 0.416479 0.693363
1249 2 0.463045 0.45257 0.672837
1251 4 0.464007 0.43185 0.686799
1201 2 0.0582647 0.0808305 0.7833
1202 4 0.0740227 0.0689549 0.798657
839 4 0.25906 0.0783728 0.814768
1255 2 0.275375 0.0423318 0.810043
1256 4 0.260901 0.0618978 0.804313
1257 4 0.28985 0.0227658 0.815773
975 4 0.302544 0.0216976 0.83194
1112 4 0.418985 0.0358584 0.789596
1111 2 0.423748 0.0386444 0.765209
1203 4 0.0425066 0.0927062 0.767943
1107 4 0.0476018 0.152803 0.769224
863 4 0.0403386 0.112964 0.768955
838 2 0.246112 0.0849481 0.835121
1149 4 0.176532 0.109319 0.793663
1147 2 0.179092 0.123911 0.773521
959 4 0.306495 0.11067 0.796731
846 4 0.411581 0.0875983 0.753903
958 2 0.331285 0.113637 0.795374