ITEM: TIMESTEP
1210000
ITEM: NUMBER OF ATOMS
4590
ITEM: BOX BOUNDS pp pp pp
-9.9985700000000008e+00 9.9985700000000008e+00
-9.9985700000000008e+00 9.9985700000000008e+00
-9.9985700000000008e+00 9.9985700000000008e+00
ITEM: ATOMS id type xs ys zs
463 2 0.0373 0.0298295 0.0395925
464 4 0.0580827 0.0437258 0.0392018
1667 4 0.0718252 0.058445 0.044173
465 4 0.0165173 0.0159333 0.0399833
3291 4 0.00702344 0.00223501 0.0511953
579 4 0.1471 0.0162739 0.0863206
1254 4 0.143791 0.0105808 0.0230632
491 4 0.230871 0.045385 0.0247913
490 2 0.255711 0.0425578 0.0251543
492 4 0.280552 0.0397306 0.0255174
486 4 0.29987 0.0407979 0.0320642
484 2 0.320129 0.0380877 0.0464667
359 4 0.262758 0.0778887 0.0173305
485 4 0.340387 0.0353775 0.0608691
746 4 0.396375 0.0580302 0.0158054
297 4 0.365596 0.0727076 0.0376379
1607 4 0.351172 0.019435 0.05853
1606 2 0.366428 0.00138073 0.0503756
745 2 0.42085 0.0616951 0.0122408
747 4 0.445325 0.0653601 0.00867628
1826 4 0.464534 0.0598041 0.0138535
1825 2 0.478757 0.0402686 0.0202751
1827 4 0.492981 0.0207331 0.0266967
2975 4 0.461199 0.0793536 0.0110527
1666 2 0.0659919 0.0822404 0.0391802
1246 2 0.0274069 0.134417 0.0505944
1247 4 0.0430107 0.132749 0.0700603
1248 4 0.0118032 0.136085 0.0311286
3234 4 0.0201975 0.13272 0.0133089
1668 4 0.0601587 0.106036 0.0341874
423 4 0.171081 0.158381 0.0288811
532 2 0.217648 0.101101 0.0752437
534 4 0.196669 0.114695 0.0747375
421 2 0.18329 0.1437 0.0450241
422 4 0.195498 0.129019 0.0611671
533 4 0.238627 0.0875069 0.07575
358 2 0.253964 0.096949 0.00374617
295 2 0.369752 0.08969 0.0555127
296 4 0.373907 0.106672 0.0733875
558 4 0.364714 0.119562 0.0857557
2974 2 0.479973 0.095117 0.00612981
554 4 0.135482 0.225304 0.00636753
553 2 0.111868 0.226197 0.0145407
555 4 0.0882551 0.227089 0.0227139
1133 4 0.140034 0.207812 0.997607
323 4 0.393234 0.236736 0.0494368
322 2 0.392471 0.241999 0.0738682
770 4 0.488792 0.188854 0.052729
769 2 0.475976 0.18062 0.0725567
836 4 0.0896896 0.318017 0.0418641
756 4 0.315184 0.317468 0.0737042
619 2 0.0184586 0.373008 0.0172202
294 4 0.0766998 0.406399 0.0424124
2785 2 0.0173809 0.366387 0.0725116
621 4 0.0143001 0.366665 0.0410456
2787 4 0.0100186 0.352214 0.0532739
835 2 0.101371 0.340121 0.0414858
292 2 0.0960521 0.392426 0.034968
293 4 0.115404 0.378453 0.0275235
837 4 0.113053 0.362225 0.0411076
915 4 0.131457 0.366242 0.0358335
913 2 0.148194 0.354433 0.0214949
914 4 0.16493 0.342623 0.00715627
455 4 0.118401 0.378187 0.0501445
454 2 0.123539 0.374067 0.0742651
288 4 0.174288 0.360119 0.00222838
740 4 0.312695 0.335832 0.0790647
252 4 0.260148 0.374515 0.0537164
250 2 0.276253 0.389891 0.0650917
251 4 0.292358 0.405267 0.076467
609 4 0.310135 0.398645 0.0756343
741 4 0.35813 0.356427 0.0755827
739 2 0.335412 0.34613 0.0773237
672 4 0.435283 0.386644 0.0317862
670 2 0.444619 0.382409 0.00898083
563 4 0.486486 0.391639 0.042102
562 2 0.492002 0.382235 0.0646034
552 4 0.0659511 0.417172 0.0558905
550 2 0.069708 0.440004 0.0464164
551 4 0.0734649 0.462836 0.0369423
1438 2 0.158009 0.465249 0.0664956
1439 4 0.154695 0.4409 0.0711135
1440 4 0.161323 0.489598 0.0618776
355 2 0.279287 0.414133 0.00545761
902 4 0.252647 0.493227 0.00801096
903 4 0.251911 0.444189 0.0177809
901 2 0.252279 0.468708 0.0128959
356 4 0.270892 0.433907 0.018252
524 4 0.363298 0.485729 0.0706031
2760 4 0.00714138 0.059336 0.0943807
1806 4 0.137039 0.00536704 0.120911
577 2 0.123025 0.0223643 0.0892353
578 4 0.0989508 0.0284547 0.09215
1759 2 0.497678 0.0208227 0.117804
2468 4 0.464586 0.0816257 0.107689
2467 2 0.473084 0.0676257 0.126582
2469 4 0.481583 0.0536256 0.145475
2723 4 0.490551 0.0372826 0.155287
1760 4 0.487831 0.0348367 0.13602
2758 2 0.012712 0.0833443 0.0985938
235 2 0.051714 0.120089 0.16398
589 2 0.0139027 0.137328 0.106476
591 4 0.0205338 0.159122 0.096168
590 4 0.00727156 0.115535 0.116784
237 4 0.0752966 0.114104 0.158216
2759 4 0.0182826 0.107353 0.102807
477 4 0.0889551 0.126636 0.151324
475 2 0.110934 0.132131 0.140745
476 4 0.132913 0.137626 0.130166
567 4 0.144884 0.130684 0.115722
565 2 0.165938 0.123898 0.104065
566 4 0.186991 0.117112 0.0924089
557 4 0.316024 0.113688 0.0955265
629 4 0.38629 0.114862 0.0866595
22 3 0.366051 0.0878233 0.1626
556 2 0.340369 0.116625 0.0906411
628 2 0.405678 0.130035 0.0910259
630 4 0.425066 0.145207 0.0953923
2893 2 0.479985 0.153628 0.128442
2894 4 0.491192 0.138901 0.145255
2895 4 0.468778 0.168355 0.111628
339 4 0.113639 0.23621 0.104199
337 2 0.135557 0.247833 0.107306
371 4 0.159463 0.185989 0.153241
370 2 0.173501 0.206411 0.156563
738 4 0.223248 0.170048 0.159005
372 4 0.18754 0.226833 0.159884
310 2 0.3146 0.232504 0.163199
311 4 0.328003 0.21268 0.15595
324 4 0.391708 0.247263 0.0982996
461 4 0.338729 0.220984 0.107398
460 2 0.35906 0.234859 0.111794
771 4 0.463161 0.172387 0.0923845
528 4 0.496951 0.223366 0.112344
519 4 0.499033 0.243491 0.120416
704 4 0.0783469 0.316716 0.15067
338 4 0.157476 0.259456 0.110413
506 4 0.169909 0.26972 0.0961983
505 2 0.186608 0.282837 0.109399
507 4 0.203307 0.295955 0.122599
352 2 0.292824 0.273108 0.140467
353 4 0.299177 0.27942 0.117122
755 4 0.311975 0.276307 0.101921
754 2 0.31358 0.296887 0.0878125
612 4 0.29859 0.298196 0.160347
462 4 0.379391 0.248733 0.116189
255 4 0.399273 0.251556 0.119072
253 2 0.422937 0.255508 0.112029
254 4 0.4466 0.259461 0.104985
517 2 0.479775 0.25828 0.114448
518 4 0.460517 0.273068 0.108481
313 2 0.999514 0.38904 0.124423
2786 4 0.0247432 0.380561 0.0917493
314 4 0.00689934 0.383635 0.101155
417 4 0.115772 0.37666 0.119194
456 4 0.128678 0.369948 0.0983858
415 2 0.106573 0.377078 0.14244
607 2 0.324232 0.410789 0.0923363
387 4 0.37699 0.378481 0.137526
385 2 0.373776 0.370263 0.114132
386 4 0.370562 0.362045 0.0907369
13 3 0.37658 0.382771 0.156964
15 3 0.411466 0.396146 0.152308
11 1 0.398216 0.382986 0.165343
12 3 0.40644 0.361504 0.165253
494 4 0.429579 0.404584 0.156613
627 4 0.214318 0.467503 0.160391
625 2 0.229882 0.468378 0.140842
626 4 0.245446 0.469253 0.121292
303 4 0.313451 0.437322 0.16383
608 4 0.33833 0.422932 0.109038
658 2 0.41414 0.48515 0.150344
495 4 0.421954 0.454001 0.155852
659 4 0.430034 0.467149 0.143379
493 2 0.425767 0.429292 0.156233
673 2 0.0791331 0.0302916 0.21586
674 4 0.0779673 0.0531031 0.226032
675 4 0.0802989 0.00748024 0.205689
653 4 0.223308 0.0406363 0.185589
652 2 0.206961 0.0589766 0.190237
654 4 0.190615 0.0773169 0.194884
1505 4 0.249781 0.0393265 0.213982
1829 4 0.293015 0.00286752 0.234499
1504 2 0.268515 0.0302777 0.227852
1506 4 0.287248 0.0212289 0.241722
24 3 0.364726 0.0512935 0.171345
21 1 0.369719 0.0724916 0.179352
25 3 0.391559 0.0734409 0.185739
23 3 0.355982 0.0776039 0.19734
759 4 0.407026 0.0805206 0.196063
512 4 0.0620292 0.0884037 0.23584
236 4 0.0281314 0.126073 0.169744
511 2 0.0393013 0.0987943 0.235031
2483 4 0.00489787 0.120804 0.224472
513 4 0.0165733 0.109185 0.234223
582 4 0.159068 0.137574 0.205629
581 4 0.18677 0.0963338 0.199927
580 2 0.172919 0.116954 0.202778
757 2 0.407117 0.0877687 0.219993
758 4 0.407209 0.0950168 0.243923
2592 4 0.490179 0.159869 0.198913
2590 2 0.495535 0.141144 0.183234
361 2 0.0679534 0.249996 0.226134
363 4 0.0436093 0.245754 0.222319
736 2 0.24094 0.182669 0.171368
312 4 0.301196 0.252327 0.170448
285 4 0.28607 0.249151 0.186888
283 2 0.269879 0.230401 0.190271
284 4 0.253688 0.21165 0.193654
737 4 0.258633 0.195291 0.183732
332 4 0.502476 0.222085 0.188802
703 2 0.0721355 0.324078 0.173744
705 4 0.0659242 0.331441 0.196817
646 2 0.0495502 0.319343 0.234476
647 4 0.0577146 0.330745 0.213775
362 4 0.0922975 0.254238 0.229948
748 2 0.113014 0.279391 0.247714
750 4 0.0971169 0.260165 0.249386
749 4 0.128911 0.298618 0.246042
354 4 0.286472 0.266795 0.163812
764 4 0.292516 0.270109 0.185136
610 2 0.293077 0.318065 0.174488
763 2 0.314405 0.273421 0.196759
765 4 0.336293 0.276734 0.208383
622 2 0.418196 0.328334 0.184864
624 4 0.424632 0.304271 0.187039
416 4 0.0973735 0.377495 0.165686
728 4 0.320226 0.338382 0.244222
611 4 0.287563 0.337935 0.18863
302 4 0.285866 0.396549 0.172628
623 4 0.411761 0.352397 0.182689
14 3 0.398187 0.390915 0.18715
645 4 0.417056 0.384504 0.188847
643 2 0.437073 0.391648 0.202018
644 4 0.45709 0.398791 0.215189
3716 4 0.072746 0.48653 0.202554
1757 4 0.0703854 0.498523 0.1855
3715 2 0.0543671 0.471591 0.210567
3717 4 0.0359881 0.456652 0.218581
2462 4 0.0184235 0.450893 0.226998
1319 4 0.0126088 0.4861 0.223385
3959 4 0.0251025 0.469852 0.230413
291 4 0.123507 0.495354 0.196745
289 2 0.140936 0.495255 0.214674
1756 2 0.0950184 0.499758 0.181392
290 4 0.158364 0.495155 0.232602
603 4 0.0991184 0.449856 0.25086
639 4 0.201882 0.479906 0.17089
637 2 0.191771 0.481214 0.19372
638 4 0.18166 0.482522 0.216551
768 4 0.174736 0.484384 0.234707
766 2 0.187324 0.465847 0.245802
1658 4 0.233028 0.488272 0.239186
301 2 0.299659 0.416935 0.168229
110 3 0.459518 0.418617 0.219543
106 1 0.475439 0.43256 0.211131
109 3 0.472609 0.434899 0.188219
108 3 0.474049 0.4533 0.221442
107 3 0.496244 0.423622 0.21518
232 2 0.0447533 0.0177397 0.302978
234 4 0.0622873 0.0242067 0.319589
233 4 0.0272192 0.0112726 0.286368
428 4 0.0777849 0.0131183 0.326506
545 4 0.0961121 0.0555383 0.265489
427 2 0.0998161 0.0247069 0.324158
546 4 0.137594 0.0517028 0.293153
429 4 0.121847 0.0362955 0.321811
544 2 0.116853 0.0536205 0.279321
731 4 0.140839 0.0482726 0.313373
693 4 0.155724 0.0586739 0.301898
1463 4 0.133781 0.0332636 0.303764
1462 2 0.150565 0.0163922 0.296093
691 2 0.15893 0.0827107 0.295804
1464 4 0.167348 0.999521 0.288421
683 4 0.259803 0.0428083 0.294966
682 2 0.262418 0.0675744 0.292734
744 4 0.409454 0.0784074 0.256724
480 4 0.474116 0.0530728 0.251408
479 4 0.444353 0.0442573 0.290615
478 2 0.459234 0.048665 0.271011
393 4 0.0557737 0.138302 0.258462
391 2 0.0761853 0.152695 0.25729
398 4 0.0794561 0.136856 0.330257
392 4 0.096597 0.167088 0.256117
399 4 0.126335 0.131332 0.313749
403 2 0.15997 0.159964 0.277857
692 4 0.162136 0.106747 0.28971
397 2 0.102896 0.134094 0.322003
600 4 0.175637 0.0998088 0.274292
598 2 0.194208 0.1164 0.27205
599 4 0.212779 0.132991 0.269808
249 4 0.20028 0.148373 0.262584
404 4 0.183051 0.153737 0.270531
247 2 0.215127 0.165703 0.272802
684 4 0.265033 0.0923404 0.290501
30 3 0.311647 0.145693 0.260063
631 2 0.287995 0.117338 0.274279
632 4 0.310782 0.127241 0.271479
707 4 0.320991 0.123711 0.314181
26 1 0.326237 0.160864 0.268759
633 4 0.265208 0.107434 0.277078
726 4 0.271007 0.100629 0.308514
27 3 0.326383 0.158959 0.291682
706 2 0.341786 0.113074 0.305257
708 4 0.36258 0.102437 0.296334
743 4 0.380374 0.0951118 0.293819
742 2 0.394914 0.0867596 0.275271
349 2 0.392297 0.127336 0.318249
351 4 0.378662 0.111031 0.30508
29 3 0.347627 0.156766 0.260755
389 4 0.0793432 0.224853 0.31645
388 2 0.0768391 0.248701 0.309367
405 4 0.136889 0.166192 0.285183
474 4 0.167841 0.186954 0.311329
248 4 0.229974 0.183033 0.28302
279 4 0.240721 0.199284 0.283737
472 2 0.18935 0.193207 0.322438
277 2 0.250642 0.218064 0.270544
278 4 0.260563 0.236845 0.257352
28 3 0.319632 0.182366 0.263061
419 4 0.442418 0.208916 0.306299
418 2 0.434001 0.210226 0.329807
648 4 0.0413859 0.307941 0.255176
390 4 0.0743351 0.27255 0.302285
444 4 0.0667037 0.287016 0.289926
442 2 0.0792278 0.305291 0.301518
299 4 0.140084 0.312703 0.254732
443 4 0.0917518 0.323566 0.313109
677 4 0.097774 0.298115 0.320958
298 2 0.155494 0.329896 0.264329
535 2 0.243427 0.273921 0.268639
537 4 0.239778 0.296484 0.278777
536 4 0.247076 0.251358 0.258502
309 4 0.305166 0.259462 0.284583
496 2 0.28526 0.317237 0.326237
498 4 0.286806 0.328872 0.304159
308 4 0.299991 0.309038 0.288598
729 4 0.294116 0.328024 0.285595
307 2 0.302579 0.28425 0.28659
727 2 0.307171 0.333203 0.264909
547 2 0.0228445 0.37117 0.314257
548 4 0.0319286 0.394242 0.317472
549 4 0.0137604 0.348098 0.311042
408 4 0.081829 0.366785 0.322971
733 2 0.164458 0.366336 0.307012
735 4 0.153013 0.369018 0.329079
734 4 0.175904 0.363655 0.284944
300 4 0.170903 0.34709 0.273926
438 4 0.236825 0.410941 0.302636
615 4 0.413882 0.389192 0.294181
613 2 0.392875 0.392111 0.307423
543 4 0.418165 0.380349 0.277682
614 4 0.371868 0.395029 0.320665
447 4 0.431903 0.393559 0.288591
541 2 0.429923 0.36043 0.268187
542 4 0.441681 0.34051 0.258692
445 2 0.442074 0.410561 0.303843
3958 2 0.0216434 0.48073 0.252659
775 2 0.0813486 0.484509 0.32005
3960 4 0.0181842 0.491608 0.274905
777 4 0.0655776 0.498537 0.306647
602 4 0.106792 0.428865 0.295595
601 2 0.102955 0.439361 0.273227
414 4 0.165333 0.432614 0.327681
767 4 0.199912 0.44731 0.256897
436 2 0.245101 0.427097 0.285441
412 2 0.188071 0.426066 0.33576
1436 4 0.230409 0.424226 0.343543
437 4 0.253377 0.443254 0.268247
712 2 0.386067 0.481845 0.299821
713 4 0.37508 0.459516 0.302244
446 4 0.452245 0.427564 0.319096
120 3 0.465016 0.441837 0.327128
317 4 0.0356 0.0656526 0.357732
316 2 0.0516029 0.0619336 0.37658
318 4 0.0676057 0.0582146 0.395429
1602 4 0.0641043 0.0390536 0.395619
1600 2 0.0656297 0.0148572 0.401734
730 2 0.147173 0.0527374 0.337146
732 4 0.153507 0.0572022 0.360918
605 4 0.170011 0.0695389 0.364131
439 2 0.24591 0.0758702 0.390738
440 4 0.235864 0.0588462 0.375426
1669 2 0.316592 0.00525048 0.401832
698 4 0.316563 0.0781821 0.376076
697 2 0.32865 0.0562995 0.376582
1671 4 0.332223 0.0170809 0.386311
699 4 0.340736 0.034417 0.377087
1518 4 0.349622 0.0186747 0.377808
1516 2 0.355215 0.00125241 0.360768
1427 4 0.382975 0.00439671 0.379624
1426 2 0.397226 0.0204177 0.392485
1428 4 0.411478 0.0364388 0.405346
1579 2 0.482267 0.0572969 0.412882
1580 4 0.493211 0.0348293 0.413675
1581 4 0.471324 0.0797644 0.412088
468 4 0.24467 0.141885 0.34213
604 2 0.181102 0.0918632 0.362181
606 4 0.192192 0.114188 0.360231
466 2 0.232027 0.163443 0.342915
724 2 0.27523 0.103166 0.333028
441 4 0.255956 0.0928942 0.406049
725 4 0.279454 0.105702 0.357541
431 4 0.32896 0.0953812 0.40653
350 4 0.405932 0.143641 0.331418
516 4 0.480691 0.0974045 0.408223
452 4 0.42289 0.144761 0.340572
514 2 0.494438 0.111555 0.392862
451 2 0.447457 0.144093 0.34518
453 4 0.472023 0.143426 0.349787
2654 4 0.0414654 0.18159 0.418454
467 4 0.219384 0.185 0.3437
473 4 0.21086 0.19946 0.333548
276 4 0.214192 0.200908 0.354941
274 2 0.222822 0.203136 0.378302
275 4 0.231453 0.205364 0.401663
270 4 0.488032 0.237638 0.37415
306 4 0.435806 0.221817 0.367177
304 2 0.458777 0.221912 0.377052
305 4 0.481748 0.222007 0.386927
420 4 0.425584 0.211537 0.353314
616 2 0.0665294 0.295334 0.371063
617 4 0.0480281 0.279 0.375072
2850 4 0.013013 0.268073 0.402285
618 4 0.0850307 0.311669 0.367054
407 4 0.0844766 0.327699 0.354051
676 2 0.112864 0.295438 0.340714
678 4 0.127955 0.292761 0.36047
345 4 0.147034 0.289339 0.351511
402 4 0.145381 0.303475 0.368178
400 2 0.160597 0.316539 0.38311
344 4 0.1931 0.286803 0.332219
343 2 0.170067 0.288071 0.341865
497 4 0.283715 0.305603 0.348315
378 4 0.266488 0.294712 0.400373
488 4 0.325851 0.257083 0.402097
376 2 0.279855 0.304092 0.381438
377 4 0.293221 0.313472 0.362504
487 2 0.329009 0.253927 0.377495
435 4 0.302452 0.329847 0.366939
489 4 0.332167 0.25077 0.352894
268 2 0.498239 0.257415 0.362755
681 4 0.00290424 0.347267 0.330059
406 2 0.0831528 0.347242 0.338511
401 4 0.175813 0.329604 0.398043
636 4 0.199689 0.413118 0.406867
503 4 0.19472 0.339932 0.406646
1556 4 0.228419 0.400055 0.404273
1555 2 0.225823 0.404599 0.379824
1557 4 0.223226 0.409143 0.355374
433 2 0.322598 0.344269 0.363571
667 2 0.268751 0.414648 0.410981
434 4 0.342744 0.35869 0.360203
588 4 0.36153 0.35961 0.350346
586 2 0.384857 0.352951 0.344289
587 4 0.408184 0.346291 0.338232
1715 4 0.34225 0.362349 0.380868
593 4 0.353488 0.37633 0.356205
592 2 0.34781 0.400084 0.350847
1714 2 0.349854 0.369107 0.403709
776 4 0.0971196 0.47048 0.333454
499 2 0.128308 0.478405 0.36554
500 4 0.145593 0.481778 0.383289
501 4 0.111022 0.475033 0.347792
1437 4 0.246501 0.470737 0.334684
1435 2 0.238455 0.447481 0.339113
413 4 0.210809 0.419517 0.343838
668 4 0.287293 0.424267 0.397239
594 4 0.342133 0.423837 0.345489
3988 2 0.482001 0.430898 0.396907
118 3 0.486324 0.462145 0.350607
119 3 0.460439 0.437915 0.364294
117 3 0.44964 0.469465 0.346956
116 1 0.465408 0.452718 0.347131
3989 4 0.478361 0.438707 0.373435
2586 4 0.00218519 0.0726348 0.448522
720 4 0.0178462 0.067039 0.45972
368 4 0.0957268 0.0706404 0.466203
367 2 0.102794 0.0766503 0.442985
961 2 0.28931 0.0514501 0.469939
962 4 0.275207 0.0413092 0.487923
963 4 0.303414 0.0615911 0.451954
1818 4 0.260351 0.0139237 0.453478
432 4 0.314058 0.0802754 0.451812
1216 2 0.4109 0.0476271 0.483839
841 2 0.3644 0.0202934 0.488998
843 4 0.342056 0.0210489 0.477802
426 4 0.4085 0.0787857 0.463125
842 4 0.386744 0.019538 0.500193
1218 4 0.420689 0.0604806 0.464756
258 4 0.420512 0.0753049 0.450366
458 4 0.0391681 0.130452 0.449799
718 2 0.0273131 0.0901809 0.45981
719 4 0.03678 0.113323 0.4599
457 2 0.0265605 0.147929 0.462479
687 4 0.151945 0.134948 0.417838
369 4 0.109861 0.0826602 0.419766
685 2 0.160112 0.124639 0.439103
686 4 0.16828 0.11433 0.460368
1152 4 0.183136 0.117827 0.471686
1150 2 0.189301 0.126697 0.494236
321 4 0.255812 0.155793 0.441888
319 2 0.268206 0.154126 0.46354
320 4 0.2806 0.152459 0.485191
411 4 0.298878 0.143404 0.489947
430 2 0.321509 0.0878283 0.429171
409 2 0.320106 0.155588 0.484838
425 4 0.371202 0.111363 0.456174
424 2 0.389851 0.0950741 0.459649
410 4 0.341335 0.167771 0.47973
257 4 0.462695 0.0898594 0.427793
256 2 0.441604 0.0825822 0.43908
459 4 0.013953 0.165406 0.475159
2653 2 0.0385677 0.201527 0.433262
2655 4 0.03567 0.221464 0.448071
346 2 0.0605334 0.240311 0.467324
347 4 0.0844041 0.243083 0.474229
348 4 0.0366627 0.237539 0.460418
2849 4 0.0278901 0.240328 0.441138
2848 2 0.0204516 0.2542 0.421711
260 4 0.0889233 0.17189 0.453337
259 2 0.109548 0.177197 0.466439
261 4 0.130172 0.182504 0.47954
1035 4 0.145785 0.195521 0.479246
1033 2 0.1512 0.214267 0.494881
375 4 0.24041 0.207974 0.421407
373 2 0.253775 0.226457 0.431652
374 4 0.267141 0.244939 0.441896
650 4 0.27915 0.247577 0.457617
649 2 0.286804 0.237419 0.479144
715 2 0.333793 0.244343 0.44471
716 4 0.337784 0.236827 0.468221
575 4 0.391017 0.187041 0.444524
574 2 0.374435 0.183285 0.462857
266 4 0.393474 0.204897 0.440411
576 4 0.357853 0.179528 0.48119
265 2 0.404003 0.227523 0.441953
267 4 0.414533 0.250149 0.443495
583 2 0.458127 0.24068 0.444468
584 4 0.480646 0.231882 0.438093
585 4 0.435607 0.249479 0.450843
2613 4 0.993513 0.313969 0.49586
327 4 0.135892 0.28198 0.440726
325 2 0.156233 0.285139 0.454919
991 2 0.152046 0.323512 0.497014
326 4 0.176574 0.288297 0.469113
992 4 0.174885 0.329904 0.489096
9 3 0.190615 0.300007 0.458659
6 1 0.201297 0.30704 0.47802
10 3 0.22301 0.300171 0.477848
7 3 0.200625 0.330014 0.478958
696 4 0.17969 0.284601 0.488816
711 4 0.233195 0.31276 0.489179
8 3 0.190424 0.298451 0.496632
509 4 0.277656 0.299997 0.415062
510 4 0.284216 0.261872 0.446751
508 2 0.280936 0.280934 0.430906
717 4 0.329802 0.251859 0.421199
873 4 0.423561 0.308142 0.456822
872 4 0.423356 0.258285 0.460699
871 2 0.423458 0.283214 0.458761
560 4 0.428223 0.327889 0.447312
2812 2 0.0219267 0.338556 0.477253
2814 4 0.0402197 0.346856 0.462365
502 2 0.21158 0.356385 0.415026
504 4 0.228439 0.372838 0.423406
1259 4 0.192406 0.336954 0.495329
772 2 0.229518 0.400778 0.447029
774 4 0.226465 0.40806 0.470753
773 4 0.232571 0.393495 0.423305
709 2 0.242668 0.334002 0.498356
669 4 0.250209 0.405028 0.424723
334 2 0.321102 0.364541 0.462776
335 4 0.314688 0.386692 0.472439
336 4 0.327515 0.34239 0.453112
240 4 0.324636 0.398524 0.483999
1716 4 0.357459 0.375866 0.426549
559 2 0.443885 0.344029 0.458238
1009 2 0.493358 0.344847 0.479191
1011 4 0.476712 0.363348 0.4816
752 4 0.470319 0.365884 0.452081
753 4 0.491304 0.402027 0.424622
926 4 0.471734 0.379257 0.467977
751 2 0.480812 0.383956 0.438351
561 4 0.459547 0.360169 0.469165
925 2 0.458552 0.387911 0.487381
384 4 0.0499087 0.459689 0.465113
382 2 0.0519993 0.445024 0.485256
1393 2 0.131973 0.5006 0.490308
1395 4 0.133488 0.488832 0.468299
634 2 0.187994 0.432777 0.416962
635 4 0.176298 0.452436 0.427056
4 3 0.309559 0.465395 0.434064
5 3 0.32374 0.485579 0.462509
1 1 0.327123 0.467501 0.449079
2 3 0.328145 0.448522 0.462037
3 3 0.347142 0.469818 0.437578
3990 4 0.485642 0.423088 0.420379
1128 4 0.073508 0.00997391 0.50983
939 4 0.0572017 0.0212687 0.511083
937 2 0.0623401 0.0417783 0.52443
938 4 0.0674786 0.0622878 0.537777
1059 4 0.0799653 0.0565716 0.552167
1057 2 0.10232 0.0498641 0.561136
2428 2 0.146877 0.00995702 0.567802
2429 4 0.125457 0.022755 0.566197
1058 4 0.124675 0.0431566 0.570105
2430 4 0.168297 0.997159 0.569408
89 3 0.411144 0.0318915 0.521535
86 1 0.402815 0.0106718 0.525867
90 3 0.386612 0.0117937 0.541831
87 3 0.393798 0.00212673 0.506507
1217 4 0.401111 0.0347736 0.502921
1062 4 0.47889 0.0720055 0.533437
1031 4 0.222521 0.0851739 0.560403
1180 2 0.239831 0.112034 0.531308
1182 4 0.224369 0.100776 0.547412
1151 4 0.195465 0.135566 0.516786
1220 4 0.200479 0.146224 0.53364
1181 4 0.255292 0.123293 0.515203
877 2 0.035936 0.20137 0.534972
1272 4 0.0631606 0.183706 0.554681
879 4 0.0582941 0.190302 0.536643
878 4 0.0135779 0.212438 0.5333
1270 2 0.079861 0.181041 0.573098
695 4 0.161576 0.250896 0.521011
1034 4 0.156615 0.233013 0.510516
1219 2 0.197895 0.169303 0.542906
1221 4 0.19531 0.192382 0.552171
791 4 0.30663 0.244755 0.524738
651 4 0.294457 0.22726 0.500671
1136 4 0.0789071 0.280488 0.511227
1137 4 0.112583 0.316974 0.517182
1135 2 0.0957449 0.298731 0.514204
993 4 0.129206 0.317121 0.504932
1041 4 0.108871 0.327871 0.53211
694 2 0.170633 0.267749 0.504914
790 2 0.312654 0.264413 0.538967
804 4 0.315634 0.299126 0.567807
792 4 0.318678 0.284071 0.553196
812 4 0.333162 0.2991 0.557214
811 2 0.35478 0.294119 0.54568
813 4 0.376398 0.289138 0.534146
2847 4 0.00602117 0.340302 0.560047
1040 4 0.0856701 0.355635 0.566629
2845 2 0.0029468 0.336503 0.535526
1039 2 0.0972706 0.341753 0.549369
1160 4 0.15189 0.395036 0.559689
897 4 0.149262 0.403738 0.577422
1258 2 0.192722 0.351585 0.515602
1159 2 0.173575 0.405877 0.553572
1260 4 0.193039 0.366216 0.535875
710 4 0.252141 0.355245 0.507532
238 2 0.3235 0.409731 0.506322
927 4 0.445371 0.396564 0.506786
383 4 0.0540898 0.430358 0.505399
539 4 0.0695829 0.495233 0.542143
1938 4 0.0493525 0.495316 0.538619
1161 4 0.19526 0.416717 0.547454
1173 4 0.215342 0.417039 0.551789
1171 2 0.229016 0.43695 0.558249
1172 4 0.24269 0.456862 0.56471
1188 4 0.260488 0.489504 0.567166
1186 2 0.274631 0.482257 0.547862
1187 4 0.288774 0.475011 0.528558
239 4 0.322364 0.420937 0.528645
882 4 0.329859 0.439517 0.532689
880 2 0.341765 0.455744 0.547525
1001 4 0.348477 0.485689 0.57459
881 4 0.353671 0.471971 0.562361
661 2 0.410931 0.49354 0.546987
662 4 0.405941 0.491725 0.57142
663 4 0.41592 0.495354 0.522553
1267 2 0.462292 0.459827 0.519786
1269 4 0.484462 0.466715 0.5105
4085 4 0.488224 0.475731 0.528169
1268 4 0.440123 0.452938 0.529073
2319 4 0.0543455 0.0147967 0.637294
944 4 0.1308 0.0457408 0.590752
824 4 0.119181 0.0287901 0.584865
943 2 0.135867 0.0687771 0.599048
823 2 0.111686 0.0213403 0.607525
825 4 0.10419 0.0138904 0.630186
100 3 0.246225 0.0514386 0.661643
98 3 0.208717 0.0512929 0.65836
97 3 0.228619 0.0202067 0.651275
951 4 0.310088 0.0270218 0.650483
1092 4 0.326773 0.0166775 0.65754
949 2 0.28708 0.0343562 0.656964
950 4 0.264071 0.0416906 0.663444
1090 2 0.347018 0.0130002 0.643333
2283 4 0.37726 0.0164863 0.612703
2281 2 0.401908 0.0127621 0.610752
1091 4 0.367262 0.00932283 0.629127
3007 2 0.480403 0.0490859 0.616117
3009 4 0.468242 0.0708601 0.617899
2282 4 0.426555 0.00903782 0.608801
3008 4 0.492564 0.0273117 0.614335
1083 4 0.0797444 0.166172 0.67112
945 4 0.140934 0.0918134 0.607345
1155 4 0.143362 0.15293 0.614995
1030 2 0.213586 0.0866733 0.583707
1032 4 0.20465 0.0881728 0.607011
1282 2 0.211893 0.119746 0.633765
1283 4 0.207038 0.0967417 0.625255
1284 4 0.216749 0.14275 0.642275
1211 4 0.220806 0.162563 0.641322
900 4 0.360244 0.161216 0.61405
809 4 0.46137 0.0866404 0.629566
808 2 0.442721 0.0956435 0.643579
810 4 0.424073 0.104647 0.657593
1081 2 0.0640267 0.176763 0.654811
1082 4 0.048309 0.187353 0.638502
1208 4 0.066462 0.230336 0.659663
1200 4 0.0047096 0.202737 0.60613
1271 4 0.0965614 0.178376 0.591514
1153 2 0.125963 0.170247 0.610244
1154 4 0.108564 0.187564 0.605492
1210 2 0.234145 0.183684 0.640241
1212 4 0.247484 0.204805 0.63916
888 4 0.280198 0.231926 0.62178
886 2 0.293051 0.212216 0.613323
887 4 0.305903 0.192507 0.604865
806 4 0.29372 0.233853 0.63585
1238 4 0.265258 0.244877 0.62236
898 2 0.369572 0.183869 0.619054
899 4 0.378899 0.206521 0.624058
1194 4 0.390939 0.220402 0.614693
1192 2 0.38458 0.244344 0.6113
830 4 0.385849 0.222938 0.634431
829 2 0.39006 0.217809 0.658538
905 4 0.479932 0.246846 0.614416
857 4 0.138505 0.285421 0.623383
856 2 0.162163 0.293475 0.62259
858 4 0.185821 0.301528 0.621796
797 4 0.204248 0.313458 0.627627
796 2 0.223979 0.328103 0.632251
802 2 0.299088 0.289911 0.584132
803 4 0.282542 0.280696 0.600457
1239 4 0.258061 0.293725 0.614436
1237 2 0.261659 0.269301 0.618398
805 2 0.300963 0.250825 0.652724
1064 4 0.299353 0.326542 0.613302
1193 4 0.378221 0.268286 0.607906
1025 4 0.382614 0.28075 0.625414
1024 2 0.405789 0.285577 0.633463
904 2 0.46106 0.261229 0.622299
1026 4 0.428965 0.290404 0.641511
954 4 0.44753 0.293225 0.637789
952 2 0.456476 0.31545 0.644944
906 4 0.442187 0.275612 0.630182
983 4 0.00344675 0.339511 0.626716
3275 4 0.0195634 0.341618 0.637855
3274 2 0.0282423 0.362197 0.649095
3276 4 0.0369212 0.382777 0.660335
895 2 0.134111 0.393749 0.594622
896 4 0.11896 0.38376 0.611823
798 4 0.24371 0.342749 0.636874
1191 4 0.219125 0.395899 0.60119
1029 4 0.244467 0.36042 0.646851
1027 2 0.232651 0.377302 0.661012
1189 2 0.208364 0.415834 0.611771
1065 4 0.263681 0.350907 0.638492
1063 2 0.281517 0.338724 0.625897
953 4 0.465423 0.337675 0.652098
1190 4 0.197603 0.435769 0.622353
1176 4 0.241962 0.450464 0.646331
1174 2 0.231802 0.432947 0.660998
929 4 0.317596 0.486886 0.646617
1000 2 0.368831 0.483612 0.588963
1002 4 0.389185 0.481534 0.603336
4149 4 0.402363 0.48618 0.589486
4147 2 0.424791 0.486844 0.600519
2167 2 0.470047 0.483869 0.632305
2168 4 0.472332 0.482701 0.657176
4148 4 0.447219 0.487507 0.611552
2169 4 0.467762 0.485037 0.607433
2991 4 0.0556228 0.0353504 0.721673
1185 4 0.0732671 0.00994942 0.708406
2989 2 0.0347223 0.0371477 0.735279
96 1 0.227387 0.0389703 0.664524
2202 4 0.232359 0.022768 0.704556
99 3 0.225565 0.0323875 0.6867
2262 4 0.228735 0.0110341 0.686302
2200 2 0.240891 0.0119475 0.72542
1004 4 0.331073 0.0429206 0.719947
1003 2 0.340798 0.0408915 0.697002
1005 4 0.350524 0.0388624 0.674057
2321 4 0.478743 0.0434915 0.70075
2320 2 0.456281 0.0462146 0.711389
2322 4 0.433818 0.0489377 0.722028
1163 4 0.474953 0.0474458 0.682312
1162 2 0.493101 0.0601752 0.670745
1113 4 0.429292 0.0523952 0.74124
850 2 0.0622736 0.136669 0.6995
851 4 0.0461101 0.123877 0.713652
1077 4 0.0295221 0.114959 0.705495
864 4 0.0347769 0.106324 0.72433
862 2 0.0432655 0.106343 0.747848
1075 2 0.00629906 0.123285 0.701427
852 4 0.0784371 0.149462 0.685348
909 4 0.0952037 0.151737 0.670462
907 2 0.117969 0.154542 0.680414
908 4 0.140735 0.157348 0.690365
1227 4 0.137892 0.150656 0.709786
1225 2 0.158457 0.143209 0.721902
1226 4 0.179022 0.135762 0.734018
43 3 0.388655 0.0915021 0.691918
1141 2 0.390221 0.134719 0.739891
1142 4 0.399607 0.12339 0.719674
44 3 0.396395 0.127832 0.699958
41 1 0.404416 0.108431 0.690075
45 3 0.409161 0.112275 0.668135
3204 4 0.432332 0.119236 0.70546
3202 2 0.454939 0.129324 0.708969
3203 4 0.477546 0.139413 0.712478
42 3 0.423615 0.101933 0.700953
148 3 0.473623 0.157022 0.688201
3485 4 0.494991 0.143433 0.72397
3053 4 0.49473 0.130723 0.708923
149 3 0.498996 0.160467 0.716285
3484 2 0.498399 0.136074 0.747622
1207 2 0.070522 0.233313 0.684155
1209 4 0.0745819 0.23629 0.708646
946 2 0.0830721 0.240146 0.740467
947 4 0.0612348 0.228045 0.741833
977 4 0.245753 0.245985 0.737314
976 2 0.222498 0.251234 0.744854
918 4 0.263426 0.237716 0.736738
916 2 0.280625 0.222435 0.726948
917 4 0.297825 0.207154 0.717157
831 4 0.394271 0.21268 0.682644
1263 4 0.412288 0.217131 0.710799
150 3 0.481473 0.190884 0.70267
1261 2 0.435061 0.227178 0.713169
1262 4 0.457834 0.237224 0.715538
3356 4 0.495248 0.253119 0.680058
146 1 0.490144 0.170513 0.697335
948 4 0.104909 0.252248 0.739101
807 4 0.308205 0.267796 0.669597
1008 4 0.35366 0.296096 0.678854
1006 2 0.377169 0.304459 0.680464
1007 4 0.400677 0.312821 0.682074
3123 4 0.454279 0.25674 0.722254
3122 4 0.449333 0.30307 0.704094
3121 2 0.451806 0.279905 0.713174
815 4 0.113625 0.353552 0.733098
940 2 0.153228 0.367946 0.734685
942 4 0.130792 0.359853 0.742189
814 2 0.0938268 0.354902 0.748309
1028 4 0.220834 0.394183 0.675174
941 4 0.175664 0.376038 0.727181
1067 4 0.187985 0.390757 0.732745
1066 2 0.200882 0.398108 0.712625
1068 4 0.21378 0.405458 0.692506
1175 4 0.221642 0.41543 0.675664
1206 4 0.45234 0.403444 0.702659
1204 2 0.443075 0.406943 0.725618
859 2 0.478475 0.406928 0.682803
1280 4 0.0847762 0.45664 0.679472
1279 2 0.0884841 0.461329 0.70375
1281 4 0.0921921 0.466019 0.728029
2015 4 0.136232 0.488467 0.73257
1079 4 0.144088 0.470618 0.730915
885 4 0.0920778 0.457556 0.747027
1078 2 0.164588 0.458798 0.738989
2028 4 0.229258 0.495453 0.703768
1080 4 0.185089 0.446977 0.747063
1228 2 0.311916 0.465402 0.718624
1229 4 0.303067 0.456925 0.696829
1230 4 0.320765 0.47388 0.740419
1250 4 0.460625 0.478961 0.673296
860 4 0.463125 0.420187 0.697423
1249 2 0.455733 0.455184 0.679287
1251 4 0.45084 0.431407 0.685277
2990 4 0.0138217 0.0389451 0.748885
1201 2 0.0628606 0.069855 0.784879
1202 4 0.0750335 0.0541149 0.80002
1255 2 0.278054 0.0434528 0.813786
1256 4 0.262347 0.0628213 0.811963
1257 4 0.293761 0.0240842 0.815609
975 4 0.300748 0.0147497 0.83197
1112 4 0.435341 0.0232611 0.781431
1111 2 0.432317 0.0378281 0.761336
1203 4 0.0506877 0.0855951 0.769739
1107 4 0.0349879 0.135197 0.764471
863 4 0.0517542 0.106361 0.771367
1105 2 0.0237874 0.157508 0.763068