ITEM: TIMESTEP
190000
ITEM: NUMBER OF ATOMS
4590
ITEM: BOX BOUNDS pp pp pp
-9.9985700000000008e+00 9.9985700000000008e+00
-9.9985700000000008e+00 9.9985700000000008e+00
-9.9985700000000008e+00 9.9985700000000008e+00
ITEM: ATOMS id type xs ys zs
463 2 0.0810588 0.0543967 0.0241085
465 4 0.0676629 0.0712591 0.0114046
1667 4 0.0763033 0.0284432 0.042047
1666 2 0.0649002 0.0153348 0.060028
464 4 0.0944547 0.0375344 0.0368125
702 4 0.114102 0.0739362 0.0844414
532 2 0.208263 0.0472506 0.020334
534 4 0.22737 0.0530685 0.0353761
533 4 0.189156 0.0414327 0.00529201
490 2 0.291875 0.0421818 0.0457671
491 4 0.282806 0.0203824 0.0539962
492 4 0.300944 0.0639812 0.0375379
295 2 0.403182 0.0903277 0.0810051
745 2 0.448362 0.0605945 0.0314485
746 4 0.438527 0.0567803 0.0541181
747 4 0.458196 0.0644087 0.00877896
2975 4 0.47184 0.0496691 0.00825041
2974 2 0.492849 0.0361116 0.00824896
589 2 0.0287234 0.0928746 0.0503684
590 4 0.00853007 0.0807933 0.0588213
591 4 0.0489167 0.104956 0.0419155
476 4 0.125829 0.171071 0.0687095
700 2 0.110242 0.0955281 0.0724387
701 4 0.106381 0.11712 0.060436
422 4 0.112998 0.126479 0.0193527
421 2 0.12683 0.143379 0.00717815
565 2 0.22016 0.109273 0.0801724
566 4 0.2331 0.0880477 0.0828557
567 4 0.207219 0.130499 0.0774891
360 4 0.275819 0.114256 0.0247309
358 2 0.279297 0.107774 0.000833915
557 4 0.339845 0.156863 0.0299139
296 4 0.383532 0.104846 0.0756862
556 2 0.356673 0.146443 0.0451918
558 4 0.373502 0.136023 0.0604696
771 4 0.454148 0.157213 0.019168
553 2 0.08715 0.217683 0.0172118
554 4 0.10044 0.230955 0.0337172
665 4 0.351388 0.172853 0.0242898
572 4 0.341852 0.237241 0.049468
664 2 0.340752 0.178788 0.00245328
1071 4 0.39985 0.220396 0.994758
770 4 0.48807 0.182495 0.0458306
769 2 0.471109 0.169854 0.0324993
294 4 0.0983577 0.321017 0.010097
292 2 0.104672 0.296899 0.00820061
483 4 0.229964 0.293948 0.0579678
505 2 0.180417 0.285855 0.0798181
507 4 0.183599 0.297974 0.0581805
481 2 0.251211 0.304866 0.0505819
571 2 0.321848 0.250695 0.0428336
573 4 0.301843 0.264148 0.0361992
355 2 0.274026 0.278133 0.00179514
357 4 0.290368 0.296279 0.00716479
482 4 0.272458 0.315783 0.0431961
1069 2 0.408084 0.243353 0.000265774
280 2 0.46862 0.321835 0.00537854
281 4 0.480171 0.300398 0.0110553
322 2 0.435081 0.265152 0.0706477
323 4 0.452782 0.273229 0.0549433
1070 4 0.416319 0.266311 0.00577359
328 2 0.00160028 0.408922 0.999516
330 4 0.00811399 0.40277 0.0228594
454 2 0.145173 0.353237 0.0698123
455 4 0.142332 0.355165 0.0450456
286 2 0.193357 0.357495 0.00768863
287 4 0.207781 0.342477 0.0215308
252 4 0.262289 0.38728 0.0415417
250 2 0.269779 0.400043 0.0616959
956 4 0.36858 0.352905 0.0292671
955 2 0.349464 0.350058 0.0134037
670 2 0.437826 0.343262 0.0678273
671 4 0.462609 0.341055 0.0653554
672 4 0.413043 0.345469 0.0702992
315 4 0.00659162 0.423265 0.0475662
551 4 0.0742045 0.470989 0.0506556
242 4 0.131699 0.489807 0.0650265
552 4 0.103289 0.431921 0.0393207
550 2 0.0887468 0.451455 0.0449881
244 2 0.227523 0.455559 0.0141608
245 4 0.211111 0.46591 0.0299309
246 4 0.243935 0.445209 0.998391
251 4 0.27727 0.412805 0.08185
608 4 0.360714 0.422359 0.0684008
524 4 0.348269 0.497178 0.0692448
607 2 0.336364 0.419032 0.0730024
228 4 0.4746 0.456724 0.0612131
564 4 0.425461 0.464256 0.0314867
562 2 0.446235 0.462428 0.0176932
226 2 0.497314 0.457278 0.0507757
16 1 0.0810259 0.0642499 0.12913
19 3 0.0601482 0.0565003 0.122613
18 3 0.0885998 0.0521698 0.147436
450 4 0.156337 0.0514563 0.140473
20 3 0.0957722 0.0622895 0.111886
448 2 0.17838 0.0520905 0.128689
449 4 0.200424 0.0527247 0.116905
652 2 0.306498 0.0381476 0.160952
654 4 0.298108 0.0544471 0.143949
582 4 0.284063 0.0819552 0.115734
297 4 0.422831 0.0758094 0.086324
1760 4 0.461318 0.00590091 0.143971
17 3 0.0792151 0.0863992 0.13507
235 2 0.156919 0.126557 0.129999
237 4 0.133992 0.131214 0.121176
475 2 0.12697 0.160153 0.0911743
477 4 0.12811 0.149235 0.113639
236 4 0.179846 0.121899 0.138822
580 2 0.279646 0.0942605 0.137047
581 4 0.275229 0.106566 0.15836
630 4 0.410982 0.152165 0.148138
628 2 0.423507 0.151133 0.126523
629 4 0.436032 0.1501 0.104907
379 2 0.0223072 0.173788 0.156422
380 4 0.0152179 0.189712 0.138496
339 4 0.0598825 0.232094 0.129879
337 2 0.082429 0.240539 0.136626
736 2 0.187953 0.19857 0.145003
737 4 0.18325 0.205063 0.12132
354 4 0.251215 0.243686 0.148437
352 2 0.246921 0.22478 0.132648
738 4 0.192656 0.192076 0.168687
353 4 0.242627 0.205874 0.116859
279 4 0.258506 0.244258 0.167443
461 4 0.309368 0.18603 0.131327
460 2 0.325679 0.197414 0.116177
254 4 0.406112 0.189725 0.120991
255 4 0.359569 0.20586 0.112382
462 4 0.341991 0.208798 0.101027
253 2 0.38284 0.197792 0.116687
517 2 0.473484 0.240533 0.114694
518 4 0.483471 0.226338 0.0966956
519 4 0.463496 0.254728 0.132692
656 4 0.0100755 0.271643 0.0831822
703 2 0.0172003 0.304239 0.158413
705 4 0.035775 0.319293 0.151095
647 4 0.0760539 0.310368 0.16012
338 4 0.104975 0.248985 0.143372
506 4 0.177235 0.273736 0.101456
535 2 0.185007 0.338044 0.171887
754 2 0.282944 0.286986 0.12765
755 4 0.280362 0.264591 0.138464
756 4 0.285526 0.309382 0.116836
324 4 0.417381 0.257074 0.0863521
741 4 0.361095 0.286481 0.133691
622 2 0.422848 0.279501 0.142866
624 4 0.40021 0.268883 0.142832
739 2 0.358862 0.304312 0.116306
740 4 0.356629 0.322142 0.0989203
527 4 0.499077 0.283845 0.178154
623 4 0.445485 0.290118 0.1429
526 2 0.477262 0.271696 0.176865
456 4 0.148014 0.351309 0.094579
416 4 0.146753 0.411561 0.154232
537 4 0.166024 0.330601 0.157415
625 2 0.229891 0.413132 0.12645
626 4 0.231881 0.395335 0.109001
612 4 0.247446 0.353201 0.155315
387 4 0.37823 0.346872 0.136612
385 2 0.374003 0.358407 0.114834
386 4 0.369776 0.369942 0.0930568
11 1 0.411615 0.345777 0.159489
13 3 0.397247 0.349251 0.141603
595 2 0.493136 0.37539 0.152613
15 3 0.433027 0.343804 0.151987
494 4 0.440501 0.428147 0.162527
627 4 0.227901 0.430928 0.1439
639 4 0.244054 0.439713 0.138467
637 2 0.254674 0.448609 0.159281
1439 4 0.232025 0.493925 0.109582
609 4 0.312014 0.415705 0.077604
523 2 0.353011 0.496765 0.0937912
525 4 0.357752 0.496353 0.118338
658 2 0.387871 0.475076 0.151315
659 4 0.393423 0.498281 0.143837
660 4 0.382319 0.451872 0.158792
495 4 0.447003 0.436899 0.113723
493 2 0.443752 0.432523 0.138125
673 2 0.105968 0.0420207 0.221267
674 4 0.119558 0.0510016 0.202297
689 4 0.206599 0.0123606 0.219277
693 4 0.225414 0.0701308 0.190719
723 4 0.199425 0.078967 0.227755
1505 4 0.267581 0.0153862 0.170784
653 4 0.314887 0.0218482 0.177956
21 1 0.373771 0.0538144 0.232275
24 3 0.360922 0.0412535 0.217595
25 3 0.394796 0.0564245 0.223922
759 4 0.405269 0.0616485 0.207466
22 3 0.364027 0.0744902 0.234867
757 2 0.424477 0.0706409 0.194224
758 4 0.443686 0.0796334 0.180983
381 4 0.0293966 0.157865 0.174348
511 2 0.0192746 0.162405 0.237714
512 4 0.0288762 0.149852 0.218339
577 2 0.12887 0.11125 0.204443
578 4 0.147301 0.128104 0.203237
579 4 0.11044 0.0943968 0.205648
691 2 0.244129 0.0811342 0.178315
721 2 0.187094 0.0994175 0.235165
546 4 0.177847 0.135815 0.231175
544 2 0.17432 0.155231 0.246531
722 4 0.174764 0.119868 0.242575
692 4 0.262844 0.0921376 0.165911
26 1 0.320428 0.155657 0.247857
28 3 0.324567 0.159662 0.225379
310 2 0.38745 0.127484 0.196764
312 4 0.385613 0.111028 0.178029
311 4 0.389286 0.143939 0.215499
332 4 0.472416 0.127325 0.263978
394 2 0.00609573 0.239749 0.216458
363 4 0.074463 0.241096 0.183831
395 4 0.0262091 0.254392 0.213965
392 4 0.100398 0.199123 0.21953
391 2 0.0875845 0.188775 0.238343
370 2 0.147978 0.246495 0.229626
372 4 0.127169 0.254801 0.218526
284 4 0.263701 0.228598 0.176641
371 4 0.168786 0.23819 0.240726
30 3 0.305343 0.17076 0.255792
283 2 0.273407 0.205603 0.178121
285 4 0.283113 0.182608 0.179601
765 4 0.353266 0.212187 0.22039
764 4 0.389381 0.204085 0.186763
763 2 0.371324 0.208136 0.203576
520 2 0.476271 0.208173 0.221227
521 4 0.468578 0.231574 0.216934
528 4 0.455446 0.259547 0.175576
361 2 0.0784683 0.264845 0.190547
648 4 0.0834305 0.329283 0.20582
362 4 0.0824737 0.288594 0.197263
646 2 0.0797422 0.319825 0.18297
343 2 0.217729 0.280928 0.227435
344 4 0.231707 0.260404 0.224513
345 4 0.20375 0.301453 0.230358
277 2 0.257109 0.265913 0.179865
536 4 0.20399 0.345487 0.186358
278 4 0.255712 0.287568 0.192287
307 2 0.280663 0.288919 0.227921
309 4 0.26494 0.283947 0.209126
308 4 0.296386 0.293892 0.246715
12 3 0.405538 0.326375 0.170249
262 2 0.0315176 0.403986 0.214535
264 4 0.0104075 0.395768 0.225119
298 2 0.147769 0.337258 0.236507
299 4 0.131189 0.341298 0.218232
610 2 0.267274 0.33953 0.162035
611 4 0.287102 0.325859 0.168754
301 2 0.326448 0.408583 0.190542
14 3 0.410063 0.36345 0.174445
729 4 0.329817 0.348514 0.246171
302 4 0.329526 0.385575 0.199835
597 4 0.477083 0.358704 0.16205
643 2 0.446295 0.392856 0.199905
644 4 0.445776 0.414197 0.212923
645 4 0.446813 0.371515 0.186888
108 3 0.492552 0.394568 0.19812
263 4 0.0526277 0.412203 0.203951
415 2 0.138473 0.418924 0.176646
417 4 0.130193 0.426287 0.199061
291 4 0.185407 0.475963 0.187597
289 2 0.197074 0.457627 0.19996
290 4 0.208742 0.439292 0.212323
638 4 0.265294 0.457505 0.180096
303 4 0.323369 0.43159 0.181249
768 4 0.28296 0.464606 0.187335
767 4 0.289386 0.447602 0.233922
766 2 0.286173 0.456104 0.210629
232 2 0.999686 0.0539035 0.277935
233 4 0.00867052 0.0351326 0.291795
1402 2 0.0757357 0.0113218 0.267016
675 4 0.0923776 0.0330399 0.240236
1464 4 0.153502 0.0209749 0.270017
1403 4 0.0769958 0.0242619 0.245659
730 2 0.160879 0.074517 0.309669
732 4 0.167112 0.0544976 0.323291
688 2 0.210583 0.0119322 0.243957
690 4 0.214567 0.0115038 0.268638
248 4 0.232884 0.0729003 0.277455
23 3 0.374712 0.0433212 0.252949
698 4 0.365785 0.0316045 0.321599
479 4 0.481035 0.0548247 0.314605
743 4 0.440528 0.0756858 0.279328
742 2 0.437926 0.0547208 0.265953
744 4 0.435324 0.0337558 0.252579
478 2 0.473911 0.0328557 0.305024
480 4 0.466788 0.0108867 0.295443
351 4 0.432587 0.0853883 0.294165
529 2 0.0219027 0.147848 0.290877
530 4 0.0381099 0.148893 0.309888
531 4 0.00569557 0.146803 0.271866
731 4 0.154646 0.0945364 0.296047
249 4 0.225533 0.122171 0.281822
247 2 0.229208 0.0975357 0.279639
403 2 0.228844 0.162166 0.289781
404 4 0.230349 0.137603 0.294204
29 3 0.312302 0.134109 0.250698
631 2 0.366577 0.104807 0.273018
632 4 0.378266 0.120648 0.257604
633 4 0.354888 0.0889656 0.288432
349 2 0.449468 0.086565 0.312572
331 2 0.473813 0.14829 0.250424
350 4 0.466349 0.0877417 0.33098
452 4 0.47821 0.128076 0.341293
513 4 0.00967293 0.174958 0.25709
393 4 0.0747714 0.178427 0.257156
545 4 0.170793 0.174646 0.261886
405 4 0.227338 0.186729 0.285357
27 3 0.340132 0.157774 0.259538
707 4 0.332588 0.174061 0.269171
706 2 0.347405 0.184825 0.286193
708 4 0.362222 0.19559 0.303216
333 4 0.47521 0.169255 0.236871
420 4 0.411308 0.250657 0.304186
522 4 0.483964 0.184773 0.22552
762 4 0.466997 0.183673 0.249529
761 4 0.446211 0.206841 0.288667
760 2 0.456604 0.195257 0.269098
444 4 0.0496322 0.2864 0.313504
442 2 0.0335062 0.281715 0.294979
748 2 0.0896116 0.281033 0.252522
750 4 0.0792892 0.258729 0.247921
2493 4 0.0147979 0.312624 0.334234
443 4 0.0173803 0.277029 0.276454
749 4 0.099934 0.303336 0.257123
390 4 0.114007 0.271054 0.304245
388 2 0.135105 0.281427 0.312758
389 4 0.156203 0.291799 0.321271
400 2 0.216891 0.279266 0.314506
402 4 0.223534 0.292855 0.294596
496 2 0.322577 0.303038 0.276528
498 4 0.314353 0.290987 0.256223
497 4 0.330802 0.31509 0.296834
543 4 0.395712 0.323287 0.312583
615 4 0.349866 0.343299 0.317797
418 2 0.431405 0.253994 0.318683
541 2 0.413971 0.311194 0.300519
542 4 0.43223 0.299101 0.288454
419 4 0.451502 0.257331 0.33318
366 4 0.0403998 0.344297 0.265435
364 2 0.0190312 0.341212 0.278046
601 2 0.071595 0.391701 0.316205
603 4 0.0706949 0.366729 0.315323
300 4 0.164348 0.333219 0.254783
677 4 0.12481 0.347955 0.313334
676 2 0.147229 0.345545 0.324139
734 4 0.168022 0.342924 0.272277
735 4 0.200117 0.379422 0.284045
733 2 0.184069 0.361173 0.278161
728 4 0.348512 0.39421 0.254114
727 2 0.339165 0.371362 0.250142
447 4 0.431586 0.365245 0.258818
445 2 0.431914 0.380778 0.278408
446 4 0.432243 0.396312 0.297998
118 3 0.472733 0.425524 0.312897
602 4 0.0724951 0.416673 0.317087
777 4 0.0721316 0.478159 0.317965
414 4 0.143571 0.474209 0.293445
412 2 0.158113 0.470403 0.313426
413 4 0.172655 0.466596 0.333406
436 2 0.273325 0.432602 0.295039
437 4 0.293918 0.423875 0.283862
438 4 0.252731 0.441329 0.306217
231 4 0.394046 0.485672 0.253152
713 4 0.405917 0.487241 0.2988
712 2 0.421498 0.469025 0.291686
714 4 0.437079 0.450809 0.284573
119 3 0.481361 0.446132 0.343642
116 1 0.483653 0.425453 0.33337
316 2 0.0373196 0.0454643 0.35434
317 4 0.0290821 0.0636797 0.369357
318 4 0.045557 0.0272488 0.339322
427 2 0.0899815 0.0166538 0.359652
428 4 0.10897 0.0286015 0.370692
1699 2 0.240935 0.998196 0.340233
441 4 0.223122 0.0185375 0.388135
1701 4 0.244317 0.0141848 0.359156
439 2 0.24509 0.030465 0.387568
440 4 0.267058 0.0423925 0.387001
683 4 0.336796 0.0686111 0.379619
697 2 0.357827 0.0348414 0.34508
699 4 0.349869 0.0380782 0.368561
256 2 0.412274 0.0681091 0.406883
398 4 0.0665285 0.12591 0.343197
397 2 0.081512 0.109416 0.354537
606 4 0.153384 0.0840086 0.380368
399 4 0.0964955 0.0929217 0.365878
687 4 0.136574 0.147588 0.403976
685 2 0.157154 0.160091 0.410709
604 2 0.177768 0.0786618 0.378954
605 4 0.202152 0.073315 0.37754
598 2 0.192017 0.154803 0.35532
599 4 0.21375 0.144022 0.361373
474 4 0.229205 0.155498 0.352592
682 2 0.319477 0.0844629 0.388218
684 4 0.302157 0.100315 0.396817
467 4 0.324666 0.159923 0.40047
466 2 0.342398 0.151773 0.384839
468 4 0.360131 0.143623 0.369209
257 4 0.429141 0.0807284 0.393413
451 2 0.463951 0.134336 0.360855
453 4 0.449692 0.140597 0.380417
514 2 0.426812 0.137475 0.401449
515 4 0.437483 0.154215 0.386249
516 4 0.41614 0.120734 0.41665
2654 4 0.00146041 0.178007 0.348686
600 4 0.170284 0.165584 0.349267
274 2 0.233431 0.240909 0.395139
472 2 0.24748 0.169692 0.362065
276 4 0.247808 0.220453 0.395042
473 4 0.265754 0.183886 0.371539
715 2 0.357987 0.222454 0.373496
716 4 0.369093 0.204242 0.360451
717 4 0.346881 0.240667 0.38654
305 4 0.46702 0.197441 0.417419
304 2 0.480579 0.218274 0.414712
616 2 0.102153 0.320919 0.352846
617 4 0.123338 0.307665 0.353696
678 4 0.169649 0.343135 0.334944
401 4 0.210249 0.265677 0.334415
275 4 0.219053 0.261365 0.395235
375 4 0.210655 0.258752 0.414134
487 2 0.296029 0.252046 0.399474
488 4 0.316249 0.247383 0.385524
376 2 0.286839 0.311911 0.364945
377 4 0.307379 0.302199 0.375385
378 4 0.2663 0.321622 0.354505
509 4 0.250865 0.33432 0.359489
268 2 0.470788 0.285643 0.385463
269 4 0.45737 0.270184 0.39982
270 4 0.484207 0.301102 0.371106
2927 4 0.00955815 0.394059 0.378841
408 4 0.0631938 0.377218 0.374173
406 2 0.0758986 0.398695 0.375757
618 4 0.0809681 0.334172 0.351995
508 2 0.227726 0.338952 0.367753
510 4 0.204587 0.343585 0.376017
504 4 0.245638 0.40115 0.397898
435 4 0.314358 0.358778 0.343988
433 2 0.319793 0.382863 0.340044
613 2 0.368587 0.353837 0.33059
614 4 0.387309 0.364375 0.343382
434 4 0.325228 0.406948 0.336099
336 4 0.355831 0.405478 0.402608
2924 4 0.508349 0.366042 0.362487
561 4 0.45978 0.365362 0.399243
751 2 0.438829 0.401179 0.394899
752 4 0.458367 0.385782 0.39742
548 4 0.0554704 0.428236 0.356079
547 2 0.0438129 0.447001 0.367789
549 4 0.0321554 0.465767 0.379499
680 4 0.0331019 0.423185 0.396309
775 2 0.0918077 0.473845 0.332778
407 4 0.0886033 0.420172 0.377341
776 4 0.111484 0.469531 0.347591
499 2 0.124427 0.44709 0.377949
500 4 0.140765 0.435926 0.393234
501 4 0.10809 0.458254 0.362664
502 2 0.234491 0.42109 0.387733
503 4 0.223344 0.441029 0.377567
1556 4 0.250024 0.498621 0.395211
1 1 0.30539 0.470784 0.383969
5 3 0.298996 0.462948 0.363564
4 3 0.288214 0.467891 0.399299
3 3 0.324393 0.459575 0.391155
586 2 0.408199 0.442314 0.413133
594 4 0.409821 0.486242 0.339565
117 3 0.474155 0.40938 0.346808
587 4 0.426654 0.432735 0.399247
753 4 0.41929 0.416577 0.392379
592 2 0.423302 0.481549 0.360094
593 4 0.436783 0.476856 0.380622
1772 4 0.0313192 0.00555308 0.443708
2237 4 0.0529658 0.0173642 0.501002
718 2 0.0384494 0.0753961 0.461618
720 4 0.0472018 0.061811 0.442539
367 2 0.107509 0.0724563 0.463858
369 4 0.116653 0.0499344 0.469718
342 4 0.177005 0.0394767 0.457668
340 2 0.180809 0.0288311 0.47997
962 4 0.301914 0.0161743 0.495907
432 4 0.303716 0.0806614 0.498597
258 4 0.395407 0.0554899 0.420353
424 2 0.384249 0.0424793 0.452213
425 4 0.365889 0.0319617 0.465535
426 4 0.402609 0.0529968 0.438891
3488 4 0.496729 0.0397712 0.490568
1061 4 0.485559 0.0297165 0.503981
719 4 0.0296969 0.0889813 0.480697
457 2 0.00151176 0.160333 0.446059
458 4 0.00643132 0.138432 0.457073
368 4 0.0983654 0.0949781 0.457999
1152 4 0.155537 0.103103 0.473247
321 4 0.217318 0.111402 0.421819
1150 2 0.176669 0.102339 0.48659
319 2 0.23681 0.123476 0.431792
320 4 0.256303 0.135549 0.441765
431 4 0.313528 0.129475 0.503258
430 2 0.308622 0.105068 0.500927
724 2 0.345866 0.103511 0.444956
725 4 0.346345 0.0958085 0.468739
726 4 0.345387 0.111213 0.421173
575 4 0.383688 0.144152 0.458663
2880 4 0.493891 0.0908696 0.443988
642 4 0.436747 0.0978357 0.48126
640 2 0.446211 0.11021 0.500817
260 4 0.0941116 0.164712 0.425964
261 4 0.101387 0.190893 0.467944
259 2 0.0977491 0.177802 0.446954
1035 4 0.110725 0.189235 0.485651
686 4 0.177733 0.172595 0.417442
411 4 0.270347 0.203769 0.489775
409 2 0.293569 0.198693 0.497533
410 4 0.31679 0.193618 0.505291
576 4 0.360036 0.187558 0.451098
574 2 0.371862 0.165855 0.45488
347 4 0.0343311 0.285505 0.413866
346 2 0.0521016 0.269616 0.421412
348 4 0.0698722 0.253728 0.428958
326 4 0.0926964 0.315442 0.427546
694 2 0.112273 0.289307 0.486459
696 4 0.105435 0.28986 0.462415
325 2 0.078297 0.320463 0.447361
8 3 0.147596 0.326521 0.479106
373 2 0.207629 0.276097 0.431887
374 4 0.204602 0.293442 0.44964
489 4 0.275809 0.256709 0.413423
651 4 0.262502 0.286739 0.463359
649 2 0.256831 0.309369 0.472354
650 4 0.25116 0.331999 0.48135
267 4 0.400727 0.278237 0.430058
265 2 0.378631 0.26889 0.423018
266 4 0.356535 0.259543 0.415978
812 4 0.371109 0.301323 0.499838
872 4 0.429268 0.271191 0.50212
583 2 0.472149 0.313976 0.455458
584 4 0.483576 0.302765 0.436251
585 4 0.460722 0.325187 0.474665
681 4 0.031081 0.381051 0.423168
679 2 0.0320914 0.402118 0.409739
9 3 0.121794 0.352123 0.468008
327 4 0.0638975 0.325485 0.467175
6 1 0.14049 0.348504 0.481265
7 3 0.13489 0.352385 0.503236
10 3 0.157211 0.36271 0.475163
773 4 0.250691 0.419247 0.469786
709 2 0.198103 0.367646 0.466509
710 4 0.220396 0.367287 0.455192
711 4 0.17581 0.368005 0.477825
772 2 0.266407 0.408857 0.486225
334 2 0.351471 0.398182 0.426123
238 2 0.374773 0.380864 0.475987
240 4 0.355057 0.393839 0.467733
335 4 0.347111 0.390886 0.449638
239 4 0.394489 0.36789 0.48424
559 2 0.471758 0.35496 0.418569
560 4 0.483735 0.344557 0.437895
539 4 0.0809376 0.484146 0.477081
1383 4 0.0420818 0.497423 0.4446
569 4 0.150849 0.495937 0.434594
538 2 0.0900333 0.504403 0.488575
382 2 0.0994016 0.427428 0.48757
383 4 0.115315 0.441902 0.474825
384 4 0.083488 0.412953 0.500315
568 2 0.168587 0.47894 0.439246
634 2 0.220473 0.442158 0.435832
570 4 0.186324 0.461942 0.443897
635 4 0.197493 0.444901 0.445296
636 4 0.243454 0.439415 0.426369
668 4 0.308595 0.441167 0.432343
667 2 0.284534 0.434767 0.430039
669 4 0.260474 0.428366 0.427734
588 4 0.389743 0.451893 0.427018
1126 2 0.0611608 0.067419 0.533137
1127 4 0.0626902 0.0432806 0.526799
1057 2 0.114543 0.0521063 0.578605
1058 4 0.134644 0.041725 0.567959
2430 4 0.160342 0.0156399 0.553389
341 4 0.184613 0.0181854 0.502272
1181 4 0.252442 0.0635817 0.51779
961 2 0.297684 0.0401261 0.501703
1031 4 0.253673 0.0702541 0.572014
963 4 0.293454 0.0640778 0.5075
841 2 0.363386 0.0483176 0.545764
843 4 0.341769 0.0430574 0.557175
842 4 0.385003 0.0535778 0.534354
1216 2 0.401043 0.0196483 0.575382
1217 4 0.419256 0.00289986 0.578983
1060 2 0.464439 0.0178549 0.510179
1062 4 0.443318 0.00599333 0.516377
88 3 0.427367 0.00572148 0.529178
1128 4 0.0596314 0.0915574 0.539476
939 4 0.0681076 0.105318 0.549559
1200 4 0.00422343 0.160505 0.569829
937 2 0.0887725 0.116849 0.541485
938 4 0.109437 0.12838 0.533411
1151 4 0.197801 0.101574 0.499934
1221 4 0.192482 0.149785 0.561142
1180 2 0.24643 0.0877358 0.515421
1182 4 0.240417 0.11189 0.513052
1030 2 0.237885 0.0872415 0.58136
899 4 0.357738 0.135287 0.541848
898 2 0.354913 0.155181 0.526969
641 4 0.455674 0.122583 0.520375
3159 4 0.497286 0.148498 0.520223
878 4 0.0762459 0.208414 0.51963
877 2 0.0805654 0.206527 0.544185
879 4 0.0848849 0.20464 0.56874
1033 2 0.126278 0.195654 0.504147
1034 4 0.141831 0.202073 0.522642
856 2 0.228005 0.242394 0.549335
858 4 0.22332 0.239957 0.573775
857 4 0.232689 0.24483 0.524895
1219 2 0.19559 0.167969 0.578019
792 4 0.284263 0.256997 0.53507
900 4 0.352088 0.175076 0.512089
983 4 0.0315702 0.319638 0.549267
982 2 0.023732 0.331117 0.570051
695 4 0.119111 0.288755 0.510503
1260 4 0.151358 0.276563 0.582722
1258 2 0.169147 0.273324 0.565453
1259 4 0.186936 0.270084 0.548183
791 4 0.30401 0.257191 0.581013
790 2 0.294137 0.257094 0.558042
813 4 0.339088 0.283433 0.533828
802 2 0.270099 0.322477 0.553054
803 4 0.276588 0.30653 0.571186
873 4 0.388911 0.257196 0.528122
811 2 0.355098 0.292378 0.516833
871 2 0.409089 0.264194 0.515121
1160 4 0.172306 0.400962 0.550168
897 4 0.163619 0.405566 0.568018
804 4 0.263611 0.338424 0.534922
774 4 0.282123 0.398467 0.502665
929 4 0.353124 0.403723 0.558326
928 2 0.357392 0.394032 0.580976
925 2 0.466958 0.403699 0.527076
927 4 0.475958 0.422722 0.540579
926 4 0.457959 0.384677 0.513572
936 4 0.0155527 0.450336 0.54573
1159 2 0.181769 0.423718 0.545949
1161 4 0.191232 0.446474 0.541731
1171 2 0.223012 0.467352 0.562618
1173 4 0.200848 0.461291 0.552759
1172 4 0.245176 0.473413 0.572477
882 4 0.321599 0.46638 0.52705
880 2 0.343601 0.455246 0.522913
881 4 0.365603 0.444112 0.518775
1000 2 0.394745 0.446977 0.559238
1002 4 0.381389 0.444625 0.580244
1952 4 0.371882 0.493392 0.57736
1001 4 0.408102 0.44933 0.538232
662 4 0.492738 0.47847 0.527456
661 2 0.468088 0.480531 0.523812
663 4 0.443437 0.482591 0.520167
1059 4 0.0944413 0.0624876 0.589251
825 4 0.148458 0.0350437 0.653221
1284 4 0.169285 0.079758 0.62241
823 2 0.167478 0.0209758 0.645127
824 4 0.186498 0.0069078 0.637032
949 2 0.27576 0.0191919 0.633808
951 4 0.299283 0.0254217 0.628061
950 4 0.252237 0.0129621 0.639556
1092 4 0.318141 0.0213305 0.632507
1090 2 0.332378 0.0101916 0.649781
1218 4 0.38283 0.0363967 0.571782
1082 4 0.0387542 0.109363 0.638553
1076 4 0.0286808 0.119517 0.652241
1081 2 0.0477428 0.117448 0.616667
1083 4 0.0567315 0.125534 0.59478
1154 4 0.138972 0.160754 0.581885
1153 2 0.136285 0.139175 0.594227
1155 4 0.133598 0.117596 0.606568
909 4 0.134943 0.139616 0.667007
1282 2 0.191368 0.0892144 0.615478
1283 4 0.213452 0.0986708 0.608545
1032 4 0.222098 0.104229 0.590707
1005 4 0.321951 0.0813035 0.650047
809 4 0.453317 0.0917823 0.619477
808 2 0.450257 0.0891981 0.644158
810 4 0.447197 0.086614 0.668838
1271 4 0.129869 0.173583 0.595202
1272 4 0.0955829 0.208373 0.584489
1270 2 0.112726 0.190978 0.589845
1212 4 0.218484 0.183007 0.647596
1220 4 0.198697 0.186154 0.594896
1193 4 0.36273 0.175581 0.636527
1192 2 0.350965 0.182693 0.657412
1024 2 0.453282 0.181899 0.664743
1025 4 0.474798 0.192658 0.657924
906 4 0.490532 0.25452 0.619951
1243 2 0.0410221 0.280352 0.639397
1244 4 0.0563943 0.292593 0.623937
1245 4 0.0256498 0.26811 0.654857
1209 4 0.0758195 0.260798 0.638745
947 4 0.161934 0.275065 0.640222
1207 2 0.0881187 0.253458 0.659239
797 4 0.209409 0.243871 0.586756
796 2 0.224363 0.251175 0.605417
946 2 0.17764 0.294517 0.639923
948 4 0.193346 0.31397 0.639623
798 4 0.239316 0.258479 0.624078
1239 4 0.291248 0.310155 0.647928
1237 2 0.315313 0.31683 0.649143
1238 4 0.339379 0.323505 0.650359
954 4 0.459205 0.281678 0.589005
952 2 0.462472 0.283006 0.613758
953 4 0.465738 0.284334 0.638512
1040 4 0.035268 0.402528 0.62761
1039 2 0.0592234 0.400485 0.620744
984 4 0.0158938 0.342597 0.590834
1137 4 0.10229 0.398715 0.61487
1136 4 0.114997 0.351261 0.605523
1135 2 0.108644 0.374988 0.610197
1041 4 0.0831787 0.398442 0.613878
895 2 0.16208 0.384128 0.580794
1191 4 0.219576 0.367735 0.596548
896 4 0.160542 0.36269 0.59357
1189 2 0.240316 0.381123 0.600523
1190 4 0.261056 0.39451 0.604498
930 4 0.361659 0.38434 0.603627
1204 2 0.415348 0.412958 0.659187
993 4 0.0968189 0.415515 0.624199
992 4 0.143548 0.432056 0.630791
991 2 0.120184 0.423785 0.627495
1188 4 0.255581 0.462691 0.606893
1186 2 0.258074 0.481766 0.622866
889 2 0.323165 0.443217 0.608453
891 4 0.326706 0.438856 0.632818
890 4 0.319624 0.447578 0.584089
1206 4 0.405633 0.430695 0.644483
1951 2 0.35431 0.49121 0.595014
1953 4 0.336738 0.489029 0.612667
1268 4 0.465021 0.495631 0.641772
1267 2 0.456344 0.486004 0.663154
1185 4 0.021884 0.0409484 0.666158
1183 2 0.0209494 0.0181325 0.676344
944 4 0.0566478 0.0488217 0.68469
943 2 0.0791691 0.0578098 0.690788
2990 4 0.00981125 0.0641628 0.741476
945 4 0.10169 0.066798 0.696886
1147 2 0.201594 0.0714976 0.74144
1004 4 0.313875 0.0945325 0.697591
1163 4 0.478114 0.0243983 0.682326
43 3 0.422161 0.0712358 0.700735
1162 2 0.482496 0.0469109 0.692283
2322 4 0.484937 0.0118415 0.73099
45 3 0.428801 0.0924612 0.670354
862 2 0.0556246 0.136509 0.724786
864 4 0.0584459 0.137509 0.699962
1075 2 0.0369655 0.12065 0.675805
863 4 0.0528032 0.135509 0.749609
1077 4 0.0452502 0.121782 0.699369
851 4 0.059395 0.171279 0.705181
833 4 0.0193176 0.132022 0.739327
907 2 0.147955 0.147943 0.686668
908 4 0.160966 0.15627 0.706328
1148 4 0.211278 0.0907525 0.728766
1225 2 0.190037 0.124818 0.718503
1226 4 0.207424 0.110276 0.729058
1227 4 0.17265 0.13936 0.707948
829 2 0.326895 0.155716 0.71349
1003 2 0.317913 0.087918 0.673819
830 4 0.317858 0.174977 0.700356
831 4 0.335933 0.136454 0.726624
44 3 0.407665 0.106282 0.69828
1141 2 0.391726 0.143503 0.697091
1142 4 0.407364 0.125111 0.690582
41 1 0.425763 0.0927853 0.692921
42 3 0.444619 0.10129 0.702984
852 4 0.0383625 0.199505 0.669661
850 2 0.0488788 0.185392 0.687421
1213 2 0.0132711 0.218728 0.746179
1107 4 0.0695167 0.173102 0.72213
1105 2 0.0836906 0.181619 0.740885
1106 4 0.0978645 0.190136 0.75964
1210 2 0.236721 0.19215 0.662053
1211 4 0.254958 0.201292 0.67651
978 4 0.244645 0.200327 0.726195
887 4 0.320838 0.181896 0.681596
886 2 0.297264 0.188983 0.677213
888 4 0.27369 0.196071 0.672829
976 2 0.267189 0.205229 0.735834
977 4 0.289732 0.210132 0.745473
1194 4 0.3392 0.189805 0.678297
1143 4 0.376088 0.161894 0.7036
1026 4 0.431766 0.17114 0.671562
1261 2 0.441356 0.218754 0.724415
1263 4 0.429201 0.198343 0.716615
1262 4 0.453511 0.239165 0.732215
1179 4 0.0133513 0.276351 0.670204
1177 2 0.0153381 0.271861 0.694721
1178 4 0.0173249 0.267371 0.719237
1208 4 0.100418 0.246118 0.679734
820 2 0.166118 0.303934 0.741788
821 4 0.183044 0.285547 0.741003
1065 4 0.24162 0.274587 0.683824
1063 2 0.249273 0.298289 0.686016
1064 4 0.256927 0.321991 0.688208
807 4 0.355279 0.330101 0.714259
805 2 0.353815 0.329738 0.689301
1006 2 0.378925 0.310072 0.74031
1007 4 0.390036 0.290078 0.750409
1008 4 0.367815 0.330066 0.730212
806 4 0.352351 0.329374 0.664343
3123 4 0.488986 0.29093 0.695415
3121 2 0.499907 0.305422 0.712617
892 2 0.0705766 0.346186 0.702026
894 4 0.0491048 0.358772 0.70442
893 4 0.0920484 0.3336 0.699632
940 2 0.150649 0.388068 0.740809
1067 4 0.15008 0.370053 0.679332
941 4 0.163372 0.408119 0.732983
1028 4 0.213438 0.396335 0.671294
1066 2 0.172127 0.381169 0.675387
1068 4 0.194174 0.392286 0.671443
1027 2 0.236916 0.391912 0.67867
1029 4 0.260394 0.387489 0.686046
1205 4 0.425063 0.395222 0.673891
1100 4 0.465279 0.416285 0.73655
1281 4 0.0625729 0.473342 0.714652
1280 4 0.0451546 0.443668 0.678365
1279 2 0.0538637 0.458505 0.696508
1983 4 0.0502076 0.499761 0.748487
1176 4 0.20357 0.503145 0.671278
1138 2 0.304412 0.455188 0.722935
1139 4 0.286223 0.464477 0.73736
1140 4 0.3226 0.445899 0.708511
1228 2 0.368816 0.449911 0.713757
1229 4 0.374092 0.472715 0.704965
1230 4 0.363541 0.427106 0.722549
1269 4 0.447667 0.476377 0.684536
1099 2 0.470089 0.428501 0.715271
1101 4 0.474899 0.440717 0.693991
1249 2 0.483986 0.491513 0.738255
1251 4 0.459145 0.492462 0.740945
1295 4 0.0172275 0.0656616 0.77857
1294 2 0.00256314 0.0552942 0.795966
1203 4 0.0792622 0.074872 0.762854
1201 2 0.0951759 0.0572986 0.770799
1202 4 0.111089 0.0397253 0.778743
1149 4 0.19191 0.0522426 0.754115
1255 2 0.277695 0.0516367 0.798091
1256 4 0.280683 0.0725455 0.811472
1257 4 0.274707 0.0307279 0.784709
1113 4 0.424843 0.0611156 0.766616
1111 2 0.424513 0.0494407 0.788724
844 2 0.477833 0.0555393 0.771962
1112 4 0.424184 0.0377658 0.810832
845 4 0.47608 0.051747 0.796614
846 4 0.479585 0.0593317 0.74731
980 4 0.428193 0.0207345 0.821758
979 2 0.446513 0.012988 0.836908
832 2 0.00629183 0.140854 0.758756
34 3 0.132137 0.125494 0.83039
31 1 0.140633 0.137455 0.812413
35 3 0.133118 0.128496 0.792871
33 3 0.163828 0.137072 0.812895
32 3 0.133522 0.159276 0.813973
840 4 0.242715 0.116445 0.832295
839 4 0.266861 0.0838112 0.803093
838 2 0.254788 0.100128 0.817694
1084 2 0.347808 0.112133 0.793142
1085 4 0.356498 0.112172 0.816586
1086 4 0.339118 0.112095 0.769697
819 4 0.36911 0.107022 0.831583
1214 4 0.0297959 0.225108 0.763826
1074 4 0.107263 0.249288 0.803514
1276 2 0.194617 0.251963 0.754939
1277 4 0.20992 0.232273 0.75312
1131 4 0.169776 0.184959 0.787447
1129 2 0.192022 0.175781 0.780661
1130 4 0.214268 0.166603 0.773874
918 4 0.293039 0.228191 0.752163
916 2 0.292666 0.241277 0.773465
917 4 0.292294 0.254364 0.794767
1298 4 0.346257 0.193582 0.751388
1299 4 0.372978 0.170622 0.786878
47 3 0.406086 0.174826 0.807089
1297 2 0.359618 0.182102 0.769133
1042 2 0.416701 0.240717 0.813376
1144 2 0.483187 0.190923 0.792828
50 3 0.438005 0.176693 0.82634
46 1 0.427791 0.18244 0.806813
48 3 0.438915 0.172744 0.788907
1043 4 0.432426 0.221327 0.814752
49 3 0.427613 0.205524 0.804468
1145 4 0.467278 0.200771 0.809413
822 4 0.149192 0.322321 0.742573