ITEM: TIMESTEP
300000
ITEM: NUMBER OF ATOMS
4590
ITEM: BOX BOUNDS pp pp pp
-9.9985700000000008e+00 9.9985700000000008e+00
-9.9985700000000008e+00 9.9985700000000008e+00
-9.9985700000000008e+00 9.9985700000000008e+00
ITEM: ATOMS id type xs ys zs
463 2 0.0771083 0.0522293 0.023219
465 4 0.0686665 0.0721362 0.010664
1667 4 0.0749695 0.0227684 0.0495517
1666 2 0.0788015 0.0149035 0.0729747
464 4 0.0855501 0.0323223 0.0357741
590 4 0.00951499 0.078642 0.0416237
532 2 0.217712 0.0602971 0.0206375
534 4 0.234706 0.0772983 0.0275178
533 4 0.200718 0.0432959 0.0137572
490 2 0.287032 0.0388427 0.05764
491 4 0.277404 0.0159705 0.0606957
492 4 0.296661 0.061715 0.0545843
745 2 0.442116 0.0521405 0.04304
746 4 0.425448 0.0621839 0.0587392
747 4 0.458785 0.0420971 0.0273407
2975 4 0.471296 0.0286012 0.0186012
2974 2 0.494705 0.0331021 0.0110569
1826 4 0.480474 0.0135901 0.0466158
2468 4 0.491953 0.0680538 0.0439597
589 2 0.0331095 0.0858233 0.0457357
591 4 0.0567039 0.0930046 0.0498477
3233 4 0.0178224 0.150241 0.00964638
2624 4 0.998986 0.159027 0.0856897
701 4 0.0892306 0.104158 0.0620112
421 2 0.153687 0.148058 0.00487177
700 2 0.100752 0.09295 0.0811636
423 4 0.169436 0.165809 0.0127494
475 2 0.13906 0.1645 0.0853469
566 4 0.191749 0.115734 0.0781246
360 4 0.284778 0.116321 0.0247606
358 2 0.288004 0.112809 0.000215838
295 2 0.398269 0.0984723 0.0784754
557 4 0.354435 0.153138 0.0364647
296 4 0.377965 0.109208 0.0685921
556 2 0.360953 0.130349 0.0444245
558 4 0.367471 0.10756 0.0523843
771 4 0.442572 0.145048 0.0353112
769 2 0.459956 0.162965 0.033907
555 4 0.0628676 0.214163 0.014173
553 2 0.0843705 0.203414 0.0210481
554 4 0.105873 0.192665 0.0279231
476 4 0.155306 0.177034 0.0710599
664 2 0.343243 0.171015 0.0106887
665 4 0.343061 0.168397 0.0355542
324 4 0.410334 0.240385 0.0650016
770 4 0.47734 0.180881 0.0325028
655 2 0.997723 0.272022 0.0702238
294 4 0.0974347 0.297166 0.0157223
292 2 0.115297 0.290543 0.999528
483 4 0.221234 0.30914 0.0659875
507 4 0.183087 0.274388 0.0674081
481 2 0.239288 0.29495 0.0560941
572 4 0.319072 0.26082 0.0471106
571 2 0.294232 0.263095 0.0453936
573 4 0.269391 0.26537 0.0436767
482 4 0.257342 0.28076 0.0462007
356 4 0.25516 0.289095 0.00128176
280 2 0.471124 0.328453 0.00124787
281 4 0.485913 0.308899 0.00616023
322 2 0.422053 0.259195 0.0534254
323 4 0.433772 0.278006 0.0418492
105 3 0.496651 0.293091 2.71776e-05
620 4 0.01989 0.344206 0.0826043
454 2 0.154731 0.362106 0.0780084
455 4 0.163586 0.370234 0.0560839
252 4 0.279071 0.375118 0.0430366
250 2 0.30191 0.382231 0.050313
609 4 0.32362 0.409231 0.0602936
251 4 0.324749 0.389345 0.0575894
956 4 0.356062 0.348119 0.0359062
955 2 0.351113 0.343789 0.0117828
672 4 0.407754 0.330744 0.0560919
671 4 0.448407 0.359199 0.0499033
670 2 0.428081 0.344972 0.0529976
551 4 0.0853931 0.44691 0.032477
552 4 0.118914 0.47 0.00342607
550 2 0.102153 0.458455 0.0179515
241 2 0.149465 0.496282 0.0804763
245 4 0.206759 0.463622 0.0237512
244 2 0.214672 0.446383 0.00746171
524 4 0.320685 0.479497 0.0662426
607 2 0.344614 0.417041 0.0714036
608 4 0.365608 0.424851 0.0825136
523 2 0.341065 0.484589 0.0798046
1673 4 0.443655 0.495251 0.0488938
564 4 0.431868 0.483628 0.0372787
562 2 0.429987 0.470603 0.0160189
228 4 0.485102 0.461385 0.0778063
1668 4 0.0826335 0.00703855 0.0963977
19 3 0.0714408 0.0797455 0.12328
18 3 0.0938776 0.0492049 0.126157
16 1 0.092031 0.0719109 0.130565
17 3 0.0936424 0.0752335 0.15327
450 4 0.144002 0.0602796 0.124748
20 3 0.108796 0.0832433 0.120117
448 2 0.166238 0.049838 0.12009
449 4 0.188475 0.0393963 0.115432
652 2 0.294466 0.0508658 0.160641
653 4 0.315399 0.0374014 0.158256
654 4 0.273533 0.0643303 0.163027
486 4 0.333961 0.0129469 0.0972851
1784 4 0.391357 0.000517035 0.159178
1760 4 0.488102 0.0112119 0.143681
702 4 0.112274 0.0817422 0.100316
235 2 0.151596 0.130569 0.127994
237 4 0.136325 0.141482 0.111475
477 4 0.122813 0.151965 0.0996338
236 4 0.166867 0.119656 0.144513
565 2 0.210155 0.122491 0.0936398
567 4 0.228562 0.129247 0.109155
582 4 0.289875 0.115484 0.109529
580 2 0.283551 0.112205 0.133496
581 4 0.277226 0.108926 0.157463
628 2 0.415305 0.15748 0.127765
297 4 0.418573 0.0877363 0.0883586
629 4 0.422502 0.14318 0.108558
380 4 0.0234573 0.178933 0.13837
379 2 0.0150389 0.181503 0.161773
339 4 0.0648036 0.211928 0.11957
337 2 0.0831438 0.219035 0.135007
338 4 0.101484 0.226142 0.150444
736 2 0.195833 0.195382 0.162647
737 4 0.201003 0.212902 0.145574
461 4 0.316562 0.188575 0.141286
460 2 0.328779 0.206345 0.128631
283 2 0.287899 0.23587 0.165796
285 4 0.302863 0.21607 0.162762
630 4 0.408109 0.17178 0.146972
254 4 0.406821 0.221468 0.112256
255 4 0.357127 0.220079 0.106847
462 4 0.340996 0.224115 0.115976
253 2 0.381974 0.220773 0.109551
519 4 0.471835 0.250101 0.134678
656 4 0.999462 0.291534 0.0857626
703 2 0.0324465 0.301248 0.149475
705 4 0.0569651 0.305204 0.152368
704 4 0.00792789 0.297292 0.146582
506 4 0.159874 0.279536 0.1114
353 4 0.218518 0.250713 0.127117
352 2 0.236395 0.257817 0.14309
505 2 0.17148 0.276962 0.0894043
354 4 0.254272 0.264922 0.159062
755 4 0.276351 0.264542 0.150979
754 2 0.289828 0.274812 0.132592
756 4 0.303304 0.285082 0.114205
610 2 0.274273 0.333925 0.162723
284 4 0.272935 0.25567 0.16883
279 4 0.267596 0.278506 0.161611
740 4 0.333234 0.295438 0.0983952
612 4 0.256019 0.334144 0.145637
741 4 0.37642 0.288095 0.122514
739 2 0.354827 0.291767 0.110455
624 4 0.411983 0.273804 0.167533
517 2 0.45427 0.249643 0.116888
518 4 0.436706 0.249184 0.0990984
526 2 0.488967 0.264008 0.160861
528 4 0.46788 0.252602 0.153758
456 4 0.145875 0.353977 0.099933
302 4 0.310163 0.400631 0.167318
387 4 0.393072 0.34653 0.133816
385 2 0.373362 0.359884 0.126174
386 4 0.353653 0.373237 0.118531
13 3 0.404903 0.357773 0.144656
11 1 0.421661 0.35524 0.160504
15 3 0.442069 0.356038 0.150428
597 4 0.481465 0.358253 0.154257
1788 4 0.047594 0.496956 0.0937096
416 4 0.148209 0.428065 0.155067
243 4 0.170981 0.492544 0.0926527
626 4 0.204127 0.426931 0.0952615
625 2 0.215439 0.433278 0.116638
627 4 0.226751 0.439625 0.138014
639 4 0.245035 0.45033 0.137693
637 2 0.251233 0.460578 0.159642
525 4 0.361444 0.48968 0.0933667
658 2 0.388172 0.48385 0.133025
660 4 0.371841 0.465274 0.129361
495 4 0.461745 0.441331 0.114231
493 2 0.459613 0.44256 0.139113
673 2 0.112733 0.0389098 0.223839
674 4 0.113576 0.0545584 0.204356
675 4 0.111891 0.0232611 0.243322
579 4 0.123178 0.0716294 0.200239
723 4 0.204253 0.0773118 0.227513
688 2 0.203599 0.00958682 0.244617
693 4 0.224901 0.0714683 0.181603
1505 4 0.274871 0.00579755 0.164903
21 1 0.371143 0.0479057 0.213848
24 3 0.362936 0.0289446 0.224409
25 3 0.386255 0.0419775 0.197875
759 4 0.399927 0.0526076 0.187085
22 3 0.353636 0.059067 0.203944
23 3 0.381145 0.0619295 0.229395
744 4 0.415652 0.0343546 0.231905
757 2 0.421982 0.0638188 0.183472
758 4 0.444037 0.07503 0.179859
577 2 0.126249 0.0963336 0.197904
578 4 0.12932 0.121038 0.195569
546 4 0.158964 0.127028 0.245443
722 4 0.171007 0.113626 0.236272
691 2 0.244405 0.086464 0.177142
721 2 0.18763 0.0954687 0.231892
544 2 0.167934 0.14698 0.233333
692 4 0.263909 0.10146 0.172681
310 2 0.398001 0.128954 0.178543
311 4 0.375925 0.140546 0.1804
29 3 0.334679 0.149266 0.247449
632 4 0.34475 0.131979 0.249687
312 4 0.420078 0.117362 0.176685
393 4 0.0530888 0.177646 0.227001
512 4 0.0335256 0.173818 0.226582
511 2 0.0156987 0.17072 0.243838
363 4 0.0555181 0.231938 0.183655
381 4 0.00662055 0.184072 0.185177
361 2 0.0634293 0.246538 0.202348
391 2 0.0755081 0.187798 0.222586
392 4 0.0979273 0.19795 0.21817
545 4 0.176904 0.166932 0.221224
738 4 0.190663 0.177862 0.179721
26 1 0.325015 0.170361 0.247418
28 3 0.315401 0.17464 0.226738
765 4 0.359703 0.225726 0.206676
764 4 0.347641 0.18607 0.1787
763 2 0.353672 0.205898 0.192688
647 4 0.0582404 0.286117 0.190447
362 4 0.0713405 0.261139 0.221041
646 2 0.0724855 0.305711 0.19664
371 4 0.116091 0.250935 0.244539
750 4 0.0849972 0.272036 0.229904
370 2 0.136146 0.251175 0.22961
372 4 0.156202 0.251416 0.21468
648 4 0.0867305 0.325305 0.202833
299 4 0.136277 0.322251 0.231433
748 2 0.0912794 0.289589 0.246566
344 4 0.243844 0.279701 0.238066
536 4 0.209264 0.325801 0.195716
343 2 0.22003 0.284111 0.244283
278 4 0.268901 0.282347 0.211453
309 4 0.260291 0.274776 0.229746
277 2 0.268249 0.280426 0.186532
307 2 0.275104 0.289527 0.243462
622 2 0.41067 0.297801 0.174432
623 4 0.409358 0.321798 0.181331
262 2 0.0212879 0.387968 0.213286
264 4 0.00625968 0.378015 0.230615
263 4 0.0363161 0.397921 0.195958
298 2 0.152025 0.336263 0.244882
417 4 0.123746 0.404183 0.191563
415 2 0.135977 0.416124 0.173315
537 4 0.199935 0.367663 0.170002
535 2 0.204599 0.346732 0.182859
611 4 0.292527 0.333706 0.179808
727 2 0.325464 0.364774 0.249182
728 4 0.339624 0.382785 0.23917
14 3 0.420057 0.371994 0.176476
12 3 0.419105 0.334847 0.170836
645 4 0.43235 0.386364 0.171095
643 2 0.447366 0.400145 0.18558
108 3 0.49557 0.400521 0.201707
109 3 0.489201 0.40659 0.23868
644 4 0.462381 0.413926 0.200064
291 4 0.192778 0.473084 0.175743
289 2 0.200011 0.452534 0.188012
290 4 0.207244 0.431983 0.200281
301 2 0.311128 0.425437 0.170303
638 4 0.25743 0.470827 0.181591
303 4 0.312094 0.450242 0.173288
768 4 0.270115 0.461522 0.193901
767 4 0.271635 0.453746 0.243277
766 2 0.270875 0.457634 0.218589
494 4 0.45748 0.443789 0.163995
106 1 0.490313 0.416474 0.217716
110 3 0.47038 0.426267 0.212675
233 4 0.00831619 0.0296628 0.287786
232 2 0.00359144 0.0358445 0.264023
1403 4 0.11527 0.0158138 0.262133
1402 2 0.104352 0.998785 0.27683
730 2 0.151656 0.0684021 0.332084
1462 2 0.15803 0.01858 0.280518
731 4 0.15431 0.0732777 0.307704
1464 4 0.151771 0.0381223 0.266231
690 4 0.217595 0.02769 0.254694
698 4 0.393846 0.0191099 0.313459
742 2 0.42032 0.0521516 0.248836
479 4 0.480678 0.0542626 0.302423
743 4 0.424989 0.0699486 0.265767
478 2 0.474441 0.0325881 0.29163
480 4 0.468205 0.0109137 0.280836
351 4 0.423226 0.0799378 0.281862
529 2 0.00433449 0.156097 0.299231
530 4 0.0177455 0.149202 0.319175
249 4 0.223324 0.130712 0.288965
247 2 0.240675 0.113156 0.292954
404 4 0.209675 0.144614 0.29616
403 2 0.210811 0.169586 0.295641
248 4 0.258025 0.0955994 0.296942
631 2 0.351661 0.121691 0.271403
633 4 0.358572 0.111403 0.293119
349 2 0.434104 0.0946004 0.298946
350 4 0.444982 0.109263 0.31603
405 4 0.211947 0.194559 0.295123
30 3 0.309208 0.171691 0.26376
27 3 0.341369 0.186039 0.251403
707 4 0.347626 0.189583 0.269169
706 2 0.363438 0.190744 0.288503
708 4 0.37925 0.191906 0.307837
760 2 0.492745 0.194047 0.260313
420 4 0.433245 0.232078 0.298889
761 4 0.468455 0.196408 0.265756
418 2 0.447659 0.249976 0.308741
444 4 0.0663341 0.273315 0.313273
442 2 0.0484931 0.269834 0.296105
443 4 0.0306521 0.266352 0.278936
366 4 0.036407 0.308928 0.267157
364 2 0.028761 0.331448 0.259438
390 4 0.0967518 0.262049 0.319262
749 4 0.0975615 0.307141 0.263228
388 2 0.117304 0.272759 0.309879
389 4 0.137857 0.28347 0.300495
676 2 0.157457 0.328157 0.313085
345 4 0.196217 0.288521 0.2505
400 2 0.230465 0.281084 0.326039
402 4 0.220232 0.294574 0.307641
678 4 0.177431 0.315035 0.320436
308 4 0.289918 0.304278 0.257178
496 2 0.312314 0.305767 0.279952
498 4 0.309384 0.301084 0.255567
497 4 0.315244 0.31045 0.304338
541 2 0.414423 0.323961 0.265558
543 4 0.392565 0.335929 0.263519
2538 4 0.493401 0.306278 0.255715
419 4 0.462074 0.267874 0.318592
542 4 0.436281 0.311992 0.267598
601 2 0.079428 0.40454 0.320668
365 4 0.0211151 0.353968 0.251719
677 4 0.137483 0.341279 0.305735
603 4 0.0870057 0.387046 0.30449
734 4 0.17379 0.369153 0.260062
300 4 0.167772 0.350275 0.25833
735 4 0.184808 0.371759 0.308771
733 2 0.179299 0.370456 0.284416
729 4 0.311304 0.346762 0.259194
615 4 0.39422 0.365988 0.295471
613 2 0.397685 0.353256 0.316709
447 4 0.446206 0.378119 0.2872
445 2 0.445067 0.402359 0.293224
1758 4 0.106194 0.485492 0.249466
414 4 0.151935 0.497348 0.305552
777 4 0.0871874 0.49779 0.304151
412 2 0.166248 0.483097 0.32029
775 2 0.0959932 0.486347 0.324564
438 4 0.245672 0.448612 0.283138
1437 4 0.249742 0.494296 0.2942
437 4 0.286805 0.420311 0.285951
436 2 0.266238 0.434461 0.284544
713 4 0.407488 0.492165 0.323196
446 4 0.443929 0.426599 0.299249
712 2 0.417836 0.480598 0.303592
714 4 0.428184 0.469032 0.283988
316 2 0.0334247 0.0521226 0.360335
317 4 0.0173491 0.0601887 0.377704
318 4 0.0495003 0.0440565 0.342966
427 2 0.0897738 0.000409057 0.36302
428 4 0.0898764 0.00983767 0.339863
732 4 0.149003 0.0635265 0.356464
441 4 0.220808 0.0251161 0.380703
439 2 0.232139 0.0473336 0.382481
440 4 0.243471 0.0695511 0.384259
606 4 0.197788 0.0829031 0.396842
1701 4 0.25361 0.0133188 0.331529
697 2 0.383617 0.0267057 0.334973
699 4 0.373389 0.0343015 0.356487
256 2 0.403451 0.0587993 0.40349
257 4 0.416886 0.0672602 0.384174
2654 4 0.00876864 0.15155 0.368003
398 4 0.0824712 0.138525 0.341691
397 2 0.0931482 0.116112 0.344669
399 4 0.103825 0.0936999 0.347646
605 4 0.181435 0.0993339 0.352532
600 4 0.181393 0.130155 0.349703
604 2 0.189611 0.0911185 0.374687
598 2 0.195554 0.150721 0.348406
683 4 0.322796 0.0854816 0.370339
682 2 0.317706 0.0957187 0.392576
684 4 0.312616 0.105956 0.414813
467 4 0.329297 0.167406 0.389546
466 2 0.34278 0.147381 0.383035
468 4 0.356263 0.127356 0.376525
452 4 0.488375 0.133574 0.34986
516 4 0.410864 0.110859 0.407196
451 2 0.465017 0.128422 0.357144
453 4 0.44166 0.123271 0.364428
514 2 0.416597 0.118195 0.38399
515 4 0.422329 0.12553 0.360784
2653 2 0.00330879 0.175908 0.369449
686 4 0.18174 0.168805 0.408268
599 4 0.209715 0.171287 0.347109
474 4 0.22492 0.183151 0.342762
274 2 0.241509 0.233362 0.397326
472 2 0.249678 0.183875 0.346182
276 4 0.257146 0.215583 0.38929
473 4 0.274436 0.1846 0.349602
488 4 0.323421 0.240326 0.382099
715 2 0.363781 0.228865 0.373966
716 4 0.386339 0.226487 0.363447
717 4 0.341222 0.231242 0.384485
306 4 0.495611 0.231746 0.377271
304 2 0.491342 0.217116 0.397094
305 4 0.487073 0.202487 0.416916
347 4 0.0230461 0.265069 0.407531
618 4 0.0920195 0.327982 0.359471
616 2 0.105352 0.308044 0.366535
617 4 0.118684 0.288106 0.373599
275 4 0.225872 0.251141 0.405363
401 4 0.240698 0.267593 0.344436
375 4 0.217122 0.270465 0.406101
487 2 0.301718 0.251301 0.387905
376 2 0.280761 0.31265 0.352852
377 4 0.300516 0.313144 0.337533
378 4 0.261007 0.312156 0.368172
489 4 0.280015 0.262276 0.393711
268 2 0.47376 0.294293 0.361024
269 4 0.490094 0.287185 0.378569
270 4 0.457426 0.301402 0.343478
2927 4 0.0105001 0.380021 0.381403
408 4 0.0481173 0.415012 0.386021
679 2 0.0115221 0.416626 0.404069
681 4 0.00499883 0.396793 0.390312
406 2 0.0709029 0.404834 0.387567
407 4 0.0936885 0.394655 0.389114
508 2 0.24637 0.350984 0.372874
510 4 0.232492 0.369434 0.382473
509 4 0.260248 0.332534 0.363274
435 4 0.296797 0.362842 0.340841
433 2 0.320689 0.369984 0.339005
434 4 0.34458 0.377126 0.33717
614 4 0.40115 0.340524 0.337947
336 4 0.344504 0.394241 0.404592
753 4 0.409636 0.40558 0.39182
120 3 0.494782 0.417704 0.343798
561 4 0.472823 0.379485 0.401602
751 2 0.432095 0.39487 0.394278
752 4 0.454555 0.38416 0.396735
602 4 0.0718503 0.422034 0.336845
548 4 0.0580094 0.435836 0.339598
547 2 0.0365556 0.438275 0.352206
549 4 0.0151019 0.440714 0.364815
776 4 0.104799 0.474905 0.344977
499 2 0.117915 0.452578 0.379052
500 4 0.129861 0.436481 0.393997
501 4 0.105969 0.468675 0.364107
413 4 0.180562 0.468845 0.335027
503 4 0.222946 0.426971 0.355211
1555 2 0.239193 0.493942 0.374803
504 4 0.225867 0.422271 0.404911
502 2 0.224406 0.424621 0.380061
1556 4 0.224173 0.483576 0.391895
1 1 0.315628 0.471971 0.393176
5 3 0.304472 0.479477 0.374796
4 3 0.305574 0.45266 0.401202
2 3 0.314922 0.488088 0.409574
588 4 0.402939 0.47286 0.405798
3 3 0.337793 0.467712 0.387793
1715 4 0.400862 0.492631 0.403255
586 2 0.401736 0.448815 0.399047
594 4 0.411137 0.486488 0.343344
587 4 0.400533 0.42477 0.392297
118 3 0.477168 0.450302 0.337107
117 3 0.465092 0.427305 0.364273
119 3 0.49756 0.445679 0.368843
116 1 0.48378 0.435174 0.353411
592 2 0.428907 0.47707 0.3582
593 4 0.446677 0.467652 0.373056
720 4 0.039601 0.0688212 0.432121
367 2 0.0995155 0.067083 0.462839
369 4 0.106379 0.0433469 0.459008
342 4 0.18341 0.048331 0.497942
1816 2 0.266472 0.0165345 0.43627
1817 4 0.269976 0.0402622 0.443334
258 4 0.390016 0.0503384 0.422805
424 2 0.375589 0.0239887 0.442991
425 4 0.355885 0.00897913 0.446406
426 4 0.395292 0.0389983 0.439576
458 4 0.0170628 0.12408 0.469688
718 2 0.0304306 0.0870735 0.446541
719 4 0.0212603 0.105326 0.460961
457 2 0.00775501 0.145962 0.477416
368 4 0.0926525 0.0908191 0.46667
260 4 0.104384 0.156048 0.442886
687 4 0.143677 0.166625 0.440628
1152 4 0.171654 0.131826 0.474885
1150 2 0.181633 0.109618 0.48058
1151 4 0.191612 0.0874109 0.486275
321 4 0.24147 0.129973 0.420833
319 2 0.256897 0.13978 0.437892
320 4 0.272325 0.149588 0.45495
431 4 0.297345 0.115766 0.473739
726 4 0.331403 0.103647 0.420822
430 2 0.297561 0.096775 0.490001
725 4 0.341961 0.0848452 0.465941
724 2 0.336682 0.0942461 0.443381
685 2 0.162708 0.167715 0.424448
261 4 0.11377 0.193305 0.474894
259 2 0.109077 0.174676 0.45889
1035 4 0.127389 0.195028 0.488505
411 4 0.263413 0.195146 0.486316
409 2 0.283709 0.209425 0.483258
410 4 0.304006 0.223703 0.480201
575 4 0.389871 0.193253 0.436229
574 2 0.380691 0.197866 0.459024
576 4 0.37151 0.20248 0.481819
348 4 0.0605502 0.252434 0.438102
346 2 0.0417982 0.258751 0.422816
325 2 0.0919181 0.320001 0.449157
326 4 0.101657 0.297448 0.453814
694 2 0.117416 0.271106 0.486501
696 4 0.107875 0.281735 0.46598
8 3 0.155797 0.330646 0.456643
373 2 0.216312 0.272142 0.431035
374 4 0.215503 0.273819 0.455969
650 4 0.24509 0.325319 0.493812
651 4 0.271279 0.33012 0.451482
649 2 0.258185 0.327719 0.472647
266 4 0.36519 0.251991 0.413202
267 4 0.406018 0.266602 0.438107
265 2 0.385604 0.259297 0.425654
872 4 0.418152 0.293079 0.487384
812 4 0.347023 0.27064 0.501222
583 2 0.487661 0.314563 0.460399
585 4 0.468868 0.319522 0.476128
327 4 0.0821788 0.342554 0.444501
9 3 0.130454 0.356765 0.445692
6 1 0.141403 0.347354 0.463857
10 3 0.153089 0.363384 0.475044
7 3 0.125778 0.338118 0.477989
383 4 0.0989416 0.403936 0.47096
709 2 0.191788 0.369242 0.471279
710 4 0.212934 0.377081 0.460481
711 4 0.170642 0.361403 0.482077
774 4 0.245105 0.403009 0.493358
772 2 0.248093 0.413197 0.47072
334 2 0.353952 0.396595 0.427622
238 2 0.375344 0.376163 0.483523
240 4 0.360505 0.383968 0.464975
335 4 0.363401 0.398949 0.450651
559 2 0.471682 0.363248 0.420582
560 4 0.470541 0.347012 0.439563
680 4 0.0180455 0.436459 0.417827
384 4 0.0763042 0.447609 0.479957
382 2 0.0876229 0.425772 0.475458
539 4 0.0864296 0.489379 0.487582
636 4 0.245801 0.434335 0.432409
634 2 0.225719 0.449189 0.431296
635 4 0.205638 0.464044 0.430184
570 4 0.184853 0.464346 0.426635
568 2 0.174669 0.485676 0.43479
667 2 0.281523 0.440637 0.433021
773 4 0.251082 0.423386 0.448083
668 4 0.299269 0.457977 0.436113
669 4 0.263777 0.423296 0.429929
1332 4 0.494121 0.493481 0.479001
1126 2 0.0641751 0.0608374 0.546167
1127 4 0.0531692 0.0403359 0.555318
2236 2 0.0628878 0.00217516 0.534022
2238 4 0.0567389 0.0254677 0.540718
1128 4 0.075181 0.081339 0.537016
341 4 0.160435 0.00401865 0.500986
2430 4 0.164441 0.0262611 0.556531
1058 4 0.15059 0.0439345 0.5776
2428 2 0.16948 0.00210667 0.552487
1181 4 0.247694 0.0622921 0.528849
340 2 0.171922 0.0261748 0.499464
432 4 0.297777 0.0777836 0.506263
962 4 0.306081 0.0151203 0.513598
961 2 0.2997 0.0381471 0.506234
963 4 0.29332 0.0611739 0.498869
841 2 0.350079 0.033917 0.540376
843 4 0.332484 0.0242022 0.555249
842 4 0.367673 0.0436318 0.525502
1216 2 0.397388 0.0139221 0.57033
1218 4 0.384171 0.0345563 0.565358
1060 2 0.47538 0.0106794 0.527507
1061 4 0.493554 0.0248724 0.517842
939 4 0.0874271 0.0948956 0.546836
937 2 0.0977161 0.102559 0.525374
938 4 0.108005 0.110222 0.503913
1180 2 0.249635 0.0871291 0.526718
1030 2 0.246636 0.099456 0.583113
1182 4 0.251575 0.111966 0.524587
1031 4 0.261391 0.0909649 0.564801
899 4 0.357514 0.131932 0.535984
898 2 0.34434 0.151776 0.528379
640 2 0.453494 0.100344 0.507254
642 4 0.438138 0.082883 0.516445
641 4 0.468851 0.117804 0.498063
878 4 0.0666552 0.207901 0.511102
877 2 0.0679004 0.206634 0.536042
879 4 0.0691457 0.205366 0.560982
1272 4 0.0792063 0.19084 0.568499
1034 4 0.129239 0.239916 0.510468
1270 2 0.100759 0.18184 0.577426
1033 2 0.128314 0.217472 0.499487
1221 4 0.205056 0.168975 0.533066
856 2 0.233977 0.231292 0.546481
858 4 0.228241 0.231907 0.57081
1219 2 0.20412 0.177453 0.55657
1220 4 0.203185 0.18593 0.580074
857 4 0.239714 0.230678 0.522152
900 4 0.331166 0.17162 0.520773
792 4 0.323585 0.252875 0.525069
695 4 0.126958 0.260476 0.507023
1259 4 0.155113 0.25272 0.564674
790 2 0.306934 0.254939 0.543608
791 4 0.290284 0.257002 0.562147
802 2 0.29785 0.330204 0.566293
813 4 0.341792 0.307364 0.534759
811 2 0.344407 0.289002 0.51799
871 2 0.419223 0.287566 0.511748
873 4 0.420295 0.282053 0.536113
1136 4 0.0817062 0.348399 0.567166
1135 2 0.0626646 0.356695 0.581086
897 4 0.158816 0.395159 0.558772
895 2 0.14759 0.386482 0.57936
1160 4 0.166672 0.412904 0.555839
804 4 0.28417 0.3326 0.545501
1190 4 0.262735 0.391143 0.583837
239 4 0.390183 0.368358 0.502072
925 2 0.481207 0.39981 0.539843
926 4 0.464445 0.384498 0.529367
927 4 0.49797 0.415122 0.550318
935 4 0.0173799 0.427285 0.520258
1159 2 0.182341 0.432175 0.558723
1161 4 0.198009 0.451446 0.561606
1171 2 0.228105 0.478001 0.567171
1173 4 0.214121 0.461944 0.554063
1172 4 0.242088 0.494058 0.580279
882 4 0.328456 0.467414 0.512927
929 4 0.376061 0.418427 0.568
880 2 0.351694 0.459303 0.508524
881 4 0.374932 0.451193 0.504122
1000 2 0.384588 0.429999 0.540802
1002 4 0.394965 0.419204 0.560827
1001 4 0.374212 0.440793 0.520777
1952 4 0.359711 0.500281 0.580834
662 4 0.493197 0.489083 0.539508
661 2 0.474486 0.491106 0.523047
663 4 0.455774 0.49313 0.506586
4085 4 0.496374 0.485914 0.559334
2319 4 0.0716783 0.00861067 0.622749
1057 2 0.133389 0.0364019 0.594109
1059 4 0.116187 0.0288693 0.610617
825 4 0.150835 0.0332618 0.662064
823 2 0.155778 0.0166264 0.644064
949 2 0.278619 0.999989 0.627073
951 4 0.302972 0.00553386 0.628255
1092 4 0.322815 0.0120459 0.626622
1090 2 0.340454 0.999681 0.639316
1082 4 0.0269373 0.114169 0.660401
1081 2 0.025458 0.113295 0.635456
1083 4 0.0239788 0.112421 0.610512
1154 4 0.11877 0.153965 0.587151
1153 2 0.127467 0.131924 0.595134
1155 4 0.136165 0.109883 0.603118
909 4 0.11142 0.132161 0.659896
1284 4 0.171256 0.0877201 0.63176
1282 2 0.193614 0.0935599 0.62221
1283 4 0.215972 0.0993997 0.612661
1032 4 0.23188 0.107947 0.601426
809 4 0.482321 0.110737 0.651589
808 2 0.461831 0.106474 0.66527
852 4 0.0871315 0.189852 0.666377
1258 2 0.164739 0.248487 0.587358
1271 4 0.122311 0.172841 0.586352
1209 4 0.0894413 0.238969 0.623351
797 4 0.215942 0.236073 0.586585
1260 4 0.174365 0.244253 0.610043
1212 4 0.211425 0.181158 0.639919
1210 2 0.23586 0.18235 0.645085
796 2 0.225686 0.241299 0.609011
798 4 0.23543 0.246524 0.631437
886 2 0.293964 0.182031 0.647524
888 4 0.273278 0.168061 0.646066
887 4 0.31465 0.196 0.648982
1211 4 0.260295 0.183542 0.65025
1193 4 0.378973 0.192895 0.619424
1192 2 0.355893 0.192788 0.629039
1194 4 0.332812 0.19268 0.638655
830 4 0.3305 0.189082 0.658245
1025 4 0.461365 0.215111 0.644909
1024 2 0.450214 0.197444 0.658647
1243 2 0.0228606 0.282633 0.624755
1244 4 0.0416161 0.272522 0.611671
1245 4 0.00410508 0.292743 0.637839
1179 4 0.00892081 0.279516 0.652818
1207 2 0.102402 0.252158 0.640181
1208 4 0.115363 0.265348 0.65701
947 4 0.185712 0.259585 0.657719
946 2 0.190344 0.284137 0.658661
948 4 0.194976 0.30869 0.659604
803 4 0.31153 0.327809 0.587085
1239 4 0.279465 0.293658 0.634989
1237 2 0.301216 0.303769 0.642047
1238 4 0.322968 0.31388 0.649105
806 4 0.339035 0.320833 0.657481
954 4 0.48352 0.268924 0.626835
952 2 0.481075 0.292632 0.619279
953 4 0.478631 0.316341 0.611723
983 4 0.0288618 0.335333 0.588183
982 2 0.00412398 0.331777 0.588944
1040 4 0.00857403 0.392539 0.649989
1039 2 0.0194587 0.382818 0.629686
1041 4 0.0303434 0.373098 0.609383
1137 4 0.0436229 0.364991 0.595007
993 4 0.0515999 0.376575 0.611706
991 2 0.0712122 0.386413 0.623696
992 4 0.0908245 0.396251 0.635685
1067 4 0.162494 0.354266 0.658071
896 4 0.136364 0.377805 0.599948
1191 4 0.217793 0.387849 0.605519
1189 2 0.240264 0.389496 0.594678
891 4 0.319254 0.413218 0.611175
928 2 0.373365 0.403196 0.587646
930 4 0.37067 0.387966 0.607291
1205 4 0.428636 0.406306 0.663913
1187 4 0.252154 0.484104 0.630779
1188 4 0.270389 0.441364 0.649259
1186 2 0.261271 0.462734 0.640019
889 2 0.330476 0.435373 0.614065
890 4 0.341699 0.457529 0.616956
1953 4 0.33875 0.477728 0.620238
1951 2 0.34923 0.489005 0.600536
1268 4 0.43169 0.487204 0.602087
1267 2 0.440042 0.495125 0.624284
1204 2 0.431641 0.431129 0.663933
1185 4 0.0387512 0.0105753 0.691055
944 4 0.0641959 0.0296821 0.692976
943 2 0.079436 0.0492948 0.69585
863 4 0.079054 0.0828259 0.744206
945 4 0.0946761 0.0689075 0.698724
1147 2 0.193351 0.0781931 0.742516
1003 2 0.319275 0.0518678 0.681929
1004 4 0.295157 0.0567603 0.686352
1005 4 0.343393 0.0469754 0.677506
1050 4 0.383522 0.0121316 0.735058
43 3 0.405749 0.0625392 0.692987
1163 4 0.459694 0.0504626 0.689962
1162 2 0.483886 0.0545288 0.694799
846 4 0.480349 0.0590773 0.732792
41 1 0.41632 0.082374 0.698752
42 3 0.434835 0.0774995 0.711503
1076 4 0.0250301 0.115911 0.68147
862 2 0.0787997 0.101541 0.727626
864 4 0.0785454 0.120255 0.711047
1075 2 0.0485171 0.122579 0.686862
1077 4 0.0720041 0.129247 0.692255
1107 4 0.0733566 0.141749 0.70948
1105 2 0.0697217 0.153164 0.731427
851 4 0.0795859 0.146986 0.690998
907 2 0.131874 0.13319 0.67424
908 4 0.152328 0.134219 0.688584
1227 4 0.15357 0.134811 0.708839
1225 2 0.173909 0.120726 0.71246
1226 4 0.194248 0.106641 0.716082
1148 4 0.201365 0.1 0.733275
831 4 0.351717 0.16934 0.698998
44 3 0.401946 0.0956888 0.711181
1141 2 0.378308 0.132971 0.706627
1142 4 0.395632 0.115144 0.709319
1143 4 0.360985 0.150799 0.703934
810 4 0.441341 0.102211 0.678951
45 3 0.422861 0.0934421 0.679954
850 2 0.0833587 0.168419 0.678687
1213 2 0.0164993 0.208381 0.734981
978 4 0.239773 0.21089 0.713114
976 2 0.253096 0.208245 0.734106
829 2 0.341108 0.179211 0.678621
1298 4 0.36115 0.192761 0.750298
1026 4 0.439064 0.179776 0.672384
1263 4 0.428547 0.19253 0.715293
1261 2 0.434062 0.216866 0.716882
1262 4 0.439577 0.241202 0.718471
1177 2 0.00240276 0.281579 0.676869
892 2 0.0799642 0.334308 0.711505
822 4 0.158226 0.291238 0.730327
893 4 0.0930498 0.31351 0.706879
820 2 0.182669 0.290709 0.735562
821 4 0.207113 0.290179 0.740796
1065 4 0.237193 0.307875 0.685659
1063 2 0.255377 0.321214 0.696456
807 4 0.372871 0.317471 0.694148
805 2 0.355953 0.319152 0.675814
1006 2 0.387085 0.30833 0.728702
1008 4 0.38165 0.324841 0.710728
1007 4 0.392519 0.29182 0.746675
3121 2 0.484868 0.295689 0.690729
3123 4 0.46081 0.28888 0.690872
3275 4 0.00408927 0.393283 0.672356
894 4 0.0668787 0.355106 0.716131
940 2 0.144638 0.379432 0.728971
942 4 0.123181 0.389209 0.737289
815 4 0.110295 0.391355 0.751617
941 4 0.166095 0.369655 0.720653
1028 4 0.194555 0.40182 0.695644
1066 2 0.170429 0.371082 0.674786
1068 4 0.178365 0.387899 0.691501
1027 2 0.218601 0.397031 0.690744
1029 4 0.242647 0.392242 0.685844
1064 4 0.273561 0.334554 0.707252
1100 4 0.493334 0.393086 0.733032
1099 2 0.4738 0.408182 0.729069
1281 4 0.0546433 0.450322 0.723246
1280 4 0.0452828 0.450751 0.674125
1279 2 0.0499631 0.450536 0.698685
885 4 0.0531878 0.442706 0.741838
1176 4 0.213776 0.491742 0.684183
1174 2 0.238174 0.493162 0.689466
1138 2 0.303939 0.456644 0.743976
1140 4 0.321408 0.440731 0.735804
1175 4 0.262572 0.494583 0.694748
1228 2 0.375678 0.451274 0.715885
1229 4 0.379593 0.473454 0.705028
1230 4 0.371764 0.429093 0.726742
1101 4 0.454266 0.423278 0.725106
1206 4 0.434645 0.455951 0.663953
1251 4 0.457118 0.489891 0.737217
1203 4 0.0782426 0.0631181 0.747508
1195 2 0.133932 0.0138522 0.825059
1201 2 0.0982701 0.0597425 0.762092
1202 4 0.118298 0.056367 0.776675
1149 4 0.185337 0.0563858 0.751757
838 2 0.247804 0.0795121 0.798942
1255 2 0.284094 0.035518 0.786172
1256 4 0.273352 0.0580864 0.786855
1257 4 0.294835 0.0129497 0.785488
839 4 0.254281 0.0628188 0.78149
975 4 0.32169 0.0232392 0.811009
973 2 0.336977 0.0227763 0.830789
2322 4 0.459969 0.00806291 0.754047
1113 4 0.436319 0.037084 0.757448
1111 2 0.437496 0.0254438 0.779546
844 2 0.482841 0.0756048 0.751388
1112 4 0.438673 0.0138035 0.801643
833 4 0.995434 0.124211 0.754381
31 1 0.123612 0.141572 0.810575
35 3 0.118026 0.135602 0.78932
33 3 0.136968 0.160543 0.81022
32 3 0.104448 0.146191 0.822431
34 3 0.134863 0.124157 0.820993
1130 4 0.188952 0.158991 0.766735
840 4 0.241327 0.0962053 0.816393
1086 4 0.3475 0.117238 0.778718
1084 2 0.35834 0.111803 0.800584
1085 4 0.36918 0.106369 0.822451
50 3 0.407434 0.152867 0.816504
1299 4 0.386072 0.163927 0.782674
845 4 0.485332 0.0921323 0.769984
1146 4 0.500247 0.163206 0.790772
1106 4 0.0660868 0.16458 0.753373
1214 4 0.036206 0.206725 0.750281
1131 4 0.156465 0.19629 0.774086
1277 4 0.218443 0.227384 0.769203
1129 2 0.172708 0.177641 0.770411
977 4 0.266419 0.2056 0.755099
918 4 0.286954 0.208533 0.756402
916 2 0.2956 0.230768 0.763888
47 3 0.401582 0.175618 0.787503
1297 2 0.373611 0.178344 0.766486
1042 2 0.405911 0.225335 0.800606
1043 4 0.416085 0.210518 0.817988
1044 4 0.395736 0.240153 0.783225
46 1 0.415087 0.171357 0.805631
49 3 0.414562 0.189687 0.819849
48 3 0.436755 0.167746 0.798159
1144 2 0.48161 0.178248 0.797955
1145 4 0.462973 0.19329 0.805137
778 2 0.0717095 0.316921 0.818783
779 4 0.0560175 0.297469 0.81802
1074 4 0.0985122 0.261247 0.754099
1073 4 0.110541 0.299553 0.78391
1072 2 0.104526 0.2804 0.769004
1278 4 0.213303 0.271098 0.745467
1276 2 0.215873 0.249241 0.757335
1236 4 0.219992 0.326182 0.784733
917 4 0.304246 0.253003 0.771373
1096 2 0.296389 0.313581 0.797329
1098 4 0.302153 0.301833 0.776023
1097 4 0.290625 0.325329 0.818635
801 4 0.28649 0.309955 0.831271
998 4 0.491808 0.308068 0.781241
1165 2 0.453073 0.315099 0.769585