ITEM: TIMESTEP
3240000
ITEM: NUMBER OF ATOMS
4590
ITEM: BOX BOUNDS pp pp pp
-9.9985700000000008e+00 9.9985700000000008e+00
-9.9985700000000008e+00 9.9985700000000008e+00
-9.9985700000000008e+00 9.9985700000000008e+00
ITEM: ATOMS id type xs ys zs
379 2 0.0571055 0.0417988 0.0327663
380 4 0.0575876 0.0373315 0.00816976
381 4 0.0566234 0.0462661 0.0573628
2481 4 0.0659909 0.0466144 0.0750096
2163 4 0.271438 0.0350752 0.0263717
652 2 0.311245 0.0807064 0.0791234
2161 2 0.270791 0.0253866 0.00333061
579 4 0.265965 0.0228883 0.0855002
2467 2 0.401542 0.0483744 0.0378811
2469 4 0.39081 0.027517 0.0465395
2723 4 0.378416 0.0274521 0.0628096
1760 4 0.384908 0.0102694 0.0536954
1759 2 0.405824 0.00118812 0.0639552
2468 4 0.412274 0.0692318 0.0292226
531 4 0.0189011 0.107851 0.0315571
529 2 0.00661682 0.0953302 0.049376
422 4 0.224729 0.0971276 0.07021
283 2 0.248058 0.159953 0.0469551
421 2 0.248461 0.0954515 0.0779016
284 4 0.262389 0.139554 0.0450328
653 4 0.334742 0.0823396 0.0707331
557 4 0.40864 0.0920571 0.0793864
665 4 0.353948 0.0832544 0.0652695
664 2 0.354644 0.10287 0.0497798
666 4 0.35534 0.122485 0.03429
866 4 0.366977 0.132692 0.0484224
865 2 0.371688 0.157206 0.0469843
2625 4 0.0160882 0.247743 0.0273472
396 4 0.0108876 0.207528 0.0442152
394 2 0.99832 0.228086 0.0508936
360 4 0.174655 0.189166 0.0247286
285 4 0.233727 0.180351 0.0488775
358 2 0.197192 0.191344 0.0353355
359 4 0.21973 0.193522 0.0459425
354 4 0.236408 0.203052 0.0473497
764 4 0.22556 0.193301 0.0636699
352 2 0.244999 0.225467 0.0403561
867 4 0.376399 0.181719 0.0455463
770 4 0.436561 0.21776 0.0484684
769 2 0.448164 0.202482 0.0645042
1307 4 0.432378 0.234044 0.0344587
771 4 0.459767 0.187205 0.0805399
2623 2 0.0392598 0.256903 0.0294332
2624 4 0.0624314 0.266063 0.0315193
655 2 0.0110207 0.339119 0.054591
38 3 0.21275 0.282406 0.0129278
36 1 0.227829 0.278513 0.0301285
37 3 0.22336 0.257953 0.0394256
1512 4 0.220273 0.264291 0.0576808
1710 4 0.22122 0.284978 0.0640813
1510 2 0.217493 0.252621 0.0796189
1708 2 0.221896 0.307487 0.074948
39 3 0.225552 0.294802 0.0464964
353 4 0.25359 0.247883 0.0333624
755 4 0.266565 0.26876 0.0282574
40 3 0.249097 0.2786 0.0219852
754 2 0.28971 0.264284 0.036591
756 4 0.312855 0.259809 0.0449247
740 4 0.328436 0.264728 0.0587099
739 2 0.337263 0.28771 0.0543385
741 4 0.34609 0.310692 0.049967
386 4 0.344642 0.3303 0.0494534
1306 2 0.430535 0.258979 0.0342457
1308 4 0.428691 0.283914 0.0340326
836 4 0.0406514 0.357707 0.0428568
287 4 0.050726 0.352086 0.0603885
2807 4 0.0415425 0.371505 0.0583736
656 4 0.0299481 0.354578 0.0598786
2806 2 0.0365707 0.390942 0.0434516
835 2 0.0576033 0.345488 0.0291269
2808 4 0.031599 0.410379 0.0285296
1103 4 0.042415 0.365465 0.0107335
286 2 0.0629948 0.353341 0.0821389
837 4 0.0745552 0.333269 0.015397
903 4 0.328208 0.393524 0.00183787
901 2 0.315409 0.414904 0.00390928
387 4 0.366976 0.375042 0.0493863
385 2 0.355809 0.352671 0.0494199
13 3 0.380951 0.388936 0.0506157
11 1 0.3979 0.401945 0.0415658
15 3 0.404616 0.393195 0.0216411
12 3 0.415701 0.402152 0.0561344
1787 4 0.0143176 0.486906 0.0143441
1438 2 0.142524 0.500775 0.0644356
246 4 0.297862 0.471053 0.0118463
244 2 0.289485 0.472607 0.0353536
245 4 0.281109 0.474161 0.0588609
902 4 0.30261 0.436283 0.0059807
14 3 0.390429 0.423704 0.0385416
4304 4 0.405216 0.450859 0.0232933
3792 4 0.405465 0.495658 0.006455
4303 2 0.424238 0.467082 0.022884
4305 4 0.44326 0.483305 0.0224746
672 4 0.458944 0.429331 0.0633374
670 2 0.456501 0.443708 0.0836474
4119 4 0.445145 0.497679 0.00827872
2479 2 0.0594253 0.0368863 0.0970875
2480 4 0.0528597 0.0271581 0.119165
3783 4 0.0610163 0.0093142 0.122281
2753 4 0.0069922 0.0481299 0.122301
654 4 0.287747 0.0790731 0.0875137
577 2 0.268662 0.0474555 0.089289
578 4 0.271359 0.0720228 0.0930778
580 2 0.273095 0.0825821 0.12748
582 4 0.268292 0.0756547 0.15102
2722 2 0.371825 0.0386102 0.0841925
2724 4 0.365233 0.0497683 0.105575
22 3 0.335341 0.0398623 0.159586
297 4 0.346495 0.0667822 0.158433
295 2 0.368728 0.0656169 0.147053
296 4 0.390961 0.0644516 0.135672
556 2 0.404313 0.0857592 0.103194
558 4 0.399986 0.0794613 0.127001
629 4 0.409521 0.0724716 0.142478
628 2 0.428992 0.0749759 0.157964
513 4 0.0755923 0.155224 0.164672
567 4 0.13052 0.106912 0.162364
423 4 0.272193 0.0937754 0.0855933
581 4 0.277898 0.0895095 0.10394
534 4 0.282264 0.149507 0.0926086
532 2 0.278411 0.13426 0.112047
533 4 0.274557 0.119014 0.131486
237 4 0.144202 0.205982 0.144441
477 4 0.141384 0.221212 0.133691
475 2 0.124793 0.239707 0.136489
235 2 0.147312 0.191501 0.164586
763 2 0.2195 0.197582 0.0875472
1511 4 0.214714 0.240952 0.101557
765 4 0.213439 0.201862 0.111425
311 4 0.314456 0.223505 0.12516
310 2 0.326511 0.202484 0.118995
312 4 0.338566 0.181464 0.112831
2519 4 0.470073 0.179466 0.0941547
2518 2 0.485107 0.174054 0.113387
2520 4 0.500141 0.168641 0.132619
648 4 0.070039 0.298407 0.152557
646 2 0.0795389 0.277005 0.143787
404 4 0.0290175 0.266778 0.085889
403 2 0.0155931 0.271135 0.106528
647 4 0.0890388 0.255603 0.135018
476 4 0.108202 0.258203 0.139288
1709 4 0.222572 0.329996 0.0858148
612 4 0.31804 0.28191 0.151091
610 2 0.301819 0.300328 0.146315
611 4 0.285598 0.318747 0.141538
1304 4 0.487481 0.279372 0.0951442
498 4 0.473668 0.29066 0.106547
623 4 0.473978 0.269995 0.108553
624 4 0.427213 0.257982 0.12157
622 2 0.450595 0.263989 0.115061
518 4 0.482457 0.279609 0.151467
496 2 0.469308 0.314511 0.10044
288 4 0.0752637 0.354596 0.103889
913 2 0.0122865 0.405837 0.149653
914 4 0.0117744 0.393735 0.171527
338 4 0.134206 0.375867 0.123753
337 2 0.12473 0.366678 0.144989
339 4 0.115254 0.35749 0.166224
455 4 0.0985487 0.365971 0.17231
302 4 0.278214 0.337113 0.134705
303 4 0.286019 0.385535 0.124949
301 2 0.282117 0.361324 0.129827
497 4 0.464948 0.338363 0.0943338
1046 4 0.473776 0.414359 0.13064
915 4 0.0127986 0.417939 0.12778
416 4 0.0710408 0.420884 0.161966
1440 4 0.130028 0.493851 0.0849557
1573 2 0.313308 0.448434 0.125918
1574 4 0.310798 0.433778 0.146019
1575 4 0.315818 0.463091 0.105816
1629 4 0.320435 0.481837 0.101304
525 4 0.329365 0.438312 0.155051
1045 2 0.482208 0.422329 0.152789
955 2 0.451894 0.4683 0.13285
956 4 0.446506 0.477188 0.110108
671 4 0.454059 0.458086 0.103958
957 4 0.457282 0.459413 0.155591
673 2 0.205869 0.0219703 0.245379
675 4 0.203592 0.999578 0.23449
467 4 0.189679 0.0501393 0.245705
466 2 0.17338 0.0648465 0.233737
23 3 0.30704 0.0532759 0.180365
21 1 0.328675 0.0449123 0.181015
24 3 0.32931 0.0255739 0.193822
1463 4 0.33279 0.0131996 0.207627
25 3 0.342773 0.0605032 0.189779
759 4 0.344059 0.0746077 0.175854
511 2 0.0699547 0.13139 0.169705
512 4 0.0643171 0.107556 0.174739
468 4 0.157082 0.0795537 0.221769
565 2 0.139784 0.0979047 0.18377
566 4 0.149048 0.0888974 0.205176
600 4 0.163857 0.097031 0.215926
598 2 0.177939 0.11767 0.214981
599 4 0.192022 0.138309 0.214036
726 4 0.239815 0.14619 0.243726
683 4 0.296593 0.119949 0.207285
682 2 0.276129 0.128674 0.218699
684 4 0.255665 0.1374 0.230113
474 4 0.248436 0.156356 0.22675
758 4 0.338831 0.123248 0.186225
757 2 0.341445 0.0989276 0.181039
630 4 0.448463 0.0774801 0.173449
480 4 0.499484 0.136804 0.232323
479 4 0.482859 0.091461 0.219349
478 2 0.491172 0.114133 0.225836
393 4 0.0459252 0.197918 0.236887
236 4 0.150422 0.177019 0.18473
277 2 0.13966 0.223049 0.25148
279 4 0.138531 0.201384 0.239049
473 4 0.245631 0.188452 0.188505
472 2 0.247034 0.172404 0.207627
631 2 0.312109 0.205566 0.201617
633 4 0.296157 0.222404 0.192279
632 4 0.328061 0.188729 0.210956
363 4 0.0629975 0.302243 0.170083
361 2 0.0650467 0.311533 0.193206
362 4 0.0670958 0.320823 0.216329
372 4 0.173023 0.308417 0.178635
370 2 0.190213 0.326379 0.181287
308 4 0.343452 0.333132 0.16417
517 2 0.486306 0.291238 0.173264
519 4 0.490155 0.302867 0.195062
750 4 0.074032 0.337849 0.224379
456 4 0.0569619 0.393441 0.16823
454 2 0.0777553 0.379706 0.17027
704 4 0.00620772 0.375935 0.17943
705 4 0.0259101 0.3433 0.211795
703 2 0.0160589 0.359618 0.195613
748 2 0.0755099 0.359364 0.237032
749 4 0.0769878 0.380879 0.249685
314 4 0.00851308 0.393068 0.190987
738 4 0.105987 0.353511 0.185923
736 2 0.121795 0.358959 0.204514
737 4 0.137602 0.364408 0.223105
371 4 0.207403 0.344342 0.183938
603 4 0.205018 0.360731 0.195407
601 2 0.214221 0.374489 0.214148
602 4 0.223424 0.388247 0.232888
307 2 0.363701 0.341908 0.175924
309 4 0.38395 0.350684 0.187677
644 4 0.392023 0.355701 0.227145
643 2 0.409482 0.372652 0.232892
645 4 0.426942 0.389602 0.23864
728 4 0.439689 0.341014 0.189421
103 3 0.496959 0.380316 0.184285
727 2 0.459428 0.356326 0.190453
729 4 0.479168 0.371639 0.191485
609 4 0.430729 0.408858 0.230663
608 4 0.479493 0.39792 0.232428
607 2 0.455111 0.403389 0.231546
102 3 0.477408 0.396594 0.211952
101 1 0.496894 0.397598 0.199768
415 2 0.0630877 0.443873 0.167747
313 2 0.0032117 0.41316 0.204894
3715 2 0.0195947 0.496248 0.192718
417 4 0.0551346 0.466862 0.173527
3717 4 0.0366804 0.480024 0.201087
315 4 0.99791 0.433252 0.2188
1320 4 0.0889189 0.478456 0.229847
761 4 0.391679 0.494653 0.205352
762 4 0.362026 0.454613 0.209631
524 4 0.362113 0.442222 0.19264
523 2 0.345739 0.440267 0.173846
760 2 0.376853 0.474633 0.207491
109 3 0.401144 0.492971 0.186157
1047 4 0.490639 0.430299 0.174938
659 4 0.480227 0.438058 0.190027
658 2 0.458765 0.450243 0.194033
660 4 0.437302 0.462429 0.198038
108 3 0.436642 0.482808 0.195154
233 4 0.0740118 0.0194874 0.272104
232 2 0.0886392 0.0117672 0.290855
604 2 0.121595 0.0658445 0.333356
605 4 0.104395 0.0786404 0.320487
234 4 0.103267 0.00404696 0.309607
674 4 0.208147 0.0443627 0.256268
429 4 0.226745 0.0498764 0.262101
427 2 0.23373 0.056878 0.285065
428 4 0.240716 0.0638797 0.30803
440 4 0.228024 0.0712486 0.322453
1966 2 0.291601 0.0330101 0.301487
1968 4 0.299752 0.0347853 0.277916
1967 4 0.28345 0.031235 0.325058
743 4 0.38808 0.0787087 0.322902
724 2 0.240372 0.163584 0.261679
351 4 0.335777 0.0899176 0.321824
453 4 0.403863 0.120806 0.270567
451 2 0.387301 0.115124 0.288416
452 4 0.370738 0.109443 0.306265
391 2 0.0281697 0.19906 0.254454
392 4 0.0104142 0.200201 0.272022
2484 4 0.00959858 0.183269 0.281573
249 4 0.0158 0.199223 0.292509
247 2 0.03417 0.193419 0.308448
248 4 0.05254 0.187615 0.324386
278 4 0.140788 0.244714 0.263911
536 4 0.159993 0.246715 0.257281
431 4 0.240098 0.198219 0.288641
430 2 0.241037 0.187709 0.311309
725 4 0.240928 0.180978 0.279633
432 4 0.241976 0.177199 0.333976
488 4 0.386032 0.212272 0.291477
487 2 0.394535 0.225934 0.310615
489 4 0.403038 0.239595 0.329752
678 4 0.162755 0.321369 0.293914
535 2 0.175784 0.265453 0.262253
537 4 0.191575 0.284191 0.267225
402 4 0.205346 0.296001 0.275432
400 2 0.22644 0.303436 0.286611
401 4 0.247533 0.310872 0.29779
676 2 0.169094 0.327609 0.317282
344 4 0.265078 0.309396 0.287402
343 2 0.289294 0.315316 0.285473
345 4 0.31351 0.321236 0.283543
2463 4 0.0829276 0.39812 0.26428
2954 4 0.0139303 0.384701 0.320112
2955 4 0.043554 0.411206 0.28977
2953 2 0.0287422 0.397953 0.304941
638 4 0.214459 0.404887 0.246435
290 4 0.217581 0.386306 0.251441
1260 4 0.230464 0.34869 0.322553
289 2 0.223365 0.376748 0.27381
291 4 0.22915 0.367189 0.296179
637 2 0.193107 0.416258 0.252757
438 4 0.359833 0.372805 0.296235
436 2 0.36971 0.395422 0.300249
3671 4 0.0269611 0.484498 0.331064
3670 2 0.00661724 0.498276 0.326428
2461 2 0.0922696 0.420418 0.270661
3960 4 0.123203 0.428748 0.333271
1318 2 0.097491 0.470855 0.252071
3958 2 0.118429 0.440911 0.311953
2462 4 0.101612 0.442715 0.277041
1319 4 0.106063 0.463254 0.274295
3959 4 0.113655 0.453073 0.290635
414 4 0.133063 0.492735 0.327699
639 4 0.171755 0.427629 0.259078
437 4 0.379587 0.418039 0.304263
1698 4 0.472391 0.473583 0.323042
1696 2 0.495577 0.47515 0.33227
606 4 0.138795 0.0530487 0.346225
399 4 0.140289 0.0447151 0.364392
397 2 0.164087 0.0405795 0.370852
398 4 0.187885 0.0364439 0.377312
439 2 0.223123 0.065098 0.346188
441 4 0.218222 0.0589473 0.369922
1524 4 0.28594 0.0148525 0.335954
1888 2 0.310382 0.0354914 0.362554
1890 4 0.295314 0.0309757 0.343119
1671 4 0.327662 0.025571 0.395378
1889 4 0.325451 0.0400072 0.381989
1669 2 0.345639 0.0333828 0.410902
1516 2 0.410723 0.0248096 0.386341
1518 4 0.39415 0.0296591 0.368258
744 4 0.388605 0.0487214 0.362917
742 2 0.388342 0.0637151 0.34291
699 4 0.384894 0.0580751 0.380744
697 2 0.390814 0.0740228 0.399069
1517 4 0.427296 0.0199602 0.404424
2192 4 0.443847 0.00784174 0.401545
316 2 0.0107321 0.116229 0.407985
1601 4 0.0756257 0.155815 0.390098
1600 2 0.0646799 0.138408 0.404323
1602 4 0.0537342 0.121 0.418548
318 4 0.0343049 0.11457 0.416155
707 4 0.234497 0.0871877 0.391458
425 4 0.230769 0.161886 0.338587
706 2 0.248916 0.107607 0.390891
424 2 0.244856 0.151678 0.356546
708 4 0.263334 0.128027 0.390324
256 2 0.30346 0.13117 0.374971
258 4 0.279518 0.135331 0.380859
426 4 0.258943 0.141471 0.374506
276 4 0.255528 0.145919 0.392652
257 4 0.327401 0.127009 0.369082
274 2 0.259576 0.155548 0.41537
350 4 0.345959 0.126056 0.354855
1580 4 0.347434 0.115087 0.37267
349 2 0.340868 0.107987 0.33834
1579 2 0.354974 0.117573 0.39638
462 4 0.419084 0.141624 0.355375
460 2 0.428173 0.158533 0.371395
406 2 0.0681939 0.230422 0.391998
407 4 0.0619231 0.250137 0.40604
408 4 0.0744647 0.210708 0.377956
717 4 0.240305 0.189256 0.350688
715 2 0.254271 0.207496 0.360558
716 4 0.268238 0.225736 0.370428
410 4 0.351431 0.191678 0.403181
515 4 0.412432 0.226922 0.351793
461 4 0.437263 0.175443 0.387415
514 2 0.422408 0.211425 0.36869
516 4 0.432384 0.195928 0.385587
267 4 0.440213 0.188843 0.403991
265 2 0.425007 0.198776 0.421175
679 2 0.00120232 0.30941 0.375979
681 4 0.00781468 0.306695 0.399939
549 4 0.0274273 0.300719 0.397183
547 2 0.0467485 0.284849 0.397212
548 4 0.0660698 0.268978 0.397242
768 4 0.193941 0.305594 0.386733
305 4 0.406832 0.250138 0.345845
304 2 0.415119 0.272415 0.353607
418 2 0.4222 0.327898 0.353781
420 4 0.435984 0.310511 0.365309
306 4 0.423405 0.294692 0.361369
500 4 0.082004 0.383877 0.36017
499 2 0.0623341 0.399269 0.358999
501 4 0.0426642 0.41466 0.357828
299 4 0.154685 0.399265 0.344217
298 2 0.165778 0.382636 0.359238
709 2 0.240763 0.336498 0.40779
766 2 0.189229 0.33013 0.387721
710 4 0.241139 0.334079 0.382906
300 4 0.176871 0.366007 0.374258
677 4 0.175432 0.333849 0.34065
767 4 0.184517 0.354666 0.38871
734 4 0.187463 0.374295 0.389353
1258 2 0.241173 0.345807 0.344963
733 2 0.193675 0.392964 0.404782
1259 4 0.251881 0.342923 0.367372
594 4 0.343968 0.407593 0.394112
377 4 0.393285 0.358703 0.346182
419 4 0.408415 0.345284 0.342253
376 2 0.39416 0.369925 0.368509
592 2 0.367002 0.400037 0.400236
593 4 0.390036 0.39248 0.40636
378 4 0.395035 0.381147 0.390836
434 4 0.409664 0.386752 0.404495
433 2 0.433093 0.389698 0.396276
435 4 0.456523 0.392644 0.388057
587 4 0.46857 0.397907 0.372599
777 4 0.0237613 0.473803 0.347169
776 4 0.028303 0.424018 0.34843
775 2 0.0260322 0.448911 0.3478
1715 4 0.410643 0.477068 0.362017
1714 2 0.389665 0.487623 0.353432
586 2 0.48247 0.418298 0.368575
588 4 0.496369 0.438689 0.364551
3563 4 0.486525 0.483507 0.397487
1478 4 0.0854122 0.0265699 0.481442
1477 2 0.105816 0.0127081 0.477355
962 4 0.232966 0.0218406 0.480271
961 2 0.219703 0.0358409 0.496186
1817 4 0.252176 0.0197568 0.475665
1816 2 0.257593 0.0203211 0.451262
1818 4 0.26301 0.0208853 0.426859
1670 4 0.363616 0.0411945 0.426425
1428 4 0.479226 0.0122324 0.457105
1426 2 0.490148 0.0344724 0.45375
2193 4 0.461164 0.0068593 0.448447
2191 2 0.452506 0.00735052 0.424996
939 4 0.033169 0.0817023 0.472432
938 4 0.0462369 0.110914 0.434006
937 2 0.039703 0.0963082 0.453219
1058 4 0.00612672 0.155655 0.448082
260 4 0.11129 0.152268 0.478962
275 4 0.263623 0.165177 0.438087
30 3 0.308502 0.151154 0.445242
28 3 0.323777 0.122461 0.464242
26 1 0.327694 0.143176 0.45455
1581 4 0.362515 0.12006 0.420089
698 4 0.396734 0.0899705 0.417394
27 3 0.343655 0.140817 0.438154
29 3 0.335515 0.158054 0.470547
253 2 0.379042 0.153553 0.434621
254 4 0.399225 0.155958 0.420059
322 2 0.369822 0.159119 0.486602
255 4 0.35886 0.151148 0.449184
324 4 0.354423 0.148667 0.469905
259 2 0.125037 0.172198 0.485206
261 4 0.138784 0.192128 0.49145
617 4 0.0960323 0.249714 0.457502
374 4 0.271222 0.239754 0.444525
375 4 0.275898 0.199189 0.473393
373 2 0.27356 0.219471 0.458959
686 4 0.282621 0.195012 0.489486
651 4 0.321318 0.203316 0.464046
411 4 0.335377 0.202848 0.449206
409 2 0.343404 0.197263 0.426193
649 2 0.338253 0.206072 0.482233
266 4 0.409801 0.20871 0.438358
650 4 0.355189 0.208827 0.50042
576 4 0.486626 0.166824 0.476771
574 2 0.499284 0.175822 0.496367
618 4 0.0693195 0.264091 0.417748
616 2 0.0826759 0.256902 0.437625
1135 2 0.148815 0.321917 0.499995
510 4 0.261541 0.253418 0.431863
509 4 0.275061 0.300758 0.440631
508 2 0.268301 0.277088 0.436247
2813 4 0.0109269 0.375014 0.459156
2812 2 0.0284162 0.386123 0.473152
897 4 0.0600356 0.395861 0.501063
2814 4 0.0459055 0.397233 0.487147
1137 4 0.13991 0.33279 0.479315
1041 4 0.130007 0.373383 0.473484
1039 2 0.112514 0.372697 0.491337
711 4 0.240387 0.338916 0.432673
735 4 0.199888 0.411633 0.420211
753 4 0.425836 0.390648 0.454262
751 2 0.449022 0.38835 0.463335
752 4 0.472208 0.386052 0.472408
561 4 0.492971 0.384588 0.476396
3602 4 0.502997 0.401489 0.485077
384 4 0.0394114 0.445573 0.474604
382 2 0.0283157 0.461081 0.490777
502 2 0.130483 0.497053 0.45122
503 4 0.154081 0.495182 0.45927
504 4 0.106885 0.498923 0.443169
1191 4 0.135662 0.419334 0.472829
1189 2 0.147114 0.421713 0.494928
635 4 0.198811 0.493426 0.453607
1188 4 0.212422 0.482525 0.463051
1186 2 0.236906 0.484618 0.467665
1187 4 0.261391 0.486711 0.472278
1587 4 0.371721 0.488331 0.436239
3562 2 0.482002 0.493336 0.420029
823 2 0.0788754 0.0318409 0.547136
825 4 0.0654806 0.0183707 0.563394
2319 4 0.0544387 0.0107942 0.578007
824 4 0.0922703 0.045311 0.530878
2429 4 0.0984877 0.0626759 0.521184
1181 4 0.209305 0.0690185 0.518236
963 4 0.206441 0.0498412 0.512101
1180 2 0.211759 0.0763739 0.542007
951 4 0.358437 0.0544513 0.582292
2333 4 0.411915 0.029357 0.570868
842 4 0.412219 0.0425404 0.558158
1003 2 0.401158 0.0642412 0.587372
1005 4 0.418487 0.0480999 0.579351
843 4 0.432117 0.0618358 0.516535
2332 2 0.426046 0.00887455 0.573312
841 2 0.422168 0.0521881 0.537347
4239 4 0.492981 0.00825527 0.536722
4466 4 0.493381 0.0230285 0.523193
4465 2 0.486071 0.0454872 0.5314
4467 4 0.478761 0.0679458 0.539606
3008 4 0.499268 0.00304851 0.518666
4237 2 0.488627 0.00143507 0.560381
877 2 0.052294 0.0989538 0.565044
879 4 0.0767975 0.0941756 0.566432
878 4 0.0277905 0.103732 0.563657
367 2 0.0104961 0.145999 0.520947
470 4 0.0100796 0.107907 0.551756
368 4 0.0139865 0.121649 0.516471
1272 4 0.0827391 0.112828 0.565943
1073 4 0.0958453 0.0986801 0.574614
1270 2 0.0930116 0.134991 0.560609
2428 2 0.0963841 0.0817364 0.53723
2430 4 0.0942806 0.100797 0.553275
1271 4 0.103284 0.157154 0.555275
1182 4 0.214213 0.0837294 0.565777
898 2 0.304957 0.133176 0.533431
899 4 0.309856 0.112062 0.520967
900 4 0.300057 0.154291 0.545896
326 4 0.332542 0.155942 0.567116
320 4 0.383357 0.161357 0.521989
319 2 0.366558 0.158173 0.540233
321 4 0.349759 0.154988 0.558476
3054 4 0.401591 0.164282 0.513651
3052 2 0.420587 0.165083 0.52989
3053 4 0.439583 0.165884 0.546128
936 4 0.00638355 0.190816 0.535084
934 2 0.00728302 0.190581 0.56007
2655 4 0.0193294 0.184474 0.522892
2653 2 0.0380946 0.196957 0.512066
935 4 0.00818249 0.190346 0.585056
2654 4 0.0568599 0.209441 0.50124
909 4 0.122487 0.203877 0.57163
1033 2 0.14154 0.197613 0.532298
1034 4 0.134934 0.203708 0.55563
1035 4 0.148145 0.191517 0.508966
1220 4 0.225588 0.18937 0.563764
945 4 0.240168 0.175664 0.569025
325 2 0.314996 0.169952 0.578118
944 4 0.283332 0.165148 0.54607
687 4 0.295132 0.16906 0.53036
943 2 0.26175 0.170406 0.557547
685 2 0.288877 0.182036 0.509923
811 2 0.339177 0.224555 0.580267
1152 4 0.370669 0.222665 0.504477
1150 2 0.367862 0.214597 0.527976
790 2 0.390497 0.224934 0.58521
1151 4 0.365056 0.206529 0.551475
792 4 0.380236 0.21398 0.565213
812 4 0.359694 0.221295 0.566354
804 4 0.366661 0.241219 0.556126
323 4 0.385222 0.169572 0.503299
953 4 0.45166 0.173025 0.558391
952 2 0.452221 0.185666 0.579957
983 4 0.0831684 0.326712 0.563582
1136 4 0.157721 0.311045 0.520675
803 4 0.356831 0.289744 0.549093
802 2 0.361746 0.265481 0.55261
3263 4 0.0425641 0.333496 0.522067
3262 2 0.0589882 0.352185 0.519586
895 2 0.0726837 0.415596 0.509765
2802 4 0.0268783 0.369622 0.553477
2800 2 0.00315848 0.376527 0.549622
3264 4 0.0754123 0.370874 0.517105
1161 4 0.109635 0.40191 0.565463
1159 2 0.100611 0.388039 0.54672
1160 4 0.091587 0.374168 0.527976
1040 4 0.0950214 0.372011 0.509189
1066 2 0.328918 0.411828 0.562627
239 4 0.326669 0.347862 0.515508
240 4 0.34748 0.384054 0.543035
238 2 0.337075 0.365958 0.529272
1068 4 0.340594 0.3898 0.560725
1028 4 0.351911 0.373784 0.561526
1027 2 0.36792 0.359829 0.574722
3601 2 0.483699 0.405483 0.500467
1938 4 0.0309872 0.475985 0.519602
383 4 0.0172199 0.47659 0.506949
896 4 0.0853317 0.435331 0.518468
1172 4 0.105817 0.448912 0.546545
539 4 0.168031 0.41836 0.535099
1190 4 0.158566 0.424093 0.517027
1171 2 0.128315 0.439925 0.54036
1173 4 0.150814 0.430938 0.534176
538 2 0.176014 0.424933 0.557864
540 4 0.183998 0.431506 0.580628
1067 4 0.317243 0.433856 0.56453
1000 2 0.474662 0.414835 0.55798
1002 4 0.465986 0.415688 0.534546
3603 4 0.464402 0.409477 0.515856
4084 2 0.447734 0.450094 0.529651
4085 4 0.454743 0.427119 0.522708
4086 4 0.440726 0.473069 0.536595
2217 4 0.428081 0.486914 0.528365
33 3 0.0718473 0.0503506 0.644958
31 1 0.0847987 0.0695883 0.645719
1211 4 0.13878 0.022831 0.60548
35 3 0.101478 0.0671266 0.661029
1210 2 0.155305 0.0390357 0.614942
948 4 0.159025 0.0806464 0.638726
34 3 0.0938385 0.0738842 0.624785
946 2 0.139135 0.0777018 0.653589
1212 4 0.171829 0.0552405 0.624404
6 1 0.196521 0.0774705 0.640648
9 3 0.175938 0.0732082 0.63082
1154 4 0.199976 0.0443012 0.630694
10 3 0.194461 0.0774277 0.663328
1153 2 0.216604 0.0330793 0.615768
1155 4 0.233231 0.0218574 0.600843
7 3 0.211317 0.0610197 0.634353
978 4 0.241582 0.0733693 0.654998
1031 4 0.24728 0.0203262 0.585921
1184 4 0.185642 0.0585765 0.66347
950 4 0.311605 0.0369268 0.582873
1032 4 0.297147 0.0236634 0.587586
1030 2 0.272213 0.0219948 0.586754
2200 2 0.304696 0.045358 0.625254
2202 4 0.304162 0.0359421 0.602097
2201 4 0.305229 0.0547739 0.64841
949 2 0.335021 0.0456891 0.582582
2343 4 0.394141 0.0668495 0.641958
1004 4 0.383829 0.0803824 0.595393
2341 2 0.40565 0.083611 0.65651
1054 2 0.0539513 0.164436 0.626787
1055 4 0.0528479 0.152031 0.605105
32 3 0.0714545 0.0872996 0.651834
852 4 0.0806539 0.10139 0.641485
1074 4 0.0881378 0.0931287 0.623711
1072 2 0.0919915 0.0959044 0.599163
850 2 0.0911913 0.1234 0.646934
851 4 0.101729 0.145411 0.652384
8 3 0.204627 0.0979944 0.633473
1193 4 0.380149 0.0903208 0.612749
1192 2 0.356268 0.0974013 0.614922
1194 4 0.332386 0.104482 0.617094
2342 4 0.41716 0.100373 0.671061
2658 4 0.482203 0.119759 0.658688
2657 4 0.43686 0.103069 0.67158
2656 2 0.459532 0.111414 0.665134
1056 4 0.0550547 0.17684 0.648469
1198 2 0.0021453 0.234693 0.614785
1296 4 0.00721813 0.196185 0.604023
1076 4 0.0190096 0.251994 0.643919
1130 4 0.0439425 0.169381 0.665183
907 2 0.118098 0.223551 0.586425
1208 4 0.120115 0.249222 0.619773
908 4 0.11371 0.243225 0.601219
1221 4 0.205567 0.209063 0.605142
1219 2 0.215578 0.199216 0.584453
695 4 0.192723 0.204704 0.618779
694 2 0.18931 0.203397 0.643514
327 4 0.29745 0.183961 0.58912
813 4 0.318659 0.227816 0.594179
791 4 0.400759 0.235888 0.605207
1025 4 0.41035 0.235023 0.623444
1026 4 0.454822 0.214226 0.613936
954 4 0.452782 0.198307 0.601522
1024 2 0.432586 0.224625 0.61869
1199 4 0.00633573 0.254746 0.62912
2846 4 0.025041 0.263648 0.627942
2845 2 0.0358093 0.285668 0.62301
2847 4 0.0465776 0.307689 0.618078
984 4 0.0710005 0.326191 0.612084
982 2 0.0770844 0.326451 0.587833
1207 2 0.107051 0.24882 0.641088
1209 4 0.0939873 0.248418 0.662404
856 2 0.141256 0.310392 0.625814
857 4 0.129493 0.325114 0.642247
858 4 0.15302 0.29567 0.609381
1952 4 0.267793 0.324675 0.626624
3327 4 0.0581544 0.340141 0.612131
3325 2 0.036384 0.351982 0.615452
3326 4 0.0146137 0.363822 0.618772
3275 4 0.139459 0.341872 0.644158
1953 4 0.282121 0.370047 0.611235
1951 2 0.274957 0.347361 0.61893
1029 4 0.38393 0.345874 0.587918
1006 2 0.390645 0.402655 0.668107
1001 4 0.483337 0.413983 0.581415
1280 4 0.0630283 0.421032 0.662663
1007 4 0.406195 0.419653 0.658389
1176 4 0.368085 0.485434 0.616559
1174 2 0.365303 0.483463 0.641329
1175 4 0.362521 0.481493 0.6661
921 4 0.0565438 0.0806999 0.717365
947 4 0.119245 0.0747572 0.668451
1185 4 0.173616 0.0139664 0.682602
1183 2 0.179629 0.0362714 0.673036
991 2 0.22693 0.0490143 0.710834
993 4 0.207401 0.0421247 0.724846
992 4 0.246459 0.0559039 0.696822
1148 4 0.189283 0.0729948 0.748355
976 2 0.26321 0.0683143 0.66648
977 4 0.284838 0.0632594 0.677963
1239 4 0.302853 0.0661766 0.669146
1129 2 0.0212837 0.160617 0.671094
919 2 0.058779 0.0847803 0.692798
920 4 0.0610141 0.0888606 0.668231
1287 4 0.0182849 0.124689 0.736664
1277 4 0.113136 0.09196 0.676287
1278 4 0.125323 0.12221 0.714197
1276 2 0.11923 0.107085 0.695242
1227 4 0.142866 0.113895 0.720168
1225 2 0.161821 0.102481 0.731813
1226 4 0.180777 0.0910669 0.743458
1237 2 0.312771 0.0833099 0.684419
1238 4 0.32269 0.100443 0.699691
888 4 0.332303 0.118936 0.699501
886 2 0.340062 0.141656 0.692516
887 4 0.347821 0.164375 0.685531
959 4 0.361071 0.128161 0.750884
2441 4 0.421582 0.109687 0.687557
2440 2 0.426413 0.102996 0.71116
3425 4 0.446414 0.121017 0.751189
2442 4 0.431244 0.0963046 0.734762
1124 4 0.0581226 0.181121 0.667301
1123 2 0.0819294 0.188388 0.669669
2991 4 0.0216033 0.209642 0.720653
864 4 0.0485535 0.228766 0.746648
2989 2 0.000883044 0.211844 0.706832
1125 4 0.105736 0.195655 0.672036
1064 4 0.136729 0.186822 0.707187
1063 2 0.151855 0.19496 0.689017
1065 4 0.166981 0.203099 0.670846
798 4 0.17855 0.218921 0.674699
696 4 0.185896 0.202089 0.668249
796 2 0.182344 0.241058 0.685688
845 4 0.401591 0.201521 0.743497
819 4 0.418435 0.190677 0.747572
818 4 0.44306 0.224901 0.720683
817 2 0.430748 0.207789 0.734127
1075 2 0.0256159 0.256608 0.667589
1077 4 0.0322221 0.261222 0.691259
797 4 0.186138 0.263194 0.696677
816 4 0.0796589 0.335351 0.738332
883 2 0.0574199 0.415415 0.740655
3274 2 0.131989 0.345985 0.667662
814 2 0.0994556 0.337663 0.723235
815 4 0.119252 0.339975 0.708138
3276 4 0.124519 0.350098 0.691166
2012 4 0.20665 0.385694 0.718562
2011 2 0.202465 0.365787 0.733101
2013 4 0.19828 0.34588 0.74764
1008 4 0.375095 0.385657 0.677824
3329 4 0.426397 0.395322 0.733429
3328 2 0.446246 0.408948 0.740176
3501 4 0.0629967 0.478809 0.68368
885 4 0.0519079 0.427284 0.719349
1279 2 0.0442696 0.423199 0.679052
1281 4 0.025511 0.425365 0.695441
3499 2 0.0874424 0.479701 0.688856
2172 4 0.125568 0.490699 0.681238
2016 4 0.133419 0.478624 0.694433
3500 4 0.111888 0.480592 0.694032
2014 2 0.157251 0.473075 0.689289
2015 4 0.181082 0.467526 0.684146
929 4 0.248977 0.509044 0.744262
3330 4 0.466096 0.422574 0.746922
1197 4 0.200319 0.00430722 0.792246
1147 2 0.199402 0.0736835 0.771209
1149 4 0.20952 0.0743722 0.794064
1112 4 0.411498 0.0673023 0.832052
966 4 0.271986 0.102997 0.76041
964 2 0.292269 0.103585 0.775019
965 4 0.312552 0.104173 0.789628
960 4 0.329502 0.113041 0.786599
840 4 0.326664 0.0925435 0.795571
958 2 0.345286 0.120601 0.768742
838 2 0.341773 0.0905224 0.815391
3426 4 0.452148 0.15337 0.788887
3424 2 0.449281 0.137194 0.770038
3362 4 0.451268 0.163793 0.807501
3270 4 0.466961 0.165212 0.794863
3268 2 0.491892 0.163366 0.794398
1677 4 0.0559462 0.171044 0.810412
1214 4 0.0101491 0.203738 0.827149
862 2 0.0448697 0.231546 0.771222
863 4 0.0411859 0.234326 0.795796
1676 4 0.0475705 0.220337 0.809512
924 4 0.0413789 0.239085 0.814925
1675 2 0.0517583 0.19569 0.809962
922 2 0.021028 0.253611 0.815081
1235 4 0.110146 0.249131 0.773029
1084 2 0.313253 0.171635 0.821562
1085 4 0.320761 0.178446 0.798705
844 2 0.379504 0.203699 0.755013
846 4 0.357418 0.205877 0.766529
46 1 0.398007 0.238612 0.80775
47 3 0.391968 0.216454 0.806442
50 3 0.39887 0.247403 0.786759
1053 4 0.402357 0.179338 0.824491
49 3 0.418853 0.240123 0.817828
3361 2 0.44592 0.186516 0.816459
3363 4 0.440572 0.209239 0.825417
923 4 0.000677218 0.268137 0.815237
970 2 0.0124119 0.312257 0.809173
972 4 0.0362906 0.307074 0.80387
779 4 0.0494229 0.320443 0.798358
778 2 0.0616302 0.327767 0.777803
1234 2 0.117779 0.268552 0.786803
1236 4 0.125413 0.287974 0.800577
1121 4 0.131451 0.307304 0.801696
1120 2 0.131107 0.324393 0.783447
1241 4 0.123633 0.298007 0.818683
48 3 0.382233 0.24995 0.820439
1043 4 0.414295 0.251903 0.833924
3486 4 0.395498 0.260371 0.831853
780 4 0.0738375 0.335091 0.757248
822 4 0.00601314 0.368239 0.745406
2173 2 0.0484119 0.407888 0.798303
2174 4 0.0281524 0.411261 0.812563
2175 4 0.0686715 0.404515 0.784043
884 4 0.0629319 0.403546 0.76196
1079 4 0.0801678 0.407803 0.769668
1122 4 0.130763 0.341482 0.765199
483 4 0.161171 0.369789 0.805599
1078 2 0.103472 0.406378 0.778615
1080 4 0.126776 0.404952 0.787563
941 4 0.202407 0.337803 0.76568
940 2 0.200543 0.339136 0.790578
1138 2 0.217263 0.393118 0.780178
942 4 0.198679 0.340469 0.815477
1139 4 0.240316 0.383638 0.778219
481 2 0.166338 0.385214 0.824588
1301 4 0.199383 0.350862 0.832609
1140 4 0.194209 0.402598 0.782138
482 4 0.171506 0.400638 0.843576
3204 4 0.311619 0.330184 0.824244
1298 4 0.248234 0.365924 0.78491
1299 4 0.261304 0.334198 0.748532
1143 4 0.257644 0.382105 0.789703
1297 2 0.254769 0.350061 0.766721
1141 2 0.269298 0.391564 0.809699
3202 2 0.319893 0.349582 0.810812
3203 4 0.328168 0.36898 0.797379
1099 2 0.486989 0.406521 0.779355
1101 4 0.49608 0.399217 0.801473
1100 4 0.477899 0.413824 0.757237
1223 4 0.141107 0.453063 0.772721
1222 2 0.152335 0.450782 0.794945
1224 4 0.163563 0.448501 0.817169
2834 4 0.152035 0.433402 0.829806
152 3 0.180487 0.442395 0.826821
1170 4 0.179693 0.46291 0.8292
1229 4 0.310032 0.493074 0.805455
1017 4 0.319001 0.477602 0.82355