ITEM: TIMESTEP
180000
ITEM: NUMBER OF ATOMS
4590
ITEM: BOX BOUNDS pp pp pp
-9.9985700000000008e+00 9.9985700000000008e+00
-9.9985700000000008e+00 9.9985700000000008e+00
-9.9985700000000008e+00 9.9985700000000008e+00
ITEM: ATOMS id type xs ys zs
463 2 0.0806638 0.0502753 0.0189958
465 4 0.0720919 0.0698622 0.0060323
1667 4 0.0761912 0.0265254 0.0458493
1666 2 0.0632938 0.0165527 0.0648066
464 4 0.0892358 0.0306884 0.0319594
702 4 0.117004 0.0733064 0.0840237
532 2 0.204554 0.0506489 0.027478
534 4 0.220447 0.0550497 0.0462717
533 4 0.18866 0.046248 0.00868443
490 2 0.287639 0.0422323 0.0435311
491 4 0.276401 0.0209717 0.050377
492 4 0.298877 0.063493 0.0366851
295 2 0.400716 0.0864938 0.0798077
745 2 0.44683 0.0613951 0.0346302
746 4 0.434527 0.0580737 0.0561425
747 4 0.459134 0.0647165 0.0131179
2975 4 0.479091 0.0662641 0.00879454
2974 2 0.498155 0.0501571 0.00727829
589 2 0.0308833 0.0941406 0.0523764
590 4 0.0104395 0.0819119 0.0599716
591 4 0.0513271 0.106369 0.0447811
476 4 0.120881 0.166267 0.068839
700 2 0.111485 0.0947833 0.0724711
701 4 0.105966 0.11626 0.0609186
422 4 0.113179 0.119638 0.0200072
421 2 0.126152 0.136995 0.00753329
565 2 0.212015 0.111703 0.0744415
566 4 0.218594 0.0875881 0.0750361
567 4 0.205435 0.135818 0.0738468
360 4 0.276118 0.122229 0.0235298
358 2 0.277321 0.110085 0.00170686
557 4 0.341947 0.155606 0.0327097
296 4 0.385022 0.102409 0.0686019
556 2 0.35931 0.143932 0.0463999
558 4 0.376673 0.132258 0.0600901
771 4 0.465224 0.151721 0.0148109
553 2 0.0853388 0.219431 0.0187363
554 4 0.0906042 0.236462 0.0362693
665 4 0.34997 0.173741 0.0285346
572 4 0.343266 0.243855 0.042454
664 2 0.342524 0.178442 0.00513298
1071 4 0.395345 0.22451 0.998084
770 4 0.474363 0.184683 0.051289
769 2 0.469794 0.168202 0.0330499
294 4 0.0940036 0.320644 0.0128078
292 2 0.105 0.298946 0.00702287
483 4 0.230493 0.2892 0.0528703
505 2 0.180887 0.287898 0.0780449
507 4 0.188606 0.296837 0.0560066
481 2 0.250265 0.303171 0.0466221
571 2 0.321039 0.255293 0.0429808
573 4 0.298811 0.266731 0.0435076
355 2 0.268417 0.276129 0.00170419
357 4 0.28537 0.293948 0.006202
482 4 0.270038 0.317141 0.0403739
1069 2 0.405139 0.247503 0.998863
280 2 0.465251 0.322264 0.00404783
281 4 0.480166 0.303087 0.00996032
322 2 0.435272 0.264675 0.0710446
323 4 0.452353 0.273602 0.0551162
1070 4 0.414932 0.270496 0.999643
328 2 0.00223212 0.405647 0.00217085
330 4 0.0180954 0.39848 0.0201197
454 2 0.142419 0.349332 0.0790276
455 4 0.140604 0.357366 0.0554197
286 2 0.189249 0.357215 0.00485863
287 4 0.201232 0.345253 0.0232571
252 4 0.260844 0.382013 0.0480778
250 2 0.268417 0.400339 0.0633095
956 4 0.369733 0.346967 0.0225236
955 2 0.347081 0.34617 0.0119679
670 2 0.442613 0.338417 0.0681535
671 4 0.467044 0.343605 0.0669743
672 4 0.418182 0.333229 0.0693327
315 4 0.00670861 0.420947 0.0489679
551 4 0.0777222 0.464565 0.0545363
242 4 0.129247 0.491057 0.062976
552 4 0.107176 0.428718 0.0358763
550 2 0.092449 0.446642 0.0452063
244 2 0.231012 0.454964 0.0145248
245 4 0.21397 0.468146 0.027214
246 4 0.248053 0.441783 0.0018356
251 4 0.27599 0.418664 0.0785412
608 4 0.364575 0.423852 0.0608636
524 4 0.347281 0.496309 0.0670967
607 2 0.341992 0.423874 0.0715968
228 4 0.471729 0.467031 0.0588339
564 4 0.416644 0.469036 0.02715
562 2 0.43873 0.464216 0.0164645
226 2 0.494033 0.460601 0.0495397
16 1 0.0789636 0.0676071 0.132378
19 3 0.0595592 0.0633117 0.120402
18 3 0.0806811 0.0528789 0.150225
450 4 0.156905 0.0522341 0.139003
20 3 0.0971129 0.0654931 0.118784
448 2 0.17849 0.0503097 0.126531
449 4 0.200076 0.0483853 0.114059
652 2 0.310938 0.0364849 0.157787
654 4 0.304308 0.0532172 0.140431
582 4 0.276129 0.0723832 0.116926
297 4 0.416411 0.0705786 0.0910135
1760 4 0.457067 0.00667646 0.145256
17 3 0.0780664 0.0890983 0.140531
235 2 0.159781 0.124021 0.123898
237 4 0.138143 0.136547 0.124145
475 2 0.126646 0.159995 0.0923467
477 4 0.13241 0.153724 0.115854
236 4 0.181419 0.111495 0.123651
580 2 0.273728 0.0860515 0.137725
581 4 0.271328 0.0997198 0.158523
630 4 0.411497 0.151965 0.145841
628 2 0.425811 0.151512 0.125345
629 4 0.440125 0.15106 0.104849
379 2 0.0221986 0.16945 0.15936
380 4 0.0103659 0.184175 0.142979
339 4 0.064268 0.231201 0.134921
337 2 0.0859703 0.242993 0.13881
736 2 0.188836 0.199186 0.143798
737 4 0.181004 0.202693 0.120313
354 4 0.258197 0.233515 0.157774
352 2 0.248183 0.221267 0.138411
738 4 0.196668 0.19568 0.167283
353 4 0.23817 0.20902 0.119048
279 4 0.270257 0.245803 0.168785
461 4 0.298162 0.181454 0.130534
460 2 0.319407 0.191033 0.121474
254 4 0.404551 0.190721 0.117381
255 4 0.358403 0.208982 0.111245
462 4 0.340651 0.200612 0.112414
253 2 0.381477 0.199851 0.114313
517 2 0.477029 0.23981 0.110905
518 4 0.490307 0.226284 0.0945979
519 4 0.463751 0.253336 0.127212
656 4 0.010076 0.273859 0.0826548
703 2 0.00808648 0.301089 0.160724
705 4 0.0298734 0.312156 0.15543
647 4 0.0731898 0.31857 0.16179
338 4 0.107673 0.254786 0.1427
506 4 0.173167 0.278959 0.100083
535 2 0.183548 0.331961 0.16444
754 2 0.285145 0.291852 0.130824
755 4 0.286102 0.268066 0.138471
756 4 0.284187 0.315638 0.123177
324 4 0.418191 0.255748 0.0869731
741 4 0.36425 0.28805 0.132227
622 2 0.419362 0.281528 0.139275
624 4 0.395065 0.275722 0.138205
739 2 0.359212 0.303262 0.113034
740 4 0.354174 0.318475 0.0938408
527 4 0.495116 0.284906 0.175738
623 4 0.443658 0.287334 0.140345
526 2 0.47665 0.2681 0.177056
456 4 0.144233 0.341297 0.102636
416 4 0.128158 0.412162 0.152941
537 4 0.164816 0.334284 0.148041
625 2 0.224136 0.414907 0.129158
626 4 0.228405 0.399828 0.109675
612 4 0.260239 0.354737 0.154473
387 4 0.379869 0.341708 0.133953
385 2 0.378965 0.358438 0.115393
386 4 0.378062 0.375168 0.0968327
11 1 0.407231 0.345631 0.160666
13 3 0.398677 0.347888 0.139215
595 2 0.491546 0.375008 0.150571
15 3 0.429981 0.346508 0.160091
494 4 0.443509 0.41648 0.158901
627 4 0.219867 0.429986 0.14864
639 4 0.236103 0.4423 0.146032
637 2 0.255539 0.451112 0.159062
1439 4 0.235661 0.501239 0.107454
609 4 0.31941 0.423895 0.0823299
523 2 0.353917 0.494543 0.0911388
525 4 0.360553 0.492778 0.115181
658 2 0.387413 0.475371 0.147589
659 4 0.394717 0.497327 0.138112
660 4 0.38011 0.453416 0.157065
495 4 0.448406 0.436685 0.11342
493 2 0.445957 0.426583 0.13616
673 2 0.111633 0.0488071 0.225753
674 4 0.128954 0.0558706 0.209162
689 4 0.214189 0.0142228 0.223002
693 4 0.223424 0.06994 0.191046
723 4 0.202911 0.0771472 0.232821
1505 4 0.259272 0.0162568 0.182147
653 4 0.317569 0.0197527 0.175144
21 1 0.373994 0.0550255 0.231892
24 3 0.357903 0.0445204 0.218886
25 3 0.393718 0.0560179 0.220551
759 4 0.40143 0.0713713 0.210733
22 3 0.366914 0.0763858 0.236664
757 2 0.423535 0.0716823 0.199051
758 4 0.44564 0.0719934 0.187369
381 4 0.0340313 0.154726 0.175742
511 2 0.024283 0.162337 0.237237
512 4 0.021681 0.149056 0.216212
577 2 0.129105 0.108667 0.206782
578 4 0.14722 0.125439 0.202815
579 4 0.11099 0.0918953 0.210748
691 2 0.240215 0.0860613 0.181917
721 2 0.186714 0.0957045 0.237116
546 4 0.171473 0.132608 0.231005
544 2 0.17113 0.153984 0.243971
722 4 0.170516 0.114262 0.241411
692 4 0.257006 0.102183 0.172788
26 1 0.317267 0.156694 0.244781
28 3 0.318974 0.158412 0.221704
310 2 0.38288 0.126437 0.19808
312 4 0.385484 0.110125 0.17931
311 4 0.380276 0.142748 0.21685
332 4 0.461864 0.13027 0.254537
394 2 0.00545557 0.238849 0.218571
363 4 0.0659749 0.242753 0.191001
395 4 0.027282 0.250408 0.222465
392 4 0.0888833 0.190233 0.216081
391 2 0.0882775 0.185901 0.240699
370 2 0.154836 0.241572 0.232372
372 4 0.133996 0.246005 0.219286
284 4 0.268026 0.226814 0.174619
371 4 0.175675 0.237138 0.245459
30 3 0.299636 0.169047 0.25221
283 2 0.271244 0.203385 0.182737
285 4 0.274462 0.179956 0.190854
765 4 0.362275 0.204873 0.228296
764 4 0.388611 0.21725 0.187627
763 2 0.375443 0.211061 0.207961
520 2 0.470301 0.207237 0.232773
521 4 0.456758 0.216461 0.213888
528 4 0.458185 0.251293 0.178375
361 2 0.0755048 0.265868 0.190866
648 4 0.0895237 0.329143 0.207857
362 4 0.0850347 0.288984 0.19073
646 2 0.0813568 0.323857 0.184823
343 2 0.22039 0.277969 0.226064
344 4 0.234816 0.258584 0.232491
345 4 0.205964 0.297353 0.219637
277 2 0.261015 0.265609 0.180929
536 4 0.202279 0.329639 0.180839
278 4 0.251773 0.285415 0.193074
307 2 0.28106 0.284933 0.226924
309 4 0.26622 0.283106 0.206884
308 4 0.295901 0.28676 0.246965
12 3 0.400646 0.325309 0.169198
262 2 0.0263853 0.407695 0.214962
264 4 0.00710867 0.393592 0.222356
298 2 0.146248 0.340491 0.235971
299 4 0.134127 0.339415 0.214128
610 2 0.277921 0.339784 0.163902
611 4 0.295604 0.324831 0.173332
301 2 0.32474 0.410416 0.188833
14 3 0.398999 0.36251 0.174294
729 4 0.331888 0.349693 0.243235
302 4 0.334262 0.387879 0.193987
597 4 0.471805 0.363165 0.160328
643 2 0.44226 0.386124 0.200017
644 4 0.442483 0.406471 0.214547
645 4 0.442037 0.365776 0.185487
108 3 0.496654 0.389032 0.201035
263 4 0.0456619 0.421799 0.207567
415 2 0.129192 0.420581 0.176462
417 4 0.130226 0.429 0.199983
291 4 0.185232 0.468654 0.188841
289 2 0.20171 0.452639 0.198697
290 4 0.218189 0.436623 0.208554
638 4 0.274975 0.459923 0.172092
303 4 0.315218 0.432953 0.183678
768 4 0.286279 0.464125 0.187042
767 4 0.288387 0.442074 0.231876
766 2 0.287333 0.4531 0.209459
232 2 0.00250794 0.0522991 0.280068
233 4 0.0105223 0.0331212 0.293966
1402 2 0.0750565 0.012665 0.269579
675 4 0.0943117 0.0417437 0.242345
1464 4 0.149897 0.0192319 0.27621
1403 4 0.0848633 0.0266478 0.251318
730 2 0.161674 0.0783524 0.310563
732 4 0.161424 0.0604382 0.328004
688 2 0.213208 0.0106162 0.247724
690 4 0.212226 0.00700954 0.272447
248 4 0.232287 0.0707238 0.278993
23 3 0.376879 0.0434569 0.251798
698 4 0.366865 0.0237673 0.322523
479 4 0.488293 0.0497251 0.320984
743 4 0.441916 0.0713633 0.283459
742 2 0.440367 0.0501866 0.270256
744 4 0.438819 0.02901 0.257052
478 2 0.477664 0.02957 0.310689
480 4 0.467035 0.00941486 0.300395
351 4 0.416621 0.0842291 0.307387
529 2 0.025595 0.141072 0.298571
530 4 0.0448508 0.13967 0.314459
531 4 0.00633924 0.142474 0.282683
731 4 0.161924 0.0962665 0.293121
249 4 0.221834 0.119151 0.285793
247 2 0.227061 0.0949374 0.282393
403 2 0.229076 0.162842 0.288132
404 4 0.229854 0.137866 0.289011
29 3 0.314503 0.13448 0.250888
631 2 0.37074 0.107652 0.275462
632 4 0.384735 0.118859 0.258035
633 4 0.356744 0.0964438 0.292889
349 2 0.439024 0.0873871 0.318031
331 2 0.468506 0.154347 0.25569
350 4 0.461428 0.090545 0.328676
452 4 0.479819 0.136912 0.335607
513 4 0.0268851 0.175618 0.258261
393 4 0.0876717 0.181569 0.265317
545 4 0.170787 0.17536 0.256937
405 4 0.228298 0.187818 0.287254
27 3 0.336641 0.164662 0.254284
707 4 0.337946 0.183086 0.260022
706 2 0.346713 0.190507 0.282231
708 4 0.355481 0.197929 0.30444
333 4 0.475148 0.178425 0.256843
420 4 0.413584 0.245573 0.302424
522 4 0.483844 0.198012 0.251659
762 4 0.469182 0.194296 0.265883
761 4 0.436736 0.205274 0.302317
760 2 0.452959 0.199785 0.2841
444 4 0.0493529 0.282029 0.311656
442 2 0.0297274 0.27482 0.297943
748 2 0.0865812 0.281937 0.256718
750 4 0.0705625 0.264212 0.249343
2493 4 0.0139755 0.330553 0.332691
443 4 0.0101019 0.267611 0.28423
749 4 0.1026 0.299662 0.264093
390 4 0.116749 0.270848 0.309247
388 2 0.136226 0.284595 0.316784
389 4 0.155704 0.298342 0.324322
400 2 0.216272 0.277471 0.317851
402 4 0.227412 0.290241 0.299467
496 2 0.32624 0.30476 0.272551
498 4 0.312385 0.292608 0.255653
497 4 0.340096 0.316912 0.289448
543 4 0.405301 0.327093 0.315363
615 4 0.358001 0.335221 0.317465
418 2 0.433015 0.252999 0.316297
541 2 0.419451 0.31155 0.301821
542 4 0.4336 0.296007 0.288279
419 4 0.452446 0.260426 0.33017
366 4 0.0378077 0.340804 0.272386
364 2 0.0148805 0.341477 0.28234
601 2 0.0668317 0.398557 0.314016
603 4 0.0604152 0.375255 0.30761
300 4 0.158369 0.341566 0.257814
677 4 0.124204 0.347927 0.310133
676 2 0.143747 0.342986 0.324926
734 4 0.165408 0.343178 0.27614
735 4 0.204111 0.373621 0.284862
733 2 0.184759 0.3584 0.280501
728 4 0.343063 0.393141 0.265329
727 2 0.337476 0.371417 0.254282
447 4 0.4311 0.361048 0.259048
445 2 0.432577 0.378893 0.2765
446 4 0.434053 0.396737 0.293952
118 3 0.472642 0.420399 0.315343
602 4 0.0732481 0.421858 0.320423
777 4 0.0731755 0.477673 0.317852
414 4 0.14564 0.470894 0.288762
412 2 0.157918 0.466665 0.310128
413 4 0.170197 0.462436 0.331495
436 2 0.278043 0.434788 0.294639
437 4 0.294674 0.419276 0.284249
438 4 0.261411 0.450299 0.305029
231 4 0.402485 0.483702 0.254192
713 4 0.408084 0.485498 0.292852
712 2 0.425778 0.468755 0.287214
714 4 0.443472 0.452012 0.281576
119 3 0.486165 0.448808 0.33666
116 1 0.485054 0.425763 0.334199
316 2 0.0365445 0.0393908 0.353316
317 4 0.0257873 0.0502693 0.373093
318 4 0.0473017 0.0285123 0.333539
427 2 0.0855731 0.0141495 0.363053
428 4 0.101492 0.0293951 0.374858
1699 2 0.241716 0.998354 0.343779
441 4 0.230453 0.0148042 0.391447
1701 4 0.240063 0.0172483 0.360072
439 2 0.249565 0.030678 0.38863
440 4 0.268677 0.0465518 0.385812
683 4 0.334853 0.0753448 0.379747
697 2 0.361166 0.0310288 0.34576
699 4 0.355467 0.0382904 0.368997
256 2 0.412011 0.0702433 0.40732
398 4 0.0716014 0.127643 0.341118
397 2 0.0841889 0.109191 0.352354
606 4 0.153261 0.083557 0.373502
399 4 0.0967765 0.0907391 0.363591
687 4 0.137276 0.147746 0.39511
685 2 0.154813 0.158676 0.409187
604 2 0.178181 0.0849355 0.375015
605 4 0.2031 0.086314 0.376528
598 2 0.190357 0.157138 0.352327
599 4 0.209998 0.143385 0.359415
474 4 0.229024 0.151376 0.359249
682 2 0.313631 0.0873231 0.385344
684 4 0.292409 0.0993013 0.390942
467 4 0.324778 0.164048 0.397859
466 2 0.340875 0.147565 0.388145
468 4 0.356972 0.131082 0.378432
257 4 0.429324 0.0801822 0.392266
451 2 0.465962 0.140466 0.356114
453 4 0.452104 0.144019 0.376621
514 2 0.425532 0.130471 0.400361
515 4 0.440438 0.148874 0.392341
516 4 0.410626 0.112067 0.40838
2654 4 0.00473044 0.172309 0.351877
600 4 0.170716 0.170891 0.345239
274 2 0.236089 0.236893 0.396789
472 2 0.247579 0.168105 0.36026
276 4 0.250598 0.218482 0.388088
473 4 0.266133 0.184834 0.36127
715 2 0.355887 0.225575 0.378357
716 4 0.363534 0.210646 0.359815
717 4 0.34824 0.240504 0.3969
305 4 0.475413 0.190271 0.416705
304 2 0.487798 0.211991 0.416885
616 2 0.0975287 0.320603 0.353664
617 4 0.117902 0.306165 0.354958
678 4 0.16329 0.338045 0.339719
401 4 0.205131 0.264701 0.336235
275 4 0.22158 0.255304 0.40549
375 4 0.20608 0.2606 0.418641
487 2 0.299737 0.265005 0.403104
488 4 0.320254 0.264171 0.388837
376 2 0.281807 0.309055 0.366186
377 4 0.302719 0.299549 0.37606
378 4 0.260895 0.318562 0.356311
509 4 0.246772 0.33195 0.362813
268 2 0.472857 0.283035 0.386597
269 4 0.457697 0.266841 0.398134
270 4 0.488018 0.299228 0.375061
2927 4 0.00176902 0.385172 0.392897
408 4 0.0624104 0.383805 0.388459
406 2 0.0800242 0.400565 0.382623
618 4 0.077156 0.335041 0.352371
508 2 0.222885 0.339302 0.362089
510 4 0.198998 0.346655 0.361366
504 4 0.230905 0.39855 0.394017
435 4 0.3195 0.355781 0.34833
433 2 0.322309 0.380337 0.344551
613 2 0.372499 0.348785 0.332665
614 4 0.386997 0.362348 0.347865
434 4 0.325117 0.404894 0.340772
336 4 0.357144 0.399608 0.401805
2924 4 0.498432 0.366157 0.370588
561 4 0.464574 0.36639 0.392837
751 2 0.438928 0.4021 0.399539
752 4 0.458092 0.386248 0.396959
548 4 0.0576986 0.432104 0.356186
547 2 0.0458101 0.45281 0.36361
549 4 0.0339216 0.473516 0.371034
680 4 0.0355903 0.427376 0.403042
775 2 0.0925193 0.475701 0.333572
407 4 0.097638 0.417324 0.376787
776 4 0.111863 0.473729 0.349291
499 2 0.126864 0.44651 0.3778
500 4 0.137282 0.435545 0.39771
501 4 0.116446 0.457476 0.357891
502 2 0.229794 0.422194 0.385961
503 4 0.228682 0.445837 0.377904
1556 4 0.260641 0.511699 0.396067
1 1 0.30976 0.474377 0.382207
5 3 0.308143 0.460643 0.364112
4 3 0.292584 0.469856 0.397138
3 3 0.330287 0.471389 0.392605
586 2 0.409204 0.446283 0.411737
594 4 0.409657 0.481725 0.351361
117 3 0.474728 0.416798 0.352697
587 4 0.428919 0.435601 0.400673
753 4 0.419765 0.417952 0.402119
592 2 0.425109 0.480559 0.370984
593 4 0.44056 0.479393 0.390608
1772 4 0.0380307 0.00433733 0.441226
2237 4 0.0504646 0.0231936 0.490522
718 2 0.0397697 0.0759153 0.461136
720 4 0.0354605 0.0586652 0.443557
367 2 0.104969 0.0732016 0.465948
369 4 0.115872 0.050709 0.466563
342 4 0.178505 0.0408575 0.460261
340 2 0.181141 0.0310385 0.483104
962 4 0.304158 0.0153492 0.494097
432 4 0.308036 0.0752783 0.498745
258 4 0.394697 0.0603045 0.422375
424 2 0.381999 0.0444891 0.452714
425 4 0.362308 0.0359883 0.465567
426 4 0.40169 0.0529899 0.439862
3488 4 0.498934 0.0414362 0.489111
1061 4 0.483126 0.0299844 0.494723
719 4 0.0440789 0.0931655 0.478716
457 2 0.00438307 0.158355 0.438882
458 4 0.0154131 0.136944 0.445596
368 4 0.0940656 0.0956942 0.465334
1152 4 0.15573 0.104607 0.479079
321 4 0.21917 0.121551 0.419166
1150 2 0.176831 0.104254 0.492487
319 2 0.239839 0.12733 0.431995
320 4 0.260507 0.133108 0.444825
431 4 0.303694 0.124804 0.493356
430 2 0.305865 0.100041 0.49605
724 2 0.349197 0.1025 0.444278
725 4 0.34573 0.0978059 0.468591
726 4 0.352664 0.107194 0.419965
575 4 0.385853 0.143201 0.455959
2880 4 0.495473 0.0976506 0.448376
642 4 0.445199 0.103059 0.476688
640 2 0.449086 0.117041 0.497049
260 4 0.0934905 0.168125 0.422685
261 4 0.0986273 0.189315 0.467688
259 2 0.0960589 0.17872 0.445186
1035 4 0.109831 0.187404 0.486088
686 4 0.17235 0.169606 0.423265
411 4 0.264582 0.196594 0.488289
409 2 0.288211 0.200081 0.495685
410 4 0.311839 0.203568 0.503081
576 4 0.361889 0.183634 0.438882
574 2 0.373871 0.163418 0.447421
347 4 0.0369439 0.29252 0.415379
346 2 0.0521943 0.273509 0.420966
348 4 0.0674447 0.254499 0.426553
326 4 0.0929169 0.316506 0.423439
694 2 0.111333 0.289671 0.482578
696 4 0.107723 0.295999 0.458659
325 2 0.084318 0.324758 0.44542
8 3 0.144546 0.324851 0.487005
373 2 0.21118 0.280021 0.433541
374 4 0.21628 0.299441 0.448441
489 4 0.27922 0.265838 0.41737
651 4 0.263321 0.281654 0.468179
649 2 0.258286 0.306144 0.467931
650 4 0.253252 0.330634 0.467684
267 4 0.396259 0.271365 0.433678
265 2 0.373074 0.269323 0.42454
266 4 0.34989 0.267281 0.415402
812 4 0.367654 0.301908 0.492787
872 4 0.421823 0.264965 0.490558
583 2 0.476628 0.321274 0.455568
584 4 0.487997 0.317 0.433713
585 4 0.465259 0.325548 0.477424
681 4 0.0322705 0.381826 0.42341
679 2 0.0339304 0.404601 0.413226
9 3 0.117878 0.345627 0.469638
327 4 0.0757191 0.33301 0.4674
6 1 0.137885 0.346352 0.481369
7 3 0.134752 0.358466 0.500672
10 3 0.153944 0.356401 0.46873
773 4 0.248694 0.415175 0.471716
709 2 0.195838 0.363301 0.465879
710 4 0.219969 0.361716 0.459526
711 4 0.171707 0.364886 0.472231
772 2 0.264117 0.408241 0.490135
334 2 0.354104 0.398219 0.426584
238 2 0.374933 0.381364 0.476029
240 4 0.352816 0.391343 0.469993
335 4 0.351065 0.39683 0.451363
239 4 0.39705 0.371385 0.482065
559 2 0.474444 0.360223 0.414968
560 4 0.484313 0.354056 0.437098
539 4 0.082677 0.485015 0.470517
1383 4 0.0395194 0.498171 0.444943
569 4 0.161136 0.497999 0.434191
538 2 0.0916301 0.502488 0.486
382 2 0.0989745 0.429193 0.48292
383 4 0.118616 0.44095 0.472862
384 4 0.079333 0.417436 0.492978
568 2 0.17069 0.475923 0.441015
634 2 0.220275 0.444372 0.441642
570 4 0.180243 0.453848 0.447839
635 4 0.198603 0.452498 0.451102
636 4 0.241946 0.436246 0.432183
668 4 0.310559 0.439044 0.435018
667 2 0.286045 0.437838 0.430247
669 4 0.26153 0.436632 0.425476
588 4 0.38949 0.456966 0.422801
1126 2 0.0670837 0.0637833 0.533018
1127 4 0.0707574 0.0390861 0.534332
1057 2 0.116078 0.057124 0.580086
1058 4 0.137194 0.0521207 0.567667
2430 4 0.168455 0.0167894 0.558812
341 4 0.183777 0.0212195 0.505948
1181 4 0.25346 0.0619987 0.520139
961 2 0.300554 0.0390142 0.501319
1031 4 0.259064 0.0682534 0.575957
963 4 0.29695 0.0626792 0.508541
841 2 0.365386 0.0499908 0.5459
843 4 0.345114 0.0416204 0.557908
842 4 0.385657 0.0583611 0.533892
1216 2 0.407114 0.027897 0.577992
1217 4 0.424495 0.00998143 0.579445
1060 2 0.467314 0.0149554 0.506942
1062 4 0.451502 0.999926 0.519161
88 3 0.433309 0.00467576 0.526147
1128 4 0.0634101 0.0884806 0.531703
939 4 0.0650553 0.106707 0.542818
1200 4 0.00707498 0.160592 0.575943
937 2 0.0870875 0.11794 0.539133
938 4 0.10912 0.129173 0.535447
1151 4 0.197932 0.103901 0.505896
1221 4 0.180442 0.153602 0.558731
1180 2 0.249603 0.0866449 0.518444
1182 4 0.245747 0.111291 0.516749
1030 2 0.243805 0.0868943 0.582655
899 4 0.359782 0.13616 0.544743
898 2 0.352391 0.154491 0.529427
641 4 0.452972 0.131023 0.51741
3159 4 0.497111 0.150575 0.530825
878 4 0.0796692 0.212319 0.523783
877 2 0.0858243 0.205145 0.546931
879 4 0.0919793 0.197971 0.570079
1033 2 0.126254 0.193831 0.503814
1034 4 0.142676 0.200258 0.521539
856 2 0.227325 0.243419 0.549391
858 4 0.222081 0.243983 0.573832
857 4 0.232569 0.242856 0.52495
1219 2 0.192324 0.170226 0.573141
792 4 0.288934 0.255881 0.538508
900 4 0.345001 0.172821 0.514111
983 4 0.0333878 0.314942 0.547379
982 2 0.0273328 0.329695 0.566637
695 4 0.114943 0.283344 0.506497
1260 4 0.159288 0.277904 0.583659
1258 2 0.170024 0.275282 0.561231
1259 4 0.180761 0.27266 0.538802
791 4 0.313176 0.261312 0.581908
790 2 0.301055 0.258597 0.560208
813 4 0.338291 0.285555 0.529815
802 2 0.266395 0.324266 0.547252
803 4 0.282379 0.31634 0.564769
873 4 0.391886 0.253634 0.528978
811 2 0.352972 0.293732 0.511301
871 2 0.406855 0.2593 0.509768
1160 4 0.166283 0.406437 0.550396
897 4 0.162734 0.406934 0.571029
804 4 0.25041 0.332193 0.529735
774 4 0.27954 0.401307 0.508553
929 4 0.353205 0.394147 0.555625
928 2 0.357129 0.394455 0.580316
925 2 0.462295 0.400631 0.521899
927 4 0.466625 0.419745 0.537426
926 4 0.457965 0.381516 0.506373
936 4 0.0125647 0.458518 0.546653
1159 2 0.181873 0.424822 0.543752
1161 4 0.197462 0.443207 0.537108
1171 2 0.225535 0.464911 0.561738
1173 4 0.20491 0.454741 0.551921
1172 4 0.24616 0.47508 0.571556
882 4 0.32153 0.464 0.52557
880 2 0.344337 0.453994 0.523359
881 4 0.367144 0.443987 0.521148
1000 2 0.39725 0.44706 0.560321
1002 4 0.383357 0.44986 0.580919
1952 4 0.361346 0.495312 0.574066
1001 4 0.411143 0.44426 0.539722
662 4 0.48887 0.474413 0.538622
661 2 0.46669 0.480274 0.528676
663 4 0.444511 0.486134 0.518731
1059 4 0.0949608 0.0621273 0.592505
825 4 0.153247 0.0475771 0.64808
1284 4 0.168432 0.0788103 0.611999
823 2 0.170203 0.0293243 0.645957
824 4 0.187159 0.0110715 0.643834
949 2 0.27502 0.0193828 0.632664
951 4 0.298943 0.0261946 0.630122
950 4 0.251097 0.012571 0.635207
1092 4 0.318228 0.0258578 0.632884
1090 2 0.328026 0.00827793 0.647721
1218 4 0.389733 0.0458126 0.576539
1082 4 0.0415152 0.103503 0.635359
1076 4 0.034853 0.113585 0.64973
1081 2 0.0487743 0.117339 0.615838
1083 4 0.0560335 0.131175 0.596318
1154 4 0.13519 0.154735 0.584982
1153 2 0.133353 0.132546 0.59636
1155 4 0.131516 0.110357 0.607737
909 4 0.134835 0.132216 0.664651
1282 2 0.192225 0.0863848 0.613299
1283 4 0.216019 0.0939592 0.614598
1032 4 0.228546 0.105535 0.589353
1005 4 0.313739 0.0848368 0.648236
809 4 0.453563 0.0852377 0.615076
808 2 0.451455 0.0860926 0.639976
810 4 0.449347 0.0869475 0.664876
1271 4 0.135285 0.173681 0.5943
1272 4 0.0974382 0.205573 0.587143
1270 2 0.116362 0.189627 0.590722
1212 4 0.222415 0.184612 0.645739
1220 4 0.204207 0.186849 0.587551
1193 4 0.359133 0.186883 0.640501
1192 2 0.347291 0.188902 0.66243
1024 2 0.445597 0.187239 0.663616
1025 4 0.465252 0.197433 0.651999
906 4 0.492004 0.246971 0.625521
1243 2 0.0377006 0.278373 0.641313
1244 4 0.0454854 0.289571 0.620356
1245 4 0.0299158 0.267175 0.662269
1209 4 0.0795201 0.254825 0.636805
947 4 0.169633 0.27154 0.643719
1207 2 0.0920643 0.254533 0.658432
797 4 0.208303 0.245363 0.587816
796 2 0.222495 0.255673 0.605633
946 2 0.179861 0.293691 0.638253
948 4 0.19009 0.315842 0.632786
798 4 0.236688 0.265983 0.62345
1239 4 0.29205 0.317653 0.650142
1237 2 0.316841 0.319532 0.64749
1238 4 0.341633 0.321411 0.644839
954 4 0.459058 0.287939 0.585994
952 2 0.459685 0.286533 0.61095
953 4 0.460312 0.285127 0.635906
1040 4 0.0425844 0.401089 0.621663
1039 2 0.0669508 0.406358 0.619741
984 4 0.0212778 0.344448 0.585895
1137 4 0.0990926 0.396838 0.606544
1136 4 0.125631 0.354592 0.609977
1135 2 0.112362 0.375715 0.60826
1041 4 0.0913172 0.411626 0.617818
895 2 0.16348 0.38691 0.585985
1191 4 0.225272 0.370515 0.590978
896 4 0.164226 0.366887 0.600941
1189 2 0.245247 0.384545 0.596396
1190 4 0.265221 0.398574 0.601815
930 4 0.361054 0.394763 0.605008
1204 2 0.414101 0.414241 0.656934
993 4 0.103178 0.420716 0.630955
992 4 0.150815 0.435871 0.63228
991 2 0.126997 0.428293 0.631617
1188 4 0.249943 0.465579 0.610523
1186 2 0.258128 0.484614 0.624519
889 2 0.325843 0.443947 0.60756
891 4 0.323802 0.437696 0.631683
890 4 0.327885 0.450197 0.583436
1206 4 0.40907 0.433311 0.641566
1951 2 0.350681 0.493862 0.596634
1953 4 0.340015 0.492413 0.619203
1268 4 0.467684 0.486303 0.642926
1267 2 0.453929 0.482295 0.663418
1185 4 0.0188831 0.0369212 0.669145
1183 2 0.0184971 0.0134819 0.677841
944 4 0.0476932 0.0509645 0.684184
943 2 0.071859 0.0545986 0.689474
2990 4 0.0120609 0.06663 0.739143
945 4 0.0960248 0.0582327 0.694764
1147 2 0.205191 0.0731129 0.745882
1004 4 0.315035 0.0914688 0.697784
1163 4 0.474857 0.0277533 0.680277
43 3 0.425619 0.0679527 0.699365
1162 2 0.484632 0.0496537 0.687348
2322 4 0.494143 0.00929144 0.736728
45 3 0.431394 0.0931415 0.671982
862 2 0.0568776 0.134252 0.727756
864 4 0.048371 0.134458 0.704245
1075 2 0.0336617 0.117486 0.674399
863 4 0.0653842 0.134045 0.751267
1077 4 0.0324705 0.121387 0.699067
851 4 0.0607488 0.173084 0.706768
833 4 0.0189013 0.137439 0.736131
907 2 0.146075 0.143939 0.683662
908 4 0.157315 0.155663 0.702672
1148 4 0.211463 0.0954053 0.736455
1225 2 0.189012 0.127702 0.71929
1226 4 0.205597 0.11335 0.731296
1227 4 0.172426 0.142053 0.707285
829 2 0.329046 0.160625 0.716308
1003 2 0.314387 0.0881528 0.67301
830 4 0.318075 0.174202 0.698406
831 4 0.340017 0.147048 0.73421
44 3 0.406939 0.10105 0.699497
1141 2 0.392618 0.153474 0.697946
1142 4 0.413493 0.139721 0.697434
41 1 0.426918 0.0905271 0.694158
42 3 0.443856 0.100038 0.706479
852 4 0.0348703 0.195958 0.670604
850 2 0.0478095 0.184521 0.688686
1213 2 0.0125841 0.218937 0.746409
1107 4 0.0707734 0.178329 0.721923
1105 2 0.0863406 0.188599 0.738578
1106 4 0.101908 0.198869 0.755232
1210 2 0.237041 0.191367 0.66486
1211 4 0.251667 0.198122 0.683982
978 4 0.250233 0.19425 0.724837
887 4 0.318501 0.182009 0.678935
886 2 0.293735 0.185314 0.679877
888 4 0.268968 0.188618 0.680819
976 2 0.268989 0.207998 0.734022
977 4 0.287746 0.221746 0.743208
1194 4 0.33545 0.190921 0.684359
1143 4 0.371743 0.167227 0.698458
1026 4 0.425942 0.177045 0.675232
1261 2 0.445367 0.221407 0.724014
1263 4 0.430421 0.202751 0.716684
1262 4 0.460313 0.240063 0.731345
1179 4 0.011121 0.267213 0.668606
1177 2 0.0134 0.270046 0.693344
1178 4 0.015679 0.27288 0.718081
1208 4 0.104608 0.254242 0.680059
820 2 0.169398 0.300693 0.748086
821 4 0.186369 0.282333 0.747872
1065 4 0.247919 0.278383 0.671892
1063 2 0.25512 0.29584 0.68828
1064 4 0.262321 0.313298 0.704668
807 4 0.348005 0.330306 0.71862
805 2 0.352473 0.325856 0.694425
1006 2 0.380649 0.305378 0.741697
1007 4 0.396639 0.286764 0.746494
1008 4 0.36466 0.323993 0.736901
806 4 0.356941 0.321407 0.67023
3123 4 0.488074 0.288513 0.697416
3121 2 0.501523 0.298758 0.715838
892 2 0.0689767 0.350774 0.698202
894 4 0.0459191 0.360353 0.699531
893 4 0.0920343 0.341195 0.696872
940 2 0.149012 0.390907 0.740575
1067 4 0.14711 0.374182 0.675716
941 4 0.159298 0.410175 0.728404
1028 4 0.21509 0.38582 0.676592
1066 2 0.171682 0.378449 0.673936
1068 4 0.196254 0.382717 0.672156
1027 2 0.237759 0.389521 0.686472
1029 4 0.260427 0.393222 0.696352
1205 4 0.419132 0.39517 0.672302
1100 4 0.459611 0.413095 0.735824
1281 4 0.0534357 0.480605 0.703525
1280 4 0.0480878 0.434496 0.684922
1279 2 0.0507618 0.457551 0.694224
1983 4 0.0418785 0.494498 0.749567
1176 4 0.201756 0.49724 0.67368
1138 2 0.297292 0.453406 0.722976
1139 4 0.278541 0.459847 0.73821
1140 4 0.316043 0.446964 0.707742
1228 2 0.35951 0.454713 0.707146
1229 4 0.369146 0.476593 0.699824
1230 4 0.349873 0.432834 0.714467
1269 4 0.440174 0.478288 0.68391
1099 2 0.467603 0.427208 0.716794
1101 4 0.475595 0.441321 0.697765
1249 2 0.480989 0.497495 0.736094
1251 4 0.457516 0.502832 0.742855
1295 4 0.0156562 0.061854 0.779275
1294 2 0.00605303 0.049735 0.798925
1203 4 0.0756154 0.0689014 0.767479
1201 2 0.09787 0.0575039 0.767585
1202 4 0.120125 0.0461064 0.767692
1149 4 0.198919 0.0508205 0.75531
1255 2 0.275596 0.055902 0.797244
1256 4 0.279799 0.0773031 0.809472
1257 4 0.271393 0.034501 0.785017
1113 4 0.424942 0.0591397 0.776046
1111 2 0.422563 0.0460302 0.797204
844 2 0.480034 0.0616208 0.776678
1112 4 0.420184 0.0329208 0.818362
845 4 0.471615 0.0590982 0.800086
846 4 0.488453 0.0641435 0.75327
980 4 0.43096 0.0153674 0.816688
979 2 0.450903 0.0112845 0.831207
832 2 0.00654233 0.138785 0.757825
34 3 0.134052 0.131677 0.827637
31 1 0.140449 0.139418 0.806719
35 3 0.126495 0.131104 0.790756
33 3 0.162299 0.133019 0.802246
32 3 0.139256 0.16239 0.806606
840 4 0.239815 0.120871 0.831581
839 4 0.260986 0.0830474 0.806644
838 2 0.2504 0.101959 0.819112
1084 2 0.349387 0.111782 0.794202
1085 4 0.356304 0.111163 0.818222
1086 4 0.34247 0.112401 0.770182
819 4 0.370951 0.10248 0.828227
1214 4 0.0266761 0.221155 0.766944
1074 4 0.104523 0.249138 0.810015
1276 2 0.196581 0.249736 0.753653
1277 4 0.21592 0.233887 0.753522
1131 4 0.169224 0.181001 0.786617
1129 2 0.192448 0.176415 0.778568
1130 4 0.215672 0.171829 0.770519
918 4 0.305969 0.226287 0.749531
916 2 0.298077 0.239721 0.769085
917 4 0.290184 0.253156 0.78864
1298 4 0.340886 0.193855 0.753399
1299 4 0.377447 0.174311 0.781363
47 3 0.402597 0.177051 0.805226
1297 2 0.359166 0.184083 0.767381
1042 2 0.41533 0.244438 0.814591
1144 2 0.490521 0.19332 0.792377
50 3 0.431785 0.174446 0.828337
46 1 0.424199 0.183951 0.809082
48 3 0.437479 0.177359 0.791233
1043 4 0.430214 0.224429 0.81641
49 3 0.424454 0.207071 0.811031
1145 4 0.474139 0.202247 0.809024
822 4 0.152426 0.319053 0.7483
1073 4 0.100102 0.284814 0.775252
1072 2 0.102312 0.266976 0.792634