ITEM: TIMESTEP
1510000
ITEM: NUMBER OF ATOMS
4590
ITEM: BOX BOUNDS pp pp pp
-9.9985700000000008e+00 9.9985700000000008e+00
-9.9985700000000008e+00 9.9985700000000008e+00
-9.9985700000000008e+00 9.9985700000000008e+00
ITEM: ATOMS id type xs ys zs
463 2 0.0392408 0.000249854 0.0817329
19 3 0.00733758 0.0701024 0.0446552
784 2 0.0111414 0.0489427 0.0139018
1667 4 0.039718 0.0781985 0.0509949
578 4 0.126038 0.0447785 0.0722309
491 4 0.228684 0.0278659 0.0564261
490 2 0.250584 0.0309478 0.0447611
492 4 0.272484 0.0340297 0.033096
486 4 0.291303 0.0282155 0.0371587
484 2 0.315311 0.0302964 0.0438265
358 2 0.256422 0.0780683 0.00646345
485 4 0.33932 0.0323773 0.0504942
1607 4 0.350803 0.0215057 0.0362365
1606 2 0.362677 0.999529 0.0373415
2467 2 0.490592 0.039 0.0345005
2468 4 0.488171 0.0433715 0.0100013
2723 4 0.486948 0.0269606 0.0764152
1760 4 0.495342 0.0138685 0.0666722
2469 4 0.493012 0.0346285 0.0589996
2722 2 0.462715 0.0302376 0.0816342
1666 2 0.0576426 0.0956285 0.0512835
1668 4 0.0755673 0.113058 0.0515722
1246 2 0.0222195 0.142824 0.0455758
1248 4 0.0210636 0.139644 0.0208023
1247 4 0.0233755 0.146004 0.0703494
3234 4 0.016058 0.14293 0.00200732
359 4 0.255789 0.0838586 0.0307791
866 4 0.333705 0.156899 0.00293219
666 4 0.328499 0.158469 0.0208903
665 4 0.346958 0.154904 0.0672292
664 2 0.337729 0.156687 0.0440598
556 2 0.3862 0.13862 0.0765986
557 4 0.363504 0.144993 0.0682642
558 4 0.408895 0.132246 0.084933
297 4 0.440332 0.122503 0.0301555
295 2 0.433529 0.12579 0.0539903
296 4 0.426727 0.129078 0.0778251
2894 4 0.500139 0.136726 0.0803449
2466 4 0.498427 0.119877 0.0720216
555 4 0.108253 0.201489 0.0416162
554 4 0.141121 0.226368 0.0133069
553 2 0.124687 0.213929 0.0274615
770 4 0.430885 0.20427 0.0538778
769 2 0.454422 0.202072 0.0620218
771 4 0.47796 0.199874 0.0701659
2895 4 0.489845 0.185163 0.0733685
2893 2 0.494992 0.160945 0.0768567
836 4 0.0617294 0.315165 0.0744345
869 4 0.120857 0.2585 0.015454
754 2 0.294521 0.28884 0.0718916
755 4 0.27959 0.26879 0.0724015
756 4 0.309452 0.308889 0.0713817
740 4 0.311129 0.32974 0.0716016
322 2 0.380935 0.285251 0.0643848
323 4 0.372904 0.282838 0.0408295
1070 4 0.35171 0.318657 0.0137512
739 2 0.335335 0.334735 0.0753827
835 2 0.0653664 0.338934 0.0675785
619 2 0.0412605 0.38179 0.999586
621 4 0.0264581 0.380366 0.0196868
2787 4 0.0225791 0.386246 0.0386554
292 2 0.0699631 0.399689 0.0622857
2785 2 0.0135732 0.380761 0.0613266
837 4 0.0690034 0.362702 0.0607225
293 4 0.0588235 0.378336 0.0690053
913 2 0.143212 0.365167 0.0644164
914 4 0.164633 0.356328 0.0550259
915 4 0.121791 0.374007 0.073807
288 4 0.173227 0.359602 0.0368776
286 2 0.19075 0.359781 0.0190424
287 4 0.208273 0.35996 0.0012072
251 4 0.307217 0.390053 0.0504207
250 2 0.283884 0.397585 0.0455207
609 4 0.312213 0.408129 0.0571568
356 4 0.272076 0.366297 0.0148185
252 4 0.26055 0.405117 0.0406208
1628 4 0.252644 0.408115 0.0855188
741 4 0.359542 0.33973 0.0791638
957 4 0.41122 0.415525 0.0107784
672 4 0.479528 0.358148 0.0194621
670 2 0.458774 0.346088 0.0124597
562 2 0.488703 0.355434 0.0627954
563 4 0.47966 0.353875 0.0395368
671 4 0.438021 0.334029 0.00545717
294 4 0.0811028 0.421041 0.055566
552 4 0.097061 0.423463 0.045065
550 2 0.10274 0.42029 0.0209226
1440 4 0.150625 0.472117 0.0676544
1438 2 0.153051 0.448901 0.0586909
243 4 0.155539 0.485472 0.0545092
1439 4 0.155477 0.425686 0.0497275
1766 4 0.0812604 0.495873 0.083161
246 4 0.218602 0.500741 0.0433834
902 4 0.228058 0.4853 0.0399859
901 2 0.229037 0.460765 0.0447017
1289 4 0.235071 0.506135 0.0356525
903 4 0.230015 0.43623 0.0494176
607 2 0.326194 0.412485 0.0774234
523 2 0.355128 0.492867 0.077039
525 4 0.369202 0.490278 0.056535
464 4 0.0476229 0.0186928 0.0963882
2760 4 0.0460589 0.0387465 0.0943664
2758 2 0.0270452 0.0549719 0.0949947
2759 4 0.00803154 0.0711973 0.095623
381 4 0.0158075 0.0810426 0.159899
579 4 0.154103 0.0184716 0.104184
577 2 0.14007 0.0316251 0.0882076
1806 4 0.167547 0.00390206 0.109668
24 3 0.395639 0.0661865 0.15723
2724 4 0.438483 0.0335147 0.0868531
591 4 0.0203053 0.136351 0.0867338
589 2 0.0145958 0.113544 0.0952422
590 4 0.00888634 0.0907362 0.10375
235 2 0.0780525 0.129013 0.163752
477 4 0.103329 0.14299 0.137487
237 4 0.0904391 0.129235 0.142033
475 2 0.0966885 0.149524 0.114284
476 4 0.0900475 0.156058 0.0910806
423 4 0.17331 0.161579 0.108848
421 2 0.184907 0.139466 0.110145
422 4 0.196504 0.117352 0.111442
532 2 0.237603 0.119161 0.113438
534 4 0.214099 0.110633 0.11356
738 4 0.184574 0.156684 0.170619
533 4 0.261107 0.127689 0.113316
629 4 0.423936 0.128964 0.0983868
628 2 0.427973 0.150539 0.110362
2590 2 0.504445 0.122954 0.114965
2591 4 0.502897 0.118029 0.0905003
283 2 0.19632 0.223507 0.159954
284 4 0.173542 0.21561 0.166587
285 4 0.219097 0.231405 0.153321
354 4 0.238018 0.237161 0.148344
353 4 0.259842 0.231119 0.103758
310 2 0.302449 0.200531 0.15187
312 4 0.299507 0.218168 0.134392
352 2 0.24893 0.23414 0.126051
311 4 0.30539 0.182894 0.169348
630 4 0.43201 0.172114 0.122337
517 2 0.46046 0.237912 0.108839
519 4 0.483889 0.239108 0.117487
518 4 0.43703 0.236715 0.10019
254 4 0.424667 0.239797 0.114715
339 4 0.106223 0.263272 0.114491
337 2 0.130089 0.261315 0.121687
338 4 0.153954 0.259358 0.128883
506 4 0.16904 0.256649 0.114081
505 2 0.185887 0.272468 0.123626
507 4 0.202735 0.288287 0.13317
764 4 0.25135 0.250891 0.156494
461 4 0.338158 0.257837 0.12129
763 2 0.270576 0.264067 0.165545
324 4 0.388967 0.287664 0.08794
255 4 0.399172 0.280999 0.102341
460 2 0.358633 0.269064 0.112351
253 2 0.41192 0.260398 0.108528
462 4 0.379108 0.280291 0.103413
624 4 0.42925 0.319097 0.132488
2786 4 0.0045673 0.375276 0.0839978
313 2 0.0111675 0.406351 0.114466
314 4 0.0124699 0.386865 0.0988523
455 4 0.138648 0.345356 0.155402
301 2 0.310417 0.384663 0.160192
303 4 0.312006 0.409559 0.158513
611 4 0.313851 0.340911 0.15866
302 4 0.308827 0.359766 0.161872
386 4 0.366872 0.354446 0.0894875
387 4 0.384719 0.375135 0.13137
385 2 0.375795 0.364791 0.110429
13 3 0.385237 0.392856 0.139201
11 1 0.405412 0.390981 0.150508
12 3 0.408985 0.368863 0.155725
623 4 0.39794 0.352808 0.152084
15 3 0.422428 0.398422 0.137327
622 2 0.413595 0.335953 0.142286
564 4 0.497747 0.356993 0.086054
315 4 0.00986524 0.425836 0.13008
1757 4 0.086925 0.460656 0.154686
626 4 0.22746 0.460696 0.164369
63 3 0.243283 0.46783 0.175418
64 3 0.245486 0.45205 0.140913
1627 2 0.249849 0.422197 0.10599
1629 4 0.247054 0.436279 0.126461
1487 4 0.258786 0.454693 0.123252
65 3 0.276201 0.454894 0.162505
61 1 0.256626 0.464956 0.156653
62 3 0.261143 0.485576 0.147512
1486 2 0.272767 0.469292 0.108535
1488 4 0.286747 0.483891 0.0938175
524 4 0.341055 0.495457 0.0975431
608 4 0.340175 0.416841 0.09769
658 2 0.398503 0.486925 0.144496
659 4 0.411403 0.471505 0.12963
494 4 0.423082 0.416185 0.129007
495 4 0.430257 0.465498 0.133184
493 2 0.426669 0.440842 0.131095
512 4 0.0825249 0.0577324 0.223711
511 2 0.0707042 0.0704078 0.241732
545 4 0.0905704 0.0738794 0.188204
673 2 0.11342 0.0151793 0.242353
693 4 0.139813 0.0602418 0.231067
691 2 0.161666 0.0720843 0.228347
675 4 0.101417 0.00691041 0.222037
544 2 0.109246 0.0747834 0.204804
581 4 0.188768 0.0625354 0.164545
652 2 0.227938 0.0654535 0.168435
654 4 0.204375 0.0737949 0.169053
692 4 0.183519 0.0839268 0.225628
580 2 0.167217 0.0744438 0.168892
1505 4 0.297971 0.0267622 0.185258
653 4 0.251501 0.057112 0.167817
1504 2 0.301755 0.00217412 0.187765
21 1 0.382585 0.067517 0.176367
23 3 0.376459 0.0462289 0.183273
759 4 0.409453 0.0850227 0.204449
25 3 0.394135 0.0780377 0.192936
757 2 0.408289 0.0731612 0.226429
758 4 0.407124 0.0612997 0.248409
22 3 0.363568 0.0795405 0.171576
236 4 0.065666 0.12879 0.185471
731 4 0.125096 0.0721645 0.240659
546 4 0.127922 0.0756873 0.221405
565 2 0.154144 0.126292 0.171036
567 4 0.140095 0.106156 0.175761
582 4 0.145665 0.0863522 0.173238
566 4 0.168194 0.146428 0.166311
598 2 0.197679 0.118765 0.233119
600 4 0.199461 0.0954047 0.224384
404 4 0.182317 0.158134 0.245895
249 4 0.1982 0.15183 0.259281
599 4 0.195897 0.142125 0.241855
403 2 0.167328 0.168204 0.228599
29 3 0.322896 0.131472 0.233725
332 4 0.432364 0.147566 0.246853
363 4 0.0311968 0.249496 0.223769
372 4 0.153347 0.218273 0.165521
370 2 0.148053 0.241538 0.172997
405 4 0.15234 0.178273 0.211304
737 4 0.160538 0.200528 0.171485
736 2 0.172556 0.178606 0.171052
307 2 0.321254 0.234178 0.247455
361 2 0.0548688 0.25603 0.228473
362 4 0.0785409 0.262564 0.233176
648 4 0.0374249 0.300277 0.214107
646 2 0.0532163 0.317994 0.206238
647 4 0.0690078 0.335711 0.198369
750 4 0.0769654 0.282319 0.230003
371 4 0.142758 0.264803 0.180474
748 2 0.101432 0.287215 0.231609
749 4 0.125899 0.292112 0.233215
299 4 0.131836 0.305388 0.245496
612 4 0.297494 0.29589 0.173024
765 4 0.289803 0.277243 0.174596
610 2 0.305672 0.3184 0.165842
498 4 0.327795 0.270443 0.251198
308 4 0.334039 0.25347 0.237993
729 4 0.335929 0.272124 0.233346
727 2 0.343541 0.285518 0.213653
728 4 0.351153 0.298912 0.193959
705 4 0.0784865 0.343789 0.216141
454 2 0.13676 0.355093 0.178354
456 4 0.134871 0.364831 0.201306
415 2 0.157368 0.392811 0.216487
417 4 0.135744 0.380288 0.2156
704 4 0.124772 0.362656 0.217709
703 2 0.101629 0.353222 0.216925
416 4 0.178991 0.405334 0.217374
14 3 0.404654 0.403295 0.17016
645 4 0.404604 0.399801 0.190824
109 3 0.480823 0.408867 0.205159
643 2 0.423143 0.413524 0.200477
3717 4 0.0211991 0.487794 0.241221
603 4 0.0767612 0.461645 0.223973
3715 2 0.028141 0.492815 0.217732
3716 4 0.035083 0.497837 0.194242
601 2 0.0858667 0.445914 0.241142
1758 4 0.0794442 0.46582 0.20386
1756 2 0.0831846 0.463238 0.179273
1659 4 0.239506 0.489565 0.24028
625 2 0.209681 0.447176 0.175608
627 4 0.191902 0.433657 0.186847
639 4 0.180022 0.432728 0.20446
637 2 0.18872 0.446295 0.223577
638 4 0.197418 0.459863 0.242694
1575 4 0.334625 0.491806 0.200674
1574 4 0.376057 0.491822 0.172672
1573 2 0.355341 0.491814 0.186673
107 3 0.476931 0.430215 0.235847
644 4 0.441682 0.427246 0.210129
110 3 0.457627 0.438524 0.205005
106 1 0.477442 0.430495 0.212851
108 3 0.49484 0.444185 0.205901
234 4 0.0761407 0.00642968 0.300104
428 4 0.0845208 0.0233268 0.303515
513 4 0.0588834 0.0830832 0.259754
674 4 0.125424 0.0234482 0.262668
1463 4 0.143812 0.0288774 0.26786
1462 2 0.163088 0.0136582 0.272549
429 4 0.128809 0.0330772 0.282438
427 2 0.106665 0.028202 0.292976
1464 4 0.182364 0.998439 0.277237
466 2 0.231273 0.0701311 0.29095
467 4 0.214736 0.0694859 0.272208
468 4 0.247811 0.0707764 0.309692
706 2 0.303384 0.0693699 0.328276
682 2 0.262391 0.0356871 0.320658
684 4 0.256891 0.0538342 0.30436
633 4 0.259049 0.0796852 0.326902
707 4 0.278787 0.0731329 0.330729
744 4 0.4072 0.0740063 0.263934
708 4 0.327981 0.065607 0.325824
1516 2 0.404657 0.0854032 0.33134
480 4 0.445649 0.0510142 0.264821
479 4 0.435299 0.0741804 0.307913
478 2 0.440474 0.0625973 0.286367
1517 4 0.428789 0.0829787 0.325263
529 2 0.021409 0.088004 0.275176
531 4 0.0463015 0.0884356 0.272862
2482 2 0.0710704 0.113806 0.290066
2483 4 0.0678792 0.0951775 0.273697
2484 4 0.0742617 0.132435 0.306436
392 4 0.0654857 0.159459 0.281122
730 2 0.119626 0.0850454 0.26138
732 4 0.114157 0.0979262 0.282101
247 2 0.221404 0.161002 0.260905
474 4 0.200592 0.139314 0.311833
248 4 0.244607 0.170174 0.26253
30 3 0.297874 0.148335 0.256247
631 2 0.265241 0.102419 0.318534
26 1 0.319637 0.141955 0.254168
632 4 0.271433 0.125152 0.310166
27 3 0.324844 0.127182 0.271014
742 2 0.392187 0.0889309 0.277239
743 4 0.377173 0.103856 0.290544
349 2 0.399156 0.138781 0.30155
351 4 0.381158 0.123095 0.294121
28 3 0.333513 0.160473 0.255875
451 2 0.453824 0.133437 0.314722
452 4 0.436807 0.150364 0.307716
350 4 0.417153 0.154467 0.30898
453 4 0.47084 0.11651 0.321727
331 2 0.444389 0.167089 0.256826
391 2 0.0767581 0.181777 0.281168
393 4 0.0880306 0.204096 0.281213
279 4 0.242818 0.190191 0.267028
277 2 0.247529 0.209369 0.282364
536 4 0.240302 0.244322 0.294372
278 4 0.252239 0.228547 0.2977
309 4 0.30847 0.214885 0.256917
2682 4 0.470846 0.186442 0.282319
333 4 0.456413 0.186612 0.266798
419 4 0.441387 0.227857 0.293066
418 2 0.438292 0.223685 0.317524
2680 2 0.485931 0.194565 0.30053
2453 4 0.476314 0.189049 0.263915
2681 4 0.501017 0.202687 0.318741
2452 2 0.493853 0.197057 0.247995
388 2 0.0241223 0.255243 0.320137
390 4 0.0252079 0.265537 0.297377
444 4 0.0318429 0.271689 0.280104
442 2 0.0488717 0.289275 0.285198
443 4 0.0659005 0.30686 0.290292
408 4 0.0727331 0.306763 0.308937
406 2 0.0724382 0.319311 0.330562
298 2 0.13782 0.322809 0.262405
344 4 0.226539 0.309762 0.333062
535 2 0.242587 0.267556 0.28542
537 4 0.244873 0.29079 0.276468
496 2 0.322163 0.291051 0.264189
497 4 0.31653 0.311659 0.277179
547 2 0.0138106 0.332444 0.332616
548 4 0.0336751 0.347485 0.334701
300 4 0.143803 0.340229 0.279313
734 4 0.136517 0.359936 0.279509
733 2 0.145751 0.363095 0.302529
735 4 0.154985 0.366253 0.325549
438 4 0.25429 0.390502 0.305927
436 2 0.272315 0.407646 0.303413
587 4 0.483859 0.362707 0.303145
586 2 0.480541 0.347505 0.322716
2537 4 0.497019 0.390079 0.27993
767 4 0.167023 0.425081 0.29204
602 4 0.0949723 0.430182 0.258312
289 2 0.162177 0.488215 0.251837
500 4 0.135773 0.465852 0.33263
499 2 0.120769 0.483216 0.322702
776 4 0.0914397 0.495416 0.301247
501 4 0.105765 0.50058 0.312775
768 4 0.184878 0.456746 0.257701
766 2 0.175951 0.440914 0.274871
290 4 0.180808 0.472233 0.247079
437 4 0.29034 0.424791 0.300898
1437 4 0.252202 0.485823 0.32959
542 4 0.403179 0.481252 0.309071
2756 4 0.00914545 0.0608054 0.367337
317 4 0.0283031 0.053775 0.368987
316 2 0.0456248 0.0400931 0.380732
318 4 0.0629465 0.0264112 0.392477
1602 4 0.0751184 0.00953151 0.39273
605 4 0.175823 0.0597603 0.356242
439 2 0.240388 0.0246862 0.395756
441 4 0.22844 0.0413552 0.410058
604 2 0.192872 0.0780073 0.357492
440 4 0.252337 0.00801722 0.381453
683 4 0.267891 0.0175401 0.336955
726 4 0.263452 0.0707797 0.344678
724 2 0.26769 0.0800333 0.367517
1670 4 0.356665 0.0353742 0.361675
1669 2 0.358512 0.0583046 0.351879
1427 4 0.390216 0.0238361 0.397836
1671 4 0.360359 0.0812351 0.342082
1426 2 0.412403 0.0124911 0.39989
1428 4 0.434589 0.00114606 0.401944
398 4 0.0940564 0.136319 0.354906
397 2 0.112506 0.124271 0.34309
399 4 0.130956 0.112223 0.331275
472 2 0.209556 0.124408 0.329795
606 4 0.20992 0.0962544 0.358742
473 4 0.21852 0.109503 0.347758
276 4 0.224524 0.106771 0.367946
274 2 0.218363 0.117606 0.389622
275 4 0.212203 0.128441 0.411297
375 4 0.22804 0.142299 0.41116
725 4 0.271929 0.0892868 0.390355
699 4 0.368646 0.099122 0.347018
1518 4 0.380525 0.0878278 0.337417
698 4 0.366579 0.14661 0.362555
697 2 0.367612 0.122866 0.354787
431 4 0.351994 0.125838 0.406421
1580 4 0.483869 0.104314 0.394251
1579 2 0.464695 0.119599 0.399143
516 4 0.430354 0.150002 0.400878
514 2 0.437433 0.162333 0.380311
1581 4 0.445522 0.134883 0.404035
257 4 0.430892 0.139954 0.419676
389 4 0.0230366 0.24495 0.342898
487 2 0.309624 0.240052 0.383037
489 4 0.30368 0.257768 0.366423
488 4 0.315568 0.222336 0.39965
717 4 0.335852 0.222793 0.405042
515 4 0.444512 0.174664 0.359744
420 4 0.435198 0.219514 0.341982
306 4 0.438075 0.209338 0.360487
304 2 0.450938 0.220219 0.378962
305 4 0.4638 0.2311 0.397438
270 4 0.468118 0.24621 0.384665
583 2 0.492989 0.189759 0.39844
585 4 0.482096 0.207789 0.411909
616 2 0.05909 0.310653 0.384537
617 4 0.0545972 0.29081 0.399072
618 4 0.0635827 0.330495 0.370001
407 4 0.0721434 0.33186 0.352187
343 2 0.216063 0.323831 0.35088
400 2 0.22268 0.331486 0.401248
1260 4 0.240892 0.262988 0.384601
401 4 0.237229 0.316695 0.415203
1258 2 0.258664 0.262832 0.402188
378 4 0.337285 0.322446 0.359634
376 2 0.362061 0.320226 0.357103
377 4 0.386837 0.318006 0.354571
435 4 0.413279 0.31079 0.342491
433 2 0.437111 0.317593 0.345802
434 4 0.460942 0.324396 0.349112
268 2 0.486042 0.262983 0.379918
1716 4 0.472424 0.337022 0.412323
677 4 0.154925 0.360291 0.345911
345 4 0.205587 0.337901 0.368698
402 4 0.208132 0.346277 0.387293
678 4 0.187737 0.344543 0.380205
676 2 0.171331 0.352417 0.363058
593 4 0.323958 0.338434 0.36442
592 2 0.320987 0.363249 0.363672
594 4 0.318016 0.388064 0.362925
1714 2 0.473754 0.334304 0.387503
1715 4 0.475084 0.331585 0.362683
588 4 0.477222 0.332303 0.342288
119 3 0.48819 0.388812 0.382264
3989 4 0.495382 0.384777 0.399604
120 3 0.497743 0.388963 0.345844
414 4 0.158732 0.421096 0.336577
413 4 0.195984 0.450634 0.352085
412 2 0.177358 0.435865 0.344331
1436 4 0.210759 0.465447 0.348775
1557 4 0.190442 0.44023 0.409887
1435 2 0.23148 0.475635 0.339183
1555 2 0.215208 0.440303 0.413324
1556 4 0.239974 0.440376 0.416761
336 4 0.26512 0.431738 0.361715
334 2 0.265055 0.452436 0.375743
335 4 0.264989 0.473133 0.389771
2 3 0.266417 0.493208 0.398261
240 4 0.284134 0.483655 0.391296
238 2 0.308037 0.477209 0.387797
541 2 0.413161 0.478598 0.331842
239 4 0.331941 0.470762 0.384298
614 4 0.384773 0.421523 0.371207
613 2 0.399529 0.441421 0.367813
615 4 0.414284 0.461319 0.364419
1697 4 0.4717 0.501578 0.406438
543 4 0.423143 0.475943 0.354612
447 4 0.431547 0.470023 0.372516
445 2 0.44178 0.464839 0.394733
1743 4 0.495755 0.451136 0.340436
1741 2 0.50635 0.432066 0.352652
720 4 0.0124602 0.0707816 0.472679
367 2 0.0773569 0.0523581 0.463483
369 4 0.0809633 0.0554784 0.438938
368 4 0.0737506 0.0492378 0.488028
1818 4 0.246991 0.0125434 0.477704
962 4 0.298943 0.0536004 0.456219
1817 4 0.284082 0.0379034 0.455753
1816 2 0.265537 0.0252234 0.466728
961 2 0.313632 0.0734012 0.460382
426 4 0.388831 0.0664391 0.460442
424 2 0.367441 0.0792848 0.458818
718 2 0.998922 0.0903976 0.480237
260 4 0.110125 0.148572 0.491669
687 4 0.145785 0.132766 0.440563
685 2 0.151394 0.135574 0.464767
686 4 0.157004 0.138381 0.488971
1152 4 0.174078 0.127293 0.491363
373 2 0.244049 0.158575 0.421358
963 4 0.328322 0.0932019 0.464546
321 4 0.343572 0.112667 0.46294
432 4 0.331854 0.104437 0.446882
319 2 0.325345 0.125458 0.474313
320 4 0.307118 0.138249 0.485686
411 4 0.318031 0.160498 0.4918
425 4 0.346051 0.0921306 0.457194
430 2 0.341924 0.115138 0.426652
256 2 0.433643 0.126404 0.440509
258 4 0.436394 0.112854 0.461342
2654 4 0.0114776 0.171537 0.406401
510 4 0.274245 0.182916 0.420615
509 4 0.292041 0.229267 0.426579
374 4 0.260057 0.174851 0.431555
508 2 0.283143 0.206091 0.423597
651 4 0.303937 0.175052 0.487499
649 2 0.291818 0.196842 0.485618
650 4 0.2797 0.218631 0.483738
711 4 0.271692 0.236694 0.476791
791 4 0.28623 0.237434 0.489075
709 2 0.267428 0.250084 0.45611
575 4 0.404217 0.173423 0.443952
409 2 0.340392 0.17136 0.494479
576 4 0.366191 0.180896 0.475557
715 2 0.337402 0.223574 0.429985
574 2 0.385204 0.17716 0.459754
410 4 0.362753 0.182222 0.497157
716 4 0.338952 0.224354 0.454928
266 4 0.423762 0.179021 0.434048
265 2 0.44357 0.192329 0.426583
267 4 0.463378 0.205637 0.419118
872 4 0.470478 0.224093 0.414272
871 2 0.46629 0.242862 0.430252
2814 4 0.074634 0.312305 0.484108
2812 2 0.0497663 0.310401 0.485883
2813 4 0.0248986 0.308497 0.487658
3354 4 0.0111609 0.321957 0.490919
1136 4 0.126417 0.295069 0.442939
1135 2 0.124853 0.305059 0.465807
1137 4 0.12329 0.315049 0.488675
993 4 0.233415 0.262221 0.508048
1259 4 0.276437 0.262676 0.419775
710 4 0.263164 0.263473 0.435428
873 4 0.462101 0.26163 0.446233
3352 2 0.00107054 0.340371 0.477344
1041 4 0.11272 0.330868 0.495645
3990 4 0.489799 0.38862 0.44915
3988 2 0.49259 0.386699 0.424377
383 4 0.0134068 0.431278 0.449864
382 2 0.0255423 0.452069 0.443105
384 4 0.0376778 0.472859 0.436347
635 4 0.149368 0.497405 0.439764
503 4 0.198528 0.42108 0.470645
636 4 0.186368 0.485962 0.471398
773 4 0.202545 0.485576 0.487109
502 2 0.198142 0.445958 0.47312
634 2 0.167868 0.491684 0.455581
504 4 0.197756 0.470836 0.475595
668 4 0.274384 0.473876 0.440063
1586 4 0.314798 0.502538 0.426531
4 3 0.267017 0.492541 0.435835
669 4 0.25695 0.429861 0.423955
667 2 0.265667 0.451869 0.432009
882 4 0.36601 0.455985 0.493476
1268 4 0.428729 0.440351 0.484144
446 4 0.452013 0.459654 0.416949
1059 4 0.0701645 0.0502936 0.513586
1057 2 0.0809753 0.0561417 0.53536
1058 4 0.0917862 0.0619898 0.557134
824 4 0.0914582 0.0676643 0.577447
937 2 0.0506225 0.0168847 0.499495
938 4 0.0586067 0.040408 0.496651
2429 4 0.108406 0.0614596 0.571397
2428 2 0.125127 0.0794028 0.566534
843 4 0.292814 0.00752358 0.571369
1181 4 0.27432 0.0803391 0.538936
1180 2 0.251749 0.0829859 0.549363
841 2 0.317119 0.00165911 0.571199
1217 4 0.353641 0.0296252 0.570721
1216 2 0.357488 0.0459817 0.552205
89 3 0.40962 0.0422872 0.564127
1218 4 0.361334 0.0623382 0.533688
90 3 0.412413 0.00638582 0.575124
2333 4 0.35552 0.00925613 0.570581
86 1 0.40996 0.0278608 0.582297
2430 4 0.141847 0.097346 0.561672
944 4 0.1263 0.109011 0.559189
943 2 0.137315 0.131422 0.557928
945 4 0.14833 0.153833 0.556666
1182 4 0.229178 0.0856328 0.559791
1031 4 0.218436 0.0944069 0.574515
1151 4 0.197488 0.139348 0.533876
1220 4 0.18651 0.153856 0.541296
1150 2 0.185783 0.13332 0.51262
887 4 0.305791 0.145713 0.550033
886 2 0.300004 0.161754 0.568319
1062 4 0.481418 0.131628 0.563643
1061 4 0.491762 0.0840501 0.552238
1060 2 0.48659 0.107839 0.557941
877 2 0.0306677 0.209127 0.55622
1272 4 0.0662531 0.212623 0.551353
879 4 0.0515723 0.22125 0.56264
878 4 0.00976308 0.197004 0.549801
347 4 0.00884907 0.20592 0.508657
1033 2 0.132974 0.224916 0.515097
1034 4 0.15152 0.241541 0.517292
1035 4 0.114427 0.208291 0.512901
261 4 0.1108 0.189409 0.520523
1270 2 0.086548 0.201603 0.560938
1271 4 0.106843 0.190583 0.570522
1154 4 0.125569 0.200041 0.570418
259 2 0.110463 0.16899 0.506096
695 4 0.161675 0.246485 0.533834
1219 2 0.19205 0.17245 0.557069
1221 4 0.19759 0.191043 0.572841
6 1 0.237896 0.248364 0.580891
7 3 0.22062 0.243053 0.595121
326 4 0.247163 0.216338 0.558716
694 2 0.1857 0.243003 0.527845
696 4 0.209724 0.239521 0.521855
325 2 0.237501 0.19992 0.542521
992 4 0.247959 0.233712 0.546473
327 4 0.227839 0.183502 0.526326
10 3 0.249545 0.229456 0.57585
991 2 0.240687 0.247966 0.52726
1239 4 0.264362 0.229152 0.561569
1238 4 0.29744 0.196077 0.57925
1237 2 0.280901 0.212615 0.57041
888 4 0.294216 0.177796 0.586605
2613 4 0.00814099 0.301465 0.494929
936 4 0.0208766 0.31285 0.506915
2611 2 0.00308751 0.279498 0.50575
8 3 0.229086 0.257634 0.56153
9 3 0.251817 0.263679 0.591383
790 2 0.289661 0.252719 0.508562
804 4 0.281389 0.276123 0.54314
792 4 0.293093 0.268004 0.52805
802 2 0.275319 0.290795 0.562455
812 4 0.296054 0.287508 0.534113
811 2 0.31455 0.300513 0.523439
813 4 0.333045 0.313519 0.512765
560 4 0.472408 0.296075 0.520888
559 2 0.487924 0.314274 0.528185
953 4 0.463744 0.263439 0.586821
934 2 0.0184375 0.327473 0.527049
935 4 0.0159983 0.342097 0.547183
2846 4 0.00654579 0.345874 0.570534
1039 2 0.110817 0.336516 0.519928
1040 4 0.108914 0.342164 0.544211
897 4 0.136182 0.405859 0.566008
895 2 0.116423 0.413821 0.579099
1160 4 0.148108 0.419618 0.575447
1159 2 0.170376 0.417682 0.564241
751 2 0.486077 0.369666 0.523655
753 4 0.471657 0.387946 0.514541
1938 4 0.0522982 0.493855 0.534052
539 4 0.156233 0.502131 0.520571
1161 4 0.192644 0.415746 0.553035
1173 4 0.207286 0.428943 0.558026
1171 2 0.231975 0.432801 0.557155
774 4 0.233786 0.488664 0.526034
772 2 0.218166 0.48712 0.506571
1172 4 0.256663 0.436659 0.556284
881 4 0.327778 0.451071 0.525333
1188 4 0.246122 0.491459 0.542669
880 2 0.346894 0.453528 0.509405
663 4 0.411903 0.466811 0.541352
661 2 0.419055 0.482688 0.559295
4084 2 0.474677 0.483302 0.526731
1267 2 0.440518 0.446338 0.505366
1269 4 0.452306 0.452325 0.526588
4085 4 0.464471 0.463316 0.515704
823 2 0.0745958 0.0696462 0.595802
2319 4 0.0391492 0.032395 0.625915
825 4 0.0577334 0.0716282 0.614158
2317 2 0.0474938 0.0100257 0.618488
98 3 0.210758 0.0605976 0.65363
100 3 0.246471 0.0490765 0.650551
96 1 0.229084 0.051995 0.664967
950 4 0.258652 0.054644 0.636702
1005 4 0.314442 0.0209427 0.627249
951 4 0.302701 0.0692928 0.618107
1092 4 0.323286 0.0322912 0.613822
949 2 0.280676 0.0619684 0.627404
1003 2 0.308365 0.00882071 0.648256
88 3 0.390299 0.0299536 0.594442
1090 2 0.347242 0.0304938 0.60689
2283 4 0.388115 0.0272119 0.613763
2281 2 0.391765 0.0159676 0.635796
1091 4 0.371198 0.0286964 0.599958
2282 4 0.395415 0.00472336 0.657828
87 3 0.4277 0.0333942 0.595855
3007 2 0.466739 0.062131 0.612856
3008 4 0.486426 0.0536035 0.600015
3009 4 0.447052 0.0706585 0.625698
1162 2 0.485863 0.0497881 0.669903
1282 2 0.169273 0.163884 0.61418
1030 2 0.204841 0.10894 0.589652
1032 4 0.191246 0.123473 0.604789
1283 4 0.17709 0.140484 0.610117
900 4 0.356153 0.101661 0.606597
898 2 0.35525 0.124525 0.616678
899 4 0.354347 0.147388 0.626759
150 3 0.413326 0.096044 0.610758
148 3 0.40036 0.114698 0.640785
1194 4 0.352254 0.16685 0.632427
146 1 0.418351 0.111794 0.626421
149 3 0.423535 0.131896 0.616055
147 3 0.436556 0.104807 0.638623
3052 2 0.473158 0.113931 0.656618
3053 4 0.449039 0.113626 0.650032
3251 4 0.429345 0.142029 0.633734
905 4 0.423807 0.153491 0.616334
3250 2 0.437619 0.153342 0.65444
851 4 0.0347649 0.187727 0.659401
850 2 0.0526736 0.201518 0.64871
1081 2 0.0641747 0.236777 0.598463
1244 4 0.0013094 0.232803 0.640356
852 4 0.0705823 0.215308 0.63802
1083 4 0.0705818 0.230225 0.621727
1208 4 0.0743446 0.235915 0.639933
1082 4 0.0577676 0.243329 0.575199
909 4 0.0891465 0.224201 0.630694
1207 2 0.0827561 0.247023 0.660695
1284 4 0.161455 0.187284 0.618242
1155 4 0.152362 0.205738 0.612256
908 4 0.122174 0.187222 0.637207
1153 2 0.138965 0.20289 0.591337
907 2 0.10566 0.205711 0.63395
1211 4 0.163581 0.204457 0.630958
1210 2 0.18043 0.202078 0.649279
1212 4 0.197278 0.199699 0.6676
830 4 0.335802 0.168244 0.667143
806 4 0.301655 0.198244 0.598015
805 2 0.310457 0.188348 0.619223
807 4 0.31926 0.178452 0.64043
1193 4 0.377057 0.202385 0.607471
1192 2 0.364656 0.184618 0.619949
906 4 0.418916 0.201573 0.603494
1025 4 0.409387 0.244545 0.658303
1024 2 0.412931 0.233303 0.636252
1026 4 0.416475 0.222061 0.614201
904 2 0.421362 0.177532 0.609914
954 4 0.425498 0.236924 0.605122
857 4 0.14521 0.276284 0.637879
856 2 0.160435 0.295848 0.641143
858 4 0.175661 0.315411 0.644408
1065 4 0.231155 0.311105 0.625625
796 2 0.207514 0.330905 0.635861
1063 2 0.249553 0.301759 0.611505
798 4 0.232386 0.328612 0.634706
803 4 0.269248 0.305466 0.581771
1064 4 0.26795 0.292413 0.597384
1007 4 0.403022 0.325724 0.654597
952 2 0.444621 0.250181 0.595971
3275 4 0.0218131 0.378731 0.660034
3274 2 0.0386064 0.395643 0.652473
3276 4 0.0553997 0.412554 0.644911
983 4 0.0142649 0.359681 0.662812
982 2 0.000293766 0.351588 0.643721
797 4 0.182643 0.333197 0.637016
1189 2 0.234655 0.393924 0.596842
1190 4 0.220587 0.413163 0.604399
1191 4 0.248723 0.374684 0.589285
1029 4 0.284886 0.386846 0.662353
1027 2 0.271762 0.40724 0.668439
896 4 0.0966638 0.421783 0.59219
1176 4 0.226606 0.46721 0.63774
1174 2 0.233817 0.449642 0.654005
1175 4 0.241027 0.432075 0.67027
1028 4 0.258639 0.427634 0.674525
1000 2 0.40313 0.498449 0.619797
1001 4 0.390263 0.494936 0.640945
662 4 0.426208 0.498564 0.577238
4147 2 0.457909 0.499744 0.603079
2167 2 0.487579 0.479419 0.650789
4148 4 0.480645 0.495853 0.612727
2169 4 0.490572 0.488104 0.627534
1183 2 0.0372151 0.00793952 0.696908
1185 4 0.0550134 0.0239427 0.704139
97 3 0.223318 0.0316824 0.674094
2202 4 0.226253 0.0555304 0.698584
99 3 0.235304 0.0664038 0.682058
2262 4 0.218813 0.0378865 0.692746
2200 2 0.223123 0.0706258 0.718269
2260 2 0.210716 0.0170266 0.703903
844 2 0.406382 0.0521169 0.739204
846 4 0.409898 0.0303738 0.727369
1113 4 0.407072 0.0151374 0.741636
2398 2 0.380077 0.00571909 0.709922
2400 4 0.356744 0.996957 0.711908
2322 4 0.422825 0.0208929 0.701872
2321 4 0.448924 0.055661 0.677159
2320 2 0.435875 0.0382769 0.689515
1163 4 0.463042 0.0443664 0.678561
1076 4 0.0382703 0.16029 0.678986
1077 4 0.0241434 0.114721 0.693972
864 4 0.0295403 0.109349 0.711899
862 2 0.0404068 0.101847 0.733132
1075 2 0.0312069 0.137506 0.686479
1225 2 0.148803 0.135835 0.716927
1227 4 0.133775 0.142632 0.698135
2201 4 0.219993 0.0857212 0.737955
1226 4 0.163831 0.129038 0.735719
1148 4 0.182974 0.133527 0.737652
1147 2 0.194145 0.11202 0.743806
1149 4 0.205316 0.0905135 0.749959
43 3 0.276096 0.15932 0.734749
41 1 0.260454 0.169736 0.748359
808 2 0.308274 0.152819 0.746734
44 3 0.246353 0.153899 0.75778
809 4 0.324183 0.137303 0.735275
3252 4 0.445892 0.164655 0.675147
1072 2 0.0651713 0.219717 0.74063
1073 4 0.0433986 0.208042 0.744483
1106 4 0.0282078 0.192893 0.745616
1074 4 0.086944 0.231391 0.736777
977 4 0.224568 0.238344 0.728599
976 2 0.203095 0.247593 0.73746
918 4 0.234359 0.226748 0.74182
829 2 0.333057 0.171232 0.691815
45 3 0.248321 0.184698 0.736211
3204 4 0.330152 0.174442 0.737745
916 2 0.256397 0.237717 0.746201
831 4 0.330313 0.174219 0.716488
3202 2 0.349549 0.189934 0.740731
3203 4 0.368947 0.205427 0.743717
3486 4 0.37743 0.204869 0.725783
3484 2 0.398406 0.21749 0.720697
3485 4 0.419383 0.230111 0.715611
893 4 0.0950932 0.250004 0.738261
947 4 0.108184 0.235057 0.729578
1209 4 0.0911676 0.25813 0.681456
948 4 0.108333 0.262839 0.687999
946 2 0.108259 0.248948 0.708789
1276 2 0.153229 0.269206 0.748779
1277 4 0.166671 0.254733 0.733449
978 4 0.181621 0.256842 0.746321
3355 2 0.493373 0.266957 0.69231
3121 2 0.502567 0.328272 0.702873
1263 4 0.424065 0.303603 0.717431
3356 4 0.473339 0.281913 0.692666
1261 2 0.447914 0.30067 0.71052
1262 4 0.471764 0.297736 0.703608
3123 4 0.482861 0.314025 0.708693
815 4 0.132857 0.366391 0.742752
814 2 0.110121 0.355992 0.74305
942 4 0.152378 0.369767 0.738999
940 2 0.161289 0.393061 0.740768
1006 2 0.399074 0.341673 0.673444
1008 4 0.395126 0.357622 0.692292
998 4 0.395485 0.346906 0.721458
997 2 0.39301 0.368922 0.733049
999 4 0.390536 0.390938 0.74464
1019 4 0.378945 0.407297 0.743653
1205 4 0.3981 0.408694 0.737232
3430 2 0.0136023 0.467604 0.718452
3431 4 0.0191816 0.443303 0.720325
1280 4 0.0662691 0.468697 0.700854
1279 2 0.0695743 0.451777 0.718964
3432 4 0.00802305 0.491905 0.71658
1281 4 0.0728796 0.434856 0.737073
2015 4 0.13156 0.46532 0.701666
1079 4 0.144539 0.451572 0.697435
1078 2 0.159565 0.44338 0.715664
2014 2 0.124622 0.482965 0.685365