ITEM: TIMESTEP
1530000
ITEM: NUMBER OF ATOMS
4590
ITEM: BOX BOUNDS pp pp pp
-9.9985700000000008e+00 9.9985700000000008e+00
-9.9985700000000008e+00 9.9985700000000008e+00
-9.9985700000000008e+00 9.9985700000000008e+00
ITEM: ATOMS id type xs ys zs
19 3 0.00598601 0.0695606 0.04828
784 2 0.0118763 0.0483895 0.0164073
1667 4 0.024971 0.078995 0.0478621
1254 4 0.142113 0.00904209 0.00356753
491 4 0.235234 0.0130055 0.0543871
490 2 0.254613 0.0264558 0.0460987
492 4 0.273993 0.039906 0.0378102
486 4 0.283865 0.0308511 0.0530022
484 2 0.308472 0.0322203 0.048779
358 2 0.259574 0.0743515 0.00769156
485 4 0.333078 0.0335896 0.0445558
1607 4 0.347772 0.0189354 0.0460497
2467 2 0.475998 0.0590107 0.0285627
2468 4 0.480532 0.0563017 0.00412345
2723 4 0.457991 0.0586602 0.0682345
2722 2 0.44543 0.0426996 0.0828169
2469 4 0.471463 0.0617196 0.0530019
1759 2 0.494856 0.0267241 0.0681728
1760 4 0.480253 0.045837 0.0613457
1666 2 0.0459309 0.0923898 0.0503994
1668 4 0.0668909 0.105785 0.0529367
1246 2 0.0245339 0.149236 0.0475896
1248 4 0.0212341 0.158122 0.0244522
1247 4 0.0278337 0.140351 0.070727
3234 4 0.0273053 0.143019 0.0122259
359 4 0.257441 0.0780273 0.0323313
666 4 0.325128 0.160338 0.0207665
664 2 0.33034 0.15798 0.0451068
665 4 0.335553 0.155622 0.0694471
556 2 0.372807 0.139794 0.0852705
557 4 0.354301 0.149617 0.071624
866 4 0.333169 0.150793 0.00408307
297 4 0.438967 0.12401 0.0500551
295 2 0.424388 0.127101 0.0701318
2893 2 0.496442 0.159964 0.070176
2894 4 0.502647 0.135815 0.0720496
555 4 0.122655 0.199523 0.0430822
554 4 0.148854 0.231904 0.0154085
553 2 0.135755 0.215714 0.0292453
770 4 0.434738 0.203875 0.0501454
769 2 0.45433 0.197998 0.0645247
771 4 0.473923 0.19212 0.078904
2895 4 0.490238 0.184113 0.0683024
836 4 0.0607971 0.316366 0.0716135
869 4 0.108618 0.262687 0.0108412
754 2 0.292116 0.293619 0.0699868
755 4 0.280346 0.271652 0.0720142
756 4 0.303885 0.315586 0.0679594
322 2 0.386914 0.291263 0.0547689
323 4 0.367907 0.290191 0.0385586
1070 4 0.33724 0.318155 0.00873717
324 4 0.405921 0.292336 0.0709793
835 2 0.0717074 0.337725 0.0786779
619 2 0.0405512 0.382562 0.00649678
621 4 0.0260692 0.382705 0.0268789
2787 4 0.0126986 0.389056 0.0403708
292 2 0.0776961 0.394165 0.0657684
2785 2 0.00706915 0.38284 0.063926
293 4 0.0740077 0.370359 0.0724659
837 4 0.0826178 0.359085 0.0857422
913 2 0.150551 0.362229 0.0605413
915 4 0.128896 0.365484 0.0726082
294 4 0.0813844 0.417971 0.0590709
914 4 0.172207 0.358974 0.0484744
288 4 0.166891 0.356107 0.0303449
286 2 0.18166 0.351071 0.0108081
740 4 0.31432 0.331247 0.066659
251 4 0.312882 0.401239 0.0438218
250 2 0.288444 0.400762 0.0490865
609 4 0.320859 0.403583 0.0611158
356 4 0.253374 0.366261 0.00848116
252 4 0.264005 0.400284 0.0543513
607 2 0.336819 0.409917 0.0792909
739 2 0.335556 0.33184 0.0798444
672 4 0.475786 0.34506 0.0195421
670 2 0.455239 0.334897 0.00955711
562 2 0.484294 0.360426 0.0551049
563 4 0.473358 0.359115 0.0326579
564 4 0.49523 0.361736 0.0775518
552 4 0.0863249 0.425223 0.0406535
550 2 0.0966109 0.417321 0.0192773
1440 4 0.141484 0.48277 0.0736741
1438 2 0.145133 0.458509 0.0688537
243 4 0.147141 0.492027 0.0563987
1439 4 0.148783 0.434247 0.0640334
902 4 0.207129 0.466262 0.0652734
901 2 0.217552 0.444373 0.0591558
903 4 0.227975 0.422484 0.0530383
1488 4 0.28587 0.466034 0.0847408
523 2 0.345891 0.496854 0.070737
525 4 0.363813 0.495317 0.0533708
955 2 0.399204 0.416675 0.00194761
957 4 0.418217 0.415778 0.0181615
464 4 0.0485173 0.0179462 0.0900747
2760 4 0.0541872 0.0372096 0.100104
2758 2 0.030806 0.04592 0.0984826
2759 4 0.00742494 0.0546305 0.0968608
381 4 0.00854165 0.0637032 0.169362
578 4 0.12845 0.0532919 0.0808235
579 4 0.163373 0.0208487 0.0959417
577 2 0.145912 0.0370703 0.0883826
1806 4 0.161864 0.00792362 0.110981
581 4 0.195068 0.0627215 0.163856
652 2 0.235111 0.0656566 0.16501
654 4 0.211291 0.0727514 0.162288
580 2 0.173158 0.0746563 0.162222
653 4 0.258932 0.0585618 0.167732
24 3 0.385724 0.0554541 0.158147
2724 4 0.432868 0.026739 0.0973993
591 4 0.020348 0.122289 0.0946081
589 2 0.0125029 0.0985927 0.0931553
590 4 0.00465776 0.0748962 0.0917025
235 2 0.0741494 0.125404 0.15979
477 4 0.101998 0.128816 0.125292
237 4 0.0844036 0.128031 0.137138
475 2 0.0989283 0.149305 0.111294
476 4 0.0958585 0.169795 0.097296
423 4 0.166912 0.160622 0.109805
565 2 0.144603 0.118718 0.167084
567 4 0.133249 0.0973073 0.160933
421 2 0.181895 0.140982 0.113668
422 4 0.196878 0.121341 0.11753
532 2 0.227918 0.11259 0.115864
534 4 0.204749 0.1033 0.117299
533 4 0.251088 0.121879 0.114429
296 4 0.409809 0.130191 0.0902086
558 4 0.391313 0.129972 0.098917
629 4 0.40819 0.137356 0.107733
628 2 0.42207 0.157337 0.113503
737 4 0.155644 0.189348 0.172355
284 4 0.173562 0.201542 0.165205
283 2 0.195626 0.211126 0.158385
285 4 0.21769 0.22071 0.151564
354 4 0.239266 0.228563 0.147343
352 2 0.249139 0.225751 0.124543
353 4 0.259011 0.22294 0.101744
310 2 0.301963 0.203481 0.154581
312 4 0.304848 0.21532 0.132748
764 4 0.251573 0.241161 0.157455
461 4 0.351309 0.260989 0.11186
528 4 0.493059 0.238876 0.131791
630 4 0.43595 0.177318 0.119272
517 2 0.458412 0.230807 0.10826
519 4 0.48169 0.235708 0.115958
518 4 0.435133 0.225905 0.100561
254 4 0.433046 0.24679 0.108275
339 4 0.106658 0.281806 0.113818
337 2 0.12662 0.267536 0.118618
338 4 0.146582 0.253265 0.123417
506 4 0.161217 0.259642 0.110586
505 2 0.181732 0.272995 0.115684
507 4 0.202247 0.286349 0.120782
763 2 0.267865 0.259027 0.163825
255 4 0.413446 0.289026 0.0900349
460 2 0.372007 0.271712 0.102816
253 2 0.423246 0.267908 0.0991549
462 4 0.392704 0.282435 0.0937715
622 2 0.41901 0.333651 0.156227
624 4 0.429427 0.316594 0.141203
313 2 0.0179607 0.401401 0.118287
314 4 0.0148506 0.387479 0.0977517
455 4 0.14602 0.34748 0.155403
1628 4 0.220296 0.396448 0.11622
301 2 0.31939 0.379148 0.16231
303 4 0.311144 0.402752 0.162165
611 4 0.316111 0.339067 0.163507
302 4 0.327637 0.355544 0.162455
741 4 0.356792 0.332433 0.0930298
386 4 0.359722 0.35157 0.0963971
387 4 0.38953 0.372993 0.130357
385 2 0.374626 0.362282 0.113377
13 3 0.383713 0.389847 0.139973
11 1 0.402194 0.38846 0.153935
12 3 0.405986 0.366362 0.15908
608 4 0.35278 0.416251 0.097466
15 3 0.420523 0.396968 0.143433
494 4 0.418319 0.414319 0.134803
315 4 0.0210707 0.415322 0.138822
1757 4 0.0719457 0.446776 0.151357
1627 2 0.235687 0.41511 0.122545
626 4 0.233484 0.4514 0.162147
1629 4 0.251078 0.433772 0.128871
64 3 0.25654 0.450342 0.138407
1487 4 0.252376 0.451627 0.118965
62 3 0.269183 0.483342 0.151206
1486 2 0.269123 0.458831 0.101853
524 4 0.327968 0.498392 0.0881032
61 1 0.26454 0.461587 0.157061
658 2 0.399511 0.488534 0.148538
659 4 0.417141 0.479391 0.133348
1574 4 0.367747 0.484872 0.16149
660 4 0.38188 0.497678 0.163727
495 4 0.428698 0.463057 0.130615
493 2 0.423508 0.438688 0.132709
512 4 0.0729617 0.0450019 0.231488
511 2 0.0614176 0.064126 0.242721
545 4 0.0937762 0.0657057 0.185254
693 4 0.13542 0.0749154 0.21629
691 2 0.159119 0.0784846 0.223418
675 4 0.122945 0.0293648 0.236278
544 2 0.110694 0.0793732 0.19759
731 4 0.125139 0.0868495 0.228408
546 4 0.127611 0.0930407 0.209926
1504 2 0.310633 0.00205757 0.187175
1505 4 0.307648 0.0210608 0.171202
21 1 0.381201 0.0681147 0.177059
23 3 0.372119 0.0546429 0.193625
25 3 0.400328 0.0778974 0.184617
757 2 0.407871 0.075589 0.223477
758 4 0.412245 0.0631949 0.244747
22 3 0.365975 0.0844683 0.171594
236 4 0.0638951 0.122777 0.182442
566 4 0.155957 0.140129 0.173236
582 4 0.151247 0.0865911 0.160587
692 4 0.182817 0.0820539 0.230546
738 4 0.176181 0.14377 0.171071
598 2 0.196133 0.129119 0.212282
600 4 0.19865 0.104265 0.21334
599 4 0.193615 0.153973 0.211224
29 3 0.336716 0.130382 0.246579
759 4 0.403497 0.087983 0.202206
332 4 0.448797 0.154862 0.25003
363 4 0.0315818 0.24359 0.227415
403 2 0.164047 0.173581 0.225903
370 2 0.143075 0.229316 0.177538
405 4 0.141058 0.183267 0.224203
372 4 0.155156 0.208352 0.171236
736 2 0.165913 0.166559 0.171713
404 4 0.187036 0.163895 0.227602
249 4 0.206625 0.163455 0.226045
311 4 0.299078 0.191642 0.176415
308 4 0.318625 0.241048 0.23366
361 2 0.0519616 0.257404 0.231777
362 4 0.0723414 0.271218 0.236138
648 4 0.0439099 0.287387 0.199726
646 2 0.0567602 0.30872 0.197498
647 4 0.0696105 0.330052 0.19527
750 4 0.0897221 0.271921 0.226249
371 4 0.130994 0.250281 0.183841
748 2 0.109755 0.28464 0.234127
749 4 0.129788 0.29736 0.242006
610 2 0.306848 0.316145 0.167241
612 4 0.297584 0.293223 0.170976
765 4 0.284157 0.276893 0.170195
729 4 0.329152 0.256927 0.225108
727 2 0.338741 0.276473 0.212811
728 4 0.34833 0.296018 0.200514
705 4 0.0772205 0.334992 0.21483
454 2 0.141105 0.355444 0.17859
456 4 0.136189 0.363408 0.201776
415 2 0.15091 0.389843 0.220354
417 4 0.133209 0.372195 0.22098
704 4 0.123539 0.353782 0.216343
703 2 0.10038 0.344387 0.215586
416 4 0.168611 0.407491 0.219727
623 4 0.408593 0.350708 0.171251
14 3 0.398182 0.400152 0.173572
645 4 0.402909 0.403254 0.192197
109 3 0.491075 0.409589 0.209108
643 2 0.421007 0.41666 0.203056
3717 4 0.0424091 0.469977 0.231683
603 4 0.071125 0.454067 0.217747
3715 2 0.0286659 0.481581 0.214315
1758 4 0.0808195 0.456205 0.199659
1756 2 0.0763826 0.45149 0.175508
3716 4 0.0149228 0.493185 0.196947
601 2 0.0817225 0.442884 0.23744
638 4 0.162404 0.443669 0.244195
63 3 0.248473 0.46159 0.173802
1659 4 0.217784 0.49673 0.244036
625 2 0.212259 0.446183 0.17429
627 4 0.191034 0.440965 0.186433
639 4 0.19508 0.435394 0.207255
637 2 0.178742 0.439532 0.225725
65 3 0.283586 0.451612 0.164572
1575 4 0.339739 0.482876 0.20287
1573 2 0.353743 0.483874 0.18218
107 3 0.485075 0.439786 0.230667
644 4 0.439105 0.430066 0.213915
110 3 0.457668 0.426955 0.208824
106 1 0.480177 0.430032 0.210418
108 3 0.487482 0.444008 0.193397
234 4 0.0792797 0.0134961 0.312443
232 2 0.0569453 0.00276923 0.315803
673 2 0.130341 0.0225411 0.259168
428 4 0.0909704 0.0271448 0.321208
674 4 0.137737 0.0157174 0.282057
1463 4 0.154917 0.0124612 0.292839
429 4 0.135345 0.016016 0.301014
427 2 0.113157 0.0215804 0.311111
1462 2 0.177417 0.00340371 0.286765
466 2 0.230006 0.0727636 0.293739
467 4 0.211588 0.0758619 0.277114
468 4 0.248423 0.0696653 0.310364
706 2 0.311448 0.0690726 0.317645
682 2 0.262284 0.0377887 0.332005
684 4 0.2636 0.0578243 0.317104
707 4 0.290971 0.0781521 0.328757
708 4 0.331924 0.0599931 0.306534
744 4 0.39704 0.0697478 0.256904
480 4 0.444733 0.0474918 0.27507
479 4 0.436306 0.0823776 0.309893
478 2 0.440519 0.0649347 0.292481
513 4 0.0498736 0.0832501 0.253954
531 4 0.0338066 0.0909973 0.264763
529 2 0.00913017 0.090996 0.268794
2482 2 0.0625098 0.110829 0.287695
2483 4 0.0546709 0.0981804 0.267602
2484 4 0.0703487 0.123478 0.307788
392 4 0.0758962 0.153254 0.291443
730 2 0.116368 0.0923465 0.251168
732 4 0.107597 0.0978435 0.273928
399 4 0.117577 0.128693 0.320832
474 4 0.221801 0.119317 0.325805
248 4 0.233191 0.166308 0.268316
30 3 0.299863 0.135544 0.252315
633 4 0.285057 0.0956471 0.333479
631 2 0.274385 0.108996 0.315228
26 1 0.32072 0.140499 0.260002
632 4 0.263713 0.122345 0.296978
27 3 0.322955 0.132585 0.281486
28 3 0.323862 0.163488 0.260112
742 2 0.390373 0.0848279 0.275701
743 4 0.383705 0.0999081 0.294498
349 2 0.40145 0.136102 0.295414
351 4 0.385316 0.118512 0.287967
451 2 0.45273 0.14166 0.312073
452 4 0.43545 0.159731 0.312142
350 4 0.417584 0.153692 0.302862
453 4 0.470009 0.123588 0.312004
331 2 0.466171 0.166511 0.263727
391 2 0.0791297 0.177306 0.285422
393 4 0.0823632 0.201357 0.279401
247 2 0.219908 0.164882 0.24718
279 4 0.247129 0.181573 0.269211
277 2 0.246378 0.203701 0.280828
536 4 0.2417 0.242202 0.302718
307 2 0.316219 0.222501 0.250255
278 4 0.245627 0.225829 0.292445
309 4 0.313813 0.203954 0.26685
2682 4 0.493373 0.178575 0.294317
333 4 0.483546 0.178161 0.277423
419 4 0.44339 0.215846 0.298243
418 2 0.434346 0.220193 0.321145
2680 2 0.498647 0.197879 0.309309
2453 4 0.502158 0.184696 0.275554
388 2 0.0218514 0.258938 0.323857
390 4 0.0268741 0.276305 0.306584
444 4 0.0314812 0.275078 0.286561
442 2 0.0522025 0.288922 0.288604
443 4 0.0729238 0.302765 0.290647
408 4 0.0812243 0.304575 0.309404
406 2 0.0793218 0.313843 0.332548
299 4 0.138073 0.300008 0.260334
298 2 0.143377 0.321958 0.271069
535 2 0.238093 0.265024 0.293161
537 4 0.234486 0.287846 0.283604
498 4 0.319002 0.259443 0.242854
496 2 0.314391 0.275368 0.26157
497 4 0.30978 0.291293 0.280287
300 4 0.148681 0.343908 0.281803
734 4 0.13733 0.359921 0.288668
733 2 0.140989 0.361635 0.313343
438 4 0.25324 0.395989 0.304432
436 2 0.271723 0.412126 0.299619
587 4 0.483014 0.355744 0.307598
586 2 0.48139 0.350128 0.331909
602 4 0.09232 0.431701 0.257133
289 2 0.15287 0.496078 0.256113
499 2 0.118088 0.475884 0.328433
776 4 0.0842184 0.496446 0.316817
501 4 0.100778 0.486416 0.313783
768 4 0.146451 0.454739 0.253904
766 2 0.150175 0.438409 0.272469
290 4 0.14298 0.473291 0.258964
767 4 0.153899 0.422079 0.291033
1437 4 0.234936 0.48327 0.316373
1435 2 0.218761 0.473834 0.332941
437 4 0.290206 0.428262 0.294807
542 4 0.407195 0.478029 0.298085
541 2 0.412338 0.473223 0.322078
2756 4 0.00590499 0.0650392 0.368948
317 4 0.0233441 0.0575157 0.379385
316 2 0.0390348 0.0383854 0.382991
318 4 0.0547255 0.019255 0.386598
1602 4 0.070292 0.00837016 0.393676
605 4 0.176347 0.0488432 0.35182
439 2 0.242684 0.0222778 0.396986
441 4 0.226025 0.0328067 0.412376
604 2 0.193832 0.0613893 0.36455
606 4 0.211317 0.0739354 0.377279
440 4 0.259342 0.0117489 0.381597
683 4 0.260968 0.0177531 0.346905
726 4 0.276544 0.0772576 0.343346
724 2 0.27058 0.0830238 0.366933
1670 4 0.34169 0.0469396 0.370061
1669 2 0.349703 0.066039 0.356055
1427 4 0.397783 0.0321639 0.390557
1671 4 0.357716 0.0851384 0.342048
1426 2 0.413929 0.0158936 0.400544
1428 4 0.430076 0.999623 0.410531
398 4 0.0871498 0.143882 0.357496
397 2 0.102363 0.136287 0.339164
472 2 0.220081 0.104584 0.345933
473 4 0.218361 0.0898508 0.366062
276 4 0.217444 0.0897271 0.387054
274 2 0.217411 0.111074 0.400072
275 4 0.217377 0.132421 0.413091
375 4 0.235787 0.142699 0.408467
373 2 0.241115 0.164706 0.419073
725 4 0.264616 0.0887901 0.390521
1516 2 0.394944 0.0950974 0.336352
1518 4 0.370405 0.0997808 0.335328
699 4 0.350391 0.102748 0.335004
698 4 0.344735 0.146124 0.359238
697 2 0.347563 0.124436 0.347121
431 4 0.353447 0.122242 0.398867
584 4 0.496895 0.168486 0.395539
1517 4 0.419484 0.090414 0.337377
1580 4 0.477184 0.115431 0.387527
1579 2 0.454585 0.124593 0.393052
516 4 0.414343 0.142913 0.39181
514 2 0.414464 0.162026 0.37569
1581 4 0.431986 0.133756 0.398577
257 4 0.418984 0.13814 0.412052
2654 4 0.0277281 0.168109 0.41003
389 4 0.0168288 0.241572 0.34113
487 2 0.305637 0.240779 0.384368
488 4 0.308646 0.226099 0.404384
717 4 0.328443 0.222165 0.40346
515 4 0.414586 0.181138 0.359569
420 4 0.425301 0.22454 0.344046
306 4 0.428225 0.209385 0.356899
304 2 0.440461 0.22014 0.375867
305 4 0.452697 0.230895 0.394835
270 4 0.468505 0.241605 0.389803
583 2 0.478863 0.18528 0.39978
585 4 0.460832 0.202075 0.404021
267 4 0.44329 0.20556 0.412643
872 4 0.458165 0.220521 0.409675
547 2 0.0226673 0.323604 0.329987
616 2 0.060295 0.301126 0.388743
617 4 0.0573832 0.28482 0.407473
618 4 0.0632068 0.317432 0.370012
407 4 0.0774193 0.323111 0.355693
548 4 0.0458371 0.330635 0.336224
344 4 0.221133 0.325861 0.33914
1260 4 0.24352 0.270376 0.385743
489 4 0.302629 0.255459 0.364353
1258 2 0.259978 0.264382 0.403587
593 4 0.321614 0.32845 0.34703
378 4 0.338655 0.333064 0.356166
376 2 0.36233 0.325963 0.359942
377 4 0.386005 0.318862 0.363717
435 4 0.421251 0.313103 0.349129
433 2 0.442887 0.323364 0.356325
268 2 0.485881 0.258327 0.383196
269 4 0.503256 0.275049 0.376589
735 4 0.144648 0.36335 0.338018
677 4 0.141702 0.362582 0.35717
676 2 0.163015 0.360036 0.369995
343 2 0.210487 0.335003 0.359834
400 2 0.220687 0.338952 0.414948
345 4 0.199841 0.344145 0.380529
402 4 0.201407 0.341171 0.399183
678 4 0.184327 0.357489 0.382819
592 2 0.314919 0.351623 0.353615
594 4 0.308225 0.374796 0.3602
434 4 0.464523 0.333624 0.363522
1715 4 0.474851 0.344448 0.376346
1714 2 0.476066 0.337254 0.400262
588 4 0.479765 0.344512 0.356219
119 3 0.48634 0.371596 0.384701
3989 4 0.489763 0.38485 0.399959
500 4 0.135397 0.465351 0.343083
414 4 0.168146 0.41907 0.341878
413 4 0.206307 0.44631 0.35927
412 2 0.187227 0.43269 0.350574
1436 4 0.202586 0.464397 0.349509
1557 4 0.19549 0.427605 0.4193
1555 2 0.220109 0.431094 0.416667
336 4 0.226213 0.469116 0.38223
334 2 0.238481 0.484414 0.397743
238 2 0.288228 0.49885 0.394372
239 4 0.305755 0.491936 0.377934
614 4 0.387845 0.429122 0.372906
613 2 0.404922 0.446996 0.369151
713 4 0.443793 0.488345 0.380344
446 4 0.469539 0.461559 0.415182
615 4 0.421999 0.46487 0.365396
543 4 0.417481 0.468417 0.34607
447 4 0.437836 0.468087 0.377064
445 2 0.453688 0.464823 0.396123
720 4 0.00776486 0.0616642 0.481232
367 2 0.0729185 0.0583051 0.469173
369 4 0.0757959 0.0595109 0.444365
368 4 0.0700411 0.0570994 0.493982
937 2 0.0496243 0.0173416 0.497553
938 4 0.0589347 0.0404752 0.495728
1818 4 0.249239 0.0162556 0.486533
962 4 0.303119 0.0451061 0.449769
1817 4 0.288969 0.0326383 0.460963
1816 2 0.269104 0.0244469 0.473748
961 2 0.322169 0.060823 0.445859
426 4 0.40108 0.0728645 0.463648
424 2 0.376974 0.0692555 0.458075
963 4 0.341218 0.0765399 0.441949
425 4 0.352868 0.0656465 0.452503
687 4 0.146326 0.121632 0.437724
685 2 0.15432 0.127252 0.460739
686 4 0.162314 0.132872 0.483754
1152 4 0.172041 0.125298 0.49897
320 4 0.327195 0.12527 0.483961
411 4 0.325 0.140478 0.496588
319 2 0.336452 0.105819 0.471266
321 4 0.345708 0.0863682 0.458572
432 4 0.354169 0.0915017 0.438304
430 2 0.353808 0.106872 0.418585
409 2 0.340495 0.159739 0.492838
256 2 0.423281 0.130411 0.435439
258 4 0.427578 0.122682 0.458827
348 4 0.988024 0.160437 0.459701
2655 4 0.989986 0.158175 0.441296
346 2 0.998851 0.174511 0.477304
2653 2 0.00885697 0.163142 0.425663
374 4 0.246443 0.186712 0.42968
510 4 0.265932 0.18707 0.424778
509 4 0.300106 0.223519 0.422697
508 2 0.283019 0.205295 0.423737
651 4 0.30472 0.175798 0.491054
649 2 0.296194 0.198974 0.487134
650 4 0.287668 0.22215 0.483214
711 4 0.275184 0.236393 0.478825
576 4 0.367773 0.167337 0.480662
715 2 0.338136 0.218708 0.426248
574 2 0.390504 0.165997 0.470334
410 4 0.355991 0.179001 0.489087
716 4 0.347829 0.215252 0.449035
575 4 0.413236 0.164658 0.460006
266 4 0.42376 0.169428 0.44117
265 2 0.433525 0.187494 0.426907
871 2 0.467276 0.232747 0.429491
873 4 0.476388 0.244972 0.449308
2814 4 0.0560283 0.301144 0.463816
2812 2 0.0401403 0.302141 0.483097
2813 4 0.0242524 0.303138 0.502378
936 4 0.0172018 0.322432 0.503525
1136 4 0.127418 0.291423 0.447645
1135 2 0.117256 0.30333 0.467142
1137 4 0.107094 0.315238 0.486639
1041 4 0.100564 0.326737 0.501139
401 4 0.239967 0.336732 0.430713
709 2 0.272357 0.25086 0.458629
1259 4 0.276436 0.258388 0.42143
710 4 0.269531 0.265328 0.438433
1716 4 0.47728 0.330059 0.424177
3990 4 0.473513 0.385549 0.447247
3988 2 0.481638 0.3852 0.423603
383 4 0.024048 0.429661 0.449616
382 2 0.0329731 0.45204 0.442931
384 4 0.0418983 0.47442 0.436245
635 4 0.160193 0.5102 0.439542
1556 4 0.244727 0.434583 0.414034
634 2 0.175705 0.499654 0.456075
773 4 0.195999 0.487759 0.491541
636 4 0.191217 0.489109 0.472608
503 4 0.203897 0.422017 0.470257
504 4 0.196973 0.471015 0.477465
502 2 0.200435 0.446516 0.473861
667 2 0.264543 0.454101 0.438576
668 4 0.272719 0.476406 0.446375
4 3 0.268558 0.491877 0.45776
669 4 0.256367 0.431797 0.430776
882 4 0.368766 0.448213 0.486676
1268 4 0.425165 0.430375 0.484666
1059 4 0.0670733 0.0567926 0.51864
1057 2 0.0726669 0.062201 0.542402
1058 4 0.0782605 0.0676094 0.566164
824 4 0.0787287 0.0657308 0.587664
2429 4 0.0906908 0.0801554 0.579115
2428 2 0.113205 0.0842556 0.569042
1181 4 0.268984 0.0847098 0.549417
843 4 0.288247 0.00653142 0.567104
1217 4 0.357128 0.0257948 0.571959
1216 2 0.35686 0.0430706 0.553886
89 3 0.410294 0.0364019 0.573897
1218 4 0.356591 0.0603465 0.535812
2333 4 0.356074 0.0073939 0.564693
90 3 0.430392 0.00493863 0.569023
86 1 0.431633 0.0273436 0.572912
87 3 0.443189 0.0373852 0.555743
2430 4 0.13572 0.0883559 0.55897
944 4 0.132916 0.107373 0.55254
943 2 0.140009 0.130979 0.556736
945 4 0.147103 0.154585 0.560932
259 2 0.109838 0.16924 0.506068
260 4 0.122993 0.147999 0.505108
1180 2 0.244361 0.0888689 0.55069
1182 4 0.219739 0.093028 0.551962
1031 4 0.217797 0.0870519 0.571252
1151 4 0.208606 0.141393 0.529047
1220 4 0.192999 0.150531 0.541047
1150 2 0.190323 0.133345 0.514008
887 4 0.322444 0.139781 0.543617
886 2 0.314134 0.135137 0.566738
888 4 0.305825 0.130493 0.589858
1062 4 0.475168 0.137428 0.564915
1060 2 0.488596 0.11637 0.563728
1061 4 0.502024 0.0953112 0.562542
877 2 0.0300476 0.204656 0.563382
1272 4 0.0685929 0.218427 0.546633
879 4 0.0529558 0.21432 0.560733
878 4 0.00713939 0.194993 0.56603
347 4 0.00967771 0.188585 0.494907
1033 2 0.126709 0.220871 0.517056
1034 4 0.146861 0.23465 0.522459
1035 4 0.106556 0.207092 0.511653
261 4 0.0966834 0.190482 0.507028
1270 2 0.0863806 0.205188 0.558188
1271 4 0.104168 0.191949 0.569742
1154 4 0.123116 0.201376 0.57114
695 4 0.151112 0.242212 0.540203
1219 2 0.194554 0.172177 0.553467
1221 4 0.19611 0.193822 0.565886
694 2 0.175261 0.241599 0.53375
696 4 0.199409 0.240987 0.527297
325 2 0.234798 0.204475 0.567459
992 4 0.237552 0.245887 0.549814
327 4 0.212276 0.20144 0.557032
326 4 0.25732 0.207509 0.577887
934 2 0.018006 0.33304 0.526152
2613 4 0.00732435 0.291809 0.50565
8 3 0.244706 0.254475 0.568655
991 2 0.232989 0.248675 0.525389
993 4 0.228426 0.251464 0.500964
790 2 0.316246 0.289218 0.554685
804 4 0.307359 0.317978 0.584472
792 4 0.318585 0.308814 0.570036
812 4 0.324258 0.328383 0.576067
811 2 0.324127 0.339699 0.553771
791 4 0.313906 0.269621 0.539333
560 4 0.470134 0.297088 0.519924
559 2 0.491797 0.30912 0.523257
935 4 0.0188101 0.343647 0.54878
1039 2 0.10097 0.337266 0.523814
1040 4 0.101377 0.347795 0.546488
897 4 0.133816 0.404179 0.586885
1160 4 0.15154 0.410157 0.580748
1159 2 0.170547 0.411588 0.564566
1161 4 0.189553 0.413019 0.548383
1173 4 0.20903 0.41506 0.548756
813 4 0.323996 0.351016 0.531475
751 2 0.492924 0.368915 0.516171
753 4 0.47859 0.386773 0.506131
752 4 0.507258 0.351057 0.526211
1938 4 0.0500528 0.484898 0.535342
1171 2 0.228446 0.430307 0.552719
774 4 0.230592 0.484871 0.527537
772 2 0.213295 0.486315 0.509539
1188 4 0.249321 0.4869 0.534877
1172 4 0.247862 0.445554 0.556682
881 4 0.333886 0.454967 0.521868
880 2 0.351326 0.45159 0.504272
663 4 0.406411 0.473375 0.55004
661 2 0.407647 0.492113 0.566549
4084 2 0.473313 0.482298 0.530232
1267 2 0.437546 0.438303 0.50489
1269 4 0.449927 0.446232 0.525114
4085 4 0.464237 0.459583 0.52505
823 2 0.067956 0.070574 0.609702
2319 4 0.0419256 0.0315903 0.631576
825 4 0.0571834 0.0754171 0.63174
2317 2 0.0476167 0.01199 0.617132
98 3 0.206736 0.0477101 0.648617
100 3 0.243749 0.0498735 0.655174
96 1 0.223262 0.0478245 0.664905
950 4 0.24875 0.0609829 0.640349
951 4 0.287677 0.063379 0.60905
949 2 0.268214 0.0621809 0.624699
1003 2 0.329014 0.017666 0.634025
1004 4 0.312813 0.00981563 0.651377
1005 4 0.345215 0.0255163 0.616674
1092 4 0.362189 0.0299956 0.605634
1090 2 0.387112 0.0319113 0.606216
1091 4 0.412036 0.0338269 0.606798
88 3 0.44285 0.0313119 0.592832
2283 4 0.432344 0.0282313 0.61069
2281 2 0.429823 0.0187253 0.633678
2282 4 0.427302 0.00921937 0.656666
3007 2 0.46952 0.0614701 0.616138
3008 4 0.487336 0.046886 0.606387
3009 4 0.451705 0.0760541 0.625889
1282 2 0.170841 0.140336 0.60172
1030 2 0.201094 0.100396 0.584219
1032 4 0.184391 0.11374 0.597186
1283 4 0.189238 0.126515 0.611504
806 4 0.312142 0.139759 0.606509
805 2 0.314063 0.153327 0.627423
900 4 0.359467 0.0904054 0.612337
898 2 0.355944 0.114754 0.6168
899 4 0.35242 0.139102 0.621263
150 3 0.411094 0.079671 0.603912
148 3 0.405848 0.0949313 0.637931
1194 4 0.35602 0.156884 0.630325
905 4 0.412341 0.137156 0.6036
146 1 0.418019 0.0959935 0.618204
149 3 0.415318 0.116822 0.608341
147 3 0.440294 0.0928852 0.623034
3052 2 0.476675 0.108313 0.644177
3053 4 0.454866 0.0999996 0.635209
3251 4 0.4209 0.131471 0.622973
3250 2 0.430431 0.139245 0.644742
1082 4 0.0510769 0.238971 0.588257
851 4 0.0227175 0.178328 0.658494
850 2 0.0435576 0.19065 0.652245
1081 2 0.060151 0.235412 0.611283
852 4 0.0643976 0.202971 0.645996
1083 4 0.069225 0.231854 0.634309
1208 4 0.0756754 0.247193 0.645834
909 4 0.0824566 0.227609 0.649535
1207 2 0.070075 0.261515 0.66555
1155 4 0.132325 0.155468 0.588702
908 4 0.111166 0.188886 0.63623
1153 2 0.12772 0.178422 0.579921
907 2 0.0968112 0.208247 0.642883
1284 4 0.152444 0.154157 0.591937
1211 4 0.153339 0.172223 0.604041
1210 2 0.163079 0.188701 0.620128
1212 4 0.172818 0.20518 0.636215
1238 4 0.296188 0.150174 0.594508
1237 2 0.282005 0.169941 0.588738
10 3 0.254153 0.252512 0.605049
1239 4 0.267823 0.189709 0.582968
807 4 0.315983 0.166895 0.648337
1193 4 0.367812 0.204581 0.621016
1192 2 0.361916 0.180733 0.625671
906 4 0.415154 0.186795 0.598232
1025 4 0.399885 0.234318 0.646487
1024 2 0.407467 0.221184 0.626607
904 2 0.413748 0.161976 0.600916
1026 4 0.415049 0.20805 0.606728
954 4 0.428929 0.221193 0.596329
952 2 0.440854 0.242094 0.589538
2847 4 0.988988 0.319424 0.601485
857 4 0.138536 0.281835 0.629472
856 2 0.153649 0.299977 0.637698
948 4 0.116411 0.243264 0.67079
6 1 0.241809 0.263892 0.589663
7 3 0.21956 0.262638 0.59537
858 4 0.168761 0.318119 0.645923
1065 4 0.225135 0.317386 0.641497
796 2 0.20098 0.337219 0.644028
798 4 0.225429 0.337563 0.638805
1063 2 0.239636 0.306275 0.624425
802 2 0.283666 0.311154 0.588628
9 3 0.248213 0.286192 0.589299
803 4 0.259974 0.30433 0.592785
1064 4 0.254137 0.295163 0.607353
1007 4 0.403341 0.337564 0.652315
953 4 0.45278 0.262994 0.582747
3274 2 0.0386472 0.378644 0.656781
3276 4 0.0536011 0.395918 0.646625
982 2 0.998363 0.336706 0.640149
797 4 0.17653 0.336874 0.649251
1189 2 0.242398 0.389083 0.596909
1190 4 0.230086 0.410681 0.594238
1191 4 0.254709 0.367485 0.59958
1029 4 0.303146 0.399831 0.670385
895 2 0.111345 0.414763 0.589754
896 4 0.0888744 0.425346 0.592623
1176 4 0.228935 0.445479 0.644149
4148 4 0.467279 0.493915 0.611959
2167 2 0.482541 0.480086 0.642904
2169 4 0.480238 0.480008 0.618007
1183 2 0.0342413 0.00246084 0.694492
1185 4 0.047678 0.0232518 0.698009
97 3 0.222356 0.0280114 0.676557
2202 4 0.225953 0.0548242 0.696178
99 3 0.219716 0.065375 0.679664
2262 4 0.223361 0.0342757 0.694716
2200 2 0.225485 0.0700074 0.716038
2260 2 0.214772 0.0169154 0.710528
846 4 0.416615 0.0385268 0.736121
2398 2 0.384974 0.0174096 0.716573
2400 4 0.367838 0.00113959 0.708399
2399 4 0.40211 0.0336796 0.724748
1162 2 0.489337 0.0469351 0.671296
2322 4 0.413 0.0443322 0.714251
2321 4 0.45582 0.0526477 0.689795
2320 2 0.43441 0.0484899 0.702023
1163 4 0.466332 0.0419225 0.679712
1924 2 0.441556 0.0119946 0.742628
1926 4 0.422654 0.0215828 0.729364
2342 4 0.430601 0.0070004 0.714509
1076 4 0.0345658 0.16305 0.693374
1077 4 0.026579 0.113901 0.697992
864 4 0.0378604 0.104164 0.713381
862 2 0.0444837 0.095641 0.735935
1075 2 0.0305724 0.138475 0.695683
1225 2 0.148586 0.127389 0.716079
1227 4 0.131293 0.141044 0.704261
1226 4 0.165879 0.113734 0.727897
2201 4 0.225017 0.0851906 0.735898
1148 4 0.177175 0.125932 0.738665
1147 2 0.196776 0.111398 0.744118
1149 4 0.216377 0.0968643 0.74957
809 4 0.310473 0.152723 0.739394
829 2 0.326373 0.163567 0.693302
830 4 0.333421 0.155529 0.670699
3252 4 0.439962 0.147019 0.666512
1073 4 0.0726583 0.187327 0.73286
1106 4 0.0324655 0.192518 0.751536
1072 2 0.0813755 0.209499 0.725271
1074 4 0.0900927 0.231671 0.717682
893 4 0.0873738 0.252073 0.72638
947 4 0.104528 0.243204 0.719365
946 2 0.11047 0.243234 0.695078
977 4 0.225148 0.228718 0.742288
976 2 0.202575 0.239387 0.743636
918 4 0.244551 0.228143 0.744405
978 4 0.180002 0.250055 0.744983
45 3 0.23812 0.208755 0.75027
43 3 0.257802 0.179144 0.737883
3204 4 0.322501 0.184604 0.731379
916 2 0.266359 0.240372 0.744586
831 4 0.319325 0.171605 0.715905
3202 2 0.344559 0.194735 0.737375
3203 4 0.366618 0.204866 0.743371
3486 4 0.376551 0.198734 0.726944
3484 2 0.392976 0.214055 0.715958
3485 4 0.409401 0.229376 0.704973
1179 4 0.00431862 0.269402 0.706046
1245 4 0.993891 0.255603 0.695301
1209 4 0.0644745 0.275836 0.685266
892 2 0.0962337 0.261039 0.747974
1277 4 0.159398 0.25091 0.740976
917 4 0.288167 0.252601 0.744766
3355 2 0.495381 0.272411 0.691153
1263 4 0.431874 0.31138 0.731243
3356 4 0.481237 0.292959 0.692858
1261 2 0.447283 0.305086 0.712585
1262 4 0.462692 0.298791 0.693926
3123 4 0.477094 0.312623 0.69679
3275 4 0.0236934 0.361369 0.666937
983 4 0.0105408 0.348786 0.658342
815 4 0.136584 0.369246 0.739169
814 2 0.113119 0.361907 0.743719
942 4 0.148394 0.382549 0.730934
940 2 0.165571 0.400383 0.727462
816 4 0.0896536 0.354568 0.748269
1175 4 0.248474 0.418171 0.681206
1067 4 0.195922 0.402953 0.720972
1066 2 0.216919 0.406263 0.707807
1068 4 0.237917 0.409573 0.694641
1027 2 0.279816 0.401189 0.679276
1028 4 0.256486 0.402546 0.688167
1006 2 0.398561 0.3541 0.67045
1008 4 0.393781 0.370636 0.688586
998 4 0.401885 0.358551 0.720207
997 2 0.399333 0.380757 0.731412
999 4 0.39678 0.402963 0.742617
1205 4 0.405933 0.418746 0.733137
3430 2 0.00779794 0.47125 0.717576
3431 4 0.0129818 0.446798 0.718226
1280 4 0.0649153 0.462317 0.700063
1279 2 0.070007 0.44469 0.71705
3432 4 0.00261407 0.495702 0.716927
1281 4 0.0750988 0.427063 0.734036
885 4 0.0849597 0.433985 0.750667
2015 4 0.138765 0.46594 0.701866
1079 4 0.158172 0.467481 0.697871
2014 2 0.130117 0.482654 0.685402
2016 4 0.121469 0.499368 0.668939
1174 2 0.238705 0.431825 0.662677
1078 2 0.171715 0.452819 0.712931
941 4 0.182749 0.418218 0.72399
1080 4 0.185258 0.438157 0.727991
2013 4 0.196702 0.438893 0.743896
929 4 0.28909 0.483242 0.714801
1228 2 0.328779 0.476942 0.732375
1229 4 0.311186 0.488615 0.718979
928 2 0.279623 0.498736 0.731992
1019 4 0.392654 0.422596 0.749456
1230 4 0.346371 0.465269 0.74577
1204 2 0.419583 0.426607 0.713719
1206 4 0.433234 0.434468 0.694301
2168 4 0.484845 0.480163 0.667801
1250 4 0.469592 0.479283 0.680434