ITEM: TIMESTEP
1130000
ITEM: NUMBER OF ATOMS
4590
ITEM: BOX BOUNDS pp pp pp
-9.9985700000000008e+00 9.9985700000000008e+00
-9.9985700000000008e+00 9.9985700000000008e+00
-9.9985700000000008e+00 9.9985700000000008e+00
ITEM: ATOMS id type xs ys zs
463 2 0.0361105 0.0328655 0.0413328
464 4 0.0536803 0.0497829 0.046836
1667 4 0.0590424 0.0668923 0.0364181
465 4 0.0185407 0.0159482 0.0358297
3291 4 0.00134545 0.0091377 0.0285993
2760 4 0.0069956 0.0776698 0.0761858
579 4 0.123772 0.0184713 0.0619086
1252 2 0.148886 0.010849 0.0122524
1254 4 0.152287 0.0324484 0.0243797
491 4 0.250028 0.0548937 0.0164287
490 2 0.271793 0.0437178 0.0215807
492 4 0.293558 0.0325418 0.0267327
486 4 0.306236 0.0394276 0.0429236
484 2 0.317246 0.0200793 0.0543077
485 4 0.328256 0.00073092 0.0656918
746 4 0.402327 0.0688626 0.053469
297 4 0.352613 0.0699899 0.0219388
745 2 0.415653 0.0543815 0.0380457
1607 4 0.344029 0.000300848 0.0527569
747 4 0.42898 0.0399005 0.0226224
1826 4 0.443678 0.0305255 0.00977032
1825 2 0.46484 0.0270707 0.0226311
1653 4 0.497039 0.00858861 0.0288005
1827 4 0.486002 0.0236159 0.0354918
2975 4 0.44211 0.0527519 0.0115095
2974 2 0.450353 0.0755642 0.00544091
1666 2 0.0765338 0.0841172 0.041165
1246 2 0.0342754 0.120932 0.0424845
1247 4 0.0440232 0.11986 0.0654847
1248 4 0.0245276 0.122003 0.0194842
3234 4 0.00465324 0.125983 0.018102
1668 4 0.0940252 0.101342 0.0459119
423 4 0.158324 0.1454 0.0369377
359 4 0.240199 0.0950996 0.034445
532 2 0.218192 0.0993 0.0718014
534 4 0.203082 0.114982 0.0595159
421 2 0.180213 0.139874 0.0476858
422 4 0.202102 0.134348 0.0584339
358 2 0.248574 0.0987703 0.0111735
556 2 0.313813 0.118175 0.0841327
558 4 0.333814 0.105297 0.0764337
664 2 0.338119 0.152772 0.00286545
296 4 0.345591 0.0992304 0.0618936
295 2 0.349102 0.0846101 0.0419162
866 4 0.375112 0.16298 0.00572908
628 2 0.365861 0.13281 0.0778676
629 4 0.353724 0.111111 0.0752179
666 4 0.359665 0.154681 0.0154065
630 4 0.377998 0.154509 0.0805173
554 4 0.118901 0.211433 0.012741
553 2 0.115932 0.233552 0.0240172
1133 4 0.133335 0.199345 0.00647124
1132 2 0.157799 0.19964 0.00131637
323 4 0.382063 0.211204 0.0275752
322 2 0.389484 0.227478 0.0450467
324 4 0.396905 0.243752 0.0625183
770 4 0.443353 0.183961 0.0464951
771 4 0.486775 0.184871 0.071282
769 2 0.465064 0.184416 0.0588885
836 4 0.0717944 0.301849 0.0533609
835 2 0.0813153 0.32484 0.0509265
555 4 0.112963 0.25567 0.0352934
619 2 0.0149736 0.387817 0.00880581
294 4 0.0694318 0.39776 0.0431422
552 4 0.0542838 0.410378 0.0435062
2785 2 0.00565458 0.377665 0.0688679
621 4 0.00353484 0.394354 0.0300566
292 2 0.0841698 0.380492 0.0536208
837 4 0.0908361 0.347832 0.048492
293 4 0.0989078 0.363224 0.0640994
915 4 0.105568 0.359483 0.0470491
913 2 0.127462 0.352625 0.0371088
914 4 0.149356 0.345768 0.0271685
288 4 0.155678 0.339659 0.00855832
455 4 0.10555 0.345718 0.066031
286 2 0.176252 0.353801 0.00718091
287 4 0.196826 0.367943 0.0058035
252 4 0.245794 0.361208 0.0710238
250 2 0.263712 0.378615 0.0720811
251 4 0.28163 0.396022 0.0731383
609 4 0.297257 0.384931 0.0796706
739 2 0.338037 0.336433 0.0832296
741 4 0.354753 0.354169 0.0776452
572 4 0.335247 0.343146 0.000813672
672 4 0.435443 0.37814 0.0271112
670 2 0.422684 0.381186 0.00582459
563 4 0.481481 0.411439 0.0574637
562 2 0.493153 0.394658 0.0718617
550 2 0.0672298 0.431314 0.0391156
551 4 0.0801758 0.452249 0.034725
1438 2 0.144052 0.470871 0.0825913
1440 4 0.144895 0.495749 0.0802373
525 4 0.314813 0.48642 0.0703955
523 2 0.337321 0.497215 0.0689854
578 4 0.0998182 0.00307763 0.103018
577 2 0.111795 0.0107744 0.0824632
1806 4 0.134905 0.00487184 0.110361
22 3 0.365205 0.0792448 0.158937
2468 4 0.466422 0.0518177 0.0834556
2467 2 0.480048 0.0427746 0.102369
2469 4 0.493674 0.0337316 0.121283
235 2 0.0538655 0.143119 0.162587
589 2 0.0325662 0.138386 0.112744
591 4 0.0481995 0.157472 0.10868
590 4 0.0169329 0.1193 0.116808
2758 2 0.00305976 0.0932325 0.0953558
237 4 0.0774162 0.145075 0.154419
477 4 0.0960311 0.136938 0.150661
475 2 0.117028 0.129736 0.139152
476 4 0.138024 0.122534 0.127643
567 4 0.158514 0.126064 0.124044
533 4 0.233303 0.0836182 0.0840868
566 4 0.195547 0.104302 0.0984381
565 2 0.177031 0.115183 0.111241
738 4 0.228972 0.156527 0.160192
557 4 0.293811 0.131053 0.0918318
311 4 0.323285 0.16583 0.137759
2894 4 0.490625 0.154798 0.126313
2591 4 0.485711 0.142946 0.142071
2466 4 0.498754 0.136243 0.128638
339 4 0.112118 0.238986 0.108235
337 2 0.137112 0.238281 0.108146
338 4 0.162105 0.237575 0.108057
372 4 0.172584 0.246653 0.15678
370 2 0.178571 0.222467 0.158872
371 4 0.184557 0.198281 0.160963
352 2 0.318697 0.237642 0.12273
310 2 0.336417 0.186805 0.141336
354 4 0.337065 0.223012 0.131322
764 4 0.359868 0.219567 0.157087
312 4 0.349549 0.207779 0.144914
461 4 0.354624 0.226309 0.137635
255 4 0.396482 0.223844 0.0981593
462 4 0.400704 0.226317 0.118209
460 2 0.377664 0.226313 0.127922
253 2 0.420774 0.229763 0.0981838
254 4 0.445067 0.235683 0.0982083
2893 2 0.494816 0.169774 0.106734
704 4 0.07964 0.332068 0.149161
506 4 0.165398 0.252458 0.120162
505 2 0.179953 0.272567 0.117169
507 4 0.194508 0.292676 0.114176
740 4 0.321321 0.318697 0.088814
353 4 0.30033 0.252271 0.114138
755 4 0.302111 0.271335 0.105497
754 2 0.301981 0.294694 0.096581
756 4 0.301851 0.318054 0.0876646
612 4 0.28898 0.304727 0.136654
610 2 0.278189 0.3171 0.155513
517 2 0.472694 0.256859 0.103465
518 4 0.449793 0.254762 0.093652
519 4 0.495596 0.258956 0.113278
2786 4 0.0159517 0.369495 0.0901377
314 4 0.0173174 0.380265 0.106769
313 2 0.00234482 0.392383 0.122711
417 4 0.106819 0.359067 0.134829
456 4 0.111567 0.35734 0.114295
454 2 0.108559 0.351529 0.0901631
415 2 0.0956306 0.372943 0.152364
607 2 0.3174 0.398139 0.0863768
387 4 0.384407 0.375464 0.136262
385 2 0.374256 0.367459 0.114859
386 4 0.364105 0.359454 0.0934572
13 3 0.388297 0.379492 0.156191
608 4 0.337543 0.411348 0.093083
15 3 0.423418 0.39232 0.160618
494 4 0.425325 0.412551 0.160872
1439 4 0.143209 0.445993 0.0849453
627 4 0.213981 0.462729 0.13149
639 4 0.201868 0.459001 0.149704
625 2 0.238921 0.463863 0.132867
626 4 0.263861 0.464998 0.134244
658 2 0.39974 0.487806 0.142949
659 4 0.420697 0.475354 0.137384
495 4 0.426408 0.456769 0.137542
493 2 0.425867 0.43466 0.149207
673 2 0.0825029 0.0363132 0.231056
675 4 0.0775975 0.0156867 0.217802
512 4 0.0693594 0.0660293 0.240419
1403 4 0.0746195 0.00164816 0.23077
674 4 0.0874084 0.0569397 0.244309
722 4 0.15377 0.0052917 0.249745
653 4 0.203469 0.0425772 0.16978
652 2 0.190436 0.0579302 0.184598
654 4 0.177402 0.0732832 0.199417
1464 4 0.203822 0.0221524 0.246142
1505 4 0.26509 0.0333588 0.191343
1504 2 0.268854 0.00953261 0.197925
24 3 0.353152 0.0614346 0.189762
21 1 0.364653 0.0799996 0.181921
25 3 0.385967 0.0798962 0.189944
480 4 0.493701 0.0524699 0.243654
511 2 0.051808 0.0838081 0.24144
236 4 0.0303147 0.141164 0.170755
2482 2 0.00977509 0.11303 0.220636
2483 4 0.0165068 0.105373 0.243467
513 4 0.0342567 0.101587 0.242461
381 4 0.00994362 0.129911 0.169195
531 4 0.022943 0.0863449 0.251621
2484 4 0.00304338 0.120687 0.197805
393 4 0.069141 0.140668 0.248761
391 2 0.0847794 0.160154 0.247803
582 4 0.168707 0.134856 0.211179
581 4 0.188103 0.0892467 0.204524
580 2 0.178405 0.112051 0.207851
759 4 0.399668 0.0926963 0.193546
23 3 0.3538 0.0994146 0.18853
757 2 0.403626 0.0906484 0.218149
758 4 0.407584 0.0886005 0.242752
2592 4 0.489915 0.14974 0.191436
2590 2 0.487813 0.146343 0.166754
361 2 0.0691976 0.24646 0.220279
363 4 0.0471539 0.242334 0.209223
362 4 0.0912412 0.250585 0.231335
392 4 0.100418 0.17964 0.246846
736 2 0.243071 0.17404 0.171133
285 4 0.316811 0.214083 0.166811
283 2 0.292349 0.210485 0.170535
737 4 0.25717 0.191552 0.182074
284 4 0.267888 0.206888 0.17426
309 4 0.330097 0.240079 0.224501
763 2 0.353418 0.225277 0.18056
765 4 0.346969 0.230987 0.204033
703 2 0.0644031 0.324467 0.167471
705 4 0.0491662 0.316865 0.185781
648 4 0.0624518 0.294958 0.238545
646 2 0.0534753 0.3103 0.220959
647 4 0.0444988 0.325641 0.203374
748 2 0.108483 0.285756 0.237262
750 4 0.105343 0.26121 0.240846
299 4 0.128114 0.318756 0.240084
749 4 0.111623 0.310301 0.233677
611 4 0.267398 0.329473 0.174371
307 2 0.337155 0.257779 0.240691
622 2 0.417671 0.323632 0.174758
624 4 0.43262 0.304205 0.179687
2463 4 0.0124981 0.396061 0.227831
416 4 0.0844417 0.386819 0.169898
302 4 0.280717 0.402326 0.167784
301 2 0.301242 0.413876 0.17618
623 4 0.402722 0.343059 0.169829
12 3 0.415836 0.356356 0.167099
11 1 0.407787 0.377848 0.168674
14 3 0.40335 0.382583 0.190951
728 4 0.350786 0.337454 0.239515
645 4 0.416771 0.392965 0.202135
643 2 0.435994 0.404075 0.213634
644 4 0.455217 0.415185 0.225132
2461 2 0.0107546 0.420061 0.234621
3716 4 0.0496753 0.476398 0.190157
1757 4 0.0660859 0.487365 0.189393
3715 2 0.0324717 0.468798 0.206633
3717 4 0.015268 0.461199 0.223109
2462 4 0.00901108 0.444062 0.241412
3959 4 0.000496173 0.461476 0.238813
1756 2 0.090215 0.492303 0.193704
291 4 0.122501 0.482754 0.207647
1758 4 0.114344 0.497241 0.198014
289 2 0.146594 0.488031 0.203543
637 2 0.192517 0.468767 0.170736
290 4 0.170688 0.493308 0.199439
638 4 0.183166 0.478532 0.191769
768 4 0.174688 0.474241 0.211151
766 2 0.194414 0.46773 0.225067
767 4 0.214141 0.461218 0.238983
303 4 0.321768 0.425425 0.184577
110 3 0.471507 0.427068 0.223128
107 3 0.499584 0.427932 0.198555
106 1 0.486427 0.440618 0.212523
109 3 0.475136 0.456449 0.199863
233 4 0.00831547 0.00581354 0.259933
232 2 0.0215607 0.00369808 0.281035
234 4 0.0348059 0.00158263 0.302136
545 4 0.107313 0.0598348 0.261216
427 2 0.0987436 0.0268744 0.322068
546 4 0.150561 0.0527377 0.285299
429 4 0.108044 0.0462405 0.309275
544 2 0.128937 0.0562862 0.273257
731 4 0.164464 0.045715 0.302445
730 2 0.155609 0.0521288 0.324931
693 4 0.173398 0.0541252 0.284387
691 2 0.175958 0.0759512 0.27246
1463 4 0.180511 0.0294224 0.289782
1462 2 0.192166 0.0257874 0.267962
1517 4 0.376069 0.0193946 0.309893
1516 2 0.361996 0.0213762 0.330464
479 4 0.459674 0.0453395 0.2796
478 2 0.476687 0.0489047 0.261627
529 2 0.00333962 0.0825752 0.266676
405 4 0.142704 0.14048 0.2823
403 2 0.167515 0.143242 0.280889
692 4 0.178518 0.0977772 0.260534
600 4 0.196995 0.0943872 0.270384
598 2 0.210739 0.113432 0.278963
599 4 0.224482 0.132476 0.287542
249 4 0.210276 0.147398 0.286979
404 4 0.192325 0.146004 0.279479
247 2 0.228324 0.164114 0.2825
474 4 0.17425 0.162456 0.327376
30 3 0.308837 0.137818 0.274769
631 2 0.293179 0.127509 0.312032
632 4 0.310752 0.132553 0.294975
707 4 0.325152 0.094107 0.321174
26 1 0.319252 0.158071 0.274656
27 3 0.319893 0.166381 0.296096
633 4 0.275606 0.122465 0.329088
744 4 0.397676 0.0893149 0.260808
706 2 0.345895 0.107137 0.316161
708 4 0.366638 0.120167 0.311149
743 4 0.382008 0.110003 0.303554
351 4 0.388916 0.125844 0.311003
742 2 0.389842 0.0996592 0.282181
349 2 0.410178 0.127422 0.324064
29 3 0.340982 0.155755 0.266856
389 4 0.0518486 0.230011 0.293077
248 4 0.246371 0.180829 0.278021
279 4 0.244227 0.200652 0.279428
277 2 0.246451 0.225357 0.276283
472 2 0.188296 0.182523 0.332393
28 3 0.307547 0.172917 0.261203
419 4 0.437419 0.20226 0.299992
418 2 0.435369 0.211077 0.3233
442 2 0.0721348 0.305588 0.295825
388 2 0.0648679 0.250763 0.288076
443 4 0.057144 0.322315 0.306808
390 4 0.0778873 0.271516 0.283075
444 4 0.0871256 0.28886 0.284841
677 4 0.147934 0.306537 0.315366
278 4 0.248676 0.250063 0.273139
344 4 0.226544 0.295787 0.326788
537 4 0.239694 0.306463 0.270681
536 4 0.262334 0.262478 0.26337
535 2 0.251014 0.284471 0.267026
496 2 0.318153 0.288324 0.293111
497 4 0.304915 0.295209 0.313174
498 4 0.33139 0.281439 0.273048
308 4 0.344212 0.275478 0.256881
729 4 0.341855 0.294672 0.263818
727 2 0.34632 0.316063 0.251667
547 2 0.0244953 0.373997 0.328919
548 4 0.0434169 0.389789 0.324702
298 2 0.140561 0.336131 0.253059
300 4 0.153007 0.353507 0.266034
734 4 0.165286 0.368542 0.271518
735 4 0.18456 0.357201 0.316246
733 2 0.174923 0.362872 0.293882
438 4 0.228806 0.416108 0.313862
615 4 0.407365 0.389096 0.309903
613 2 0.386263 0.382494 0.321578
543 4 0.408191 0.381211 0.292275
541 2 0.426579 0.372569 0.277701
542 4 0.444967 0.363927 0.263128
447 4 0.422107 0.404188 0.312826
3958 2 0.0142321 0.474565 0.255098
777 4 0.0660827 0.499321 0.321347
775 2 0.0832159 0.481613 0.3256
3960 4 0.0279681 0.487654 0.271382
603 4 0.0792743 0.429636 0.273699
602 4 0.128778 0.426022 0.279782
601 2 0.104026 0.427829 0.27674
414 4 0.126726 0.437393 0.29478
412 2 0.149317 0.445135 0.302189
776 4 0.100349 0.463906 0.329852
436 2 0.233594 0.422101 0.290064
437 4 0.238382 0.428094 0.266266
413 4 0.171908 0.452878 0.309597
1437 4 0.216492 0.485682 0.276058
1435 2 0.202651 0.468935 0.288433
1436 4 0.18881 0.452188 0.300807
1557 4 0.188271 0.445398 0.31862
1658 4 0.209864 0.493129 0.258928
714 4 0.407234 0.497255 0.29951
712 2 0.395779 0.476963 0.290443
713 4 0.384325 0.456671 0.281376
445 2 0.442882 0.417117 0.317963
446 4 0.463658 0.430046 0.323101
317 4 0.0369166 0.058505 0.350904
316 2 0.0510264 0.0540433 0.371058
318 4 0.0651362 0.0495816 0.391212
1602 4 0.072148 0.0300511 0.391857
2756 4 0.0107222 0.0630228 0.380634
1600 2 0.0792631 0.00658806 0.39676
428 4 0.0894434 0.00750843 0.33486
732 4 0.146754 0.0585425 0.347418
605 4 0.160326 0.0732479 0.347394
1701 4 0.181214 0.00708824 0.383422
439 2 0.233345 0.0743058 0.388463
440 4 0.20984 0.0802326 0.382333
683 4 0.253552 0.0616312 0.338437
441 4 0.25685 0.068379 0.394592
1670 4 0.319043 0.00525342 0.411995
1669 2 0.327837 0.0142828 0.390401
1671 4 0.336631 0.0233121 0.368807
1427 4 0.355978 0.0311823 0.368656
1518 4 0.347922 0.0233579 0.351036
699 4 0.339429 0.0395212 0.358424
1426 2 0.377611 0.0325038 0.381124
1428 4 0.399243 0.0338253 0.393592
697 2 0.335822 0.0641286 0.355846
1579 2 0.467905 0.0289476 0.404743
1581 4 0.457907 0.0518492 0.403883
516 4 0.458414 0.0655458 0.38791
257 4 0.445503 0.0648235 0.405722
1580 4 0.477903 0.006046 0.405603
398 4 0.0848534 0.147871 0.362306
399 4 0.126509 0.14811 0.334639
397 2 0.105681 0.147991 0.348472
604 2 0.176102 0.0911407 0.354887
606 4 0.191877 0.109033 0.362381
466 2 0.235597 0.157341 0.344162
468 4 0.248828 0.136298 0.341454
682 2 0.26511 0.0837917 0.339143
698 4 0.332216 0.0887361 0.353269
684 4 0.276669 0.105952 0.339848
726 4 0.287484 0.120609 0.34651
725 4 0.300343 0.115837 0.394599
724 2 0.293913 0.118223 0.370554
514 2 0.474833 0.0841517 0.384838
350 4 0.431441 0.128999 0.337125
452 4 0.447266 0.139592 0.333878
515 4 0.491251 0.102758 0.381765
451 2 0.45872 0.151899 0.352386
453 4 0.470174 0.164205 0.370893
467 4 0.222366 0.178383 0.346869
473 4 0.202342 0.202591 0.337411
276 4 0.216008 0.196846 0.350944
274 2 0.226079 0.202214 0.373191
275 4 0.236151 0.207582 0.395438
375 4 0.234028 0.199244 0.413126
488 4 0.327713 0.247783 0.407257
306 4 0.430816 0.222598 0.366968
304 2 0.453873 0.229194 0.37404
305 4 0.476931 0.23579 0.381112
420 4 0.43332 0.219895 0.346607
270 4 0.491655 0.235416 0.367791
407 4 0.0735895 0.319085 0.339251
616 2 0.0795841 0.305262 0.378771
618 4 0.0794135 0.318425 0.357513
617 4 0.0797546 0.2921 0.400029
676 2 0.155101 0.302586 0.338992
678 4 0.162269 0.298634 0.362618
343 2 0.208709 0.297371 0.34424
345 4 0.190874 0.298955 0.361692
402 4 0.177793 0.301227 0.376955
401 4 0.204257 0.319737 0.415135
400 2 0.191025 0.310482 0.396045
487 2 0.326936 0.256035 0.383667
489 4 0.326159 0.264287 0.360077
376 2 0.268459 0.305037 0.384539
377 4 0.286174 0.314587 0.369701
378 4 0.250744 0.295488 0.399377
435 4 0.303737 0.323953 0.372212
433 2 0.327692 0.330832 0.370211
509 4 0.262607 0.286094 0.412362
268 2 0.498486 0.257729 0.35881
549 4 0.00557382 0.358206 0.333136
408 4 0.0671429 0.368659 0.337998
406 2 0.0703662 0.343872 0.338625
667 2 0.258697 0.400798 0.410702
668 4 0.282504 0.400571 0.403062
614 4 0.365161 0.375893 0.333254
434 4 0.351647 0.337711 0.36821
588 4 0.377434 0.394193 0.386959
586 2 0.384559 0.371041 0.380759
587 4 0.391684 0.34789 0.37456
1715 4 0.356795 0.403387 0.384445
1714 2 0.346147 0.406133 0.406901
593 4 0.372274 0.410346 0.375467
499 2 0.126165 0.465726 0.356939
500 4 0.146144 0.475639 0.368243
501 4 0.106186 0.455814 0.345636
1555 2 0.195006 0.444766 0.342691
1556 4 0.201741 0.444133 0.366762
592 2 0.379067 0.433302 0.368252
594 4 0.385861 0.456258 0.361037
3988 2 0.494392 0.433539 0.402861
3602 4 0.49103 0.491854 0.384092
118 3 0.489114 0.470944 0.349715
119 3 0.476725 0.442826 0.372082
117 3 0.45334 0.470171 0.361218
120 3 0.465265 0.445087 0.336288
116 1 0.47114 0.457141 0.354696
3989 4 0.475602 0.429482 0.386871
2584 2 0.000998796 0.0427924 0.46181
2586 4 0.0221585 0.0514444 0.471938
720 4 0.0291952 0.069482 0.471236
368 4 0.0866709 0.0750805 0.441014
961 2 0.30006 0.0593797 0.471093
962 4 0.286644 0.0382945 0.471872
963 4 0.313476 0.080465 0.470313
432 4 0.323258 0.0812189 0.452554
1818 4 0.255817 0.00241057 0.444165
1216 2 0.402913 0.0489664 0.493382
1218 4 0.408152 0.0704143 0.481646
426 4 0.411148 0.0778666 0.463237
843 4 0.335833 0.00725137 0.495341
256 2 0.435064 0.0662709 0.428397
258 4 0.424626 0.0677184 0.451071
3488 4 0.487078 0.0314659 0.491468
458 4 0.0314016 0.132114 0.453071
718 2 0.0251775 0.0937608 0.466812
719 4 0.0211598 0.11804 0.462387
457 2 0.0187126 0.153216 0.457417
687 4 0.163634 0.148343 0.428255
367 2 0.108041 0.0846654 0.432261
369 4 0.129412 0.0942503 0.423508
686 4 0.181976 0.120272 0.465354
685 2 0.172805 0.134308 0.446804
1152 4 0.175775 0.108938 0.479403
1150 2 0.18955 0.115129 0.49933
321 4 0.252225 0.126497 0.455164
319 2 0.263683 0.144227 0.468562
320 4 0.275142 0.161957 0.481961
411 4 0.29185 0.152712 0.48381
431 4 0.342333 0.110792 0.417026
430 2 0.332796 0.0960056 0.43479
425 4 0.380561 0.111299 0.442085
424 2 0.395855 0.0945827 0.452661
459 4 0.00602353 0.174317 0.461763
260 4 0.0989476 0.176007 0.458009
259 2 0.122889 0.176839 0.465173
261 4 0.14683 0.17767 0.472336
1035 4 0.162861 0.189152 0.477252
1033 2 0.158169 0.204197 0.496663
373 2 0.247985 0.215668 0.4258
374 4 0.261942 0.232093 0.438474
650 4 0.272542 0.218208 0.448649
649 2 0.281349 0.226192 0.470646
715 2 0.325916 0.237653 0.441636
651 4 0.290156 0.234177 0.492642
717 4 0.313979 0.246894 0.421704
409 2 0.305649 0.171805 0.492189
716 4 0.337853 0.228412 0.461568
575 4 0.378172 0.212151 0.452151
574 2 0.370496 0.202236 0.473783
266 4 0.385802 0.229114 0.442395
265 2 0.401199 0.248201 0.447275
576 4 0.362819 0.192321 0.495415
348 4 0.00695101 0.263015 0.419654
347 4 0.047561 0.251127 0.446304
346 2 0.027256 0.257071 0.432979
327 4 0.137371 0.312743 0.46516
325 2 0.149081 0.309052 0.486942
510 4 0.269001 0.249764 0.446126
508 2 0.265804 0.267929 0.429244
871 2 0.405146 0.282999 0.488924
872 4 0.414493 0.281395 0.465789
267 4 0.416595 0.267288 0.452154
585 4 0.430794 0.270806 0.46649
584 4 0.479941 0.262584 0.470704
583 2 0.455368 0.266695 0.468597
560 4 0.467275 0.316032 0.479098
2812 2 0.0031292 0.361401 0.44534
2814 4 0.0144294 0.377012 0.429409
503 4 0.215495 0.337315 0.427977
669 4 0.234891 0.401025 0.418343
636 4 0.21927 0.40736 0.431099
634 2 0.19427 0.40759 0.430758
635 4 0.16927 0.40782 0.430417
502 2 0.220474 0.361806 0.428737
504 4 0.225454 0.386297 0.429498
773 4 0.230315 0.382221 0.455789
772 2 0.234716 0.37537 0.47943
334 2 0.32799 0.362325 0.459357
335 4 0.319713 0.375234 0.479107
240 4 0.329363 0.387647 0.491144
336 4 0.336266 0.349417 0.439608
1716 4 0.335498 0.408879 0.429356
559 2 0.481927 0.335373 0.473061
2924 4 0.488612 0.341358 0.424033
926 4 0.497099 0.374983 0.477483
753 4 0.466475 0.380301 0.41673
751 2 0.479615 0.37647 0.437655
925 2 0.479506 0.385227 0.491999
752 4 0.492755 0.372639 0.45858
561 4 0.496578 0.354714 0.467024
384 4 0.0389785 0.453237 0.464561
382 2 0.0482163 0.445325 0.486407
569 4 0.168834 0.494269 0.452231
4 3 0.334564 0.452692 0.43167
2 3 0.320693 0.445809 0.465917
5 3 0.320866 0.480727 0.452742
1 1 0.33232 0.461049 0.453199
3 3 0.353257 0.464292 0.46266
937 2 0.0821185 0.0446863 0.524514
939 4 0.0834212 0.0248684 0.509324
1128 4 0.083239 0.0130349 0.52643
938 4 0.0808159 0.0645041 0.539704
1059 4 0.0831037 0.0623538 0.56048
1057 2 0.0906603 0.0491911 0.58035
2430 4 0.146077 0.00357407 0.561912
2428 2 0.128762 0.0126029 0.577528
89 3 0.407516 0.0272262 0.522662
842 4 0.384551 0.0113202 0.505862
1217 4 0.397675 0.0275184 0.505117
841 2 0.360192 0.00928577 0.500602
86 1 0.408096 0.00443996 0.527004
90 3 0.401384 0.000432213 0.548394
640 2 0.496588 0.0527385 0.525336
641 4 0.490383 0.034534 0.509359
1060 2 0.455375 0.0116271 0.506602
1061 4 0.471618 0.0305295 0.50861
1031 4 0.222047 0.0910831 0.560794
1180 2 0.238465 0.103197 0.529121
1182 4 0.226261 0.106977 0.550614
1151 4 0.203326 0.121319 0.519257
1181 4 0.25067 0.0994165 0.507628
877 2 0.0317306 0.18473 0.524588
1272 4 0.0718607 0.190713 0.54249
879 4 0.0558864 0.185696 0.530971
878 4 0.00757487 0.183763 0.518205
1270 2 0.088482 0.185055 0.560292
1271 4 0.105103 0.179398 0.578094
695 4 0.153964 0.239865 0.513507
1034 4 0.153477 0.219242 0.516075
1220 4 0.206389 0.171428 0.552606
1219 2 0.208064 0.195756 0.547082
1221 4 0.209738 0.220084 0.541559
410 4 0.319448 0.190899 0.500568
791 4 0.307042 0.231481 0.530339
1137 4 0.0805967 0.327504 0.525529
2847 4 0.0181886 0.33131 0.514166
1136 4 0.086433 0.27871 0.534792
1135 2 0.0835149 0.303107 0.530161
326 4 0.160792 0.305361 0.508723
696 4 0.159649 0.289112 0.520078
694 2 0.156806 0.264489 0.516793
9 3 0.167499 0.323725 0.514587
8 3 0.168711 0.294482 0.538831
6 1 0.178909 0.314332 0.532476
10 3 0.200583 0.310425 0.526679
711 4 0.218413 0.315657 0.531636
7 3 0.178328 0.328995 0.550191
1259 4 0.18905 0.323443 0.567185
709 2 0.232122 0.333055 0.520036
790 2 0.31247 0.254942 0.537069
804 4 0.313656 0.280265 0.56398
792 4 0.317899 0.278403 0.543799
812 4 0.332918 0.281614 0.556136
811 2 0.355258 0.292712 0.557849
813 4 0.377598 0.30381 0.559561
873 4 0.395798 0.284603 0.512059
1039 2 0.0668067 0.34738 0.558933
1040 4 0.0513524 0.358323 0.57526
1041 4 0.082261 0.336436 0.542605
897 4 0.153913 0.387821 0.577235
993 4 0.101627 0.339965 0.547348
1160 4 0.159068 0.403617 0.565155
991 2 0.126367 0.33899 0.550838
992 4 0.151106 0.338014 0.554327
710 4 0.245831 0.350453 0.508436
774 4 0.239116 0.368518 0.50307
1159 2 0.174709 0.40798 0.546142
1161 4 0.19035 0.412344 0.527129
238 2 0.33073 0.409129 0.503867
927 4 0.461913 0.395471 0.506515
383 4 0.057454 0.437413 0.508253
539 4 0.0558092 0.492459 0.531713
538 2 0.0770327 0.501917 0.522477
1171 2 0.228096 0.430282 0.546957
1173 4 0.208738 0.421492 0.533796
1188 4 0.240772 0.500123 0.552045
1172 4 0.247453 0.439072 0.560118
1186 2 0.257815 0.485641 0.540864
1187 4 0.274857 0.47116 0.529683
239 4 0.332097 0.43061 0.51659
882 4 0.34177 0.442143 0.52907
880 2 0.357403 0.455365 0.543421
1000 2 0.406472 0.489841 0.539937
1001 4 0.387117 0.474534 0.543973
881 4 0.373035 0.468588 0.557773
1267 2 0.455794 0.468466 0.527827
1269 4 0.467502 0.446922 0.532721
4085 4 0.481874 0.480153 0.511381
1268 4 0.444086 0.490011 0.522934
662 4 0.427829 0.500954 0.515519
2319 4 0.0385603 0.0279101 0.621288
2317 2 0.0509871 0.00684436 0.616093
1058 4 0.098217 0.0360284 0.60022
944 4 0.126494 0.0318664 0.601002
824 4 0.103505 0.0200514 0.61333
943 2 0.129566 0.047636 0.620161
2429 4 0.111447 0.0216318 0.593144
945 4 0.132639 0.0634056 0.63932
1032 4 0.221109 0.0751999 0.608202
1030 2 0.221578 0.0831415 0.584498
951 4 0.305433 0.0258533 0.660308
1092 4 0.324744 0.0242836 0.656622
949 2 0.283333 0.0361686 0.665821
1090 2 0.348143 0.016825 0.651931
1091 4 0.371543 0.00936631 0.647239
2283 4 0.383104 0.00966542 0.631032
2281 2 0.404999 0.00461493 0.620065
3007 2 0.488168 0.0528589 0.609236
3009 4 0.471371 0.0685457 0.619084
809 4 0.454047 0.0779387 0.617867
1082 4 0.0541973 0.165327 0.619167
1153 2 0.1215 0.158713 0.610537
1155 4 0.121966 0.145936 0.632024
1282 2 0.229435 0.112322 0.62991
1283 4 0.226651 0.0887795 0.621962
1284 4 0.232219 0.135865 0.637857
1211 4 0.226065 0.151558 0.649767
808 2 0.446101 0.0883528 0.639164
810 4 0.438155 0.0987669 0.660462
1081 2 0.0685092 0.168052 0.639487
1083 4 0.082821 0.170776 0.659808
1208 4 0.0860042 0.241043 0.648917
1154 4 0.121035 0.171491 0.58905
1210 2 0.242567 0.168927 0.642614
1212 4 0.259069 0.186297 0.635462
1193 4 0.391056 0.240178 0.594709
900 4 0.351529 0.175465 0.620965
898 2 0.355514 0.196111 0.634495
887 4 0.355015 0.237371 0.654661
899 4 0.359499 0.216756 0.648025
1194 4 0.369301 0.232352 0.63905
1192 2 0.380179 0.236265 0.616879
830 4 0.372989 0.227671 0.658562
1025 4 0.402035 0.241305 0.641986
905 4 0.49007 0.240061 0.631971
982 2 0.00363271 0.317834 0.604681
857 4 0.150537 0.274484 0.658323
856 2 0.158806 0.291422 0.641895
1260 4 0.161776 0.313693 0.60795
1258 2 0.175413 0.318568 0.587568
858 4 0.167076 0.308361 0.625467
797 4 0.183015 0.312411 0.637395
796 2 0.207043 0.319172 0.635931
798 4 0.23107 0.325934 0.634467
802 2 0.308763 0.290055 0.586461
803 4 0.30387 0.299845 0.608942
1239 4 0.291889 0.303509 0.623675
1237 2 0.297073 0.290839 0.644598
1238 4 0.302258 0.27817 0.665521
888 4 0.318823 0.271839 0.656341
886 2 0.336919 0.254605 0.655501
904 2 0.471478 0.25552 0.638339
1024 2 0.418456 0.259822 0.645545
1026 4 0.434877 0.278338 0.649105
954 4 0.451358 0.29048 0.649857
952 2 0.46801 0.307262 0.641718
953 4 0.484663 0.324043 0.633578
906 4 0.452887 0.270979 0.644707
983 4 0.0157661 0.339634 0.603034
3275 4 0.02375 0.351756 0.61779
3274 2 0.0184595 0.366744 0.637092
3276 4 0.0131691 0.381732 0.656393
895 2 0.134592 0.397811 0.589566
896 4 0.115271 0.407801 0.601898
1191 4 0.214978 0.388636 0.610389
1189 2 0.199519 0.408259 0.609313
1029 4 0.234565 0.340146 0.649178
1027 2 0.230111 0.360103 0.663567
1065 4 0.249982 0.334365 0.636517
1063 2 0.273414 0.341998 0.64074
1064 4 0.296846 0.349632 0.644964
1190 4 0.18406 0.427881 0.608238
929 4 0.306445 0.4886 0.656944
2167 2 0.47245 0.49095 0.630319
2168 4 0.480384 0.482973 0.652648
2169 4 0.464516 0.498927 0.607989
2989 2 0.0178712 0.0374273 0.73884
2991 4 0.0329882 0.037627 0.718925
1185 4 0.0902947 0.000943531 0.702378
950 4 0.261234 0.0464838 0.671334
1004 4 0.300711 0.0365369 0.704988
1003 2 0.325395 0.037785 0.701206
1005 4 0.35008 0.0390332 0.697425
43 3 0.407238 0.0739659 0.695105
2321 4 0.455173 0.0297876 0.688745
2320 2 0.444655 0.0305034 0.711417
2322 4 0.434136 0.0312191 0.73409
1163 4 0.466372 0.0442375 0.679385
1162 2 0.484564 0.058031 0.669187
3202 2 0.484456 0.0808474 0.739357
1113 4 0.420612 0.0447883 0.74171
3204 4 0.47184 0.0613979 0.748723
850 2 0.0604153 0.141184 0.687507
851 4 0.0444116 0.127481 0.700972
1077 4 0.0257608 0.117287 0.699669
852 4 0.076419 0.154887 0.674043
864 4 0.0355747 0.117869 0.717379
1075 2 0.00719804 0.134032 0.699206
862 2 0.0394634 0.11404 0.74178
909 4 0.0989753 0.162489 0.667858
907 2 0.119378 0.1536 0.679255
908 4 0.13978 0.144711 0.690652
1227 4 0.136522 0.134934 0.708339
1225 2 0.157249 0.130783 0.721693
1226 4 0.177977 0.126632 0.735047
1141 2 0.38645 0.136525 0.734944
44 3 0.40857 0.109928 0.707328
1142 4 0.395181 0.118437 0.720052
41 1 0.420217 0.0931631 0.696296
42 3 0.439404 0.0884485 0.708077
45 3 0.425798 0.100083 0.675329
148 3 0.486054 0.116906 0.727578
845 4 0.455807 0.105537 0.75119
3203 4 0.497073 0.100297 0.729991
1207 2 0.091713 0.247115 0.672491
918 4 0.266639 0.229143 0.74157
916 2 0.282971 0.230305 0.722673
917 4 0.299302 0.231467 0.703776
829 2 0.386327 0.213308 0.674086
831 4 0.399664 0.198946 0.68961
1263 4 0.40129 0.207072 0.70899
1261 2 0.416264 0.225802 0.71607
1262 4 0.431238 0.244533 0.72315
3356 4 0.484761 0.207665 0.695843
894 4 0.0314981 0.327316 0.733003
892 2 0.0370241 0.307327 0.746971
1209 4 0.0974218 0.253188 0.696064
946 2 0.0851306 0.279232 0.747772
948 4 0.108107 0.275349 0.738705
806 4 0.319851 0.284237 0.676928
1008 4 0.373036 0.303048 0.670952
805 2 0.340767 0.296999 0.68191
807 4 0.361684 0.30976 0.686892
1006 2 0.387788 0.322012 0.677879
3123 4 0.449188 0.254809 0.723573
3122 4 0.441983 0.29642 0.69679
3121 2 0.445586 0.275615 0.710182
815 4 0.0977957 0.364514 0.735515
940 2 0.136405 0.361375 0.730672
941 4 0.15927 0.370993 0.727536
942 4 0.113539 0.351757 0.733807
1067 4 0.179172 0.379372 0.722652
1028 4 0.225657 0.380061 0.677956
1066 2 0.197263 0.385289 0.706438
1068 4 0.215353 0.391206 0.690223
1175 4 0.230476 0.399652 0.67796
1007 4 0.402539 0.340975 0.684806
859 2 0.498177 0.403127 0.697414
1206 4 0.468621 0.396706 0.713008
1204 2 0.449527 0.391692 0.728353
860 4 0.484318 0.406168 0.718002
1205 4 0.430432 0.386678 0.743697
1280 4 0.0597071 0.453147 0.69303
1279 2 0.0788923 0.456264 0.708759
2014 2 0.121624 0.498852 0.717327
885 4 0.0853215 0.464404 0.738765
1281 4 0.0980775 0.459381 0.724488
2015 4 0.127636 0.488336 0.7392
1079 4 0.147953 0.487216 0.736161
1174 2 0.237997 0.42302 0.673212
2028 4 0.204225 0.490909 0.711728
1176 4 0.245518 0.446388 0.668465
1228 2 0.33323 0.469941 0.723195
1229 4 0.328886 0.492905 0.714311
1230 4 0.337575 0.446976 0.732079
1250 4 0.474383 0.476099 0.672066
1249 2 0.465561 0.461048 0.689978
1251 4 0.456739 0.445997 0.707889
2990 4 0.00275414 0.0372276 0.758755
1201 2 0.0613265 0.0783539 0.790185
1202 4 0.0766309 0.0645463 0.804338
839 4 0.246296 0.0686741 0.811492
1255 2 0.283806 0.0458165 0.807931
1256 4 0.265581 0.0628421 0.806151
1257 4 0.302031 0.0287909 0.80971
975 4 0.298929 0.0277018 0.829456
1112 4 0.408529 0.0264463 0.786635
1111 2 0.414571 0.0356173 0.764173
1203 4 0.0460222 0.0921615 0.776032
1107 4 0.0525702 0.163369 0.770965
863 4 0.0433521 0.110211 0.76618
1105 2 0.0296311 0.163443 0.761016
1106 4 0.00669206 0.163517 0.751068
1148 4 0.177597 0.130385 0.754699
1149 4 0.198866 0.0964389 0.784632
1147 2 0.188231 0.113412 0.769665
838 2 0.250214 0.0876245 0.827326
958 2 0.315621 0.119739 0.793327
959 4 0.298306 0.123863 0.810887
1143 4 0.37772 0.154614 0.749836
960 4 0.332936 0.115615 0.775767
1298 4 0.369628 0.159913 0.768239
1086 4 0.371428 0.128228 0.800792
1084 2 0.386314 0.11225 0.812969
1085 4 0.4012 0.0962719 0.825146
846 4 0.407108 0.095127 0.755742
844 2 0.431458 0.100332 0.753466
3479 4 0.48098 0.141612 0.800097
3478 2 0.476086 0.125749 0.7814