ITEM: TIMESTEP
210000
ITEM: NUMBER OF ATOMS
4590
ITEM: BOX BOUNDS pp pp pp
-9.9985700000000008e+00 9.9985700000000008e+00
-9.9985700000000008e+00 9.9985700000000008e+00
-9.9985700000000008e+00 9.9985700000000008e+00
ITEM: ATOMS id type xs ys zs
463 2 0.0711702 0.0515968 0.0248153
465 4 0.0618596 0.0740927 0.0191209
1667 4 0.0694762 0.0290308 0.0486662
1666 2 0.0602275 0.0116268 0.0640525
590 4 0.0162974 0.0786522 0.0561909
464 4 0.0804808 0.0291009 0.0305096
702 4 0.121944 0.0734602 0.0773713
532 2 0.208474 0.0435901 0.0175941
534 4 0.228587 0.0562178 0.0254188
533 4 0.188362 0.0309625 0.0097695
490 2 0.287198 0.0443069 0.0451683
491 4 0.28502 0.0203 0.0518099
492 4 0.289375 0.0683137 0.0385268
745 2 0.44713 0.0566957 0.0309549
746 4 0.429508 0.0520778 0.048082
747 4 0.464751 0.0613137 0.0138278
2975 4 0.473269 0.0444635 0.011739
2974 2 0.495356 0.0390843 0.00132703
589 2 0.031777 0.095584 0.0462474
591 4 0.0472567 0.112516 0.0363039
3233 4 0.0117269 0.141362 0.0234751
3232 2 0.0116434 0.127829 0.00245035
700 2 0.107857 0.0931124 0.071005
701 4 0.0937706 0.112764 0.0646386
422 4 0.12188 0.125616 0.0212428
421 2 0.127497 0.145329 0.0069239
360 4 0.282581 0.118146 0.0247707
358 2 0.284575 0.106534 0.0027172
295 2 0.404393 0.0979481 0.0761772
557 4 0.349204 0.159943 0.0356455
296 4 0.389587 0.113498 0.063365
556 2 0.360442 0.141721 0.0485622
558 4 0.371681 0.123499 0.0614789
771 4 0.45594 0.156924 0.0207581
476 4 0.126543 0.172987 0.0691491
553 2 0.0851983 0.21456 0.0180961
554 4 0.0981377 0.2253 0.0366003
665 4 0.343911 0.176645 0.0249435
664 2 0.339696 0.173567 0.000490732
770 4 0.485891 0.187632 0.0464627
769 2 0.470915 0.172278 0.0336104
294 4 0.0978568 0.31552 0.00295545
292 2 0.107907 0.292632 0.0035051
293 4 0.117956 0.269744 0.00405476
483 4 0.230882 0.299147 0.0596806
505 2 0.184842 0.290015 0.0771924
507 4 0.197411 0.294105 0.0559684
481 2 0.252595 0.307202 0.0502541
571 2 0.316282 0.256739 0.0410042
573 4 0.292354 0.263146 0.0444086
355 2 0.275169 0.277805 0.999153
482 4 0.274307 0.315258 0.0408277
356 4 0.254251 0.265166 0.00443386
572 4 0.34021 0.250332 0.0375997
324 4 0.41011 0.249635 0.0839282
280 2 0.476996 0.323618 0.0134571
281 4 0.494883 0.308343 0.0219372
322 2 0.427171 0.264584 0.0734107
323 4 0.444233 0.279533 0.0628932
454 2 0.143162 0.348458 0.0745271
455 4 0.131975 0.347444 0.0521886
286 2 0.19444 0.360263 0.0112222
287 4 0.205712 0.341536 0.023364
252 4 0.260524 0.389129 0.0357373
250 2 0.27499 0.403996 0.0496976
609 4 0.307701 0.408443 0.0666704
607 2 0.331951 0.414532 0.0665451
957 4 0.335743 0.35189 0.00141767
956 4 0.372593 0.361514 0.0338245
955 2 0.354168 0.356702 0.0176211
672 4 0.422771 0.354574 0.0652709
670 2 0.44436 0.346828 0.0553161
671 4 0.465949 0.339083 0.0453612
282 4 0.459109 0.338893 0.00497698
315 4 0.99665 0.419589 0.041384
551 4 0.0753749 0.467207 0.0518132
313 2 0.000600531 0.43777 0.0580878
314 4 0.00455083 0.455951 0.0747916
242 4 0.127048 0.492285 0.0613193
552 4 0.114756 0.438609 0.0403251
550 2 0.0950656 0.452908 0.0460691
241 2 0.149429 0.495021 0.0721259
244 2 0.226197 0.452202 0.00946843
245 4 0.211028 0.463875 0.0255563
795 4 0.174423 0.496234 0.0134723
251 4 0.289457 0.418863 0.0636578
272 4 0.301947 0.480257 0.0110696
608 4 0.356202 0.42062 0.0664199
524 4 0.354279 0.487328 0.0641375
1673 4 0.444862 0.48964 0.0417642
228 4 0.471445 0.446265 0.064622
564 4 0.43123 0.475323 0.0335552
562 2 0.448457 0.46371 0.0196429
226 2 0.494197 0.453083 0.0568093
563 4 0.465684 0.452098 0.0057305
16 1 0.0794845 0.0642078 0.129768
19 3 0.0628374 0.0634518 0.113622
18 3 0.080163 0.0441372 0.141392
17 3 0.074754 0.0811981 0.144536
450 4 0.154874 0.0533983 0.126664
20 3 0.0996479 0.0681921 0.119959
448 2 0.179428 0.0573328 0.129274
449 4 0.203981 0.0612673 0.131885
652 2 0.309101 0.0375906 0.162453
654 4 0.289244 0.0527312 0.161175
653 4 0.328959 0.0224501 0.163731
297 4 0.419198 0.0823977 0.0889894
486 4 0.339656 0.0121677 0.0957909
1784 4 0.39848 0.00383836 0.155708
1760 4 0.465675 0.00633229 0.154753
235 2 0.162103 0.124575 0.133161
237 4 0.141865 0.13237 0.120717
475 2 0.12965 0.160664 0.0906825
477 4 0.132756 0.148342 0.112216
565 2 0.220719 0.106339 0.0848384
567 4 0.212147 0.129827 0.0846728
566 4 0.229292 0.0828518 0.085004
236 4 0.182341 0.11678 0.145604
582 4 0.289942 0.0892732 0.112646
580 2 0.28036 0.0986173 0.133766
581 4 0.270778 0.107961 0.154885
630 4 0.41441 0.147252 0.136533
628 2 0.428863 0.14707 0.116131
629 4 0.443317 0.146887 0.0957293
379 2 0.0164418 0.176929 0.155541
380 4 0.0275975 0.175 0.133247
339 4 0.0696472 0.232175 0.134416
337 2 0.092609 0.240394 0.139928
338 4 0.115571 0.248613 0.14544
736 2 0.187067 0.205198 0.148895
737 4 0.194862 0.215877 0.127673
353 4 0.239772 0.215996 0.11461
352 2 0.251997 0.229323 0.131877
354 4 0.264221 0.242649 0.149143
461 4 0.303691 0.18645 0.140024
460 2 0.322794 0.191632 0.124748
254 4 0.403336 0.197032 0.108023
255 4 0.355844 0.210082 0.116674
462 4 0.341898 0.196815 0.109472
253 2 0.37959 0.203557 0.112349
517 2 0.469416 0.242509 0.112976
518 4 0.474991 0.220754 0.101985
656 4 0.0108504 0.27537 0.0948336
703 2 0.0160742 0.304266 0.151516
705 4 0.0364627 0.313349 0.140247
647 4 0.0721944 0.318066 0.153196
537 4 0.166779 0.32933 0.15478
506 4 0.172272 0.285925 0.0984165
754 2 0.273451 0.284481 0.130982
755 4 0.271106 0.260724 0.138416
756 4 0.275796 0.308238 0.123548
610 2 0.272042 0.329997 0.162065
741 4 0.370434 0.287826 0.130394
624 4 0.408477 0.267818 0.142682
739 2 0.361976 0.299846 0.110166
740 4 0.353519 0.311866 0.089938
12 3 0.40999 0.325655 0.158067
519 4 0.46384 0.264264 0.123967
622 2 0.425091 0.284119 0.151816
623 4 0.441705 0.30042 0.16095
526 2 0.480883 0.270325 0.16421
528 4 0.456885 0.263433 0.162877
620 4 0.0158976 0.362841 0.0883784
456 4 0.154349 0.349472 0.0968655
416 4 0.158224 0.416936 0.157836
625 2 0.225138 0.412036 0.126239
626 4 0.218949 0.392471 0.111953
612 4 0.260758 0.34357 0.144356
387 4 0.381911 0.34336 0.138019
385 2 0.374398 0.357234 0.118622
386 4 0.366885 0.371108 0.0992256
11 1 0.413845 0.347888 0.153596
13 3 0.39908 0.354897 0.137125
595 2 0.485548 0.375898 0.15266
15 3 0.4353 0.350485 0.146415
597 4 0.463126 0.370255 0.162179
243 4 0.17181 0.497756 0.0829324
627 4 0.231327 0.431601 0.140525
639 4 0.247073 0.445058 0.139374
637 2 0.254618 0.451794 0.16224
523 2 0.357863 0.489147 0.0888159
525 4 0.361448 0.490965 0.113494
658 2 0.378128 0.480134 0.146878
660 4 0.367347 0.458196 0.152141
495 4 0.440421 0.431513 0.118729
493 2 0.441314 0.432153 0.143709
1403 4 0.0755663 0.0200181 0.249423
2480 4 0.0113387 0.0347086 0.180604
673 2 0.102983 0.0467913 0.226528
674 4 0.115501 0.0639453 0.213329
675 4 0.0904652 0.0296373 0.239727
689 4 0.198025 0.0231841 0.220514
693 4 0.221984 0.0741497 0.183217
723 4 0.203233 0.0740271 0.233158
688 2 0.202079 0.0114671 0.242227
1505 4 0.268272 0.013933 0.174811
21 1 0.370107 0.0525735 0.233076
24 3 0.362662 0.0324044 0.224348
25 3 0.384624 0.0624354 0.218563
759 4 0.399754 0.054316 0.20801
22 3 0.352019 0.066419 0.23628
757 2 0.421969 0.0605192 0.198356
758 4 0.444185 0.0667224 0.188702
744 4 0.445609 0.0571608 0.232498
511 2 0.0143641 0.166409 0.241013
512 4 0.0309648 0.161142 0.223072
577 2 0.12819 0.110318 0.206102
578 4 0.147077 0.12665 0.207421
579 4 0.109303 0.0939862 0.204783
691 2 0.24256 0.0869597 0.177075
721 2 0.192369 0.0962081 0.23705
546 4 0.184829 0.136609 0.23298
722 4 0.181505 0.118389 0.240943
692 4 0.263136 0.0997697 0.170933
26 1 0.319855 0.158647 0.245849
29 3 0.330108 0.139345 0.238057
310 2 0.387785 0.131363 0.189906
312 4 0.389178 0.112922 0.173078
311 4 0.386393 0.149804 0.206734
632 4 0.377588 0.124868 0.250076
333 4 0.47837 0.155554 0.228028
332 4 0.4816 0.111427 0.251332
331 2 0.479985 0.13349 0.23968
381 4 0.00528609 0.178857 0.177835
394 2 0.00302946 0.245817 0.217455
363 4 0.0569932 0.240937 0.184507
393 4 0.0816604 0.175502 0.252721
392 4 0.104763 0.200318 0.215964
391 2 0.0932119 0.18791 0.234342
370 2 0.136811 0.242194 0.216229
371 4 0.154718 0.23011 0.228819
738 4 0.179272 0.194518 0.170116
279 4 0.262183 0.24737 0.169912
28 3 0.318185 0.174201 0.228711
284 4 0.274148 0.233281 0.17583
283 2 0.276725 0.210219 0.18514
285 4 0.279301 0.187157 0.194451
765 4 0.34543 0.215768 0.218202
764 4 0.380056 0.206388 0.183362
763 2 0.362743 0.211078 0.200782
520 2 0.484194 0.196745 0.209798
521 4 0.488921 0.218012 0.197528
522 4 0.479466 0.175478 0.222069
762 4 0.470967 0.168943 0.24048
395 4 0.00988364 0.269566 0.213684
361 2 0.071105 0.256903 0.197589
646 2 0.0825917 0.318013 0.175935
750 4 0.0902703 0.258911 0.245882
372 4 0.118903 0.254278 0.20364
648 4 0.092989 0.317961 0.198674
362 4 0.0852168 0.272869 0.21067
343 2 0.228799 0.285913 0.237723
344 4 0.246658 0.270039 0.230358
345 4 0.21094 0.301787 0.245088
277 2 0.255802 0.265708 0.185666
278 4 0.24942 0.284045 0.20142
307 2 0.283535 0.291593 0.228326
309 4 0.267114 0.289287 0.209612
308 4 0.299956 0.293899 0.247039
611 4 0.283325 0.316425 0.179775
262 2 0.0344778 0.406415 0.207648
264 4 0.0199386 0.395731 0.224959
298 2 0.14724 0.33834 0.24117
299 4 0.133195 0.340072 0.220557
535 2 0.187226 0.336287 0.167379
536 4 0.207672 0.343244 0.179977
301 2 0.326005 0.418738 0.190224
729 4 0.32234 0.34666 0.249594
302 4 0.33014 0.405105 0.210772
727 2 0.33023 0.370381 0.249106
14 3 0.410455 0.36014 0.173007
728 4 0.33812 0.394102 0.248618
643 2 0.446825 0.398901 0.190925
645 4 0.436093 0.37865 0.18093
108 3 0.492991 0.392144 0.187869
109 3 0.495811 0.399641 0.22502
2618 4 0.000817063 0.477354 0.215387
263 4 0.049017 0.417098 0.190338
415 2 0.14008 0.42296 0.173952
417 4 0.121937 0.428984 0.190067
291 4 0.196689 0.476802 0.179932
289 2 0.199433 0.459357 0.197632
290 4 0.202178 0.441912 0.215333
638 4 0.262164 0.458529 0.185107
303 4 0.321871 0.432371 0.169676
768 4 0.27933 0.466673 0.1925
767 4 0.285949 0.433896 0.229683
766 2 0.28264 0.450284 0.211091
494 4 0.442207 0.432793 0.168688
644 4 0.457557 0.419151 0.200921
110 3 0.488534 0.427315 0.200549
1402 2 0.0787957 0.00706064 0.270562
1464 4 0.158254 0.0209664 0.253343
730 2 0.157538 0.070208 0.313846
1462 2 0.152754 0.00529901 0.272036
690 4 0.206134 0.99975 0.263939
23 3 0.38053 0.049002 0.253497
698 4 0.354298 0.0294557 0.314289
479 4 0.487493 0.0555504 0.311
743 4 0.446344 0.0620258 0.282262
742 2 0.445977 0.0595933 0.25738
478 2 0.476407 0.0335845 0.306554
480 4 0.46532 0.0116186 0.302108
351 4 0.432776 0.076079 0.285106
529 2 0.0189675 0.143175 0.295919
530 4 0.0366633 0.141172 0.313469
531 4 0.00127184 0.145178 0.278368
731 4 0.154423 0.0817046 0.291862
544 2 0.180306 0.153682 0.250679
248 4 0.245933 0.0819668 0.276498
249 4 0.212872 0.116629 0.29086
247 2 0.229403 0.0992978 0.283679
403 2 0.22077 0.159084 0.298641
404 4 0.213966 0.135075 0.297072
30 3 0.299137 0.153725 0.253921
631 2 0.36846 0.114982 0.27115
633 4 0.359331 0.105095 0.292224
349 2 0.443095 0.0834615 0.306651
350 4 0.453413 0.0908439 0.328197
545 4 0.175783 0.170755 0.268377
405 4 0.227574 0.183093 0.30021
27 3 0.332654 0.16756 0.262758
707 4 0.326187 0.185362 0.27037
706 2 0.343516 0.183617 0.28831
708 4 0.360845 0.181871 0.306249
420 4 0.410921 0.240889 0.304009
761 4 0.468423 0.198967 0.28039
760 2 0.469695 0.183955 0.260435
418 2 0.431469 0.245448 0.317506
444 4 0.0416923 0.279334 0.319284
442 2 0.0335189 0.279215 0.295655
443 4 0.0253454 0.279097 0.272025
2493 4 0.00928207 0.30485 0.321589
748 2 0.0876781 0.282388 0.254085
749 4 0.0850859 0.305865 0.262288
390 4 0.108856 0.272182 0.295316
388 2 0.130888 0.276894 0.306158
389 4 0.15292 0.281605 0.317
400 2 0.228344 0.280233 0.312859
402 4 0.224352 0.291164 0.290728
401 4 0.232336 0.269302 0.334989
496 2 0.319249 0.306625 0.27458
498 4 0.317444 0.28868 0.257262
497 4 0.321054 0.32457 0.291897
543 4 0.402259 0.328826 0.309105
541 2 0.417336 0.313673 0.296134
542 4 0.432414 0.29852 0.283162
419 4 0.452017 0.250006 0.331004
366 4 0.0385985 0.340269 0.264511
364 2 0.0148432 0.341577 0.272202
601 2 0.0692606 0.394955 0.310048
603 4 0.0646231 0.370912 0.304987
300 4 0.161285 0.336608 0.261783
677 4 0.138239 0.342777 0.325878
734 4 0.165433 0.356632 0.267162
735 4 0.198291 0.376843 0.298984
733 2 0.181862 0.366737 0.283073
615 4 0.362066 0.347549 0.30244
613 2 0.372865 0.35485 0.323777
447 4 0.433286 0.36865 0.255354
445 2 0.431946 0.386182 0.27313
446 4 0.430606 0.403715 0.290907
602 4 0.073898 0.418998 0.315109
777 4 0.0748953 0.484745 0.320645
414 4 0.141292 0.486406 0.290739
412 2 0.156794 0.475164 0.306817
413 4 0.172295 0.463921 0.322895
436 2 0.278298 0.436661 0.294222
437 4 0.295546 0.42623 0.279428
438 4 0.261049 0.447093 0.309015
231 4 0.394299 0.492473 0.250672
713 4 0.414252 0.492932 0.291285
118 3 0.465342 0.422066 0.32841
712 2 0.426095 0.471968 0.284545
714 4 0.437938 0.451004 0.277805
429 4 0.0671479 0.00596249 0.349939
316 2 0.0265174 0.051852 0.359307
317 4 0.0169914 0.0697682 0.373916
318 4 0.0360433 0.0339358 0.344697
732 4 0.160653 0.0587113 0.33583
427 2 0.0900566 0.0111835 0.35849
428 4 0.112965 0.0164046 0.36704
606 4 0.152556 0.0766796 0.388711
1699 2 0.238018 0.000759211 0.336414
441 4 0.221423 0.0168732 0.392106
1701 4 0.231857 0.0104752 0.358614
439 2 0.239277 0.0342021 0.38963
604 2 0.175226 0.0814504 0.379304
440 4 0.257131 0.0515311 0.387154
683 4 0.332048 0.0636835 0.375726
682 2 0.32256 0.0804489 0.391666
697 2 0.356638 0.0313732 0.339109
699 4 0.358977 0.0332907 0.363929
256 2 0.40672 0.0713747 0.41148
257 4 0.423573 0.0888527 0.405507
398 4 0.0674647 0.136584 0.342245
397 2 0.075685 0.115047 0.351927
399 4 0.0839053 0.0935092 0.361608
687 4 0.136756 0.148072 0.416162
685 2 0.157023 0.16123 0.409736
605 4 0.197896 0.0862213 0.369898
598 2 0.191324 0.15607 0.352572
599 4 0.214967 0.149078 0.356734
600 4 0.167682 0.163062 0.348411
684 4 0.313072 0.0972142 0.407606
467 4 0.329131 0.163461 0.395734
466 2 0.340396 0.150498 0.377562
468 4 0.351661 0.137535 0.359389
452 4 0.484689 0.130221 0.340502
451 2 0.467143 0.130156 0.358315
453 4 0.449597 0.130091 0.376129
514 2 0.42123 0.128835 0.400415
515 4 0.437465 0.14227 0.386958
2654 4 0.00835492 0.181844 0.348514
474 4 0.223112 0.167893 0.358574
274 2 0.238613 0.23083 0.396397
472 2 0.24534 0.17878 0.362119
276 4 0.24574 0.207166 0.392603
686 4 0.177289 0.174388 0.40331
473 4 0.267568 0.189666 0.365664
488 4 0.322962 0.243249 0.385071
715 2 0.352413 0.226975 0.378756
716 4 0.363557 0.207539 0.367655
717 4 0.341269 0.246411 0.389856
306 4 0.483327 0.236455 0.411156
305 4 0.463218 0.190673 0.41174
304 2 0.473272 0.213564 0.411448
618 4 0.0815007 0.329361 0.357429
616 2 0.101648 0.315207 0.353077
617 4 0.121795 0.301052 0.348725
275 4 0.231485 0.254494 0.400191
375 4 0.215012 0.266463 0.398947
509 4 0.250051 0.325024 0.361711
508 2 0.228699 0.332616 0.372276
487 2 0.300609 0.252484 0.391411
376 2 0.289611 0.303566 0.361311
377 4 0.312735 0.294549 0.364343
378 4 0.266488 0.312583 0.358278
489 4 0.278256 0.26172 0.397752
266 4 0.359796 0.265236 0.405456
268 2 0.46968 0.281281 0.379067
269 4 0.465231 0.263814 0.396396
270 4 0.47413 0.298749 0.361739
2927 4 0.00929531 0.388618 0.382527
408 4 0.059612 0.380303 0.375373
406 2 0.0762045 0.398863 0.377696
676 2 0.161495 0.340746 0.334832
678 4 0.184752 0.338715 0.343786
510 4 0.207347 0.340208 0.382842
504 4 0.260716 0.415092 0.396754
435 4 0.31569 0.35521 0.346166
433 2 0.321316 0.379507 0.34795
434 4 0.326941 0.403804 0.349734
614 4 0.383664 0.36215 0.345114
336 4 0.355254 0.407904 0.401758
753 4 0.417098 0.408996 0.391038
561 4 0.460009 0.360346 0.395967
751 2 0.437862 0.395286 0.393502
752 4 0.458626 0.381576 0.395965
548 4 0.0470159 0.425961 0.352994
547 2 0.0400315 0.445693 0.36667
549 4 0.0330471 0.465426 0.380345
680 4 0.0306068 0.428885 0.413255
775 2 0.0942954 0.478344 0.335062
407 4 0.0927971 0.417422 0.380019
776 4 0.113696 0.471944 0.349479
499 2 0.125032 0.453971 0.380358
500 4 0.13812 0.435419 0.390831
501 4 0.111943 0.472523 0.369885
502 2 0.2378 0.419236 0.387651
503 4 0.214884 0.423379 0.378547
1 1 0.307277 0.464493 0.387333
5 3 0.300478 0.459489 0.366182
4 3 0.28906 0.464531 0.401704
3 3 0.322975 0.448974 0.394483
2 3 0.316889 0.485392 0.387456
586 2 0.403027 0.440438 0.413943
594 4 0.413552 0.487301 0.348589
117 3 0.475611 0.422619 0.364561
119 3 0.487955 0.449645 0.341542
116 1 0.482571 0.427129 0.343105
587 4 0.419592 0.424455 0.404181
592 2 0.430892 0.4801 0.365102
593 4 0.448231 0.4729 0.381615
2585 4 0.00268502 0.0725811 0.432746
2237 4 0.0571593 0.00471571 0.499682
720 4 0.044773 0.0741127 0.434646
367 2 0.110702 0.0634986 0.457174
369 4 0.120468 0.0424772 0.46655
342 4 0.17766 0.047317 0.461878
340 2 0.181316 0.0345283 0.48305
1817 4 0.262942 0.0118305 0.438706
962 4 0.301121 0.012784 0.498399
432 4 0.303871 0.0738354 0.493565
258 4 0.389867 0.0538968 0.417453
424 2 0.385259 0.0367931 0.449106
425 4 0.369181 0.0305888 0.467222
426 4 0.401337 0.0429973 0.43099
3488 4 0.494435 0.0238867 0.486754
718 2 0.0367374 0.0878741 0.453914
719 4 0.0287019 0.101636 0.473181
457 2 0.00438091 0.160167 0.454999
458 4 0.00338505 0.135241 0.456702
368 4 0.100936 0.08452 0.447798
1152 4 0.158665 0.114706 0.470171
260 4 0.0891011 0.162828 0.4298
321 4 0.231638 0.136448 0.418302
1150 2 0.181069 0.110268 0.480347
319 2 0.247048 0.133483 0.437768
1151 4 0.203472 0.10583 0.490524
320 4 0.262458 0.130518 0.457233
430 2 0.3099 0.0979444 0.496318
431 4 0.31593 0.122053 0.499071
516 4 0.404994 0.1154 0.413872
724 2 0.347256 0.0974105 0.452099
725 4 0.347606 0.0893557 0.475767
726 4 0.346907 0.105465 0.428431
575 4 0.388992 0.153246 0.447957
2880 4 0.490166 0.0806841 0.453144
642 4 0.427106 0.106424 0.480657
640 2 0.447043 0.10919 0.495492
459 4 0.00537677 0.185092 0.453296
348 4 0.065524 0.240758 0.418823
261 4 0.10052 0.180632 0.475114
259 2 0.0948105 0.17173 0.452457
1035 4 0.104713 0.197092 0.486723
411 4 0.26975 0.213095 0.486048
409 2 0.291423 0.206041 0.496329
574 2 0.373238 0.172449 0.450829
576 4 0.357484 0.191651 0.453702
347 4 0.0370342 0.281488 0.424315
346 2 0.0512791 0.261123 0.421569
325 2 0.0790513 0.315209 0.438593
327 4 0.0636444 0.327203 0.454212
326 4 0.0944582 0.303216 0.422974
694 2 0.115206 0.288062 0.495777
696 4 0.108841 0.287451 0.471605
8 3 0.149601 0.325677 0.478597
373 2 0.212159 0.273995 0.422617
374 4 0.209306 0.281528 0.446288
651 4 0.265075 0.292856 0.463786
649 2 0.264311 0.314214 0.476764
267 4 0.395484 0.264772 0.440482
265 2 0.37764 0.265004 0.422969
872 4 0.420667 0.281501 0.493564
583 2 0.482206 0.316413 0.448718
584 4 0.48736 0.305251 0.426946
585 4 0.477052 0.327575 0.47049
679 2 0.0246468 0.404818 0.416487
681 4 0.0186867 0.380751 0.41972
9 3 0.121545 0.346259 0.463312
6 1 0.142123 0.347155 0.473996
10 3 0.157236 0.357997 0.460855
7 3 0.139724 0.358597 0.493807
709 2 0.193295 0.359414 0.457406
710 4 0.214231 0.349935 0.447557
711 4 0.172359 0.368894 0.467254
650 4 0.263548 0.335572 0.489743
772 2 0.265723 0.40708 0.483312
334 2 0.35462 0.405202 0.426607
238 2 0.370699 0.378766 0.47692
240 4 0.350506 0.391565 0.4696
335 4 0.353987 0.4025 0.451456
239 4 0.390892 0.365967 0.48424
559 2 0.470509 0.359649 0.418648
560 4 0.481008 0.358953 0.44133
539 4 0.0832214 0.484515 0.495039
569 4 0.148396 0.494496 0.427645
382 2 0.0989613 0.4223 0.48345
383 4 0.115694 0.416867 0.465682
636 4 0.239777 0.434721 0.423851
635 4 0.198539 0.454237 0.444326
570 4 0.190558 0.467776 0.430668
568 2 0.169477 0.481136 0.429156
634 2 0.219158 0.444479 0.434088
667 2 0.282272 0.433209 0.432401
668 4 0.3067 0.438293 0.434014
669 4 0.257844 0.428125 0.430788
1446 4 0.249904 0.495867 0.477641
773 4 0.255469 0.420259 0.464703
588 4 0.386462 0.456421 0.423706
1126 2 0.0581166 0.0585759 0.534839
1127 4 0.058273 0.0362118 0.523659
2236 2 0.0601195 0.00543663 0.524499
1128 4 0.0579602 0.0809401 0.546019
2238 4 0.0630797 0.00615754 0.549317
1057 2 0.114877 0.0506139 0.578465
1058 4 0.136225 0.0460826 0.566262
2430 4 0.173782 0.02185 0.545614
341 4 0.184971 0.0217397 0.504222
1181 4 0.254634 0.0660443 0.523078
961 2 0.296846 0.0373077 0.500743
1031 4 0.256474 0.0797795 0.569922
963 4 0.292571 0.0618313 0.503087
841 2 0.366356 0.0473611 0.539786
843 4 0.350994 0.028569 0.545789
842 4 0.381718 0.0661532 0.533782
1216 2 0.395013 0.0132031 0.573838
1218 4 0.372633 0.0224579 0.567621
1217 4 0.417393 0.00394829 0.580055
1060 2 0.468884 0.0238998 0.516249
1062 4 0.448697 0.0158935 0.528641
88 3 0.433352 0.00396747 0.530274
1061 4 0.489071 0.0319062 0.503857
939 4 0.0707982 0.0963644 0.552094
1200 4 0.00866729 0.163969 0.560496
937 2 0.086869 0.111937 0.54094
938 4 0.10294 0.12751 0.529787
1154 4 0.132102 0.160029 0.578718
1221 4 0.187772 0.162056 0.552721
1030 2 0.242161 0.097172 0.580776
1180 2 0.251659 0.0906799 0.52001
1182 4 0.248683 0.115316 0.516942
899 4 0.357942 0.125987 0.539362
898 2 0.356327 0.146387 0.524995
641 4 0.46698 0.111956 0.510326
878 4 0.057628 0.216694 0.528758
877 2 0.0739003 0.215167 0.54768
879 4 0.0901726 0.213641 0.566603
1033 2 0.121519 0.193164 0.504814
1034 4 0.138325 0.189237 0.522906
856 2 0.229056 0.239201 0.547651
858 4 0.209868 0.23916 0.563682
857 4 0.248245 0.239241 0.53162
1219 2 0.192654 0.169424 0.576111
410 4 0.313097 0.198987 0.506609
792 4 0.292386 0.243997 0.534666
900 4 0.354712 0.166786 0.510628
983 4 0.0318761 0.317724 0.549693
982 2 0.0164128 0.3264 0.567322
695 4 0.121571 0.288672 0.519949
1258 2 0.171302 0.271923 0.576455
1259 4 0.19528 0.27809 0.572966
791 4 0.295006 0.272285 0.57582
790 2 0.293696 0.258141 0.555243
813 4 0.326311 0.291451 0.534565
802 2 0.275585 0.325507 0.546794
803 4 0.280294 0.303796 0.558266
873 4 0.398541 0.27058 0.53706
811 2 0.347013 0.296295 0.521407
871 2 0.409604 0.276041 0.515312
812 4 0.367715 0.301139 0.508249
895 2 0.165312 0.37907 0.575609
897 4 0.162631 0.399964 0.56214
1160 4 0.182975 0.403113 0.559903
804 4 0.270877 0.347219 0.535322
774 4 0.275978 0.393901 0.501922
925 2 0.468649 0.397527 0.532107
926 4 0.468138 0.377152 0.517623
936 4 0.013463 0.435828 0.551611
934 2 0.0109213 0.431527 0.527112
384 4 0.0822287 0.427732 0.501217
935 4 0.00837962 0.427226 0.502613
1159 2 0.185444 0.427986 0.559262
1161 4 0.187913 0.452859 0.55862
1171 2 0.223454 0.472879 0.56855
1173 4 0.199215 0.467467 0.565654
1172 4 0.247692 0.478292 0.571447
882 4 0.327002 0.465912 0.529109
929 4 0.367815 0.417146 0.568366
880 2 0.347338 0.452797 0.522812
881 4 0.367673 0.439683 0.516515
1000 2 0.392058 0.438121 0.552233
1002 4 0.372929 0.436604 0.568263
1001 4 0.411187 0.439637 0.536203
927 4 0.46916 0.417901 0.546591
662 4 0.49368 0.477361 0.532052
661 2 0.472625 0.483707 0.520153
663 4 0.45157 0.490054 0.508253
4085 4 0.499415 0.487037 0.54933
1185 4 0.0292056 0.0305633 0.661599
2319 4 0.049219 0.00352797 0.620074
1059 4 0.0935294 0.0551452 0.590668
825 4 0.157645 0.0369297 0.660656
823 2 0.167182 0.0196877 0.645264
1284 4 0.174093 0.0811927 0.620526
949 2 0.27693 0.0177992 0.629464
951 4 0.299339 0.0240739 0.620319
950 4 0.25452 0.0115246 0.638608
1092 4 0.318331 0.0243653 0.624749
1090 2 0.327941 0.0149649 0.645832
1005 4 0.325511 0.076698 0.653085
1082 4 0.0333094 0.114744 0.639417
1076 4 0.0221949 0.126281 0.650951
1081 2 0.0350824 0.121499 0.615408
1083 4 0.0368554 0.128255 0.5914
1153 2 0.13126 0.137868 0.590265
1155 4 0.130419 0.115706 0.601812
909 4 0.131473 0.130627 0.664905
1282 2 0.193683 0.0948731 0.613159
1283 4 0.213272 0.108553 0.605792
1032 4 0.227847 0.114565 0.59163
809 4 0.459173 0.0945202 0.619325
808 2 0.455711 0.0908885 0.64382
3009 4 0.498574 0.123523 0.594228
852 4 0.0454775 0.19343 0.666498
1271 4 0.120765 0.171209 0.590691
1272 4 0.0877601 0.208566 0.586717
1270 2 0.104263 0.189887 0.588704
1212 4 0.226428 0.185904 0.64618
1220 4 0.197536 0.176792 0.5995
797 4 0.213859 0.238423 0.583263
1210 2 0.244575 0.197021 0.659306
796 2 0.228528 0.238643 0.60351
798 4 0.243198 0.238862 0.623757
1193 4 0.355451 0.170905 0.63726
1192 2 0.348794 0.177933 0.660314
1024 2 0.453366 0.190515 0.668627
1025 4 0.474143 0.197765 0.656756
1243 2 0.0278081 0.282002 0.636372
1244 4 0.0389438 0.285744 0.6143
1245 4 0.0166724 0.278261 0.658444
1260 4 0.147323 0.265756 0.579945
1209 4 0.0865482 0.25547 0.630928
1207 2 0.0935066 0.254511 0.654925
947 4 0.169749 0.270097 0.646022
946 2 0.179065 0.292418 0.639686
948 4 0.188381 0.31474 0.633351
1239 4 0.29524 0.321958 0.635489
1237 2 0.316077 0.316177 0.648043
1238 4 0.336913 0.310396 0.660597
806 4 0.343286 0.328878 0.664167
906 4 0.4922 0.258379 0.611609
954 4 0.479943 0.269182 0.600657
952 2 0.47144 0.27923 0.621916
953 4 0.462938 0.289277 0.643175
1040 4 0.0512767 0.395347 0.623656
1039 2 0.075552 0.40021 0.627154
984 4 0.000949373 0.335076 0.584951
1041 4 0.0998274 0.405073 0.630652
1137 4 0.111414 0.390398 0.625148
1136 4 0.11793 0.348003 0.599441
1135 2 0.114672 0.3692 0.612295
993 4 0.120192 0.401562 0.639526
896 4 0.167992 0.358175 0.589078
1191 4 0.213362 0.354527 0.600191
1189 2 0.230792 0.371814 0.604935
1190 4 0.248223 0.389101 0.60968
928 2 0.363774 0.395984 0.581055
930 4 0.359733 0.374821 0.593743
1204 2 0.420603 0.406477 0.665762
992 4 0.136277 0.448347 0.632237
991 2 0.128235 0.424954 0.635881
1188 4 0.270943 0.457984 0.611342
1186 2 0.266636 0.47957 0.623201
889 2 0.316482 0.442829 0.606666
891 4 0.323936 0.442735 0.630532
890 4 0.309027 0.442924 0.582799
1953 4 0.333167 0.475491 0.599715
1206 4 0.412348 0.427296 0.654644
1951 2 0.347733 0.493439 0.590182
1268 4 0.463543 0.492611 0.643825
1267 2 0.451899 0.485849 0.664893
1183 2 0.0195062 0.0091509 0.67012
944 4 0.0697981 0.0416507 0.694956
943 2 0.0815974 0.0636247 0.693195
2990 4 0.00270258 0.0721742 0.74185
1147 2 0.20235 0.0749046 0.742512
1050 4 0.370349 0.0118671 0.7465
1091 4 0.337552 0.0055645 0.666914
1163 4 0.464034 0.0317989 0.685172
43 3 0.417782 0.0768532 0.70207
1162 2 0.478579 0.0518394 0.688634
2322 4 0.478353 0.0114523 0.73086
846 4 0.47791 0.0463676 0.739598
1164 4 0.493125 0.0718799 0.692097
862 2 0.057358 0.134654 0.724502
864 4 0.0672091 0.137686 0.701721
1075 2 0.0375391 0.127055 0.670678
1077 4 0.0528834 0.127828 0.690404
833 4 0.0171633 0.132367 0.73537
863 4 0.047507 0.131621 0.747282
945 4 0.0933966 0.0855987 0.691434
907 2 0.147318 0.141061 0.681192
908 4 0.163162 0.151494 0.697478
1148 4 0.212431 0.0942861 0.73035
1225 2 0.193266 0.126776 0.719246
1226 4 0.209441 0.114491 0.733827
1227 4 0.17709 0.139062 0.704666
1004 4 0.297364 0.0931937 0.690984
1003 2 0.311437 0.0849459 0.672035
829 2 0.341591 0.16793 0.714143
831 4 0.351852 0.14946 0.727513
44 3 0.414321 0.114677 0.700739
1141 2 0.389744 0.141657 0.707107
1142 4 0.409158 0.131963 0.694686
1143 4 0.37033 0.151352 0.719529
810 4 0.45225 0.0872568 0.668315
45 3 0.43478 0.0965444 0.674849
41 1 0.428483 0.0967385 0.696734
42 3 0.447167 0.0989148 0.709976
851 4 0.064945 0.1703 0.706332
850 2 0.0552113 0.181865 0.686415
1107 4 0.0634071 0.170571 0.725866
1105 2 0.0741242 0.185127 0.743142
978 4 0.238537 0.20449 0.724563
830 4 0.33133 0.1864 0.700773
1211 4 0.262721 0.208139 0.672431
887 4 0.321547 0.184598 0.683715
886 2 0.297658 0.188299 0.677328
888 4 0.273769 0.192 0.670941
976 2 0.2625 0.208999 0.730097
977 4 0.286462 0.213509 0.735632
1194 4 0.342137 0.184961 0.683368
1263 4 0.409414 0.206747 0.721378
1026 4 0.432589 0.183265 0.680498
1261 2 0.431352 0.218711 0.722256
1262 4 0.45329 0.230676 0.723134
1179 4 0.0156495 0.289829 0.67628
1177 2 0.0214126 0.280147 0.698601
1178 4 0.0271758 0.270465 0.720921
1208 4 0.100465 0.253552 0.678922
822 4 0.148196 0.319846 0.733447
820 2 0.168061 0.304694 0.734438
821 4 0.187926 0.289543 0.735429
1065 4 0.243844 0.282017 0.699352
1063 2 0.258888 0.301859 0.69708
1064 4 0.273931 0.321701 0.694808
807 4 0.358138 0.33348 0.711696
805 2 0.350712 0.331179 0.687932
1006 2 0.373179 0.305006 0.738156
1007 4 0.381626 0.283061 0.746655
1008 4 0.364733 0.326951 0.729657
3121 2 0.492092 0.310293 0.711302
3123 4 0.474954 0.295366 0.700879
892 2 0.077903 0.346269 0.70609
894 4 0.0566194 0.355677 0.715237
893 4 0.0991865 0.33686 0.696943
940 2 0.152705 0.382967 0.73612
1067 4 0.145257 0.36491 0.673811
942 4 0.130858 0.3709 0.734607
815 4 0.118419 0.38637 0.739993
941 4 0.174552 0.395033 0.737634
1028 4 0.209381 0.39085 0.673201
1066 2 0.168228 0.374474 0.676266
1068 4 0.1912 0.384037 0.678721
1027 2 0.232626 0.391306 0.682401
1029 4 0.255871 0.391761 0.691602
1205 4 0.428858 0.385658 0.67688
1100 4 0.477885 0.412428 0.721721
1281 4 0.0742151 0.477582 0.720283
1280 4 0.0507571 0.452016 0.684271
1279 2 0.0624861 0.464799 0.702277
1983 4 0.0538173 0.493882 0.738857
885 4 0.0559219 0.43232 0.743865
1176 4 0.211344 0.49385 0.676971
1138 2 0.310482 0.463939 0.732631
1139 4 0.296754 0.483227 0.740676
1140 4 0.32421 0.444652 0.724587
1228 2 0.364179 0.450037 0.709178
1229 4 0.36627 0.470591 0.695095
1230 4 0.362088 0.429483 0.723261
1269 4 0.440254 0.479088 0.685961
1099 2 0.478534 0.434011 0.709115
1101 4 0.479184 0.455595 0.696509
1249 2 0.48104 0.493783 0.740513
1251 4 0.459982 0.495953 0.727209
1295 4 0.0125584 0.0618871 0.775595
1203 4 0.0743627 0.0682878 0.755604
1201 2 0.0944555 0.0550114 0.762327
1202 4 0.114548 0.041735 0.769049
1149 4 0.19227 0.055523 0.754674
1255 2 0.27429 0.0432034 0.790475
1256 4 0.272087 0.0619479 0.806875
1257 4 0.276493 0.0244589 0.774074
839 4 0.256078 0.0727916 0.801485
1113 4 0.431197 0.0628644 0.76849
1111 2 0.429786 0.0455396 0.786463
844 2 0.479072 0.0495839 0.764367
1112 4 0.428374 0.0282147 0.804437
845 4 0.480233 0.0528002 0.789135
980 4 0.430679 0.0125899 0.818425
832 2 0.00517291 0.138224 0.756515
31 1 0.133596 0.13696 0.813617
35 3 0.120966 0.125499 0.798525
33 3 0.154717 0.140936 0.80487
32 3 0.123515 0.15713 0.81817
1130 4 0.209794 0.16174 0.763701
840 4 0.256049 0.115263 0.827884
838 2 0.256064 0.0940275 0.814684
1086 4 0.325696 0.111629 0.783919
1084 2 0.344631 0.110434 0.800204
1085 4 0.363566 0.109238 0.816489
1299 4 0.356743 0.16116 0.790051
1213 2 0.00809397 0.218585 0.751441
1214 4 0.0167683 0.223178 0.774437
1106 4 0.0848413 0.199682 0.760418
1074 4 0.107482 0.244552 0.793325
1277 4 0.20415 0.235108 0.755389
1131 4 0.172012 0.185872 0.785858
1129 2 0.190903 0.173806 0.774779