ITEM: TIMESTEP
100000
ITEM: NUMBER OF ATOMS
4590
ITEM: BOX BOUNDS pp pp pp
-9.9985700000000008e+00 9.9985700000000008e+00
-9.9985700000000008e+00 9.9985700000000008e+00
-9.9985700000000008e+00 9.9985700000000008e+00
ITEM: ATOMS id type xs ys zs
463 2 0.0631048 0.0396394 0.0189546
465 4 0.0433436 0.0548722 0.0173309
1667 4 0.0676708 0.0146202 0.0614057
464 4 0.082866 0.0244066 0.0205782
532 2 0.202478 0.0475384 0.0210606
534 4 0.210266 0.0427508 0.0443331
490 2 0.264497 0.048656 0.0341384
491 4 0.256985 0.0426823 0.0572263
492 4 0.27201 0.0546298 0.0110505
295 2 0.395748 0.0699764 0.0719194
745 2 0.447501 0.0643439 0.0433426
746 4 0.424042 0.0560206 0.0409764
747 4 0.470959 0.0726671 0.0457088
2975 4 0.480799 0.0704879 0.0110222
702 4 0.0855596 0.0873926 0.0751578
589 2 0.0271703 0.111515 0.064085
590 4 0.00695849 0.111959 0.0787977
591 4 0.0473821 0.111072 0.0493723
421 2 0.117611 0.135346 0.00589514
423 4 0.105221 0.152874 0.0187187
476 4 0.112676 0.160796 0.0750634
700 2 0.1045 0.103541 0.0727758
701 4 0.12344 0.11969 0.0703938
565 2 0.218629 0.104112 0.0686267
566 4 0.23244 0.0909577 0.0524587
567 4 0.204818 0.117266 0.0847947
358 2 0.278859 0.120888 0.00918718
359 4 0.264672 0.109965 0.991735
360 4 0.293047 0.131811 0.0266391
296 4 0.394024 0.0872018 0.053878
556 2 0.35217 0.129288 0.0556598
557 4 0.33141 0.127908 0.0417936
558 4 0.372931 0.130668 0.0695259
553 2 0.0711291 0.210864 0.0087708
555 4 0.0603773 0.191646 0.0206135
571 2 0.322973 0.242521 0.0443325
573 4 0.302979 0.24785 0.0583697
572 4 0.342966 0.237192 0.0302953
664 2 0.343249 0.18252 0.00849856
665 4 0.358899 0.165855 0.0186229
324 4 0.40836 0.249998 0.0798713
771 4 0.43687 0.18609 0.0393412
770 4 0.482564 0.190882 0.0590847
769 2 0.459717 0.188486 0.049213
1014 4 0.498111 0.193372 0.0175973
292 2 0.107652 0.286896 0.999966
294 4 0.0919765 0.295881 0.0172492
914 4 0.186012 0.261772 0.00673819
483 4 0.224335 0.303509 0.0430307
505 2 0.199357 0.279742 0.0632239
507 4 0.188022 0.295675 0.047641
506 4 0.210692 0.263809 0.0788068
481 2 0.246782 0.312667 0.0369124
355 2 0.264878 0.265674 0.999954
357 4 0.281795 0.270011 0.017847
482 4 0.269229 0.321825 0.0307941
957 4 0.329491 0.333402 0.0126346
1069 2 0.411852 0.25484 0.0107779
280 2 0.465428 0.319706 0.0137863
281 4 0.470326 0.308387 0.0355365
322 2 0.426214 0.265827 0.072397
323 4 0.444068 0.281656 0.0649227
1070 4 0.421276 0.274872 0.0224001
282 4 0.46053 0.331025 0.992036
328 2 0.00855915 0.393089 0.00505117
330 4 0.0129313 0.380725 0.0263393
552 4 0.0801686 0.412272 0.0335606
315 4 0.0184108 0.416321 0.0603936
454 2 0.12904 0.348786 0.0713057
455 4 0.139713 0.37126 0.0688244
456 4 0.118367 0.326311 0.073787
288 4 0.168183 0.387951 0.998194
286 2 0.177913 0.366075 0.00539935
287 4 0.187643 0.344198 0.0126046
252 4 0.25487 0.385971 0.0561388
250 2 0.274249 0.400643 0.0619995
251 4 0.293628 0.415316 0.0678603
955 2 0.350359 0.346128 0.00736432
670 2 0.448135 0.357428 0.0681072
671 4 0.468423 0.370241 0.0610807
672 4 0.427846 0.344614 0.0751338
550 2 0.0784851 0.437173 0.0350624
551 4 0.0768015 0.462075 0.0365642
241 2 0.167645 0.49231 0.0858741
244 2 0.238795 0.443048 0.0259788
245 4 0.215551 0.45226 0.0261422
246 4 0.262039 0.433836 0.0258155
271 2 0.291237 0.492439 0.00135784
272 4 0.306966 0.479464 0.0158304
273 4 0.275508 0.505413 0.986885
608 4 0.344443 0.431313 0.0831672
524 4 0.340467 0.48674 0.0718717
564 4 0.433247 0.484404 0.0394047
562 2 0.443648 0.46863 0.0230285
563 4 0.454049 0.452855 0.0066523
228 4 0.504131 0.480055 0.0547579
16 1 0.0706045 0.069351 0.141794
19 3 0.0594836 0.0694171 0.12143
2576 4 0.993883 0.0384911 0.12574
18 3 0.0650812 0.0502622 0.153774
450 4 0.14776 0.0568211 0.118388
20 3 0.0931049 0.0701326 0.138363
448 2 0.170424 0.0638297 0.126287
449 4 0.193088 0.0708383 0.134186
1505 4 0.246071 0.0208276 0.17005
652 2 0.317461 0.0348865 0.15924
654 4 0.293496 0.0418162 0.157556
582 4 0.281279 0.0965857 0.117616
653 4 0.341426 0.0279568 0.160924
297 4 0.397471 0.0527511 0.0899608
1760 4 0.483169 0.00594105 0.141491
17 3 0.0641336 0.0878354 0.153861
235 2 0.156731 0.139487 0.13936
237 4 0.135005 0.146466 0.14958
475 2 0.126641 0.164807 0.0954123
477 4 0.140605 0.168819 0.115761
236 4 0.178458 0.132509 0.12914
580 2 0.275464 0.0979592 0.141895
628 2 0.413272 0.148384 0.135309
254 4 0.401435 0.167064 0.0890482
629 4 0.431665 0.140417 0.120362
379 2 0.0313373 0.162387 0.157736
380 4 0.0156131 0.18146 0.1615
339 4 0.0742496 0.243279 0.116848
337 2 0.093916 0.24881 0.131264
338 4 0.113582 0.254341 0.14568
736 2 0.184059 0.199273 0.13744
737 4 0.190844 0.211932 0.116973
738 4 0.177274 0.186614 0.157907
354 4 0.220455 0.222527 0.123969
284 4 0.228873 0.214779 0.170009
352 2 0.243569 0.231888 0.122149
353 4 0.266683 0.241248 0.120329
460 2 0.332553 0.181402 0.119835
461 4 0.316568 0.18092 0.139055
255 4 0.362081 0.196792 0.0973054
462 4 0.348539 0.181884 0.100615
253 2 0.381758 0.181928 0.0931768
630 4 0.394879 0.156351 0.150256
517 2 0.477162 0.227669 0.108018
518 4 0.477839 0.204516 0.0986028
656 4 0.0253492 0.266995 0.0958058
655 2 0.00196332 0.258387 0.0978506
703 2 0.010802 0.293522 0.162138
704 4 0.989915 0.285375 0.151068
754 2 0.275287 0.309727 0.113156
755 4 0.291144 0.290731 0.116743
756 4 0.25943 0.328723 0.109568
741 4 0.336652 0.297025 0.103446
622 2 0.39457 0.271097 0.156153
624 4 0.377001 0.268383 0.13857
739 2 0.344125 0.31876 0.0936017
519 4 0.476485 0.250822 0.117434
620 4 0.00354378 0.371756 0.107227
537 4 0.156768 0.345042 0.153067
535 2 0.17622 0.346486 0.16871
625 2 0.217544 0.406107 0.111301
626 4 0.219236 0.386527 0.0958433
607 2 0.327126 0.414195 0.0888473
609 4 0.309809 0.397076 0.0945275
610 2 0.271259 0.35749 0.153512
612 4 0.26612 0.377929 0.140058
740 4 0.351599 0.340495 0.0837572
387 4 0.368823 0.360137 0.141551
15 3 0.41367 0.35148 0.140293
385 2 0.367132 0.36698 0.117562
386 4 0.365441 0.373824 0.0935727
11 1 0.403132 0.354122 0.160308
12 3 0.407507 0.335893 0.173639
13 3 0.380213 0.355698 0.157042
495 4 0.412955 0.425972 0.111557
597 4 0.477977 0.389482 0.175728
595 2 0.501264 0.384705 0.167978
416 4 0.131592 0.445561 0.148615
243 4 0.188155 0.489797 0.0999527
627 4 0.215852 0.425687 0.126759
639 4 0.227223 0.459591 0.133418
637 2 0.247953 0.460003 0.147392
638 4 0.268684 0.460415 0.161366
523 2 0.337046 0.480422 0.0958209
525 4 0.333625 0.474105 0.11977
658 2 0.394231 0.469486 0.147812
659 4 0.409162 0.478426 0.129858
660 4 0.379301 0.460547 0.165766
493 2 0.436039 0.4277 0.121008
494 4 0.459123 0.429427 0.130458
2480 4 0.987391 0.0375121 0.177343
673 2 0.121105 0.0423267 0.216787
674 4 0.142623 0.0380826 0.204782
675 4 0.0995869 0.0465709 0.228792
689 4 0.21772 0.0114836 0.22613
1504 2 0.257572 0.00171771 0.181351
692 4 0.26711 0.0982908 0.186713
21 1 0.377953 0.0566751 0.233097
23 3 0.379205 0.0352179 0.241839
24 3 0.360319 0.0580952 0.218083
25 3 0.397491 0.0619654 0.22266
759 4 0.403869 0.0624146 0.202702
757 2 0.419443 0.0635052 0.183172
22 3 0.374291 0.071509 0.250293
758 4 0.435017 0.0645958 0.163641
743 4 0.458763 0.0714997 0.259661
381 4 0.0470614 0.143315 0.153972
511 2 0.024749 0.160649 0.23342
512 4 0.0131337 0.164601 0.211634
513 4 0.0363643 0.156697 0.255207
577 2 0.103707 0.118783 0.217297
578 4 0.105822 0.142574 0.2099
579 4 0.101592 0.0949924 0.224694
723 4 0.18423 0.0896535 0.222972
691 2 0.243912 0.0898665 0.190721
693 4 0.220714 0.0814422 0.194729
721 2 0.182734 0.105139 0.242546
581 4 0.269649 0.0993327 0.166174
30 3 0.290333 0.160704 0.230772
26 1 0.308428 0.146877 0.230933
28 3 0.30593 0.13038 0.214808
27 3 0.327339 0.159092 0.226207
310 2 0.404948 0.11604 0.199131
312 4 0.392426 0.100297 0.18428
311 4 0.41747 0.131782 0.213981
363 4 0.0738343 0.247091 0.181011
394 2 0.0110218 0.229726 0.206031
395 4 0.0311976 0.23896 0.194504
391 2 0.0974926 0.190084 0.246172
392 4 0.0855688 0.189078 0.224217
370 2 0.165125 0.239713 0.238297
545 4 0.185153 0.184277 0.241473
283 2 0.249681 0.20327 0.177737
285 4 0.27049 0.191761 0.185465
765 4 0.376461 0.235395 0.235536
764 4 0.37918 0.219205 0.1883
763 2 0.377821 0.2273 0.211918
520 2 0.454228 0.205285 0.234392
521 4 0.44252 0.210614 0.212951
705 4 0.0316889 0.30167 0.173208
361 2 0.0845711 0.265315 0.194344
648 4 0.0865065 0.325673 0.177979
362 4 0.0953078 0.283539 0.207677
372 4 0.149046 0.248024 0.221047
279 4 0.226929 0.252122 0.200092
343 2 0.224938 0.289333 0.231201
344 4 0.239133 0.270191 0.238766
345 4 0.210742 0.308476 0.223636
277 2 0.244827 0.263933 0.187235
278 4 0.262726 0.275744 0.174378
307 2 0.291888 0.28712 0.236446
309 4 0.2924 0.282568 0.211865
623 4 0.412139 0.273811 0.173735
528 4 0.453435 0.255473 0.18625
527 4 0.493238 0.273569 0.16198
526 2 0.473336 0.264521 0.174115
262 2 0.0257758 0.408817 0.213193
263 4 0.0387763 0.409269 0.19184
646 2 0.0904089 0.350185 0.174968
298 2 0.144265 0.341522 0.241706
299 4 0.145499 0.350701 0.218481
647 4 0.0943113 0.374698 0.171957
417 4 0.14913 0.417183 0.185868
536 4 0.195673 0.347929 0.184353
611 4 0.276398 0.337051 0.166967
14 3 0.410954 0.373221 0.170913
729 4 0.350422 0.356862 0.233613
643 2 0.438676 0.388022 0.215651
644 4 0.430684 0.405953 0.231136
645 4 0.446668 0.370092 0.200165
264 4 0.0127753 0.408364 0.234546
2618 4 0.99774 0.470812 0.197208
415 2 0.140361 0.431372 0.167242
291 4 0.18615 0.460826 0.181563
289 2 0.203024 0.442589 0.18436
290 4 0.219899 0.424351 0.187156
768 4 0.252933 0.456685 0.194129
301 2 0.32688 0.415696 0.191751
303 4 0.303882 0.407707 0.186054
767 4 0.289347 0.464316 0.227543
766 2 0.27114 0.4605 0.210836
302 4 0.349877 0.423685 0.197448
229 2 0.396768 0.498605 0.237227
231 4 0.388823 0.475271 0.241421
1568 4 0.499216 0.492979 0.205863
1404 4 0.0680461 0.997847 0.295366
232 2 0.00033426 0.0442464 0.276057
233 4 0.00736348 0.0314621 0.296363
1402 2 0.0821622 0.00234744 0.275225
1464 4 0.150311 0.0183107 0.282189
1403 4 0.0962784 0.00684829 0.255084
730 2 0.158659 0.0820168 0.307637
732 4 0.154913 0.0755659 0.331502
688 2 0.210274 0.00864138 0.249829
1699 2 0.253223 0.00506173 0.323292
742 2 0.44302 0.0521058 0.258555
744 4 0.427277 0.032712 0.257449
478 2 0.482677 0.0310108 0.30162
480 4 0.465237 0.0204877 0.287119
351 4 0.443015 0.0660884 0.301982
479 4 0.500117 0.041534 0.316121
2756 4 0.00140587 0.0966105 0.32112
529 2 0.0301982 0.131593 0.287655
530 4 0.0519474 0.143844 0.289093
531 4 0.00844906 0.119342 0.286217
731 4 0.162404 0.0884677 0.283772
546 4 0.181791 0.140427 0.265275
722 4 0.181238 0.120624 0.26212
249 4 0.218195 0.12582 0.285488
247 2 0.234116 0.107469 0.279574
403 2 0.222486 0.160588 0.301578
404 4 0.227003 0.136116 0.299145
29 3 0.310799 0.137185 0.251881
248 4 0.250036 0.0891191 0.273659
631 2 0.363304 0.100656 0.288673
632 4 0.347438 0.105257 0.269904
633 4 0.379171 0.0960549 0.307441
331 2 0.466275 0.155764 0.258349
332 4 0.488219 0.143781 0.258161
333 4 0.444331 0.167748 0.258536
349 2 0.449983 0.0899114 0.304997
350 4 0.456951 0.113734 0.308012
444 4 0.037463 0.250483 0.310772
442 2 0.0216173 0.254308 0.291812
371 4 0.181204 0.231402 0.255547
393 4 0.109416 0.191089 0.268126
544 2 0.183472 0.162352 0.253374
405 4 0.217969 0.185059 0.304011
706 2 0.341385 0.193505 0.301338
708 4 0.343119 0.175028 0.318095
707 4 0.339651 0.211981 0.284581
420 4 0.43233 0.239493 0.296026
418 2 0.436383 0.246545 0.31967
522 4 0.465935 0.199957 0.255833
762 4 0.456651 0.200519 0.272857
761 4 0.478368 0.203127 0.317827
760 2 0.467509 0.201823 0.295342
748 2 0.0782634 0.287724 0.261653
750 4 0.0686843 0.271644 0.278232
300 4 0.14303 0.332343 0.264931
390 4 0.101042 0.263373 0.313663
749 4 0.0878425 0.303804 0.245075
388 2 0.124194 0.272715 0.315036
389 4 0.147346 0.282058 0.316408
677 4 0.136133 0.33378 0.304743
676 2 0.146548 0.340971 0.326307
400 2 0.203387 0.273775 0.318445
402 4 0.217347 0.291207 0.307203
401 4 0.189426 0.256343 0.329688
308 4 0.291376 0.291672 0.261026
496 2 0.30883 0.288468 0.288451
497 4 0.327447 0.275458 0.298907
498 4 0.290214 0.301478 0.277995
543 4 0.392291 0.317436 0.305212
615 4 0.354854 0.297453 0.338062
613 2 0.363989 0.320183 0.333052
541 2 0.414997 0.307931 0.300821
542 4 0.437702 0.298426 0.29643
366 4 0.0372874 0.336063 0.26939
364 2 0.0183793 0.342646 0.284368
601 2 0.0694848 0.397529 0.301556
603 4 0.0825069 0.385863 0.319431
734 4 0.15668 0.344454 0.273232
735 4 0.196082 0.367617 0.293521
733 2 0.176381 0.356036 0.283377
728 4 0.328092 0.37884 0.272588
727 2 0.339257 0.367851 0.253101
614 4 0.373123 0.342913 0.328043
434 4 0.344162 0.405104 0.332453
447 4 0.412465 0.395991 0.270563
445 2 0.42084 0.382144 0.289625
446 4 0.429215 0.368298 0.308686
602 4 0.0564626 0.409195 0.283681
777 4 0.0572666 0.459196 0.313873
775 2 0.079116 0.467199 0.323023
776 4 0.100965 0.475202 0.332174
414 4 0.137559 0.452742 0.298105
412 2 0.153741 0.464485 0.313118
413 4 0.169924 0.476228 0.328131
436 2 0.291842 0.435925 0.293855
437 4 0.303625 0.437631 0.271868
438 4 0.280059 0.43422 0.315842
713 4 0.414973 0.478717 0.31338
712 2 0.433973 0.476428 0.297287
714 4 0.452972 0.47414 0.281195
119 3 0.488822 0.45105 0.324407
316 2 0.0358684 0.0615625 0.35848
317 4 0.0133778 0.0586903 0.36902
318 4 0.058359 0.0644347 0.347939
427 2 0.102476 0.0180732 0.363074
428 4 0.100501 0.0333351 0.38278
429 4 0.104451 0.00281126 0.343367
606 4 0.157694 0.071627 0.380132
441 4 0.229398 0.0139036 0.382502
604 2 0.182093 0.0675251 0.376521
605 4 0.206492 0.0634231 0.372911
439 2 0.245214 0.0265456 0.397171
1701 4 0.257571 0.00738454 0.347805
440 4 0.26103 0.0391877 0.411841
698 4 0.377621 0.0289132 0.33154
697 2 0.35683 0.0254094 0.34498
699 4 0.336039 0.0219055 0.35842
256 2 0.409268 0.0566736 0.401498
258 4 0.401834 0.0377229 0.416017
257 4 0.416702 0.0756242 0.38698
398 4 0.0566517 0.120474 0.349558
397 2 0.0787073 0.110171 0.34385
399 4 0.100763 0.0998685 0.338141
598 2 0.17577 0.159689 0.359522
599 4 0.199085 0.153132 0.365737
682 2 0.300064 0.0955676 0.370823
683 4 0.325009 0.0952548 0.369147
684 4 0.275119 0.0958803 0.372498
466 2 0.341547 0.143894 0.403411
467 4 0.354126 0.162854 0.393046
451 2 0.459001 0.149594 0.355075
452 4 0.482382 0.142038 0.350452
453 4 0.435619 0.157151 0.359698
514 2 0.430612 0.141226 0.402194
515 4 0.431042 0.149915 0.378753
2654 4 0.0197199 0.200028 0.374003
600 4 0.152456 0.166245 0.353307
474 4 0.227208 0.18241 0.359098
274 2 0.23376 0.23983 0.402126
472 2 0.250242 0.176461 0.351404
473 4 0.273276 0.170511 0.34371
276 4 0.257124 0.231076 0.403756
488 4 0.291707 0.243975 0.382332
487 2 0.291633 0.241156 0.407176
715 2 0.359118 0.232232 0.371214
716 4 0.35896 0.211376 0.357423
419 4 0.440436 0.253598 0.343313
616 2 0.0841338 0.319049 0.361464
617 4 0.0930402 0.302156 0.345324
326 4 0.119947 0.334803 0.418993
275 4 0.210396 0.248584 0.400496
508 2 0.221344 0.335825 0.338376
510 4 0.196375 0.336924 0.337641
375 4 0.200109 0.286006 0.403982
376 2 0.283899 0.301035 0.35801
377 4 0.298195 0.282716 0.34878
378 4 0.269603 0.319355 0.36724
717 4 0.359276 0.253088 0.385005
268 2 0.46943 0.285908 0.37647
269 4 0.460103 0.262831 0.378841
270 4 0.478758 0.308985 0.374099
548 4 0.0491586 0.420581 0.341069
618 4 0.0752274 0.335942 0.377603
2927 4 0.00608698 0.350627 0.377803
408 4 0.0692337 0.391867 0.405678
406 2 0.0768319 0.406922 0.387217
678 4 0.156962 0.348162 0.347871
509 4 0.246313 0.334725 0.339111
502 2 0.222291 0.414951 0.38971
504 4 0.235345 0.396862 0.378415
435 4 0.298619 0.388839 0.34518
433 2 0.321391 0.396972 0.338816
336 4 0.36534 0.388871 0.394344
118 3 0.492412 0.414917 0.33563
561 4 0.435218 0.357726 0.407133
559 2 0.457651 0.355689 0.417987
751 2 0.43122 0.399138 0.392047
752 4 0.431625 0.374684 0.397243
547 2 0.0341708 0.436369 0.353369
549 4 0.0191831 0.452157 0.365669
407 4 0.0844301 0.421976 0.368755
499 2 0.105903 0.455127 0.371755
500 4 0.114551 0.442061 0.391239
501 4 0.0972547 0.468194 0.35227
1557 4 0.219503 0.490509 0.370174
503 4 0.209237 0.433039 0.401005
1 1 0.325743 0.467151 0.376612
5 3 0.307558 0.459046 0.365555
4 3 0.333106 0.451617 0.392197
2 3 0.319928 0.486513 0.387587
3 3 0.34272 0.471892 0.361522
594 4 0.408744 0.467244 0.355794
586 2 0.414315 0.449403 0.410846
588 4 0.389755 0.45243 0.407264
753 4 0.430815 0.423593 0.386851
592 2 0.433128 0.468752 0.361117
593 4 0.457512 0.47026 0.36644
718 2 0.0483218 0.062013 0.469031
719 4 0.0303808 0.0615061 0.486439
720 4 0.0662628 0.0625198 0.451623
367 2 0.0996762 0.0772032 0.459165
369 4 0.104535 0.0587077 0.475273
342 4 0.173997 0.0514692 0.481411
340 2 0.174835 0.0318213 0.496852
726 4 0.342223 0.0849643 0.423678
724 2 0.3408 0.0811669 0.448351
424 2 0.383834 0.0382258 0.445755
425 4 0.367744 0.025879 0.460379
426 4 0.399923 0.0505726 0.431131
725 4 0.339376 0.0773696 0.473023
457 2 0.00228424 0.164919 0.440232
458 4 0.0123646 0.143551 0.448416
368 4 0.0948173 0.0956987 0.443056
1152 4 0.154814 0.106793 0.481651
321 4 0.227691 0.138066 0.422363
1150 2 0.172758 0.115585 0.496681
686 4 0.202191 0.17096 0.417791
319 2 0.250958 0.134866 0.430939
320 4 0.274226 0.131666 0.439515
468 4 0.328967 0.124933 0.413776
431 4 0.326305 0.10295 0.496853
574 2 0.371443 0.168327 0.459591
576 4 0.365981 0.151274 0.477042
642 4 0.464875 0.10623 0.481201
516 4 0.430182 0.132537 0.425635
2880 4 0.495288 0.100447 0.444971
640 2 0.464877 0.126291 0.496126
687 4 0.157379 0.183252 0.436271
260 4 0.0833749 0.209602 0.439937
261 4 0.0871409 0.178146 0.478628
259 2 0.0852579 0.193874 0.459283
1035 4 0.101803 0.189245 0.48549
685 2 0.179785 0.177106 0.427031
411 4 0.259373 0.177052 0.478687
409 2 0.278277 0.193019 0.482275
410 4 0.297182 0.208985 0.485863
489 4 0.29156 0.238337 0.43202
267 4 0.379445 0.249922 0.433822
575 4 0.376905 0.18538 0.44214
306 4 0.501053 0.232504 0.417058
304 2 0.485973 0.213366 0.422669
305 4 0.470893 0.194227 0.42828
872 4 0.434654 0.253454 0.497732
346 2 0.0485258 0.286089 0.425185
348 4 0.0392279 0.263362 0.4299
347 4 0.0578236 0.308815 0.420469
327 4 0.0801372 0.337444 0.449141
694 2 0.105922 0.264323 0.491693
696 4 0.101666 0.274414 0.469216
6 1 0.155467 0.333597 0.487076
9 3 0.148354 0.320784 0.469086
325 2 0.100042 0.336124 0.434067
373 2 0.205093 0.29386 0.427191
374 4 0.210077 0.301715 0.450399
651 4 0.252387 0.285547 0.494043
649 2 0.255582 0.296753 0.47192
650 4 0.258777 0.307959 0.449798
265 2 0.364969 0.269609 0.439116
266 4 0.350493 0.289296 0.44441
583 2 0.475455 0.317814 0.458118
584 4 0.478835 0.311726 0.434104
585 4 0.472074 0.323903 0.482132
681 4 0.0278905 0.399296 0.448212
10 3 0.166692 0.351945 0.479593
7 3 0.137075 0.340358 0.499124
709 2 0.200055 0.378166 0.450679
710 4 0.208237 0.390045 0.430256
711 4 0.191873 0.366286 0.471102
772 2 0.259157 0.397574 0.493917
334 2 0.358983 0.386797 0.418437
238 2 0.367995 0.377199 0.480085
240 4 0.36448 0.376507 0.45534
335 4 0.352626 0.384723 0.44253
560 4 0.480084 0.353651 0.428841
926 4 0.449423 0.404735 0.498352
680 4 0.0530475 0.427696 0.415635
539 4 0.0674093 0.475392 0.488488
679 2 0.040469 0.413496 0.431924
1383 4 0.0358709 0.490258 0.456313
382 2 0.0944829 0.436019 0.472429
383 4 0.0930339 0.444477 0.448944
569 4 0.142838 0.470198 0.432078
384 4 0.0959319 0.427562 0.495915
635 4 0.215521 0.454801 0.47564
568 2 0.165361 0.460721 0.437378
570 4 0.187884 0.451245 0.442678
634 2 0.235912 0.451514 0.461548
773 4 0.240153 0.412161 0.486759
668 4 0.311158 0.417797 0.431987
667 2 0.288469 0.424523 0.440059
669 4 0.265779 0.431248 0.44813
636 4 0.256303 0.448228 0.447456
587 4 0.438875 0.446376 0.414428
1126 2 0.0569034 0.0654084 0.526937
1127 4 0.0681879 0.043517 0.522623
1128 4 0.045619 0.0872997 0.531251
2238 4 0.0422005 0.999752 0.534501
1057 2 0.14369 0.0567598 0.566863
1058 4 0.162229 0.0613813 0.550736
1181 4 0.222604 0.0618138 0.516804
2430 4 0.182664 0.0149798 0.543253
341 4 0.175673 0.0121734 0.512294
961 2 0.280484 0.0301269 0.509259
963 4 0.28565 0.0534307 0.516703
962 4 0.275317 0.00682299 0.501815
430 2 0.307869 0.0879759 0.50467
432 4 0.289434 0.0730023 0.512486
841 2 0.372157 0.0595413 0.544217
843 4 0.34815 0.0555317 0.549944
1217 4 0.420534 0.017052 0.564263
842 4 0.396163 0.0635509 0.53849
1216 2 0.40065 0.012138 0.578603
3008 4 0.490893 0.0607384 0.582839
1060 2 0.479164 0.0136484 0.505669
1062 4 0.461018 0.0228531 0.520201
937 2 0.0848013 0.122178 0.527801
939 4 0.0776604 0.0982405 0.526716
1154 4 0.148258 0.154452 0.588751
938 4 0.0919422 0.146116 0.528886
1180 2 0.236959 0.0821713 0.514634
1151 4 0.190702 0.124378 0.511711
1182 4 0.251313 0.102529 0.512463
899 4 0.368139 0.142848 0.553909
641 4 0.464879 0.146351 0.511051
3159 4 0.493803 0.153554 0.551586
877 2 0.0854861 0.216536 0.564011
878 4 0.0774868 0.227353 0.542935
1200 4 0.998459 0.194973 0.567875
470 4 0.987549 0.208487 0.506536
1033 2 0.121794 0.185729 0.50009
1034 4 0.141785 0.182213 0.51469
695 4 0.110179 0.254231 0.51417
879 4 0.0934855 0.205719 0.585087
856 2 0.218042 0.218435 0.533233
858 4 0.224235 0.220076 0.557402
1221 4 0.17932 0.176727 0.56028
857 4 0.21185 0.216794 0.509064
898 2 0.360442 0.161931 0.539704
900 4 0.352744 0.181014 0.525499
871 2 0.413625 0.249858 0.510771
3065 4 0.493151 0.24251 0.516847
983 4 0.0261557 0.309431 0.568986
982 2 0.00994904 0.328393 0.567262
1258 2 0.161519 0.258471 0.578891
1260 4 0.138497 0.258993 0.588633
8 3 0.169227 0.320969 0.500847
1259 4 0.18454 0.257949 0.569149
790 2 0.305995 0.25952 0.562237
792 4 0.29317 0.267408 0.542276
813 4 0.321632 0.303461 0.533364
791 4 0.31882 0.251631 0.582199
873 4 0.392596 0.246261 0.52381
811 2 0.34494 0.297802 0.526302
812 4 0.368248 0.292143 0.51924
954 4 0.458273 0.288684 0.5808
1041 4 0.0638327 0.414358 0.583463
984 4 0.993742 0.347355 0.565538
897 4 0.170484 0.400503 0.570595
1189 2 0.253104 0.380814 0.586357
802 2 0.268858 0.339977 0.544662
803 4 0.29261 0.333842 0.549496
804 4 0.245106 0.346111 0.539827
1190 4 0.264856 0.402715 0.583637
774 4 0.278162 0.382987 0.501075
929 4 0.336535 0.384655 0.564087
928 2 0.349344 0.38307 0.585502
239 4 0.371511 0.377891 0.504831
925 2 0.462295 0.403795 0.519767
927 4 0.475168 0.402855 0.541182
934 2 0.0160573 0.453568 0.525612
935 4 0.0286247 0.43686 0.511897
1938 4 0.034067 0.508495 0.5374
1160 4 0.159561 0.410984 0.556366
1159 2 0.176962 0.42862 0.552993
1161 4 0.194362 0.446256 0.549621
1171 2 0.220944 0.464623 0.56384
1173 4 0.196199 0.463569 0.560409
1172 4 0.245688 0.465677 0.567272
882 4 0.318827 0.456437 0.511862
880 2 0.343278 0.455194 0.516942
881 4 0.367728 0.453951 0.522023
1002 4 0.392314 0.452546 0.580516
890 4 0.337528 0.419976 0.5846
1000 2 0.415089 0.449462 0.570667
1001 4 0.437863 0.446377 0.560819
662 4 0.481396 0.468078 0.522114
661 2 0.461643 0.481831 0.515342
663 4 0.44189 0.495584 0.508571
1185 4 0.0279188 0.0375 0.66231
1183 2 0.0111809 0.0191611 0.665261
1059 4 0.12515 0.0521384 0.582991
825 4 0.153717 0.030011 0.651949
823 2 0.171814 0.0181121 0.639456
1031 4 0.249794 0.0641933 0.588605
824 4 0.189912 0.00621325 0.626963
1284 4 0.178464 0.0697106 0.621458
949 2 0.275224 0.022653 0.634808
951 4 0.279964 0.0422934 0.620078
950 4 0.270484 0.00301266 0.649537
1092 4 0.333723 0.0207464 0.645583
1005 4 0.338048 0.0855325 0.655913
2196 4 0.349811 0.000462739 0.595639
1090 2 0.340107 0.0129675 0.668472
1218 4 0.380766 0.00722408 0.592944
809 4 0.450301 0.073685 0.623794
1082 4 0.0267544 0.107511 0.643453
1076 4 0.0237607 0.10512 0.66242
1081 2 0.0450364 0.108828 0.626447
1083 4 0.0633185 0.110145 0.609441
1153 2 0.146349 0.131958 0.5995
1155 4 0.144441 0.109464 0.610249
909 4 0.136825 0.14463 0.67086
1283 4 0.208676 0.108891 0.61419
1282 2 0.19357 0.0893009 0.617824
1030 2 0.250671 0.0891815 0.58862
1032 4 0.251547 0.11417 0.588635
808 2 0.442696 0.0971855 0.627676
810 4 0.435091 0.120686 0.631557
1272 4 0.0967368 0.193984 0.601135
1270 2 0.121518 0.1908 0.600162
1271 4 0.146299 0.187616 0.599189
1210 2 0.223435 0.18683 0.661203
1212 4 0.215532 0.204448 0.645317
1219 2 0.191757 0.175159 0.581914
1220 4 0.204195 0.173591 0.603548
796 2 0.219805 0.251669 0.623878
797 4 0.204095 0.24415 0.605939
1193 4 0.343445 0.187351 0.638621
1026 4 0.410111 0.210657 0.65665
904 2 0.503944 0.244303 0.596643
906 4 0.485375 0.253562 0.610595
1024 2 0.432534 0.199675 0.657976
1025 4 0.454957 0.188692 0.659301
1243 2 0.0240415 0.272831 0.636674
1244 4 0.0297726 0.270622 0.612437
1245 4 0.0183104 0.275041 0.660912
946 2 0.185805 0.289885 0.642471
947 4 0.17173 0.269549 0.638797
948 4 0.19988 0.310222 0.646146
798 4 0.235516 0.259189 0.641817
1239 4 0.299853 0.301388 0.618155
1237 2 0.318439 0.317988 0.620204
952 2 0.457858 0.289762 0.605777
953 4 0.457443 0.29084 0.630754
1040 4 0.0527617 0.395899 0.628601
1039 2 0.0582972 0.405129 0.606032
1136 4 0.129234 0.355857 0.614549
1137 4 0.109408 0.386435 0.580305
1135 2 0.119321 0.371146 0.597427
896 4 0.169535 0.382687 0.617312
895 2 0.170009 0.391595 0.593954
1191 4 0.241352 0.358913 0.589078
1028 4 0.219585 0.392456 0.667349
1238 4 0.337024 0.334589 0.622253
930 4 0.362153 0.381484 0.606917
1204 2 0.413213 0.418004 0.651959
1205 4 0.416865 0.393297 0.653146
992 4 0.146524 0.436005 0.6474
991 2 0.123553 0.430535 0.639177
993 4 0.100582 0.425066 0.630954
1188 4 0.228567 0.488115 0.63749
889 2 0.324856 0.434017 0.600954
891 4 0.312184 0.448058 0.617308
1206 4 0.409561 0.442711 0.650773
1951 2 0.355959 0.492893 0.604339
1952 4 0.369902 0.489075 0.583938
1953 4 0.342016 0.496712 0.624739
1268 4 0.471939 0.492595 0.65072
944 4 0.0705459 0.0742844 0.69381
943 2 0.0928651 0.0639379 0.68934
945 4 0.115184 0.0535914 0.68487
1147 2 0.19916 0.0798672 0.733322
1149 4 0.18924 0.0569755 0.731666
1091 4 0.346491 0.0051886 0.691361
1163 4 0.48128 0.0271569 0.681984
41 1 0.430234 0.0847769 0.685887
43 3 0.423958 0.0638291 0.693647
45 3 0.446357 0.0826482 0.669945
1162 2 0.493343 0.0480898 0.688423
1164 4 0.505407 0.0690227 0.694862
2990 4 0.0124012 0.0885232 0.716441
862 2 0.0522185 0.13277 0.727479
864 4 0.0294168 0.134166 0.717315
1075 2 0.0271015 0.122359 0.68022
863 4 0.0750202 0.131374 0.737643
1077 4 0.0304424 0.139598 0.698019
851 4 0.0730524 0.169078 0.693071
907 2 0.158864 0.148434 0.682041
1148 4 0.209081 0.102759 0.734977
1225 2 0.206246 0.13065 0.713325
1226 4 0.2199 0.110266 0.718145
1227 4 0.192592 0.151034 0.708505
908 4 0.180903 0.152239 0.693221
829 2 0.323192 0.160399 0.719035
830 4 0.320591 0.171668 0.696867
831 4 0.325794 0.14913 0.741202
1003 2 0.33097 0.0864772 0.679875
1004 4 0.323892 0.0874219 0.703838
887 4 0.318277 0.168296 0.676143
44 3 0.411814 0.0958128 0.677094
1141 2 0.39176 0.146664 0.704727
1142 4 0.41339 0.149657 0.692545
1143 4 0.370131 0.14367 0.716908
42 3 0.43855 0.0970404 0.703483
3426 4 0.504563 0.107762 0.690459
852 4 0.0275839 0.182601 0.677246
850 2 0.0503182 0.17584 0.685158
1213 2 0.0118361 0.227753 0.747146
1105 2 0.0950045 0.204952 0.732266
1106 4 0.106738 0.226997 0.73104
1107 4 0.0832716 0.182906 0.733492
1208 4 0.10417 0.242501 0.6835
1211 4 0.231338 0.169213 0.677089
886 2 0.294479 0.174407 0.671507
888 4 0.270681 0.180518 0.666871
976 2 0.276336 0.212415 0.736393
977 4 0.294576 0.229316 0.739015
978 4 0.258097 0.195515 0.733771
1192 2 0.341448 0.200176 0.659992
1194 4 0.33945 0.213 0.681363
1298 4 0.351745 0.192889 0.74305
1261 2 0.44327 0.237979 0.710105
1263 4 0.431613 0.229773 0.689564
1179 4 0.0194524 0.256172 0.66668
1177 2 0.0214883 0.260622 0.6912
1178 4 0.0235243 0.265072 0.71572
1209 4 0.076576 0.280018 0.665286
1207 2 0.0903732 0.26126 0.674393
820 2 0.163585 0.310141 0.741161
821 4 0.171287 0.291695 0.726142
1276 2 0.208122 0.249915 0.746336
1065 4 0.237426 0.26266 0.693421
1063 2 0.248829 0.28285 0.702777
1278 4 0.186061 0.261213 0.743039
1064 4 0.260231 0.30304 0.712132
807 4 0.303699 0.313945 0.702283
805 2 0.32461 0.321446 0.69081
1006 2 0.36721 0.306841 0.733991
1007 4 0.37529 0.283781 0.739299
1008 4 0.359131 0.3299 0.728684
1262 4 0.454928 0.246184 0.730646
3123 4 0.478514 0.285147 0.699346
3121 2 0.501565 0.283484 0.708889
892 2 0.0715413 0.346134 0.699173
894 4 0.0586714 0.358324 0.681539
893 4 0.0844112 0.333943 0.716806
940 2 0.143934 0.389644 0.739565
942 4 0.122251 0.377253 0.740776
1067 4 0.161709 0.41065 0.696289
1066 2 0.181834 0.399993 0.685964
1068 4 0.201959 0.389336 0.67564
1027 2 0.241024 0.385401 0.678109
941 4 0.165618 0.402034 0.738355
1029 4 0.262463 0.378347 0.688869
806 4 0.345521 0.328947 0.679337
1100 4 0.460218 0.411095 0.716825
1281 4 0.0240104 0.465212 0.714917
1280 4 0.0616581 0.437111 0.697779
1279 2 0.0428342 0.451161 0.706348
1174 2 0.221944 0.493307 0.695732
1175 4 0.245908 0.496424 0.70215
1176 4 0.19798 0.49019 0.689314
1138 2 0.298646 0.445902 0.713326
1139 4 0.29053 0.436888 0.735191
1140 4 0.306762 0.454916 0.691462
1228 2 0.362571 0.462507 0.714871
1229 4 0.367189 0.479042 0.73305
1230 4 0.357952 0.445972 0.696693
1267 2 0.451411 0.490428 0.66483
1099 2 0.454698 0.431212 0.70304
1101 4 0.449178 0.451328 0.689255
1269 4 0.430883 0.488262 0.67894
1249 2 0.480708 0.496896 0.733195
1250 4 0.50107 0.495584 0.747647
1296 4 0.0234055 0.0323774 0.805265
1295 4 0.0067669 0.0771825 0.790556
1294 2 0.0150862 0.0547799 0.79791
1203 4 0.0817386 0.0653352 0.760718
1201 2 0.101104 0.0598558 0.775554
1202 4 0.12047 0.0543764 0.790391
1196 4 0.133639 0.0148348 0.827282
875 4 0.213667 0.0617917 0.82994
1255 2 0.269068 0.057149 0.794627
1256 4 0.281421 0.0637889 0.815326
1257 4 0.256714 0.0505091 0.773927
1113 4 0.40565 0.0467476 0.769795
975 4 0.340828 0.0111501 0.826936
1111 2 0.42149 0.0460412 0.789128
844 2 0.481926 0.0627946 0.772489
1112 4 0.437331 0.0453349 0.80846
845 4 0.464796 0.0704123 0.789033
832 2 0.0162765 0.142227 0.78034
833 4 0.0374111 0.149391 0.769062
34 3 0.131986 0.135274 0.820534
1287 4 0.093623 0.13165 0.836429
31 1 0.135468 0.153685 0.806848
35 3 0.131013 0.148223 0.785192
33 3 0.157405 0.160985 0.808819
839 4 0.257812 0.125684 0.781379
838 2 0.253251 0.126824 0.805936
840 4 0.248691 0.127964 0.830494
1084 2 0.354859 0.113956 0.7877
1085 4 0.356047 0.104421 0.810784
1086 4 0.353671 0.123492 0.764617
1299 4 0.36298 0.160524 0.779477
819 4 0.363184 0.101538 0.829392
48 3 0.429516 0.167464 0.796
1214 4 0.0300451 0.238728 0.760305
1074 4 0.0919433 0.239375 0.821289
32 3 0.121373 0.170626 0.813442