ITEM: TIMESTEP
820000
ITEM: NUMBER OF ATOMS
4590
ITEM: BOX BOUNDS pp pp pp
-9.9985700000000008e+00 9.9985700000000008e+00
-9.9985700000000008e+00 9.9985700000000008e+00
-9.9985700000000008e+00 9.9985700000000008e+00
ITEM: ATOMS id type xs ys zs
463 2 0.0316426 0.0405202 0.036053
464 4 0.0467511 0.0509288 0.0530404
1667 4 0.0625743 0.0646022 0.0547379
1666 2 0.0733618 0.0850645 0.0452458
465 4 0.0165341 0.0301116 0.0190655
579 4 0.11833 0.0282781 0.0861082
996 4 0.131192 0.0041261 0.00309638
1254 4 0.20751 0.063719 0.0110732
359 4 0.225815 0.0694578 0.0027305
490 2 0.278394 0.0486402 0.0462116
491 4 0.254272 0.0421461 0.0472683
492 4 0.302517 0.0551344 0.0451549
486 4 0.309101 0.0396179 0.0734855
484 2 0.326014 0.0217654 0.0689655
297 4 0.390344 0.0689392 0.0421751
746 4 0.405649 0.0600395 0.0517189
485 4 0.342926 0.00391299 0.0644455
745 2 0.430397 0.0615588 0.0484968
747 4 0.455146 0.0630782 0.0452747
2975 4 0.463112 0.0682398 0.0264339
1826 4 0.468529 0.0509175 0.0370718
1825 2 0.481123 0.0293873 0.0388072
2974 2 0.481275 0.085416 0.0269602
1247 4 0.031689 0.0986904 0.00491173
1668 4 0.0841493 0.105527 0.0357536
533 4 0.240482 0.0849274 0.0679134
423 4 0.173344 0.157632 0.0338687
532 2 0.2336 0.101991 0.0509834
534 4 0.226717 0.119056 0.0340534
421 2 0.19147 0.140872 0.0378362
422 4 0.209595 0.124111 0.0418038
665 4 0.317112 0.1414 0.0341136
556 2 0.315949 0.121508 0.0669248
557 4 0.297344 0.132813 0.0792232
295 2 0.369735 0.0826166 0.0458321
664 2 0.331921 0.140682 0.01398
296 4 0.349126 0.0962941 0.049489
558 4 0.334554 0.110204 0.0546264
629 4 0.351626 0.110297 0.0661272
771 4 0.45275 0.156121 0.0544475
2976 4 0.499437 0.102592 0.0274864
553 2 0.128769 0.241742 0.0174
554 4 0.149332 0.227677 0.0152864
571 2 0.29898 0.24507 0.0458053
572 4 0.311076 0.226848 0.0579229
323 4 0.412612 0.251662 0.0474557
770 4 0.461506 0.182381 0.0128012
769 2 0.457128 0.169251 0.0336244
837 4 0.0867731 0.330502 0.0318936
835 2 0.0821191 0.306219 0.0281716
836 4 0.0774652 0.281936 0.0244497
555 4 0.108205 0.255808 0.0195136
483 4 0.226014 0.250667 0.0561325
481 2 0.247553 0.261102 0.0488977
573 4 0.286885 0.263292 0.0336876
482 4 0.269093 0.271538 0.0416628
357 4 0.282019 0.283597 0.0328819
355 2 0.2907 0.2959 0.0129204
324 4 0.407949 0.273134 0.00253443
322 2 0.410281 0.262398 0.0249951
518 4 0.450688 0.267982 0.0675652
293 4 0.075493 0.347564 0.0283334
915 4 0.0940089 0.346217 0.0232995
294 4 0.0371834 0.365064 0.0552934
292 2 0.0563382 0.356314 0.0418134
913 2 0.11828 0.352081 0.0219933
914 4 0.142551 0.357945 0.0206872
288 4 0.155596 0.341924 0.0163776
455 4 0.133139 0.336145 0.0837649
286 2 0.178879 0.344582 0.00765694
252 4 0.262199 0.385996 0.0851969
250 2 0.272758 0.403934 0.0713443
957 4 0.325958 0.362557 0.0346925
955 2 0.346296 0.372242 0.0238412
956 4 0.366634 0.381927 0.01299
2840 4 0.37414 0.387598 0.995452
672 4 0.45523 0.35762 0.0367903
671 4 0.417029 0.377769 0.0115833
670 2 0.436129 0.367695 0.0241868
2787 4 0.00932348 0.419277 0.0213966
552 4 0.0786682 0.428748 0.00741109
2771 4 0.0123472 0.433387 0.00751787
550 2 0.0785918 0.45375 0.00712162
551 4 0.0785154 0.478752 0.00683215
609 4 0.301124 0.42956 0.062399
251 4 0.283317 0.421873 0.0574917
607 2 0.326123 0.429276 0.0627948
608 4 0.351122 0.428992 0.0631906
2386 2 0.47254 0.483561 0.0845708
226 2 0.485097 0.43385 0.0923443
228 4 0.470109 0.447912 0.106586
1305 4 0.417274 0.478692 0.000263822
563 4 0.417334 0.441635 0.0684863
578 4 0.0685774 0.0307995 0.0904754
577 2 0.0934536 0.0295388 0.0882918
24 3 0.351137 0.0439245 0.171643
591 4 0.013592 0.136295 0.142165
19 3 0.0217186 0.128268 0.158549
236 4 0.053731 0.116859 0.163381
235 2 0.0683235 0.121049 0.143515
237 4 0.0829161 0.12524 0.123648
477 4 0.0989529 0.116736 0.114205
475 2 0.123894 0.117139 0.112487
476 4 0.148835 0.117541 0.110769
566 4 0.176791 0.10016 0.102391
565 2 0.193294 0.109257 0.118825
567 4 0.209798 0.118353 0.135259
628 2 0.364887 0.117686 0.0859948
630 4 0.378148 0.125076 0.105862
449 4 0.0255823 0.175161 0.132962
448 2 0.031637 0.165133 0.155052
339 4 0.124575 0.215165 0.145172
337 2 0.143381 0.226471 0.133186
338 4 0.162188 0.237776 0.121199
737 4 0.244309 0.198699 0.154599
506 4 0.180523 0.244456 0.117596
352 2 0.268379 0.229349 0.140095
354 4 0.262943 0.208093 0.152087
255 4 0.363488 0.216351 0.130062
462 4 0.346738 0.223851 0.123653
253 2 0.385345 0.225834 0.122475
254 4 0.407201 0.235317 0.114889
460 2 0.339529 0.225574 0.147532
527 4 0.471749 0.227673 0.154911
526 2 0.480146 0.246128 0.14028
703 2 0.0472524 0.313605 0.142462
704 4 0.0528337 0.293065 0.129343
505 2 0.18734 0.265617 0.106154
507 4 0.194157 0.286778 0.0947121
353 4 0.273815 0.250605 0.128103
755 4 0.271979 0.264604 0.112476
754 2 0.294529 0.272189 0.104785
756 4 0.317078 0.279775 0.0970941
612 4 0.261182 0.286895 0.137555
610 2 0.268588 0.310674 0.139767
740 4 0.326889 0.296666 0.101108
739 2 0.346337 0.311839 0.105195
622 2 0.41289 0.315762 0.160406
624 4 0.410383 0.291642 0.154313
741 4 0.365786 0.327012 0.109283
528 4 0.488543 0.264583 0.125648
519 4 0.473842 0.265394 0.111814
517 2 0.462265 0.266688 0.0896893
705 4 0.0416711 0.334145 0.155582
416 4 0.0879784 0.398389 0.151214
456 4 0.100446 0.351037 0.118551
454 2 0.116793 0.343591 0.101158
415 2 0.090351 0.383655 0.131153
417 4 0.0927237 0.368922 0.111091
611 4 0.275993 0.334453 0.14198
387 4 0.375921 0.372487 0.149173
385 2 0.371243 0.359245 0.128487
386 4 0.366564 0.346002 0.1078
15 3 0.42105 0.3897 0.156595
597 4 0.494711 0.347393 0.145081
1787 4 0.0131512 0.490457 0.115434
1438 2 0.189766 0.495199 0.112402
1439 4 0.214205 0.493063 0.117233
627 4 0.247965 0.458103 0.160446
626 4 0.276887 0.449562 0.120555
625 2 0.262426 0.453832 0.140501
525 4 0.331712 0.488087 0.0776231
658 2 0.40131 0.484868 0.140402
659 4 0.41245 0.463897 0.132573
2387 4 0.461487 0.466165 0.0987269
562 2 0.433519 0.446538 0.0869037
564 4 0.449703 0.451441 0.105321
495 4 0.42531 0.449853 0.136397
1673 4 0.460534 0.463197 0.118994
493 2 0.440769 0.432455 0.145534
494 4 0.456229 0.415057 0.154672
1672 2 0.480846 0.465854 0.133331
1674 4 0.501157 0.468512 0.147668
653 4 0.24602 0.04529 0.18056
652 2 0.226494 0.0598927 0.186098
654 4 0.206968 0.0744955 0.191635
23 3 0.35547 0.0605573 0.20554
21 1 0.357104 0.0634986 0.182582
25 3 0.378394 0.0693429 0.176993
759 4 0.396597 0.0656917 0.184421
17 3 0.0438091 0.103289 0.175891
16 1 0.0293051 0.120838 0.179181
20 3 0.0117376 0.113779 0.191838
18 3 0.040569 0.137932 0.190104
393 4 0.0777321 0.144047 0.214295
2484 4 0.00956056 0.128406 0.245393
450 4 0.0376918 0.155106 0.177142
391 2 0.0801163 0.162034 0.231499
381 4 0.00298628 0.132585 0.192689
693 4 0.14357 0.083121 0.234771
545 4 0.106676 0.119948 0.209475
544 2 0.113274 0.11002 0.231454
691 2 0.162973 0.0841914 0.219037
581 4 0.197056 0.092406 0.19136
692 4 0.182376 0.0852618 0.203304
580 2 0.207299 0.114965 0.187991
582 4 0.217543 0.137524 0.184622
738 4 0.244148 0.157717 0.183255
311 4 0.312576 0.15457 0.175058
29 3 0.326062 0.166669 0.242049
757 2 0.409363 0.0808098 0.199707
22 3 0.342718 0.0802713 0.17619
758 4 0.422129 0.0959279 0.214992
701 4 0.0379871 0.207736 0.206192
700 2 0.039101 0.183011 0.202645
702 4 0.0402148 0.158285 0.199098
392 4 0.0825005 0.18002 0.248703
363 4 0.0443347 0.22623 0.200471
361 2 0.063946 0.239522 0.208464
372 4 0.147362 0.22655 0.202403
370 2 0.16483 0.21379 0.189864
371 4 0.182298 0.201029 0.177325
736 2 0.244228 0.178208 0.168927
310 2 0.317397 0.179099 0.175604
284 4 0.287633 0.217661 0.225426
283 2 0.301062 0.222032 0.204793
312 4 0.322218 0.203627 0.17615
285 4 0.314491 0.226403 0.18416
461 4 0.332319 0.227297 0.171412
764 4 0.333345 0.215085 0.185718
763 2 0.354966 0.214101 0.198237
765 4 0.376588 0.213117 0.210757
362 4 0.0835572 0.252815 0.216456
750 4 0.0835613 0.26849 0.229956
748 2 0.0983965 0.288164 0.234198
749 4 0.113232 0.307839 0.238441
299 4 0.159669 0.32884 0.227928
309 4 0.321435 0.269853 0.25886
647 4 0.0451567 0.345504 0.170901
646 2 0.0511035 0.339526 0.19444
365 4 0.00844142 0.333018 0.223203
648 4 0.0570504 0.333547 0.217979
263 4 0.998342 0.348142 0.213743
302 4 0.293208 0.399386 0.172504
301 2 0.307637 0.417641 0.181655
728 4 0.370113 0.355878 0.229418
13 3 0.384884 0.382035 0.163729
11 1 0.406663 0.380314 0.171547
14 3 0.408564 0.390923 0.192095
645 4 0.408841 0.405245 0.205564
623 4 0.415396 0.339882 0.166499
12 3 0.411893 0.358065 0.174152
643 2 0.433205 0.408811 0.209905
1756 2 0.0749233 0.48944 0.193302
1757 4 0.0546624 0.478082 0.184045
291 4 0.162658 0.461464 0.214657
639 4 0.236136 0.454254 0.177172
637 2 0.231481 0.453293 0.20172
289 2 0.185276 0.458967 0.225019
290 4 0.207894 0.456469 0.235381
638 4 0.226826 0.452332 0.226267
768 4 0.224729 0.451324 0.246427
766 2 0.240032 0.43201 0.25067
303 4 0.322066 0.435896 0.190806
110 3 0.475685 0.421328 0.218054
644 4 0.457569 0.412378 0.214246
106 1 0.497555 0.421932 0.211732
1568 4 0.498219 0.456824 0.230573
674 4 0.0790898 0.0659673 0.248739
511 2 0.0499959 0.0675618 0.287413
428 4 0.073621 0.00470551 0.308062
512 4 0.0748012 0.0672749 0.290543
317 4 0.0429441 0.0300284 0.325827
675 4 0.10312 0.0221183 0.24802
673 2 0.0911051 0.0440428 0.24838
1403 4 0.0999921 0.00179673 0.24551
721 2 0.140774 0.0784264 0.270567
723 4 0.15178 0.0723103 0.292169
1464 4 0.165526 0.0587772 0.291226
427 2 0.0889694 0.00513012 0.327795
1462 2 0.18241 0.040501 0.29369
1463 4 0.199295 0.0222248 0.296154
744 4 0.406385 0.0725245 0.25382
479 4 0.470459 0.0542878 0.255825
478 2 0.487167 0.0405867 0.268407
531 4 0.00947748 0.0788516 0.281721
513 4 0.0251907 0.0678488 0.284283
2483 4 0.0231833 0.086294 0.268669
2482 2 0.0163719 0.10735 0.257031
546 4 0.119872 0.100092 0.253433
722 4 0.129769 0.0845425 0.248965
732 4 0.168903 0.0887754 0.330839
598 2 0.182138 0.127031 0.312067
600 4 0.179522 0.102701 0.317207
599 4 0.184753 0.15136 0.306927
247 2 0.217557 0.156668 0.278923
249 4 0.197106 0.157988 0.293247
404 4 0.178827 0.166536 0.293508
474 4 0.207176 0.173417 0.301648
248 4 0.238008 0.155348 0.264599
631 2 0.311927 0.104035 0.3209
632 4 0.327889 0.111935 0.303351
30 3 0.307345 0.163474 0.274562
26 1 0.325314 0.173037 0.264349
742 2 0.411719 0.0968039 0.25651
27 3 0.344581 0.165982 0.274748
743 4 0.417053 0.121083 0.2592
351 4 0.430199 0.128993 0.272353
349 2 0.439657 0.136706 0.294176
350 4 0.449115 0.144419 0.315999
452 4 0.463247 0.152021 0.327475
389 4 0.0802995 0.232107 0.294722
405 4 0.151146 0.182981 0.255245
279 4 0.207916 0.235863 0.247239
403 2 0.164987 0.174758 0.274376
472 2 0.204654 0.183482 0.324397
473 4 0.202132 0.193546 0.347147
28 3 0.323957 0.196146 0.265946
708 4 0.400595 0.174599 0.304769
707 4 0.35648 0.182072 0.282436
706 2 0.378537 0.178335 0.293603
418 2 0.437732 0.238053 0.330586
442 2 0.0795715 0.322191 0.293917
444 4 0.0876938 0.300292 0.302844
390 4 0.0875674 0.281554 0.296409
388 2 0.0839334 0.256831 0.295565
298 2 0.164625 0.331656 0.252273
277 2 0.21884 0.255447 0.258298
278 4 0.229764 0.275031 0.269357
536 4 0.223277 0.293505 0.270719
343 2 0.203856 0.287922 0.307031
344 4 0.217253 0.285778 0.286029
535 2 0.241446 0.310674 0.270175
735 4 0.19831 0.332158 0.323751
307 2 0.328863 0.293241 0.263654
496 2 0.32077 0.326219 0.303057
497 4 0.305759 0.3218 0.322558
498 4 0.335782 0.330638 0.283555
537 4 0.259614 0.327844 0.26963
308 4 0.33629 0.316629 0.268449
727 2 0.354884 0.345461 0.246292
729 4 0.339654 0.335044 0.263165
419 4 0.441569 0.249775 0.308836
443 4 0.0714493 0.344089 0.284991
547 2 0.0457556 0.391272 0.313071
549 4 0.0331627 0.37331 0.32507
2927 4 0.02188 0.355709 0.323191
2926 2 0.0116377 0.332981 0.325116
548 4 0.0583486 0.409233 0.301071
300 4 0.169581 0.334472 0.276618
734 4 0.17448 0.351698 0.284368
733 2 0.186395 0.341928 0.304059
542 4 0.381644 0.361099 0.275224
541 2 0.380796 0.361939 0.300199
543 4 0.379948 0.362778 0.325174
2462 4 0.0218943 0.491298 0.291
602 4 0.0727867 0.41696 0.309807
777 4 0.0691348 0.488063 0.328044
2461 2 0.0105396 0.46922 0.293968
601 2 0.0870737 0.422622 0.290083
603 4 0.101361 0.428284 0.27036
775 2 0.0925332 0.496873 0.327761
414 4 0.150515 0.449448 0.288957
412 2 0.171521 0.455914 0.277036
438 4 0.242769 0.420093 0.324087
1436 4 0.216799 0.468586 0.250598
413 4 0.192527 0.46238 0.265116
1435 2 0.224964 0.491708 0.245709
1557 4 0.212522 0.465611 0.271491
1555 2 0.220708 0.464614 0.295096
1556 4 0.228894 0.463617 0.3187
767 4 0.255334 0.412697 0.254913
436 2 0.249746 0.415951 0.300437
437 4 0.256723 0.411809 0.276786
445 2 0.400742 0.406058 0.327073
712 2 0.398532 0.486457 0.278027
713 4 0.387959 0.468484 0.291824
446 4 0.411425 0.428664 0.327013
1772 4 0.0123315 0.00587325 0.40199
316 2 0.0478383 0.0475851 0.342944
318 4 0.0527324 0.0651418 0.360061
2757 4 0.00592398 0.0459331 0.37145
730 2 0.148585 0.0745065 0.333802
429 4 0.104318 0.00555473 0.347529
731 4 0.128268 0.0602375 0.336765
1701 4 0.217685 0.0211333 0.387497
441 4 0.231132 0.0325187 0.377758
439 2 0.22117 0.0553856 0.379507
440 4 0.211209 0.0782524 0.381255
683 4 0.263919 0.0414824 0.35561
682 2 0.273376 0.0646141 0.356425
698 4 0.333157 0.0589183 0.341066
699 4 0.366615 0.0306646 0.365211
697 2 0.349886 0.0447915 0.353138
399 4 0.0966857 0.113054 0.407989
398 4 0.0981259 0.149083 0.37334
397 2 0.0974058 0.131069 0.390665
687 4 0.146262 0.155466 0.40357
605 4 0.184694 0.0986974 0.336072
606 4 0.203379 0.097612 0.382444
604 2 0.194036 0.0981547 0.359258
684 4 0.282833 0.0877459 0.35724
633 4 0.295965 0.0961358 0.33845
468 4 0.279653 0.102761 0.346357
726 4 0.300094 0.0955268 0.357037
467 4 0.265222 0.148125 0.361672
466 2 0.272438 0.125443 0.354014
724 2 0.317322 0.0908432 0.374542
725 4 0.33455 0.0861597 0.392048
257 4 0.402396 0.110437 0.412397
514 2 0.435264 0.124497 0.397552
515 4 0.449465 0.14384 0.390527
451 2 0.452327 0.148104 0.349624
453 4 0.441408 0.144186 0.371774
516 4 0.421062 0.105153 0.404576
2653 2 0.00218321 0.220871 0.395317
2655 4 0.00815882 0.241592 0.407971
401 4 0.186234 0.239089 0.390675
276 4 0.22649 0.21239 0.350829
274 2 0.237001 0.225923 0.369038
275 4 0.247512 0.239455 0.387247
375 4 0.241252 0.250742 0.40209
306 4 0.427603 0.198356 0.384167
304 2 0.449288 0.210598 0.381908
305 4 0.470972 0.22284 0.379648
420 4 0.433896 0.226331 0.352336
270 4 0.473561 0.241844 0.372522
2849 4 0.00455379 0.260679 0.413218
618 4 0.0745629 0.322004 0.372073
616 2 0.0522902 0.320336 0.383313
617 4 0.0300176 0.318668 0.394552
677 4 0.152359 0.322422 0.347029
676 2 0.168833 0.303628 0.346283
345 4 0.190458 0.290066 0.328033
678 4 0.185308 0.284833 0.345536
400 2 0.192724 0.256596 0.374045
402 4 0.199213 0.274103 0.357414
503 4 0.177016 0.322341 0.412591
502 2 0.183059 0.34554 0.419694
508 2 0.258566 0.317555 0.395948
509 4 0.258676 0.325704 0.37231
377 4 0.2972 0.307574 0.335069
378 4 0.256428 0.329759 0.353674
376 2 0.276814 0.318666 0.344372
489 4 0.292542 0.277058 0.382514
487 2 0.308994 0.26437 0.396426
435 4 0.310747 0.309649 0.35045
433 2 0.326979 0.32455 0.362268
488 4 0.325447 0.251683 0.410337
269 4 0.490225 0.277164 0.341288
268 2 0.481893 0.259504 0.356905
681 4 0.033017 0.36139 0.340706
679 2 0.0323231 0.370358 0.364035
680 4 0.0316292 0.379327 0.387364
407 4 0.0712734 0.359804 0.369139
406 2 0.0877579 0.377067 0.361693
408 4 0.104242 0.394329 0.354247
667 2 0.21859 0.380956 0.398086
504 4 0.189103 0.36874 0.426797
669 4 0.202081 0.378159 0.416655
636 4 0.176672 0.383204 0.435691
634 2 0.170892 0.401117 0.419232
668 4 0.2351 0.383754 0.379518
614 4 0.329735 0.40951 0.336826
447 4 0.390059 0.383452 0.327133
615 4 0.370529 0.381989 0.327927
613 2 0.350132 0.395749 0.332376
434 4 0.343211 0.33945 0.374086
753 4 0.435448 0.401432 0.402748
501 4 0.124489 0.492607 0.341315
499 2 0.135769 0.478785 0.358833
500 4 0.147049 0.464962 0.376351
635 4 0.165112 0.41903 0.402773
1716 4 0.362916 0.482357 0.396121
1714 2 0.381425 0.471716 0.383107
5 3 0.343797 0.485763 0.408768
1715 4 0.399934 0.461075 0.370093
588 4 0.417121 0.448508 0.367164
593 4 0.414831 0.468452 0.360535
592 2 0.419784 0.488325 0.346193
117 3 0.488879 0.456609 0.339612
120 3 0.475759 0.42548 0.355479
116 1 0.493706 0.434766 0.344975
586 2 0.430598 0.433432 0.38187
587 4 0.444075 0.418357 0.396576
2586 4 0.00786316 0.0718276 0.428191
1600 2 0.13376 0.0192754 0.414836
1602 4 0.136915 0.0439629 0.417235
369 4 0.103102 0.0459104 0.429168
367 2 0.0943551 0.0661231 0.441006
1817 4 0.2531 0.0150101 0.481308
961 2 0.303105 0.05601 0.475264
962 4 0.297583 0.0316725 0.476802
1816 2 0.256849 0.998931 0.462531
963 4 0.308628 0.0803475 0.473726
258 4 0.374525 0.0725136 0.429301
424 2 0.379971 0.0545684 0.466302
425 4 0.38948 0.0397755 0.484076
426 4 0.370461 0.0693613 0.448528
1580 4 0.487196 0.012918 0.44562
1579 2 0.462604 0.0170664 0.443827
1581 4 0.438012 0.0212148 0.442035
720 4 0.0197763 0.0873733 0.42416
458 4 0.0216797 0.14299 0.44443
718 2 0.0243569 0.106752 0.439281
719 4 0.0289374 0.126131 0.454402
457 2 0.037037 0.161535 0.451169
368 4 0.0856086 0.0863357 0.452843
685 2 0.154723 0.153285 0.426997
686 4 0.163185 0.151104 0.450424
1151 4 0.197631 0.111989 0.49518
1150 2 0.183481 0.123782 0.478273
1152 4 0.16933 0.135574 0.461365
432 4 0.309369 0.0964781 0.460493
321 4 0.269215 0.154837 0.429649
319 2 0.273766 0.151818 0.454049
430 2 0.322803 0.11534 0.451062
320 4 0.278317 0.148799 0.478449
431 4 0.336236 0.134201 0.44163
256 2 0.388461 0.0914754 0.420849
348 4 0.0130111 0.247678 0.426471
346 2 0.0288252 0.235655 0.441654
347 4 0.0446394 0.223632 0.456837
459 4 0.0523944 0.180081 0.457908
259 2 0.119023 0.183294 0.476657
261 4 0.137323 0.196759 0.466216
1035 4 0.144747 0.213596 0.471994
1033 2 0.163798 0.222629 0.485434
260 4 0.100724 0.169829 0.487098
1034 4 0.182849 0.231663 0.498874
411 4 0.285364 0.163887 0.489071
409 2 0.293527 0.185992 0.497431
716 4 0.341657 0.199447 0.432041
715 2 0.336437 0.223846 0.430428
575 4 0.386003 0.227034 0.463
574 2 0.377404 0.206212 0.473848
576 4 0.368805 0.18539 0.484696
266 4 0.382896 0.242361 0.44883
325 2 0.155322 0.312843 0.496383
327 4 0.138891 0.317152 0.478036
510 4 0.258457 0.309405 0.419585
373 2 0.238086 0.251417 0.426883
374 4 0.234919 0.252092 0.451677
650 4 0.252432 0.285729 0.462223
651 4 0.291952 0.302474 0.436561
649 2 0.272192 0.294101 0.449392
717 4 0.331218 0.248246 0.428815
265 2 0.397118 0.256237 0.464008
267 4 0.41134 0.270114 0.479186
585 4 0.48193 0.282402 0.49406
872 4 0.416787 0.2674 0.497518
584 4 0.458423 0.310832 0.460298
583 2 0.470176 0.296617 0.477179
560 4 0.453153 0.330193 0.460019
384 4 0.0830472 0.397731 0.47915
773 4 0.198465 0.384419 0.437678
772 2 0.213926 0.374302 0.454524
774 4 0.229386 0.364184 0.471369
710 4 0.228233 0.355392 0.489485
336 4 0.324418 0.385179 0.426564
240 4 0.370288 0.384752 0.473196
334 2 0.337813 0.388028 0.447484
335 4 0.351208 0.390877 0.468404
238 2 0.367949 0.399397 0.493326
559 2 0.440105 0.351268 0.463301
561 4 0.427056 0.372343 0.466584
752 4 0.433766 0.380604 0.44818
925 2 0.431512 0.404078 0.485787
1011 4 0.495292 0.36649 0.487268
751 2 0.434607 0.391018 0.425464
926 4 0.431705 0.392831 0.463457
382 2 0.0739025 0.417787 0.490952
3 3 0.327794 0.459733 0.430768
1 1 0.333869 0.482051 0.428925
4 3 0.315138 0.495567 0.431132
2 3 0.348725 0.487127 0.445737
1126 2 0.0647665 0.0393861 0.521486
1127 4 0.0538979 0.0174522 0.526581
1128 4 0.0756351 0.06132 0.516391
937 2 0.117631 0.0604547 0.506987
938 4 0.141612 0.0649968 0.501561
939 4 0.0936496 0.0559125 0.512413
2428 2 0.154486 0.0127612 0.558233
2429 4 0.137446 0.000933101 0.544272
2430 4 0.171527 0.0245894 0.572194
1218 4 0.470657 0.997319 0.554203
640 2 0.462473 0.0665395 0.512556
641 4 0.447254 0.0472416 0.507954
4467 4 0.499784 0.0137263 0.58325
1061 4 0.496035 0.00369409 0.498863
642 4 0.477691 0.0858375 0.517158
1154 4 0.118997 0.156555 0.582761
1182 4 0.227788 0.0936055 0.545036
1031 4 0.214636 0.0876317 0.558933
1181 4 0.265831 0.0900573 0.512775
1180 2 0.246809 0.0918314 0.528906
1193 4 0.396663 0.159481 0.579025
877 2 0.0365863 0.186636 0.533519
1272 4 0.0693591 0.17806 0.563389
879 4 0.0561017 0.183124 0.548751
878 4 0.0170708 0.190148 0.518288
470 4 0.00560821 0.179982 0.504893
1271 4 0.1186 0.171755 0.569413
1270 2 0.0939796 0.174907 0.566401
1220 4 0.214929 0.200608 0.538184
1219 2 0.221443 0.223561 0.545662
1221 4 0.227956 0.246514 0.553139
695 4 0.198691 0.243556 0.507843
791 4 0.304375 0.23618 0.538468
410 4 0.30169 0.208097 0.505792
1136 4 0.107889 0.304178 0.534663
1135 2 0.100589 0.319254 0.553227
1137 4 0.0932883 0.334329 0.57179
326 4 0.171753 0.308533 0.51473
9 3 0.170764 0.324872 0.528029
6 1 0.186041 0.313628 0.541393
8 3 0.186945 0.291259 0.535292
10 3 0.206647 0.323094 0.539294
7 3 0.17923 0.315087 0.563317
696 4 0.179181 0.288745 0.516675
711 4 0.222356 0.333387 0.534004
694 2 0.188936 0.26615 0.512259
1259 4 0.186176 0.322012 0.579922
790 2 0.321497 0.253939 0.542546
802 2 0.302329 0.298019 0.578557
804 4 0.317128 0.314782 0.56737
792 4 0.338619 0.271699 0.546623
812 4 0.344477 0.28221 0.562122
811 2 0.364072 0.290299 0.548863
813 4 0.383666 0.298388 0.535604
873 4 0.401876 0.302279 0.530104
871 2 0.409331 0.284839 0.513811
1010 4 0.503281 0.328637 0.518955
897 4 0.161376 0.395466 0.571176
895 2 0.136606 0.392264 0.570009
896 4 0.111835 0.389062 0.568843
1160 4 0.167215 0.408629 0.555557
709 2 0.225295 0.344389 0.511744
239 4 0.365611 0.414043 0.513456
1009 2 0.499287 0.347563 0.503111
383 4 0.0647579 0.437844 0.502755
539 4 0.0851519 0.505188 0.541383
1159 2 0.188768 0.421097 0.553279
1161 4 0.210322 0.433565 0.551001
1171 2 0.244516 0.44928 0.55375
1173 4 0.228779 0.432102 0.54467
1172 4 0.260254 0.466457 0.56283
882 4 0.32109 0.472914 0.51716
1187 4 0.287465 0.496999 0.547237
1186 2 0.27075 0.495048 0.56573
929 4 0.363147 0.422635 0.586713
880 2 0.345656 0.468363 0.516153
1002 4 0.380944 0.434564 0.567364
1000 2 0.383775 0.443986 0.544377
1001 4 0.386606 0.453408 0.521391
881 4 0.370221 0.463812 0.515146
928 2 0.343758 0.438328 0.588438
661 2 0.457372 0.460897 0.536645
663 4 0.43335 0.465306 0.541996
662 4 0.481395 0.456488 0.531293
4085 4 0.489797 0.47412 0.528804
927 4 0.43132 0.415325 0.508118
1059 4 0.105075 0.0268616 0.592088
1058 4 0.125629 0.0539316 0.628768
1057 2 0.115352 0.0403966 0.610428
944 4 0.110906 0.0450312 0.640507
824 4 0.129383 0.0121047 0.65603
951 4 0.314878 0.0318702 0.655664
949 2 0.290327 0.0275411 0.657591
950 4 0.265777 0.023212 0.659519
1092 4 0.324867 0.0397604 0.640995
1090 2 0.342537 0.0221082 0.639833
2281 2 0.4012 0.0105343 0.625735
1091 4 0.360207 0.00445594 0.63867
2282 4 0.423497 0.0199783 0.619503
1082 4 0.073415 0.124839 0.659688
1153 2 0.127773 0.134057 0.589242
1155 4 0.13655 0.111559 0.595722
1030 2 0.216584 0.0865841 0.583838
1282 2 0.227547 0.108933 0.635791
1032 4 0.218531 0.0855364 0.608744
1283 4 0.221193 0.104717 0.611978
1284 4 0.233901 0.113149 0.659603
1210 2 0.25893 0.161547 0.638962
900 4 0.316768 0.104956 0.624502
1211 4 0.261203 0.137103 0.643709
898 2 0.335339 0.121495 0.621907
899 4 0.35391 0.138034 0.619312
830 4 0.365252 0.159208 0.635806
1194 4 0.372448 0.148714 0.621433
887 4 0.351878 0.156031 0.616607
1192 2 0.384555 0.154097 0.600229
3007 2 0.498565 0.0892669 0.625536
3009 4 0.475245 0.0960156 0.631519
809 4 0.45564 0.0924586 0.633668
808 2 0.450901 0.092993 0.658213
1244 4 0.0217984 0.248018 0.650973
1207 2 0.0988274 0.230061 0.658222
1208 4 0.122669 0.233389 0.651465
1212 4 0.256657 0.18599 0.634216
888 4 0.324968 0.197055 0.626282
886 2 0.338423 0.176543 0.621444
829 2 0.377762 0.16641 0.656222
1025 4 0.440347 0.203872 0.648502
1024 2 0.45488 0.208498 0.628689
1026 4 0.469414 0.213124 0.608876
983 4 0.0393422 0.345428 0.631731
982 2 0.0185965 0.336539 0.620971
1041 4 0.0779091 0.341182 0.583299
857 4 0.227974 0.260787 0.625935
856 2 0.229075 0.285701 0.62414
1258 2 0.202443 0.324696 0.59872
858 4 0.230177 0.310616 0.622345
1260 4 0.218711 0.327381 0.617517
796 2 0.239903 0.332362 0.655827
797 4 0.233178 0.327015 0.632346
803 4 0.287529 0.281256 0.589744
1239 4 0.291797 0.287982 0.608111
1237 2 0.296687 0.279098 0.630966
1238 4 0.301576 0.270213 0.65382
1006 2 0.375838 0.325187 0.669434
952 2 0.485831 0.293051 0.61728
953 4 0.47679 0.314226 0.627032
954 4 0.494871 0.271876 0.607529
1039 2 0.069288 0.343219 0.606681
1040 4 0.0606668 0.345257 0.630062
3274 2 0.0402145 0.381068 0.645805
3275 4 0.0524994 0.359354 0.644132
3276 4 0.0279297 0.402781 0.647478
991 2 0.118855 0.337467 0.60246
993 4 0.0967192 0.338882 0.59092
992 4 0.140991 0.336051 0.614001
1189 2 0.221132 0.406342 0.604928
1190 4 0.231167 0.383467 0.603824
1028 4 0.207599 0.378637 0.668898
1007 4 0.393862 0.34138 0.663259
1191 4 0.211097 0.429217 0.606031
1188 4 0.254035 0.493096 0.584223
891 4 0.297399 0.452107 0.645354
889 2 0.301744 0.458239 0.621506
890 4 0.306089 0.46437 0.597659
1953 4 0.322426 0.473179 0.587764
930 4 0.32437 0.454021 0.590164
1175 4 0.243526 0.460901 0.652069
1269 4 0.456544 0.455896 0.625515
1267 2 0.447256 0.47895 0.628236
943 2 0.111413 0.0481809 0.665306
945 4 0.11192 0.0513306 0.690105
1004 4 0.304104 0.0639181 0.699535
1003 2 0.327747 0.0593851 0.70629
1005 4 0.351391 0.0548521 0.713045
43 3 0.406561 0.0741138 0.697168
846 4 0.446906 0.0713184 0.729312
42 3 0.44199 0.0740689 0.709714
2321 4 0.484473 0.0110747 0.713026
2320 2 0.485386 0.00236936 0.736447
844 2 0.465313 0.0660214 0.745384
1163 4 0.486783 0.0182839 0.694636
850 2 0.0692627 0.15586 0.710879
1075 2 0.0220019 0.12146 0.722854
851 4 0.0462644 0.150198 0.718891
1077 4 0.0445692 0.131246 0.72734
864 4 0.0623962 0.13637 0.734831
852 4 0.0922609 0.161522 0.702866
1081 2 0.0901882 0.112924 0.673897
1083 4 0.106961 0.10101 0.688105
909 4 0.125017 0.106698 0.681969
907 2 0.148258 0.114442 0.686974
908 4 0.171499 0.122186 0.691979
1227 4 0.176561 0.130107 0.709501
1225 2 0.187136 0.122186 0.730729
960 4 0.312673 0.115378 0.743695
1141 2 0.410514 0.13887 0.732101
1143 4 0.40057 0.161808 0.731722
1142 4 0.420458 0.115931 0.73248
44 3 0.417071 0.097603 0.725136
41 1 0.423729 0.0873757 0.705401
810 4 0.446162 0.0935274 0.682757
45 3 0.42942 0.103162 0.690004
3270 4 0.47615 0.163074 0.747008
1209 4 0.0749855 0.226733 0.66498
976 2 0.237591 0.239592 0.727348
978 4 0.213846 0.23948 0.73518
1277 4 0.194391 0.236969 0.731236
918 4 0.280016 0.230986 0.717778
977 4 0.261336 0.239704 0.719517
916 2 0.302183 0.237537 0.72731
917 4 0.324351 0.244088 0.736842
1298 4 0.38202 0.170373 0.735644
831 4 0.390273 0.173611 0.676638
1263 4 0.440855 0.235807 0.667848
1261 2 0.441379 0.24099 0.692303
1243 2 0.0249336 0.261997 0.671466
1245 4 0.0280689 0.275976 0.691958
1179 4 0.0122146 0.284928 0.698757
892 2 0.0733791 0.305415 0.714065
894 4 0.0511919 0.306621 0.7026
1177 2 0.997749 0.304805 0.694189
1074 4 0.0984191 0.284377 0.72393
893 4 0.0955663 0.304208 0.72553
1072 2 0.111005 0.273713 0.742719
820 2 0.162798 0.321875 0.74033
821 4 0.164994 0.299155 0.730125
947 4 0.197263 0.286666 0.674654
948 4 0.164792 0.300865 0.709935
946 2 0.181028 0.293766 0.692294
1276 2 0.180765 0.257825 0.733362
1278 4 0.167139 0.278682 0.735487
806 4 0.307926 0.282527 0.66957
1065 4 0.266084 0.333409 0.685517
805 2 0.327803 0.292525 0.680977
1008 4 0.357815 0.308994 0.675609
807 4 0.34768 0.302522 0.692384
1166 4 0.418618 0.277614 0.73266
1262 4 0.441904 0.246173 0.716758
3123 4 0.500525 0.305869 0.674752
3122 4 0.452724 0.291495 0.677793
3121 2 0.476624 0.298682 0.676272
1165 2 0.432839 0.294052 0.745019
997 2 0.47058 0.342216 0.749168
815 4 0.10107 0.371896 0.735683
1067 4 0.150955 0.375211 0.697454
940 2 0.119656 0.389331 0.721464
941 4 0.140117 0.387444 0.707218
942 4 0.0991943 0.391219 0.73571
1066 2 0.174691 0.37981 0.691078
1068 4 0.198426 0.384409 0.684702
1027 2 0.229244 0.382372 0.680845
798 4 0.246628 0.337709 0.679308
1029 4 0.250889 0.386107 0.692792
1063 2 0.285285 0.347612 0.692918
1064 4 0.304487 0.361816 0.700318
1206 4 0.409451 0.404545 0.690654
1099 2 0.481266 0.39546 0.737617
1205 4 0.447776 0.381823 0.713361
1101 4 0.463529 0.391525 0.720439
1204 2 0.428614 0.393184 0.702007
999 4 0.475128 0.366557 0.745702
1280 4 0.0523889 0.429139 0.70435
1281 4 0.07781 0.457204 0.737013
1279 2 0.0650995 0.443172 0.720682
2014 2 0.10383 0.488641 0.734297
2016 4 0.0950198 0.506546 0.71923
2015 4 0.112639 0.470737 0.749363
1176 4 0.253735 0.486508 0.693792
1174 2 0.24863 0.473705 0.67293
1139 4 0.281262 0.443459 0.730438
1228 2 0.371613 0.453087 0.739079
1230 4 0.347636 0.44675 0.742258
1229 4 0.395591 0.459424 0.735901
1249 2 0.482584 0.481362 0.733997
1250 4 0.474435 0.494008 0.714027
1197 4 0.139788 0.00639011 0.795852
1202 4 0.114618 0.0662384 0.78663
1201 2 0.0974493 0.084403 0.785937
839 4 0.261201 0.0797208 0.797352
1255 2 0.280363 0.0400544 0.801531
1256 4 0.268711 0.0610098 0.79444
1257 4 0.292016 0.019099 0.808621
975 4 0.289496 0.0152007 0.827095
1112 4 0.461305 0.0137902 0.812639
845 4 0.48372 0.0607245 0.761455
980 4 0.45111 0.0115621 0.8302
1111 2 0.464819 0.00655106 0.788966
1113 4 0.468333 0.999312 0.765292
150 3 0.50523 0.0700035 0.826811
862 2 0.0652302 0.11852 0.752108
834 4 0.0134504 0.127357 0.830336
863 4 0.0680641 0.100669 0.769385
1107 4 0.0456115 0.148159 0.739432
1105 2 0.0353307 0.167187 0.751979
1203 4 0.0802811 0.102568 0.785245
35 3 0.107606 0.151281 0.821917
1131 4 0.159655 0.161506 0.776727
1226 4 0.197712 0.114265 0.751956
838 2 0.246417 0.0909084 0.814128
1148 4 0.216392 0.119964 0.758878
1149 4 0.216374 0.146467 0.801284
1147 2 0.216383 0.133216 0.780081
840 4 0.231632 0.102096 0.830904
958 2 0.296631 0.128907 0.757288
959 4 0.280588 0.142437 0.770882
1086 4 0.376716 0.115358 0.803406
1084 2 0.389125 0.110731 0.824615
3478 2 0.495384 0.103001 0.797951
3268 2 0.491174 0.145336 0.756216
3479 4 0.494923 0.121139 0.780748
1146 4 0.457855 0.161727 0.754572
3480 4 0.495845 0.0848621 0.815155
1106 4 0.0250499 0.186214 0.764526
1130 4 0.15359 0.210917 0.781462
1129 2 0.156622 0.186212 0.779094
1297 2 0.378357 0.172082 0.760319
1299 4 0.374693 0.173792 0.784993
47 3 0.386496 0.171597 0.800237
46 1 0.400263 0.186066 0.81165
1043 4 0.403194 0.225561 0.801128
49 3 0.394271 0.207853 0.806375
1042 2 0.385385 0.231821 0.784732