ITEM: TIMESTEP
70000
ITEM: NUMBER OF ATOMS
4590
ITEM: BOX BOUNDS pp pp pp
-9.9985700000000008e+00 9.9985700000000008e+00
-9.9985700000000008e+00 9.9985700000000008e+00
-9.9985700000000008e+00 9.9985700000000008e+00
ITEM: ATOMS id type xs ys zs
463 2 0.062765 0.0377382 0.0174597
465 4 0.0473501 0.057369 0.0159797
1667 4 0.0718454 0.0162567 0.06664
464 4 0.0781799 0.0181074 0.0189397
532 2 0.196115 0.0471803 0.021782
534 4 0.18265 0.0489157 0.0427792
490 2 0.27047 0.0480374 0.0364254
491 4 0.275792 0.0418583 0.0600616
492 4 0.265148 0.0542166 0.0127891
295 2 0.392338 0.0702052 0.0754802
296 4 0.394423 0.084972 0.055411
745 2 0.445208 0.0598243 0.0528367
746 4 0.433461 0.0385546 0.0469386
747 4 0.456955 0.0810939 0.0587349
2975 4 0.480719 0.0732976 0.0097836
702 4 0.0750764 0.0843393 0.0868209
589 2 0.0305959 0.113697 0.0593929
590 4 0.00746401 0.108449 0.0673017
591 4 0.0537278 0.118945 0.0514841
421 2 0.118784 0.132865 0.00843331
423 4 0.101702 0.13161 0.0266488
565 2 0.226084 0.123915 0.0670104
566 4 0.235364 0.103941 0.0551751
567 4 0.216804 0.14389 0.0788457
358 2 0.281136 0.134072 0.0287658
359 4 0.268721 0.117868 0.0143267
360 4 0.29355 0.150276 0.0432049
556 2 0.352362 0.124672 0.0577654
557 4 0.342016 0.120989 0.0353026
558 4 0.362707 0.128355 0.0802283
553 2 0.0659725 0.214877 0.00916863
555 4 0.061657 0.197998 0.0271042
476 4 0.123105 0.166475 0.0755677
571 2 0.319133 0.235267 0.0484137
573 4 0.295211 0.241182 0.0526467
572 4 0.343055 0.229351 0.0441806
664 2 0.342878 0.198531 0.0119539
665 4 0.3597 0.194964 0.0301054
255 4 0.363603 0.194651 0.0829734
324 4 0.403421 0.241439 0.0649603
1071 4 0.403581 0.235756 0.00652938
771 4 0.441554 0.185557 0.0524467
770 4 0.487476 0.187076 0.0721843
769 2 0.464515 0.186317 0.0623155
1014 4 0.490001 0.211972 0.00185803
292 2 0.111652 0.293247 0.00590183
294 4 0.0943837 0.308692 0.0153056
914 4 0.181581 0.255498 0.0121166
483 4 0.226337 0.29711 0.0376857
505 2 0.195493 0.289688 0.0605137
507 4 0.185495 0.308351 0.0472123
506 4 0.205491 0.271025 0.0738151
481 2 0.249505 0.305989 0.040783
355 2 0.265391 0.266635 0.00231111
357 4 0.269974 0.26874 0.0268009
482 4 0.272672 0.314868 0.0438804
957 4 0.323724 0.325633 0.996618
1069 2 0.412343 0.259057 0.00886334
280 2 0.471661 0.308483 0.0213391
281 4 0.484051 0.308802 0.0430545
322 2 0.422538 0.25754 0.0642498
323 4 0.441654 0.273641 0.0635392
1070 4 0.421105 0.282359 0.0111973
328 2 0.0119392 0.402238 0.00880637
330 4 0.0212364 0.389645 0.0283041
552 4 0.0755888 0.413974 0.0413826
288 4 0.167764 0.396233 0.013561
454 2 0.133338 0.357563 0.0746197
455 4 0.152478 0.372348 0.0682766
286 2 0.177576 0.373267 0.0123507
287 4 0.187388 0.350301 0.0111404
252 4 0.25507 0.379896 0.0518667
250 2 0.27585 0.393801 0.0517683
251 4 0.296631 0.407706 0.0516699
670 2 0.439295 0.348904 0.0772708
671 4 0.458663 0.363798 0.0719556
550 2 0.0636757 0.435907 0.0428648
551 4 0.0517626 0.45784 0.044347
315 4 0.0122308 0.419535 0.062269
241 2 0.165562 0.492487 0.0765002
244 2 0.239742 0.451726 0.0341631
245 4 0.215061 0.450164 0.0304742
243 4 0.184818 0.47654 0.0767759
246 4 0.264422 0.453287 0.037852
271 2 0.287763 0.484895 0.00534206
272 4 0.307543 0.472473 0.0142665
564 4 0.420605 0.479846 0.0493612
227 4 0.496585 0.434278 0.0446964
562 2 0.436196 0.471957 0.0314768
563 4 0.451787 0.464068 0.0135924
16 1 0.0710279 0.0735712 0.149793
19 3 0.0637467 0.0675349 0.128605
2576 4 0.00872809 0.0389856 0.129437
18 3 0.0695379 0.0554071 0.164155
450 4 0.147576 0.0498659 0.121332
20 3 0.0925505 0.0809501 0.148804
448 2 0.169306 0.0568717 0.131526
449 4 0.191036 0.0638776 0.141719
1505 4 0.235764 0.0164765 0.166421
652 2 0.315515 0.0383237 0.151414
654 4 0.294041 0.0504229 0.147213
582 4 0.274374 0.0836692 0.130367
653 4 0.336989 0.0262245 0.155615
297 4 0.390254 0.0554383 0.0955493
1760 4 0.487929 0.00437963 0.128222
17 3 0.0575858 0.0904602 0.157745
700 2 0.0970863 0.0961075 0.0853193
701 4 0.119096 0.107876 0.0838176
235 2 0.156917 0.136378 0.140706
237 4 0.136094 0.146478 0.150172
236 4 0.177739 0.126278 0.131241
580 2 0.275314 0.100482 0.148851
581 4 0.276255 0.117294 0.167334
628 2 0.405072 0.155233 0.14549
462 4 0.347467 0.172046 0.0996185
629 4 0.420775 0.142635 0.130661
379 2 0.0257486 0.165962 0.162989
380 4 0.00694944 0.178418 0.15219
656 4 0.0210994 0.248049 0.0997925
475 2 0.130867 0.168568 0.0992434
477 4 0.13863 0.170661 0.122919
337 2 0.0995813 0.247994 0.127771
338 4 0.118199 0.250352 0.144293
339 4 0.0809633 0.245636 0.111248
736 2 0.179095 0.200685 0.125621
737 4 0.16989 0.205843 0.102953
738 4 0.188301 0.195528 0.148289
354 4 0.224163 0.219051 0.116782
352 2 0.247093 0.229005 0.117357
353 4 0.270022 0.238959 0.117932
460 2 0.332071 0.183625 0.115559
461 4 0.316676 0.195204 0.131499
254 4 0.403604 0.166555 0.0935194
253 2 0.383604 0.180603 0.0882464
630 4 0.389369 0.167832 0.160319
517 2 0.476782 0.230251 0.107766
518 4 0.483338 0.206141 0.106792
705 4 0.016566 0.32593 0.169222
655 2 0.000717602 0.262503 0.098885
703 2 0.0106418 0.301844 0.166061
704 4 0.00471754 0.277759 0.162899
754 2 0.277974 0.30535 0.120119
755 4 0.291012 0.286705 0.130491
756 4 0.264937 0.323994 0.109746
741 4 0.326576 0.3091 0.107942
622 2 0.385255 0.266179 0.147648
624 4 0.363153 0.272799 0.138012
739 2 0.343174 0.325912 0.0997544
623 4 0.407358 0.25956 0.157283
519 4 0.470227 0.25436 0.108739
619 2 0.00260617 0.346357 0.106074
620 4 0.0161033 0.367271 0.108438
456 4 0.114198 0.342777 0.0809628
537 4 0.151262 0.356216 0.149369
535 2 0.17047 0.344285 0.16004
625 2 0.213333 0.408217 0.106112
626 4 0.217065 0.386676 0.0939776
607 2 0.323588 0.413443 0.0948487
609 4 0.302495 0.403391 0.10375
610 2 0.273153 0.359947 0.165749
612 4 0.279359 0.377781 0.149359
740 4 0.359773 0.342724 0.0915663
387 4 0.355466 0.378068 0.140982
15 3 0.408775 0.364183 0.130738
385 2 0.363372 0.378835 0.117274
386 4 0.371279 0.379602 0.0935655
11 1 0.403918 0.361105 0.152775
12 3 0.40962 0.339669 0.158867
13 3 0.381196 0.364134 0.156372
14 3 0.41605 0.376061 0.165719
495 4 0.42478 0.407727 0.111868
597 4 0.47243 0.386629 0.160138
672 4 0.419928 0.33401 0.082586
313 2 0.00376455 0.43387 0.0809243
416 4 0.131385 0.445201 0.163696
627 4 0.209602 0.429758 0.118247
639 4 0.233565 0.471439 0.129505
637 2 0.249604 0.471349 0.148686
638 4 0.265643 0.471259 0.167867
608 4 0.34468 0.423494 0.0859471
523 2 0.342161 0.490506 0.103957
525 4 0.336546 0.475983 0.123521
658 2 0.400067 0.472548 0.148007
659 4 0.414141 0.489156 0.135708
660 4 0.385993 0.45594 0.160306
493 2 0.439444 0.425746 0.121115
494 4 0.454107 0.443764 0.130361
2480 4 0.00677374 0.0348603 0.183515
673 2 0.120793 0.0416241 0.217151
674 4 0.144082 0.0374467 0.209069
675 4 0.0975035 0.0458016 0.225234
689 4 0.215281 0.00728603 0.229623
1506 4 0.269684 0.998339 0.198376
1504 2 0.252724 0.00740796 0.182398
21 1 0.374249 0.0526305 0.234438
23 3 0.373401 0.0314305 0.243831
24 3 0.359512 0.0539706 0.216565
25 3 0.395428 0.057171 0.227403
759 4 0.39838 0.0574232 0.2081
758 4 0.432111 0.0706997 0.173653
757 2 0.415246 0.0640614 0.190877
742 2 0.445931 0.054278 0.251429
743 4 0.46009 0.0739885 0.245412
381 4 0.0445478 0.153506 0.173788
511 2 0.0213341 0.154091 0.233799
512 4 0.00176376 0.162476 0.220688
513 4 0.0409045 0.145707 0.246909
577 2 0.095019 0.109162 0.215818
578 4 0.0982931 0.133529 0.211271
579 4 0.0917448 0.084794 0.220366
723 4 0.187626 0.0960368 0.226169
691 2 0.235351 0.0901384 0.191151
693 4 0.213673 0.0949752 0.179668
721 2 0.182059 0.111831 0.244735
692 4 0.257028 0.0853017 0.202634
30 3 0.296006 0.153235 0.22503
26 1 0.31204 0.138089 0.230701
28 3 0.304561 0.116587 0.226212
27 3 0.330989 0.142113 0.218296
310 2 0.409015 0.120856 0.195948
312 4 0.394589 0.114467 0.17655
311 4 0.42344 0.127244 0.215345
363 4 0.0729228 0.235606 0.185909
394 2 0.0115966 0.230902 0.208835
395 4 0.0317082 0.240788 0.197746
391 2 0.096528 0.191107 0.242823
392 4 0.0957614 0.183893 0.218895
370 2 0.15616 0.240995 0.238719
371 4 0.163529 0.221338 0.252302
284 4 0.236523 0.217597 0.162527
283 2 0.25434 0.202657 0.171722
285 4 0.272156 0.187718 0.180918
765 4 0.375157 0.236935 0.235611
764 4 0.38381 0.22501 0.187824
763 2 0.379483 0.230972 0.211718
520 2 0.463559 0.210489 0.237463
521 4 0.449712 0.216388 0.217497
528 4 0.454476 0.257002 0.186892
648 4 0.0790288 0.326661 0.174897
361 2 0.082592 0.256656 0.195322
362 4 0.0922613 0.277706 0.204734
372 4 0.148791 0.260651 0.225135
300 4 0.125741 0.326233 0.254167
279 4 0.223136 0.25575 0.184818
343 2 0.234174 0.292029 0.23586
344 4 0.237466 0.26738 0.238463
345 4 0.230881 0.316678 0.233257
277 2 0.246187 0.265039 0.182067
536 4 0.189678 0.332354 0.170711
278 4 0.269237 0.274328 0.179316
307 2 0.3064 0.282315 0.229418
309 4 0.300674 0.294456 0.208324
527 4 0.498913 0.279703 0.183622
526 2 0.476695 0.268353 0.185257
262 2 0.0304554 0.411996 0.216371
264 4 0.00986996 0.410583 0.230492
646 2 0.0891137 0.348999 0.179843
298 2 0.137591 0.3414 0.238208
299 4 0.149441 0.356567 0.222248
647 4 0.0991987 0.371338 0.184789
417 4 0.155413 0.404066 0.178905
611 4 0.266947 0.342114 0.182139
301 2 0.331977 0.413969 0.192569
302 4 0.356369 0.408531 0.193376
595 2 0.493821 0.398592 0.165088
643 2 0.443069 0.372581 0.214371
644 4 0.437099 0.386826 0.234033
645 4 0.449039 0.358335 0.194708
263 4 0.0510408 0.413409 0.202249
2618 4 0.0132064 0.474401 0.201616
415 2 0.143399 0.424633 0.1713
291 4 0.180057 0.449701 0.191933
289 2 0.202491 0.438805 0.190148
290 4 0.224925 0.42791 0.188363
768 4 0.240083 0.462565 0.216244
303 4 0.307586 0.419407 0.191762
767 4 0.284529 0.485374 0.214013
766 2 0.262306 0.473969 0.215129
229 2 0.389913 0.487314 0.247164
231 4 0.377828 0.467191 0.255777
1568 4 0.490979 0.506026 0.211362
232 2 0.000314648 0.0486711 0.275137
233 4 0.0105863 0.0310719 0.289626
1402 2 0.0781625 0.0105174 0.27492
1464 4 0.146967 0.0126216 0.286507
1403 4 0.0906157 0.0225044 0.256853
730 2 0.156199 0.0787457 0.308748
731 4 0.165563 0.0824888 0.285868
732 4 0.146835 0.0750026 0.331628
688 2 0.215263 0.00611165 0.254599
690 4 0.215244 0.00493727 0.279575
1699 2 0.257918 0.998675 0.320539
1700 4 0.264 0.998768 0.296286
22 3 0.368076 0.0680629 0.25034
744 4 0.431772 0.0345675 0.257446
478 2 0.478338 0.0302587 0.310174
480 4 0.468629 0.0128936 0.295029
351 4 0.439439 0.0647439 0.303336
479 4 0.488047 0.0476238 0.325318
2756 4 0.00589701 0.0875155 0.322104
529 2 0.0371443 0.138062 0.287148
530 4 0.0561376 0.153708 0.291579
531 4 0.0181509 0.122416 0.282716
399 4 0.108085 0.103384 0.33879
546 4 0.175513 0.146653 0.265319
722 4 0.176493 0.127626 0.263302
249 4 0.215972 0.10996 0.292778
247 2 0.237017 0.102431 0.281571
403 2 0.217658 0.15323 0.30171
404 4 0.213736 0.128538 0.301982
29 3 0.317244 0.140126 0.253221
248 4 0.258062 0.0949011 0.270364
631 2 0.353455 0.0995623 0.299063
632 4 0.344214 0.0874897 0.279212
633 4 0.362695 0.111635 0.318913
331 2 0.457023 0.145919 0.262704
332 4 0.480339 0.145708 0.271732
333 4 0.433708 0.146129 0.253675
349 2 0.447 0.0864581 0.31316
350 4 0.454562 0.108172 0.322983
444 4 0.0423546 0.239839 0.289443
393 4 0.0972945 0.198321 0.266751
544 2 0.177458 0.170578 0.258321
545 4 0.179403 0.194504 0.251323
405 4 0.22158 0.177923 0.301437
706 2 0.329839 0.195411 0.301412
708 4 0.32867 0.18129 0.322013
473 4 0.271133 0.171624 0.335616
707 4 0.331008 0.209533 0.280811
420 4 0.424654 0.234273 0.282989
418 2 0.433076 0.238618 0.306127
419 4 0.441498 0.242963 0.329265
522 4 0.477407 0.204589 0.257428
762 4 0.468172 0.181086 0.27188
761 4 0.473248 0.208106 0.313652
760 2 0.47071 0.194596 0.292766
443 4 0.000293415 0.266435 0.284523
748 2 0.0809368 0.284359 0.258935
750 4 0.0654826 0.265098 0.262854
442 2 0.021324 0.253137 0.286983
366 4 0.0222594 0.33691 0.264719
390 4 0.0973355 0.253273 0.315489
749 4 0.0963911 0.30362 0.255016
388 2 0.117543 0.267662 0.312359
389 4 0.137751 0.28205 0.309229
677 4 0.13523 0.331296 0.312553
400 2 0.205359 0.264633 0.320404
402 4 0.22593 0.272829 0.308792
401 4 0.184789 0.256438 0.332017
308 4 0.312127 0.270174 0.250513
496 2 0.304527 0.28361 0.296285
497 4 0.32057 0.266613 0.305168
498 4 0.288484 0.300606 0.287401
543 4 0.398149 0.315087 0.293434
615 4 0.353989 0.293403 0.319358
613 2 0.363941 0.315945 0.323597
541 2 0.420616 0.305347 0.298488
542 4 0.443083 0.295608 0.303541
364 2 0.0103757 0.34921 0.282959
365 4 0.998492 0.361509 0.301199
601 2 0.0705342 0.393126 0.295005
602 4 0.060815 0.414989 0.287744
548 4 0.0603987 0.416975 0.333462
603 4 0.0802535 0.371263 0.302266
734 4 0.164337 0.358803 0.25435
735 4 0.187481 0.353973 0.298415
733 2 0.175909 0.356388 0.276383
729 4 0.353889 0.35846 0.245761
727 2 0.346312 0.373821 0.263976
728 4 0.338735 0.389183 0.282191
614 4 0.373893 0.338488 0.327837
434 4 0.331828 0.397398 0.326543
447 4 0.419727 0.391756 0.263818
445 2 0.434322 0.383834 0.28251
446 4 0.448917 0.375912 0.301203
777 4 0.0561068 0.478989 0.317795
775 2 0.0804541 0.473581 0.316024
776 4 0.104801 0.468172 0.314254
414 4 0.137569 0.454263 0.285802
412 2 0.155424 0.465561 0.299171
413 4 0.173279 0.476859 0.312541
436 2 0.292089 0.436407 0.286939
437 4 0.300994 0.431305 0.264139
438 4 0.283183 0.441509 0.309739
713 4 0.407326 0.465874 0.301526
712 2 0.428862 0.477046 0.295477
714 4 0.450397 0.488218 0.289428
119 3 0.487374 0.436302 0.323345
316 2 0.0342056 0.0631751 0.356039
317 4 0.0142771 0.0589621 0.37054
318 4 0.0541341 0.067388 0.341538
427 2 0.0942469 0.0227374 0.361272
428 4 0.0932525 0.0365624 0.382082
429 4 0.0952414 0.00891247 0.340462
606 4 0.162222 0.0568899 0.386308
441 4 0.233801 0.0285737 0.390177
604 2 0.18053 0.051038 0.370316
605 4 0.198838 0.0451861 0.354324
1701 4 0.251836 0.998582 0.344791
439 2 0.254948 0.0262889 0.403323
440 4 0.276094 0.0240041 0.416468
698 4 0.372934 0.0351888 0.335978
697 2 0.359216 0.0251249 0.354301
699 4 0.345499 0.015061 0.372624
256 2 0.422583 0.0579037 0.382908
258 4 0.423099 0.0401065 0.400463
257 4 0.422067 0.0757009 0.365353
398 4 0.061879 0.120693 0.346924
397 2 0.0849817 0.112039 0.342857
598 2 0.177403 0.157049 0.352971
474 4 0.228369 0.16933 0.361436
599 4 0.19475 0.14369 0.365044
682 2 0.295723 0.0928046 0.378296
683 4 0.317169 0.0974145 0.366295
684 4 0.274278 0.0881948 0.390297
466 2 0.344357 0.144031 0.402376
467 4 0.355176 0.150486 0.380778
451 2 0.473337 0.149897 0.359282
452 4 0.494447 0.141762 0.348634
453 4 0.452226 0.158031 0.369929
514 2 0.44195 0.142685 0.40708
515 4 0.44298 0.146396 0.382375
2654 4 0.0225252 0.19324 0.377543
600 4 0.160055 0.170408 0.340898
274 2 0.230473 0.248594 0.404328
472 2 0.249751 0.170477 0.348526
276 4 0.249507 0.237861 0.416481
488 4 0.30032 0.233554 0.394226
487 2 0.29636 0.226599 0.417914
715 2 0.357347 0.235504 0.371014
716 4 0.343254 0.215238 0.36703
267 4 0.364606 0.243464 0.417254
617 4 0.0780225 0.314442 0.340177
616 2 0.0768795 0.323659 0.363391
618 4 0.0757364 0.332876 0.386606
676 2 0.138023 0.332204 0.337383
678 4 0.140816 0.333112 0.362214
509 4 0.249397 0.337183 0.336614
275 4 0.21144 0.259328 0.392174
508 2 0.225329 0.332448 0.341464
510 4 0.201262 0.327713 0.346314
375 4 0.192354 0.288487 0.401388
376 2 0.284984 0.302032 0.362826
377 4 0.303765 0.287769 0.354517
378 4 0.266203 0.316295 0.371134
717 4 0.371439 0.25577 0.374997
268 2 0.475416 0.285011 0.382704
269 4 0.474668 0.260021 0.382352
270 4 0.476164 0.310001 0.383057
2927 4 0.012445 0.363085 0.38407
408 4 0.0686654 0.389539 0.406091
406 2 0.0745548 0.405317 0.38761
407 4 0.0804443 0.421096 0.369129
502 2 0.211844 0.402517 0.388716
504 4 0.201538 0.382442 0.377946
435 4 0.284548 0.397272 0.342831
433 2 0.308188 0.397335 0.334687
336 4 0.366178 0.387107 0.401139
561 4 0.430916 0.3468 0.398456
559 2 0.447918 0.352239 0.415964
751 2 0.438453 0.402034 0.391835
752 4 0.447196 0.379101 0.396612
2925 4 0.495784 0.337776 0.393621
547 2 0.0406164 0.425261 0.346314
549 4 0.0208341 0.433548 0.359166
680 4 0.0575105 0.434873 0.417273
499 2 0.103629 0.465732 0.368619
500 4 0.124065 0.454385 0.377495
501 4 0.0831926 0.477079 0.359743
1557 4 0.218019 0.498586 0.385363
503 4 0.22215 0.422591 0.399486
1 1 0.332824 0.468524 0.372652
5 3 0.311309 0.468413 0.365188
4 3 0.335829 0.451745 0.388395
2 3 0.337332 0.48883 0.382475
3 3 0.347392 0.465397 0.354864
594 4 0.399545 0.492926 0.354313
586 2 0.416692 0.449035 0.413343
588 4 0.391905 0.447474 0.410453
587 4 0.441479 0.450595 0.416234
753 4 0.429709 0.424967 0.387058
592 2 0.421909 0.48176 0.353702
593 4 0.444272 0.470594 0.353092
718 2 0.0517778 0.0626612 0.464999
719 4 0.0348934 0.0691811 0.48225
720 4 0.0686623 0.0561413 0.447749
367 2 0.107047 0.0645443 0.457459
369 4 0.114113 0.0471092 0.473929
368 4 0.0999805 0.0819793 0.440989
342 4 0.17501 0.0480212 0.461996
340 2 0.177104 0.0396699 0.48547
430 2 0.31672 0.0773524 0.495921
432 4 0.300758 0.0597124 0.503618
724 2 0.333599 0.0739274 0.438606
726 4 0.319747 0.0774312 0.418087
424 2 0.394733 0.0287422 0.442704
425 4 0.374655 0.0142647 0.446236
426 4 0.41481 0.0432197 0.439172
725 4 0.347451 0.0704235 0.459125
457 2 0.000797971 0.16817 0.437181
458 4 0.00874284 0.14552 0.444185
687 4 0.157275 0.175357 0.422746
1152 4 0.166677 0.0999418 0.472324
938 4 0.081378 0.15143 0.499613
321 4 0.225116 0.120929 0.418173
1150 2 0.176638 0.114104 0.490362
1182 4 0.246328 0.0989009 0.499288
319 2 0.248597 0.12696 0.424292
320 4 0.272078 0.132991 0.43041
468 4 0.333539 0.137575 0.423974
431 4 0.332681 0.0949923 0.488224
574 2 0.376274 0.165169 0.457192
576 4 0.368229 0.14339 0.466472
642 4 0.465417 0.0994904 0.487724
516 4 0.440919 0.138973 0.431786
2880 4 0.493496 0.109477 0.449558
640 2 0.464166 0.121123 0.5002
469 2 0.00783257 0.18803 0.493824
470 4 0.014415 0.211955 0.496896
260 4 0.0870149 0.210379 0.435413
261 4 0.102424 0.190069 0.478433
259 2 0.0947192 0.200224 0.456923
1035 4 0.109629 0.205919 0.488395
685 2 0.181867 0.17213 0.425912
686 4 0.206458 0.168903 0.429078
857 4 0.225377 0.222751 0.500931
411 4 0.272984 0.171462 0.48699
409 2 0.278132 0.195868 0.485257
410 4 0.28328 0.220275 0.483523
489 4 0.2924 0.219645 0.441602
575 4 0.38432 0.186948 0.447912
304 2 0.49186 0.208091 0.429185
305 4 0.476782 0.188162 0.428391
346 2 0.0497435 0.283811 0.424019
348 4 0.0310781 0.269264 0.415945
347 4 0.0684089 0.298357 0.432092
327 4 0.0822852 0.325485 0.454425
694 2 0.104336 0.252194 0.495635
696 4 0.110519 0.259007 0.472386
6 1 0.155561 0.327132 0.48478
9 3 0.144818 0.306777 0.481842
325 2 0.0984424 0.332778 0.436791
373 2 0.205148 0.297117 0.421061
374 4 0.217942 0.305746 0.440734
10 3 0.16757 0.332341 0.466144
651 4 0.251402 0.271231 0.483085
649 2 0.259392 0.293017 0.473774
650 4 0.267382 0.314803 0.464462
265 2 0.361619 0.264105 0.431045
266 4 0.358633 0.284747 0.444836
872 4 0.427268 0.242203 0.492022
583 2 0.470498 0.309107 0.467921
584 4 0.481766 0.297743 0.44871
585 4 0.459231 0.320471 0.487132
681 4 0.0419924 0.41269 0.459318
326 4 0.1146 0.34007 0.419158
7 3 0.139743 0.343436 0.488402
773 4 0.233429 0.409111 0.483691
709 2 0.190608 0.382169 0.446978
710 4 0.196442 0.401879 0.432743
711 4 0.184775 0.362459 0.461214
772 2 0.250736 0.394481 0.494257
334 2 0.356121 0.378244 0.422245
238 2 0.368922 0.38121 0.478553
239 4 0.381438 0.383707 0.500053
240 4 0.356405 0.378714 0.457052
335 4 0.346064 0.369381 0.443352
560 4 0.464919 0.357677 0.433473
926 4 0.451898 0.396373 0.497236
1383 4 0.0343304 0.486308 0.455383
538 2 0.0776673 0.502611 0.495923
679 2 0.0497515 0.423781 0.438296
539 4 0.0630526 0.482597 0.492601
384 4 0.0828651 0.423756 0.495334
569 4 0.144441 0.452296 0.41763
383 4 0.102841 0.430475 0.449985
382 2 0.0928529 0.427115 0.472659
636 4 0.250882 0.452303 0.435527
635 4 0.236843 0.453405 0.483511
634 2 0.243862 0.452854 0.459519
570 4 0.193055 0.454773 0.429084
568 2 0.168748 0.453534 0.423357
669 4 0.276241 0.428617 0.450624
667 2 0.297028 0.425739 0.437029
668 4 0.317814 0.422861 0.423434
1401 4 0.333168 0.502903 0.435064
1126 2 0.0488884 0.0551921 0.533907
1127 4 0.0575471 0.0414999 0.514862
1128 4 0.0402297 0.0688844 0.552953
1057 2 0.143719 0.0571548 0.578037
1058 4 0.157795 0.053569 0.557685
1181 4 0.218221 0.0624624 0.518856
2430 4 0.198692 0.0184345 0.53732
1180 2 0.232275 0.0806816 0.509072
1031 4 0.246295 0.0629169 0.585902
341 4 0.179199 0.0313186 0.508944
961 2 0.287495 0.0265677 0.517567
963 4 0.289696 0.0513606 0.519944
962 4 0.285295 0.00177488 0.51519
841 2 0.374682 0.0761701 0.544948
843 4 0.353569 0.0644936 0.551513
1217 4 0.401987 0.0314009 0.565446
3008 4 0.489002 0.0558617 0.568346
1060 2 0.482489 0.00802854 0.514259
1062 4 0.468841 0.0251002 0.502116
937 2 0.0898644 0.133097 0.514346
939 4 0.0983509 0.114764 0.52908
1154 4 0.142338 0.142967 0.581582
1151 4 0.1866 0.128266 0.5084
842 4 0.395794 0.0878466 0.538383
899 4 0.357907 0.151648 0.557186
641 4 0.462915 0.142755 0.512676
3159 4 0.498325 0.13924 0.545796
877 2 0.0762496 0.222242 0.568817
878 4 0.0647168 0.235695 0.551177
1200 4 0.00306421 0.20076 0.576166
1033 2 0.118666 0.18994 0.505371
1034 4 0.127704 0.173961 0.522347
695 4 0.0981519 0.245381 0.518884
879 4 0.0877824 0.208788 0.586457
856 2 0.21972 0.21522 0.524093
858 4 0.214063 0.207689 0.547255
1221 4 0.186699 0.186571 0.561542
898 2 0.349851 0.171185 0.543822
900 4 0.341796 0.190721 0.530457
871 2 0.41207 0.24561 0.511582
873 4 0.396873 0.249017 0.531142
983 4 0.0225542 0.31472 0.55511
1258 2 0.159964 0.266218 0.575481
1260 4 0.135779 0.260636 0.578495
8 3 0.169612 0.326085 0.503216
1259 4 0.18415 0.271801 0.572467
790 2 0.303669 0.253798 0.574032
792 4 0.288798 0.265321 0.557562
813 4 0.313536 0.309929 0.527377
811 2 0.338057 0.305361 0.529114
812 4 0.362579 0.300793 0.53085
982 2 0.012862 0.333264 0.568797
897 4 0.172362 0.402434 0.570854
802 2 0.280455 0.351404 0.542919
803 4 0.30411 0.35 0.550897
804 4 0.2568 0.352808 0.53494
1190 4 0.260895 0.399551 0.577024
774 4 0.268042 0.37985 0.504822
929 4 0.357387 0.374802 0.558656
925 2 0.466653 0.40234 0.51652
927 4 0.481408 0.408307 0.535804
934 2 0.00923066 0.454124 0.519999
935 4 0.0175706 0.430557 0.520461
1938 4 0.0462649 0.503507 0.551476
1159 2 0.172989 0.435334 0.557184
1161 4 0.174153 0.441165 0.532897
1171 2 0.233131 0.464239 0.558771
1173 4 0.210819 0.45614 0.550912
882 4 0.318955 0.454484 0.523409
1172 4 0.255443 0.472339 0.566629
880 2 0.343375 0.454818 0.528768
881 4 0.367795 0.455152 0.534128
1000 2 0.419913 0.452216 0.573529
1001 4 0.440226 0.439957 0.565637
662 4 0.474087 0.467677 0.513255
661 2 0.454223 0.482278 0.509082
663 4 0.43436 0.496879 0.504908
1185 4 0.0160833 0.0468478 0.65408
1059 4 0.129644 0.0607406 0.598389
825 4 0.152605 0.0164344 0.642813
823 2 0.169161 0.0221905 0.624982
824 4 0.185717 0.0279467 0.607151
949 2 0.272938 0.0238893 0.640675
951 4 0.272963 0.0336552 0.617658
950 4 0.272914 0.0141234 0.663693
1092 4 0.330095 0.0318475 0.661715
1216 2 0.39712 0.0136987 0.58242
2196 4 0.346271 0.00658005 0.590788
809 4 0.463606 0.0722945 0.631461
1082 4 0.0343979 0.102409 0.646756
1076 4 0.0218484 0.101777 0.662128
1081 2 0.0511175 0.106604 0.628644
1083 4 0.0678371 0.110799 0.610533
1153 2 0.1419 0.131955 0.604026
1155 4 0.141462 0.120943 0.62647
1284 4 0.177777 0.0780514 0.629854
1283 4 0.216047 0.10598 0.613849
1282 2 0.196912 0.0920154 0.621851
1032 4 0.250578 0.112585 0.581971
1030 2 0.248436 0.0877509 0.583937
1005 4 0.318917 0.0845133 0.656037
808 2 0.461207 0.0959173 0.623626
810 4 0.458808 0.11954 0.615791
1272 4 0.0940886 0.196496 0.601454
1270 2 0.116419 0.192287 0.611886
1271 4 0.138749 0.188077 0.622319
1210 2 0.229416 0.191679 0.655762
1212 4 0.219223 0.20909 0.640992
1219 2 0.193789 0.179029 0.584303
1220 4 0.200879 0.171488 0.607063
796 2 0.225564 0.246022 0.616711
797 4 0.202158 0.240416 0.609937
791 4 0.31854 0.242276 0.590502
1026 4 0.415078 0.214551 0.653282
1193 4 0.358969 0.180532 0.656016
904 2 0.489906 0.242357 0.589164
906 4 0.474508 0.22293 0.592432
1024 2 0.435414 0.201017 0.647946
1025 4 0.45575 0.187483 0.642611
1243 2 0.0252111 0.279973 0.63815
1244 4 0.0270238 0.276777 0.613418
1136 4 0.12563 0.334279 0.60506
946 2 0.176098 0.287032 0.636148
947 4 0.173142 0.262537 0.632095
948 4 0.179054 0.311527 0.640202
798 4 0.24897 0.251629 0.623485
1239 4 0.293129 0.302615 0.625614
1237 2 0.311041 0.319618 0.621714
952 2 0.450913 0.292343 0.604612
953 4 0.458128 0.294938 0.628411
954 4 0.443699 0.289749 0.580813
1040 4 0.0483048 0.399723 0.631393
1039 2 0.0524633 0.411243 0.609594
3275 4 0.00739295 0.403807 0.667507
1137 4 0.112887 0.376155 0.580879
1135 2 0.119258 0.355217 0.592969
896 4 0.162514 0.3756 0.611886
1189 2 0.246351 0.380483 0.584101
1191 4 0.231807 0.361416 0.591178
895 2 0.167438 0.389017 0.59137
1028 4 0.22239 0.40502 0.662146
928 2 0.356947 0.369346 0.583053
930 4 0.356507 0.36389 0.60745
1204 2 0.414614 0.411682 0.652793
1238 4 0.328954 0.336621 0.617813
1205 4 0.424025 0.388584 0.651032
1041 4 0.0566217 0.422764 0.587796
992 4 0.139065 0.443057 0.662459
991 2 0.122066 0.433868 0.646592
993 4 0.105066 0.424679 0.630725
1160 4 0.171825 0.429504 0.58147
1188 4 0.209307 0.495293 0.643617
889 2 0.323368 0.435174 0.601069
891 4 0.306377 0.441852 0.618153
1002 4 0.3996 0.464475 0.581421
890 4 0.34036 0.428495 0.583984
1206 4 0.405204 0.43478 0.654555
1951 2 0.35056 0.498133 0.598387
1952 4 0.370088 0.487506 0.586946
1268 4 0.473567 0.480895 0.656681
2990 4 0.0128089 0.0711903 0.71925
944 4 0.0632502 0.0796091 0.684453
943 2 0.0786177 0.0600231 0.682128
945 4 0.0939853 0.0404372 0.679803
1147 2 0.202778 0.078956 0.721309
1149 4 0.192616 0.0596039 0.733451
1090 2 0.346553 0.0165341 0.672661
1163 4 0.474291 0.024165 0.674921
41 1 0.432412 0.0779823 0.68789
43 3 0.430455 0.0550662 0.690961
45 3 0.450332 0.082539 0.674595
1162 2 0.481993 0.0435789 0.688667
1164 4 0.489695 0.0629927 0.702414
862 2 0.0597993 0.135795 0.721811
864 4 0.0400355 0.144067 0.708921
1075 2 0.0267999 0.121121 0.677177
863 4 0.0795631 0.127524 0.734701
1077 4 0.0317514 0.140465 0.692226
907 2 0.159483 0.149897 0.683564
909 4 0.143741 0.142104 0.66577
1148 4 0.212939 0.0983081 0.709167
1225 2 0.208157 0.137119 0.710598
1226 4 0.220855 0.116176 0.715627
1227 4 0.195458 0.158063 0.70557
908 4 0.175226 0.15769 0.701358
829 2 0.318909 0.14697 0.71305
830 4 0.322646 0.154186 0.689403
831 4 0.315171 0.139754 0.736696
1003 2 0.326158 0.08416 0.679967
44 3 0.413051 0.0863609 0.678227
1004 4 0.333399 0.0838068 0.703896
1141 2 0.392059 0.141682 0.710759
1142 4 0.400252 0.151962 0.68949
1143 4 0.383866 0.131402 0.732028
42 3 0.435434 0.0879989 0.708376
3426 4 0.497338 0.113777 0.686853
852 4 0.0303639 0.17706 0.665187
851 4 0.0695223 0.173624 0.696098
850 2 0.0499431 0.175342 0.680643
1179 4 0.00518203 0.250267 0.677194
1213 2 0.00479426 0.234523 0.745436
1105 2 0.102883 0.209074 0.729169
1106 4 0.111286 0.232393 0.725881
1107 4 0.0944809 0.185755 0.732457
1208 4 0.106728 0.242124 0.675195
1211 4 0.239609 0.174268 0.670532
1277 4 0.229801 0.249758 0.7487
886 2 0.296497 0.180562 0.676919
888 4 0.280014 0.198945 0.680864
887 4 0.31298 0.16218 0.672973
976 2 0.285444 0.209759 0.740523
977 4 0.300471 0.229552 0.743281
978 4 0.270417 0.189966 0.737765
1192 2 0.353057 0.201749 0.667852
1194 4 0.347145 0.222965 0.679688
1298 4 0.352792 0.202428 0.743067
1261 2 0.441168 0.236888 0.720413
1263 4 0.427009 0.233247 0.700128
1262 4 0.455326 0.240529 0.740697
1245 4 0.0233984 0.28317 0.662882
1177 2 0.0207692 0.261313 0.693325
1178 4 0.0363563 0.272359 0.709455
1209 4 0.0827495 0.285726 0.670232
1207 2 0.0947386 0.263925 0.672714
820 2 0.158168 0.302217 0.738781
821 4 0.161753 0.287181 0.719127
1276 2 0.205571 0.254866 0.752164
1065 4 0.234467 0.279617 0.684653
1063 2 0.248511 0.285113 0.704597
1064 4 0.262554 0.290609 0.724541
807 4 0.317094 0.300957 0.6891
805 2 0.324456 0.323271 0.680553
1006 2 0.362603 0.301219 0.733185
1007 4 0.382414 0.29339 0.746278
1008 4 0.342792 0.309048 0.720093
3123 4 0.481426 0.277187 0.676359
892 2 0.0643544 0.352211 0.700282
893 4 0.0800283 0.335593 0.710448
894 4 0.0486804 0.368829 0.690116
940 2 0.145814 0.394219 0.742248
942 4 0.121032 0.396146 0.739547
1067 4 0.168586 0.413364 0.7033
1066 2 0.188771 0.406585 0.690193
1068 4 0.208956 0.399806 0.677086
1027 2 0.240867 0.393627 0.674554
941 4 0.170597 0.392291 0.744948
1029 4 0.259344 0.382235 0.686963
806 4 0.331818 0.345586 0.672007
1100 4 0.464972 0.411968 0.696038
1281 4 0.0215228 0.465882 0.700534
1280 4 0.0701842 0.454529 0.69856
1279 2 0.0458535 0.460206 0.699547
1174 2 0.225346 0.487593 0.688872
1175 4 0.249178 0.480724 0.692045
1176 4 0.201515 0.494463 0.6857
1138 2 0.310958 0.432745 0.723981
1139 4 0.298059 0.42703 0.744624
1140 4 0.323857 0.438459 0.703337
1228 2 0.365455 0.461011 0.712027
1229 4 0.361385 0.469099 0.735334
1230 4 0.369524 0.452922 0.688721
1267 2 0.4507 0.480857 0.666795
1099 2 0.455022 0.43451 0.700288
1101 4 0.445072 0.457051 0.704538
1269 4 0.427834 0.480819 0.67691
1249 2 0.484827 0.49349 0.737144
1250 4 0.497652 0.472705 0.742498
1296 4 0.0111672 0.0247881 0.81872
1295 4 0.0255402 0.0448216 0.775214
1294 2 0.0183537 0.0348049 0.796967
1203 4 0.0855499 0.0690197 0.77084
1201 2 0.107269 0.0664278 0.782953
1202 4 0.128988 0.0638358 0.795067
1196 4 0.124264 0.0170596 0.82784
875 4 0.214257 0.0555697 0.825204
1255 2 0.273714 0.0476293 0.802445
1256 4 0.289186 0.0480946 0.822081
1257 4 0.258242 0.0471641 0.782809
1113 4 0.390327 0.0327501 0.777804
975 4 0.343088 0.0178273 0.825772
1111 2 0.412956 0.0425202 0.782002
844 2 0.494089 0.0667355 0.776075
1112 4 0.435586 0.0522903 0.7862
832 2 0.0157448 0.137928 0.781107
833 4 0.040165 0.142894 0.78315
34 3 0.126853 0.136069 0.814279
1287 4 0.087974 0.117208 0.826536
31 1 0.129506 0.157878 0.806812
35 3 0.129995 0.158291 0.784047
839 4 0.271231 0.108847 0.793338
838 2 0.265476 0.127552 0.808901
840 4 0.259721 0.146257 0.824463
1084 2 0.35721 0.11161 0.787949
1085 4 0.366226 0.102918 0.80959
1086 4 0.348193 0.120301 0.766308
1299 4 0.345601 0.168973 0.779534
819 4 0.36601 0.106522 0.82933
48 3 0.430569 0.16513 0.796658
845 4 0.481852 0.0838918 0.789532
1214 4 0.0233201 0.236845 0.762067
32 3 0.111762 0.170492 0.814239
33 3 0.149153 0.166828 0.815316
1072 2 0.0943428 0.247759 0.797426