ITEM: TIMESTEP
2510000
ITEM: NUMBER OF ATOMS
4590
ITEM: BOX BOUNDS pp pp pp
-9.9985700000000008e+00 9.9985700000000008e+00
-9.9985700000000008e+00 9.9985700000000008e+00
-9.9985700000000008e+00 9.9985700000000008e+00
ITEM: ATOMS id type xs ys zs
1247 4 0.0518937 0.0576914 0.0196886
996 4 0.174213 0.00338463 0.00306945
490 2 0.270011 0.00263668 0.0302608
492 4 0.286253 0.010834 0.0131091
486 4 0.287231 0.028725 0.00304582
665 4 0.342437 0.0723408 0.0633241
2467 2 0.407815 0.079935 0.0301697
1760 4 0.42003 0.0829142 0.075911
2468 4 0.404696 0.0749534 0.00586676
2469 4 0.410934 0.0849165 0.0544727
1759 2 0.438796 0.0663911 0.0758653
1761 4 0.457562 0.0498679 0.0758196
380 4 0.0548791 0.0932772 0.0657645
358 2 0.231849 0.134888 0.0367761
359 4 0.224527 0.113087 0.0465898
360 4 0.239171 0.156688 0.0269623
664 2 0.35129 0.0925904 0.0516302
666 4 0.360143 0.11284 0.0399362
866 4 0.376379 0.124357 0.0421969
865 2 0.377333 0.128035 0.0174837
2723 4 0.406884 0.0950797 0.0697792
2624 4 0.0724312 0.22174 0.018009
2623 2 0.0511073 0.234091 0.0137749
396 4 0.00114936 0.229155 0.0697461
2625 4 0.0297835 0.246441 0.00954082
553 2 0.158066 0.209439 0.0346733
555 4 0.15041 0.188663 0.0462893
554 4 0.165722 0.230214 0.0230573
1133 4 0.173826 0.228339 0.00475368
507 4 0.189293 0.244524 0.0720048
3285 4 0.0416152 0.307308 0.0145837
483 4 0.0938068 0.323067 0.0252764
338 4 0.144343 0.303624 0.081285
755 4 0.263407 0.292848 0.023155
754 2 0.282862 0.288337 0.0381996
756 4 0.302317 0.283827 0.0532442
740 4 0.312489 0.296039 0.0654708
739 2 0.317223 0.315157 0.0808746
1304 4 0.456859 0.263725 0.0311329
1303 2 0.455013 0.285703 0.042911
1305 4 0.453167 0.307681 0.0546892
1308 4 0.45676 0.271811 0.0132703
1095 4 0.464417 0.334876 0.0261208
2841 4 0.453782 0.334749 0.0420039
1093 2 0.474088 0.327028 0.00443965
835 2 0.0531309 0.377605 0.0675751
836 4 0.0335868 0.367736 0.0796502
2807 4 0.013035 0.364988 0.0783404
837 4 0.0726751 0.387474 0.0555
2806 2 0.998367 0.368741 0.0584422
481 2 0.101367 0.346017 0.0317035
286 2 0.112224 0.411339 0.0467346
482 4 0.108927 0.368967 0.0381305
287 4 0.127169 0.392985 0.0547954
357 4 0.11075 0.371802 0.0623146
573 4 0.122008 0.374746 0.023334
571 2 0.133152 0.384475 0.00317634
2840 4 0.40378 0.335411 0.0419925
2839 2 0.428781 0.33508 0.0419982
1046 4 0.472892 0.34345 0.0424734
1045 2 0.474059 0.367855 0.0477859
1047 4 0.475227 0.39226 0.0530984
292 2 0.0690303 0.487835 0.0482885
293 4 0.0453718 0.495756 0.0466383
313 2 0.0641458 0.431648 0.0595284
315 4 0.0509658 0.440338 0.0789176
314 4 0.0773258 0.422957 0.0401393
914 4 0.085725 0.432792 0.0239299
288 4 0.0972791 0.429692 0.0386739
550 2 0.122902 0.480762 0.0242652
1659 4 0.157763 0.465604 0.00481909
1439 4 0.108793 0.475001 0.0635169
552 4 0.108263 0.488887 0.0428355
551 4 0.137542 0.472638 0.00569492
1766 4 0.105534 0.495147 0.0609566
294 4 0.0926889 0.479915 0.0499386
61 1 0.214502 0.459072 0.0550206
65 3 0.196207 0.452819 0.0429867
1658 4 0.199277 0.469636 0.0324068
1657 2 0.17852 0.46762 0.0186129
62 3 0.231744 0.463968 0.0406017
1803 4 0.218402 0.47964 0.0329213
63 3 0.221091 0.441752 0.0689849
64 3 0.209637 0.477963 0.0675848
903 4 0.280012 0.417517 0.026304
901 2 0.300848 0.427538 0.0358232
902 4 0.321685 0.437558 0.0453423
1289 4 0.334364 0.45267 0.0424374
1288 2 0.334803 0.475842 0.0330551
252 4 0.339118 0.438107 0.0565583
250 2 0.335059 0.432342 0.0805473
2481 4 0.050265 0.0600247 0.127346
381 4 0.0559079 0.0702561 0.110146
3560 4 0.0248975 0.0690644 0.140539
3559 2 0.0154214 0.0785403 0.161648
2479 2 0.0325141 0.0434675 0.12135
2480 4 0.0147632 0.0269104 0.115355
577 2 0.173954 0.0187787 0.117434
578 4 0.178744 0.0403347 0.105705
423 4 0.185943 0.0576956 0.101795
652 2 0.223654 0.0371917 0.146012
654 4 0.203427 0.0420375 0.15989
581 4 0.201204 0.0616115 0.163704
421 2 0.187085 0.0812103 0.110217
653 4 0.24388 0.0323459 0.132135
579 4 0.169164 0.997223 0.129163
24 3 0.386271 0.050007 0.123648
21 1 0.368619 0.0608471 0.134104
25 3 0.365208 0.0519661 0.154795
23 3 0.349363 0.0587735 0.121325
22 3 0.373789 0.0831642 0.136196
2590 2 0.478636 0.00572241 0.12137
2592 4 0.485534 0.0275628 0.11134
379 2 0.0553935 0.0817666 0.087955
236 4 0.105946 0.118555 0.0973278
235 2 0.10805 0.143048 0.101893
237 4 0.110154 0.167542 0.106457
534 4 0.207878 0.106707 0.115612
422 4 0.188227 0.104725 0.118639
532 2 0.2179 0.129141 0.110977
533 4 0.227922 0.151574 0.106343
461 4 0.346672 0.127591 0.149013
2722 2 0.395443 0.107239 0.0883922
297 4 0.390185 0.103032 0.134779
295 2 0.412104 0.114409 0.138689
2724 4 0.384002 0.119397 0.107005
460 2 0.366001 0.124918 0.164647
296 4 0.434023 0.125787 0.142599
771 4 0.435564 0.161363 0.0966101
556 2 0.458403 0.154909 0.149739
558 4 0.451292 0.131728 0.143634
629 4 0.449895 0.120313 0.158416
477 4 0.107241 0.185303 0.100613
476 4 0.153027 0.205355 0.0990717
475 2 0.130134 0.195329 0.0998424
738 4 0.153082 0.22845 0.140121
506 4 0.173365 0.204263 0.097026
505 2 0.181329 0.224393 0.0845154
352 2 0.25009 0.228621 0.0987836
353 4 0.264868 0.208555 0.100827
311 4 0.282213 0.206611 0.110879
310 2 0.305589 0.199084 0.106182
312 4 0.328966 0.191558 0.101485
770 4 0.404642 0.200592 0.0989961
769 2 0.420103 0.180977 0.0978031
557 4 0.465514 0.17809 0.155843
2519 4 0.485173 0.195797 0.0931234
363 4 0.0596528 0.311736 0.159991
648 4 0.0745415 0.30024 0.150169
705 4 0.0684223 0.316497 0.102252
736 2 0.165757 0.249394 0.145208
646 2 0.0856066 0.285787 0.133027
647 4 0.0966716 0.271334 0.115885
337 2 0.126638 0.294832 0.096595
339 4 0.108932 0.286041 0.111905
455 4 0.143435 0.330684 0.132436
372 4 0.163124 0.281745 0.155572
354 4 0.235313 0.248687 0.0967398
737 4 0.178431 0.270339 0.150294
284 4 0.189608 0.27028 0.133126
283 2 0.2065 0.268251 0.114803
285 4 0.223393 0.266222 0.0964805
370 2 0.178141 0.298069 0.167114
764 4 0.24439 0.266088 0.103303
763 2 0.262831 0.280299 0.112422
765 4 0.281272 0.294511 0.12154
612 4 0.29465 0.309225 0.128059
610 2 0.299622 0.328058 0.143735
386 4 0.329804 0.333714 0.115053
622 2 0.400708 0.328057 0.12994
624 4 0.420213 0.313119 0.125294
728 4 0.462072 0.288618 0.153162
656 4 0.0210263 0.369185 0.0959632
655 2 0.0100535 0.35991 0.116427
1756 2 0.0231447 0.413216 0.128265
1758 4 0.0109416 0.40401 0.148051
703 2 0.0727167 0.338815 0.112674
657 4 0.999081 0.350635 0.13689
355 2 0.105318 0.371095 0.0867109
356 4 0.0998864 0.370388 0.111107
704 4 0.0770111 0.361134 0.123097
456 4 0.103448 0.360351 0.137082
417 4 0.0910097 0.376157 0.128206
415 2 0.103785 0.395974 0.136528
454 2 0.123441 0.345518 0.134759
416 4 0.11656 0.415792 0.144849
741 4 0.321957 0.334275 0.0962784
301 2 0.291582 0.38818 0.152746
303 4 0.289032 0.412832 0.14944
302 4 0.294133 0.363527 0.156051
611 4 0.304594 0.346892 0.159411
387 4 0.364158 0.366141 0.131455
385 2 0.346981 0.349927 0.123254
13 3 0.361816 0.374991 0.149071
11 1 0.384517 0.374665 0.153862
15 3 0.394925 0.391987 0.143361
12 3 0.393414 0.354818 0.146372
623 4 0.381203 0.342995 0.134585
608 4 0.363869 0.386995 0.131998
494 4 0.402458 0.400461 0.160239
607 2 0.352294 0.40859 0.127013
104 3 0.45962 0.347221 0.131793
105 3 0.488245 0.371153 0.126743
101 1 0.467153 0.368926 0.135039
102 3 0.453099 0.383405 0.123993
103 3 0.466958 0.374079 0.157662
1757 4 0.0353478 0.422423 0.108479
1438 2 0.121103 0.462548 0.081365
1440 4 0.133413 0.450094 0.099213
243 4 0.154903 0.45424 0.103442
241 2 0.176552 0.462498 0.0940435
626 4 0.214402 0.483313 0.087293
242 4 0.198201 0.470755 0.0846453
625 2 0.233125 0.491238 0.101847
246 4 0.266181 0.44058 0.114059
1629 4 0.2878 0.47851 0.168161
244 2 0.274382 0.451574 0.134964
245 4 0.282584 0.462569 0.15587
1627 2 0.296684 0.49817 0.155523
251 4 0.331001 0.426578 0.104536
609 4 0.340718 0.430184 0.122028
493 2 0.41614 0.419052 0.150627
495 4 0.429821 0.437643 0.141015
659 4 0.438854 0.443833 0.158811
3781 2 0.0152131 0.00632976 0.213078
3783 4 0.0202382 0.0233557 0.230686
512 4 0.0876117 0.071059 0.233566
690 4 0.194018 0.00518369 0.203198
580 2 0.181424 0.073259 0.173617
675 4 0.206757 0.0241702 0.205201
673 2 0.219472 0.038043 0.221664
674 4 0.232188 0.0519159 0.238128
467 4 0.241425 0.065279 0.252931
1464 4 0.277334 0.0239632 0.227235
1462 2 0.2886 0.00365302 0.217974
759 4 0.356686 0.0567291 0.171732
758 4 0.36678 0.0472421 0.219783
757 2 0.361733 0.0519856 0.195758
529 2 0.0252747 0.0987628 0.209881
531 4 0.032978 0.12041 0.219742
511 2 0.0696672 0.0880172 0.229617
513 4 0.0517228 0.104975 0.225668
567 4 0.158712 0.0885954 0.202671
582 4 0.161645 0.0849066 0.183531
565 2 0.169915 0.108601 0.212644
566 4 0.181117 0.128606 0.222617
598 2 0.216894 0.142357 0.199252
600 4 0.195616 0.135859 0.210663
599 4 0.238171 0.148855 0.18784
254 4 0.324302 0.162649 0.218116
323 4 0.343848 0.0935585 0.22257
322 2 0.363206 0.103811 0.210513
324 4 0.382563 0.114063 0.198457
462 4 0.38533 0.122245 0.180282
30 3 0.402031 0.120935 0.194042
26 1 0.407373 0.131808 0.213327
255 4 0.373154 0.153303 0.2233
29 3 0.391487 0.148091 0.217896
253 2 0.348728 0.157976 0.220708
28 3 0.408496 0.116687 0.230891
27 3 0.427894 0.141914 0.210891
628 2 0.451064 0.103972 0.177305
630 4 0.452233 0.0876308 0.196193
393 4 0.127068 0.178809 0.246541
332 4 0.483626 0.199349 0.216274
361 2 0.075182 0.327507 0.171624
748 2 0.110216 0.325361 0.219124
749 4 0.118356 0.314216 0.239974
371 4 0.193158 0.314392 0.178656
727 2 0.469937 0.30248 0.172427
729 4 0.477802 0.316343 0.191692
308 4 0.464141 0.317257 0.206281
307 2 0.446556 0.307203 0.22094
309 4 0.428972 0.297149 0.235599
1318 2 0.0210566 0.419759 0.249473
362 4 0.0907112 0.343277 0.183257
750 4 0.102076 0.336507 0.198275
638 4 0.224368 0.398828 0.249981
637 2 0.211517 0.414947 0.235832
14 3 0.387799 0.37618 0.176782
645 4 0.399114 0.392251 0.177928
643 2 0.411922 0.392522 0.1994
762 4 0.499328 0.336017 0.234719
498 4 0.473003 0.334362 0.201129
496 2 0.469751 0.355866 0.188792
497 4 0.466499 0.377369 0.176455
644 4 0.42473 0.392793 0.220872
107 3 0.476047 0.412466 0.229518
110 3 0.441475 0.403185 0.218956
109 3 0.467512 0.411116 0.19294
106 1 0.459441 0.416299 0.214068
1320 4 0.0210794 0.417079 0.224614
3716 4 0.00621275 0.495421 0.170869
639 4 0.198665 0.431066 0.221683
1575 4 0.285702 0.481271 0.187298
1573 2 0.282832 0.458291 0.196727
1574 4 0.279963 0.435312 0.206155
525 4 0.354657 0.463201 0.169184
523 2 0.374772 0.468438 0.183082
524 4 0.394887 0.473674 0.19698
658 2 0.446259 0.459724 0.176638
108 3 0.453384 0.43868 0.214963
660 4 0.453664 0.475615 0.194466
1583 4 0.469537 0.474731 0.207395
1488 4 0.449086 0.494781 0.188243
1582 2 0.474071 0.497598 0.216436
233 4 0.0976696 0.00617152 0.278086
429 4 0.225003 0.0525882 0.255928
427 2 0.221517 0.0372847 0.275392
428 4 0.218031 0.0219812 0.294856
440 4 0.229605 0.0112838 0.324491
1496 4 0.352965 0.0142187 0.290172
1517 4 0.347844 0.045772 0.315036
478 2 0.484084 0.0624412 0.28886
479 4 0.461602 0.0535895 0.295293
466 2 0.244421 0.0900795 0.251865
468 4 0.247417 0.11488 0.250799
683 4 0.253153 0.115839 0.272633
682 2 0.266133 0.125941 0.291465
684 4 0.279113 0.136043 0.310297
453 4 0.422938 0.107883 0.312035
451 2 0.418996 0.127535 0.326983
2483 4 0.0584112 0.204995 0.291621
2482 2 0.0827194 0.206895 0.29716
391 2 0.124234 0.189746 0.268846
392 4 0.1214 0.200684 0.291151
2484 4 0.107028 0.208794 0.302699
249 4 0.127228 0.206699 0.308847
247 2 0.151049 0.200506 0.313248
248 4 0.174871 0.194312 0.317649
279 4 0.224215 0.226183 0.310199
277 2 0.224215 0.249625 0.301502
473 4 0.232272 0.20545 0.312016
472 2 0.248549 0.18653 0.310501
726 4 0.280931 0.154241 0.317006
474 4 0.264826 0.167611 0.308985
633 4 0.279752 0.155516 0.297166
631 2 0.291547 0.174275 0.285584
632 4 0.303342 0.193035 0.274002
305 4 0.400616 0.218224 0.327526
304 2 0.402562 0.237116 0.311263
278 4 0.224215 0.273067 0.292805
536 4 0.235661 0.290036 0.300345
535 2 0.252661 0.305738 0.309813
537 4 0.269661 0.32144 0.319282
345 4 0.282024 0.327859 0.291359
419 4 0.37071 0.310863 0.316444
418 2 0.382449 0.292795 0.303759
420 4 0.394187 0.274726 0.291073
306 4 0.404508 0.256009 0.295001
2463 4 0.0232498 0.355361 0.287553
2461 2 0.0227919 0.380344 0.286656
2462 4 0.0223339 0.405327 0.285759
3959 4 0.023044 0.424016 0.294437
1319 4 0.0210337 0.422439 0.274333
3958 2 0.0177718 0.42129 0.318726
500 4 0.099697 0.419513 0.321257
602 4 0.223298 0.378822 0.25046
290 4 0.238826 0.389184 0.260821
603 4 0.194945 0.339705 0.263372
601 2 0.209122 0.359263 0.256916
676 2 0.245465 0.356076 0.332725
678 4 0.26115 0.337433 0.327101
289 2 0.259525 0.382731 0.273275
291 4 0.280224 0.376278 0.285729
343 2 0.301602 0.337224 0.303775
344 4 0.32118 0.346589 0.316192
438 4 0.325471 0.40973 0.293635
377 4 0.377519 0.386568 0.327256
3671 4 0.0116563 0.466988 0.330413
414 4 0.177207 0.450158 0.32308
412 2 0.200527 0.451825 0.331943
436 2 0.331606 0.431174 0.304936
1556 4 0.265557 0.487478 0.323427
437 4 0.337741 0.452617 0.316237
3990 4 0.339208 0.480772 0.326864
545 4 0.083713 0.0250223 0.366677
691 2 0.143239 0.995747 0.388334
693 4 0.150482 0.0196631 0.387456
544 2 0.10149 0.0313102 0.383097
546 4 0.119267 0.037598 0.399517
605 4 0.140681 0.0371208 0.333366
604 2 0.156065 0.0555216 0.340433
731 4 0.130168 0.0347768 0.416535
606 4 0.171448 0.0739225 0.347499
1670 4 0.283851 0.0256573 0.373114
1669 2 0.307409 0.0340167 0.372523
1671 4 0.330966 0.0423761 0.371931
744 4 0.326231 0.0602215 0.365381
1518 4 0.35045 0.0451869 0.364972
1516 2 0.349147 0.0454795 0.340004
699 4 0.343061 0.0588801 0.377832
697 2 0.35274 0.0454836 0.396594
698 4 0.36242 0.0320871 0.415357
316 2 0.999709 0.0895159 0.378645
2676 4 0.00307547 0.0919424 0.334793
2739 4 0.0603387 0.110264 0.333027
2737 2 0.0393378 0.0999311 0.341823
2738 4 0.0183369 0.0895981 0.350619
318 4 0.999838 0.0896278 0.403648
2653 2 0.0403843 0.146096 0.391294
2655 4 0.0330288 0.135406 0.412667
2654 4 0.0477399 0.156787 0.369922
348 4 0.0154464 0.141911 0.422865
398 4 0.142597 0.131689 0.349014
397 2 0.156732 0.112059 0.342685
399 4 0.170867 0.0924296 0.336355
276 4 0.189163 0.134856 0.398327
274 2 0.208398 0.13074 0.413762
742 2 0.322228 0.0842977 0.370812
743 4 0.318225 0.108374 0.376242
706 2 0.284591 0.114309 0.397843
708 4 0.302493 0.120078 0.381369
725 4 0.292668 0.165986 0.364176
707 4 0.266688 0.108539 0.414317
351 4 0.335211 0.120442 0.374901
349 2 0.359203 0.126778 0.371832
350 4 0.383194 0.133114 0.368763
256 2 0.413968 0.125912 0.388601
257 4 0.402164 0.136559 0.369302
516 4 0.406941 0.153255 0.358872
452 4 0.415054 0.147187 0.341931
258 4 0.425772 0.115264 0.407901
724 2 0.286799 0.160114 0.340591
430 2 0.310021 0.164278 0.40182
431 4 0.300818 0.173482 0.380471
510 4 0.254037 0.19627 0.390751
508 2 0.274188 0.20788 0.381568
488 4 0.308792 0.20644 0.368004
509 4 0.294339 0.219491 0.372386
487 2 0.333588 0.20348 0.366757
514 2 0.392072 0.173088 0.36215
489 4 0.358384 0.200519 0.365511
515 4 0.377203 0.192921 0.365428
1581 4 0.442586 0.181439 0.369275
1579 2 0.454749 0.199633 0.381366
1580 4 0.466912 0.217827 0.393457
584 4 0.47778 0.236083 0.399492
583 2 0.482313 0.250242 0.379389
267 4 0.478718 0.219662 0.40988
408 4 0.0666679 0.272215 0.342261
618 4 0.0466728 0.302021 0.388984
407 4 0.0404991 0.304603 0.369955
406 2 0.0535835 0.288409 0.356108
616 2 0.0599114 0.305276 0.409944
402 4 0.272969 0.324383 0.337756
400 2 0.278684 0.316848 0.360902
401 4 0.284399 0.309313 0.384048
1260 4 0.287545 0.292417 0.393763
1258 2 0.279753 0.276331 0.411247
585 4 0.486847 0.264401 0.359285
270 4 0.492135 0.279673 0.372662
269 4 0.466598 0.314413 0.34733
268 2 0.479367 0.297043 0.359996
681 4 0.996414 0.363618 0.361142
548 4 0.0524251 0.355014 0.339417
547 2 0.0331132 0.359563 0.354633
549 4 0.0138012 0.364111 0.36985
299 4 0.142864 0.369039 0.344246
298 2 0.156813 0.362608 0.363975
733 2 0.167302 0.386575 0.409551
300 4 0.170762 0.356176 0.383704
734 4 0.176314 0.364397 0.402331
767 4 0.184971 0.346482 0.397334
677 4 0.229781 0.374718 0.338349
766 2 0.205423 0.352411 0.38423
768 4 0.225876 0.358339 0.371126
592 2 0.329733 0.374517 0.395368
594 4 0.323551 0.383189 0.41799
593 4 0.335916 0.365844 0.372746
378 4 0.351975 0.361453 0.362148
376 2 0.364747 0.374011 0.344702
434 4 0.394384 0.4111 0.351546
433 2 0.416946 0.401037 0.347692
588 4 0.496609 0.397976 0.355348
586 2 0.473779 0.387798 0.354763
435 4 0.439508 0.390974 0.343837
587 4 0.450948 0.377619 0.354178
3960 4 0.0124996 0.418565 0.343015
777 4 0.0218874 0.466892 0.346955
776 4 0.0586413 0.437548 0.363949
775 2 0.0402643 0.45222 0.355452
501 4 0.0677986 0.419861 0.359768
499 2 0.0837478 0.419687 0.340512
502 2 0.148131 0.450835 0.389254
504 4 0.146404 0.430133 0.40317
503 4 0.149858 0.471536 0.375338
1437 4 0.214661 0.477669 0.403528
1436 4 0.228234 0.459744 0.35886
1435 2 0.221447 0.468707 0.381194
413 4 0.223848 0.453492 0.340806
1557 4 0.243436 0.450913 0.349396
1555 2 0.254496 0.469195 0.336412
636 4 0.209954 0.463602 0.416865
1269 4 0.30567 0.468205 0.404889
669 4 0.270322 0.50231 0.335953
1267 2 0.307067 0.488854 0.390859
3988 2 0.327625 0.4965 0.342473
1058 4 0.0195395 0.0419452 0.463817
937 2 0.0137889 0.0142966 0.448326
938 4 0.0205664 0.038035 0.444359
1602 4 0.0555276 0.0376176 0.448758
1057 2 0.0182595 0.0666765 0.467267
1600 2 0.078794 0.036886 0.457886
730 2 0.139287 0.0561436 0.42578
1478 4 0.113013 0.0214523 0.45657
1477 2 0.133714 0.00962704 0.46411
1601 4 0.10206 0.0361545 0.467014
732 4 0.148407 0.0775104 0.435025
1816 2 0.229438 0.0101233 0.449679
962 4 0.235562 0.0379958 0.483873
1817 4 0.228962 0.0293147 0.465699
1427 4 0.465006 0.0480538 0.473649
1426 2 0.476808 0.0261815 0.470911
1428 4 0.48861 0.00430916 0.468173
369 4 0.0335547 0.139609 0.433888
367 2 0.0285568 0.124911 0.453488
1059 4 0.0169796 0.0914078 0.470717
368 4 0.0235589 0.110213 0.473089
275 4 0.227634 0.126623 0.429197
375 4 0.233089 0.147949 0.431438
686 4 0.233232 0.134169 0.445853
687 4 0.226829 0.122417 0.494036
685 2 0.230031 0.128293 0.469945
373 2 0.249537 0.166592 0.428772
432 4 0.319224 0.155074 0.423169
425 4 0.308025 0.139175 0.430246
424 2 0.32291 0.121119 0.439056
1152 4 0.276749 0.153961 0.509943
426 4 0.337794 0.103063 0.447866
374 4 0.265984 0.185235 0.426106
711 4 0.295855 0.231744 0.48665
650 4 0.286683 0.213165 0.483903
709 2 0.289617 0.244148 0.465855
649 2 0.305873 0.205331 0.497888
716 4 0.337833 0.175876 0.486843
717 4 0.360163 0.171058 0.442359
715 2 0.348998 0.173467 0.464601
265 2 0.479214 0.205666 0.430593
574 2 0.466582 0.19472 0.491909
575 4 0.475933 0.18402 0.471336
266 4 0.47971 0.191669 0.451306
617 4 0.07315 0.308531 0.430904
1137 4 0.156637 0.312713 0.484138
1041 4 0.151674 0.329056 0.472955
1135 2 0.169134 0.299816 0.46674
1136 4 0.181631 0.286919 0.449343
710 4 0.283378 0.256552 0.445061
1259 4 0.27196 0.260244 0.42873
803 4 0.312825 0.284383 0.499067
2812 2 0.0705756 0.355254 0.490466
2813 4 0.0458987 0.355148 0.486438
1039 2 0.128205 0.33569 0.478465
1040 4 0.104736 0.342324 0.483976
1160 4 0.109649 0.369631 0.494971
2814 4 0.0952525 0.355361 0.494493
751 2 0.479353 0.406585 0.478862
752 4 0.484368 0.399339 0.502261
1172 4 0.0808044 0.457821 0.476022
382 2 0.0178046 0.433985 0.487727
384 4 0.0370697 0.447649 0.495932
735 4 0.15829 0.408752 0.41677
1189 2 0.157453 0.434125 0.482494
1171 2 0.102282 0.455077 0.488528
1173 4 0.123759 0.452332 0.501033
1190 4 0.142959 0.448238 0.497188
1191 4 0.171947 0.420011 0.4678
1751 4 0.181975 0.482385 0.476709
634 2 0.196366 0.471499 0.436311
570 4 0.197699 0.491255 0.467132
635 4 0.182778 0.479397 0.455758
753 4 0.474339 0.413831 0.455462
823 2 0.0763061 0.0507831 0.562908
825 4 0.0633873 0.0425559 0.582672
824 4 0.0892249 0.0590103 0.543145
2429 4 0.105196 0.06197 0.530053
1128 4 0.0825932 0.00530563 0.520862
2428 2 0.122493 0.0794152 0.534706
1180 2 0.210375 0.0462318 0.563949
963 4 0.235949 0.0415219 0.533754
1181 4 0.23156 0.0394491 0.552532
961 2 0.235756 0.0397588 0.508813
1182 4 0.189189 0.0530144 0.575367
950 4 0.251008 0.00420716 0.581933
843 4 0.310462 0.0295878 0.56899
951 4 0.291228 0.0301561 0.567452
949 2 0.271118 0.0171816 0.574692
93 3 0.400538 0.00789122 0.531191
1723 2 0.471004 0.011825 0.530168
94 3 0.437285 0.00869666 0.521526
1725 4 0.490008 0.02796 0.532086
879 4 0.0491987 0.165037 0.538148
877 2 0.0366494 0.143887 0.533633
470 4 0.0103964 0.111004 0.538905
878 4 0.0241002 0.122738 0.529117
1272 4 0.05974 0.153614 0.550642
2430 4 0.13979 0.0968605 0.53936
1270 2 0.0811615 0.1568 0.563138
259 2 0.152944 0.167238 0.508891
1271 4 0.102583 0.159985 0.575634
943 2 0.229453 0.142926 0.578962
945 4 0.245951 0.161217 0.57467
260 4 0.176031 0.161875 0.500928
944 4 0.212955 0.124635 0.583253
1151 4 0.255304 0.16425 0.553931
326 4 0.325046 0.1506 0.548982
327 4 0.286893 0.159622 0.580025
325 2 0.305969 0.155111 0.564504
1150 2 0.266026 0.159105 0.531937
319 2 0.337447 0.165021 0.522125
900 4 0.349696 0.128534 0.538289
898 2 0.35296 0.123177 0.562493
321 4 0.340727 0.14625 0.538314
3053 4 0.468004 0.125083 0.537137
3052 2 0.448097 0.138092 0.529411
3054 4 0.42819 0.1511 0.521686
935 4 0.0138669 0.188322 0.534073
2846 4 0.0456079 0.216231 0.552259
2845 2 0.0408841 0.234185 0.569009
261 4 0.129858 0.172601 0.516853
1033 2 0.129534 0.204026 0.546628
1034 4 0.132797 0.218127 0.567017
1035 4 0.126271 0.189924 0.52624
695 4 0.151161 0.217646 0.574133
1220 4 0.236137 0.170376 0.557004
790 2 0.257872 0.204297 0.56618
791 4 0.256159 0.179726 0.570479
1221 4 0.202999 0.181669 0.521296
1219 2 0.219568 0.176022 0.53915
792 4 0.259584 0.228869 0.56188
651 4 0.325062 0.197498 0.511873
409 2 0.365085 0.212229 0.515122
410 4 0.385091 0.224446 0.523821
320 4 0.334167 0.183792 0.505936
411 4 0.345079 0.200012 0.506423
576 4 0.45723 0.20542 0.512482
3262 2 0.0210346 0.283651 0.569754
2847 4 0.0361603 0.252138 0.585758
3264 4 0.0215385 0.303682 0.554798
3263 4 0.0205307 0.26362 0.58471
813 4 0.228303 0.296038 0.539302
811 2 0.249364 0.283377 0.54392
812 4 0.270425 0.270717 0.548538
804 4 0.285828 0.265374 0.536624
802 2 0.299327 0.274878 0.517845
895 2 0.156569 0.385581 0.551663
897 4 0.132326 0.380617 0.548085
1159 2 0.11633 0.382064 0.515609
1161 4 0.123011 0.394498 0.536248
896 4 0.180813 0.390545 0.55524
238 2 0.304781 0.401914 0.537055
240 4 0.284037 0.397853 0.523699
239 4 0.325524 0.405974 0.550412
3603 4 0.423636 0.40926 0.526189
3601 2 0.447949 0.405375 0.521835
561 4 0.491337 0.394945 0.521483
559 2 0.499278 0.375492 0.535037
3602 4 0.472262 0.401489 0.517481
560 4 0.507219 0.35604 0.548591
539 4 0.140242 0.453337 0.569595
1752 4 0.168096 0.5007 0.521123
1750 2 0.175036 0.491543 0.498916
1187 4 0.295746 0.489196 0.519246
1186 2 0.271943 0.496198 0.516151
663 4 0.429587 0.467806 0.545963
661 2 0.430814 0.467465 0.570934
4084 2 0.45717 0.486488 0.515751
4085 4 0.437748 0.476989 0.528311
4086 4 0.476591 0.495988 0.503191
10 3 0.100793 0.0365712 0.638053
9 3 0.131909 0.0308934 0.658479
6 1 0.111907 0.0425611 0.657007
8 3 0.116045 0.0653923 0.656878
1031 4 0.210411 0.0468614 0.609543
1030 2 0.213481 0.0448023 0.634272
1032 4 0.216551 0.0427432 0.659
841 2 0.327324 0.0203448 0.584972
1217 4 0.330048 0.014321 0.617349
1005 4 0.363291 0.013889 0.600006
1004 4 0.410345 0.0173385 0.61658
842 4 0.344186 0.0111018 0.600953
1003 2 0.386818 0.0156137 0.608293
1216 2 0.338507 0.0211684 0.63986
1218 4 0.346967 0.0280159 0.66237
149 3 0.497188 0.00608165 0.623891
146 1 0.498453 0.0290082 0.627234
150 3 0.477539 0.0380233 0.627254
4238 4 0.497427 0.0339325 0.597572
851 4 0.0225787 0.144258 0.619168
850 2 0.0399807 0.161182 0.613175
1073 4 0.99518 0.0931302 0.669245
1193 4 0.324284 0.155816 0.634149
1192 2 0.337107 0.144625 0.615832
899 4 0.356223 0.117821 0.586698
1194 4 0.34993 0.133435 0.597514
3400 2 0.474524 0.0940409 0.652743
3402 4 0.453949 0.103157 0.641845
852 4 0.0573827 0.178107 0.607183
908 4 0.0674119 0.186587 0.592294
1208 4 0.0557721 0.195791 0.616676
1207 2 0.044729 0.21083 0.633321
1209 4 0.0336859 0.225869 0.649966
1278 4 0.127347 0.165889 0.657096
907 2 0.0857744 0.202001 0.599394
909 4 0.104137 0.217415 0.606495
1063 2 0.128821 0.197421 0.653898
694 2 0.146989 0.222241 0.598355
696 4 0.142817 0.226837 0.622576
1065 4 0.135403 0.214736 0.637105
798 4 0.154917 0.221843 0.638791
1024 2 0.405367 0.225757 0.638996
1025 4 0.380958 0.230197 0.635893
953 4 0.464537 0.188984 0.596969
1026 4 0.429777 0.221317 0.642099
954 4 0.430201 0.214085 0.623268
952 2 0.447369 0.201534 0.610118
984 4 0.0422777 0.269549 0.588696
3327 4 0.0269295 0.257495 0.601444
3325 2 0.00700156 0.25931 0.616436
982 2 0.0622057 0.271852 0.603621
983 4 0.0821338 0.274154 0.618546
796 2 0.155686 0.24522 0.647629
856 2 0.133891 0.304223 0.660109
857 4 0.12157 0.325628 0.656209
797 4 0.156456 0.268597 0.656467
858 4 0.146212 0.282818 0.664009
3122 4 0.488678 0.288061 0.639958
3121 2 0.496849 0.264527 0.637814
3275 4 0.103365 0.333185 0.653512
3274 2 0.087966 0.34637 0.668148
1067 4 0.268835 0.415593 0.615488
1006 2 0.396574 0.363836 0.657247
1008 4 0.41128 0.382243 0.648876
1007 4 0.381868 0.345428 0.665618
538 2 0.158204 0.463358 0.583812
2014 2 0.0936832 0.491295 0.663507
540 4 0.176166 0.47338 0.598028
1066 2 0.281287 0.421651 0.636307
1068 4 0.293738 0.427708 0.657127
1175 4 0.305517 0.443576 0.651791
1028 4 0.309364 0.428303 0.668222
1174 2 0.327809 0.450117 0.642545
1176 4 0.3501 0.456657 0.633298
1001 4 0.385133 0.443643 0.616795
1000 2 0.409207 0.450301 0.615655
662 4 0.432041 0.467123 0.595905
1909 2 0.436619 0.502985 0.614177
1002 4 0.433281 0.456959 0.614514
1910 4 0.436087 0.477989 0.614499
4147 2 0.473497 0.459373 0.602699
4149 4 0.449804 0.467066 0.604848
4148 4 0.49719 0.451679 0.600549
992 4 0.121561 0.0828176 0.665236
1154 4 0.148768 0.0381055 0.668307
7 3 0.0989547 0.0374546 0.675319
978 4 0.0952827 0.0382938 0.696826
976 2 0.105852 0.047517 0.717523
977 4 0.116422 0.0567402 0.738221
1185 4 0.0906449 0.0181969 0.69742
948 4 0.0914097 0.0553356 0.684096
1153 2 0.173763 0.0375199 0.668657
1155 4 0.198757 0.0369342 0.669007
1284 4 0.217074 0.0317437 0.67662
1211 4 0.20633 0.0545213 0.672101
1210 2 0.217085 0.0609183 0.693748
1212 4 0.22784 0.0673152 0.715395
2201 4 0.25904 0.0151787 0.685516
1239 4 0.268133 0.0248762 0.700528
1237 2 0.281547 0.0453429 0.695394
1238 4 0.294961 0.0658097 0.69026
888 4 0.287639 0.07921 0.677461
2658 4 0.487978 0.0662963 0.674625
3401 4 0.495098 0.0849247 0.663641
1164 4 0.499007 0.0814923 0.68456
2656 2 0.478693 0.0431818 0.676787
1162 2 0.496068 0.0801654 0.709355
1163 4 0.49313 0.0788384 0.73415
2657 4 0.469407 0.0200672 0.678948
1072 2 0.0133141 0.0941419 0.68643
1074 4 0.0314481 0.0951536 0.703614
947 4 0.0783971 0.103215 0.677858
863 4 0.0139602 0.145372 0.735728
1276 2 0.124187 0.143156 0.667016
1277 4 0.121028 0.120423 0.676936
946 2 0.0849034 0.0792755 0.680977
991 2 0.143032 0.0900491 0.675812
993 4 0.164504 0.0972806 0.686389
1149 4 0.221732 0.0848054 0.722423
1147 2 0.20338 0.0912569 0.738132
887 4 0.328235 0.10839 0.676348
886 2 0.307937 0.0937999 0.676904
1064 4 0.122239 0.180105 0.670692
806 4 0.228541 0.194214 0.667714
805 2 0.227795 0.214778 0.681918
807 4 0.227049 0.235341 0.696123
1257 4 0.2197 0.237294 0.715228
1255 2 0.199516 0.236575 0.729968
1256 4 0.179332 0.235856 0.744708
43 3 0.237796 0.243905 0.711003
917 4 0.282851 0.182113 0.710194
45 3 0.269328 0.246742 0.690622
918 4 0.281523 0.228435 0.691402
916 2 0.282187 0.205274 0.700798
844 2 0.407516 0.201011 0.724681
846 4 0.404317 0.20678 0.700563
845 4 0.410715 0.195241 0.748798
44 3 0.247652 0.277149 0.695445
42 3 0.267369 0.263015 0.724152
1142 4 0.263959 0.26712 0.743417
41 1 0.255575 0.25762 0.705154
830 4 0.347732 0.285885 0.727165
829 2 0.354492 0.297096 0.748467
3276 4 0.072567 0.359554 0.682785
815 4 0.0837983 0.356611 0.698337
814 2 0.0800399 0.349665 0.722061
885 4 0.0713879 0.419391 0.705707
816 4 0.0762816 0.34272 0.745784
883 2 0.0902854 0.410727 0.719599
1078 2 0.145773 0.390153 0.74356
1079 4 0.124142 0.399577 0.751833
884 4 0.109183 0.402062 0.733492
1080 4 0.167404 0.380729 0.735286
2011 2 0.212579 0.387661 0.732944
2012 4 0.231931 0.399075 0.721971
2013 4 0.193227 0.376247 0.743917
1029 4 0.302384 0.394216 0.70414
3430 2 0.999667 0.468987 0.669822
1280 4 0.0748215 0.467994 0.674098
1281 4 0.0541211 0.428924 0.697459
1279 2 0.0644713 0.448459 0.685779
3431 4 0.00864192 0.448265 0.680555
2015 4 0.090841 0.476585 0.683525
1953 4 0.295082 0.441996 0.668607
1951 2 0.28233 0.463467 0.669855
1027 2 0.305874 0.41126 0.686181
1952 4 0.269578 0.484938 0.671103
929 4 0.271493 0.455902 0.745454
928 2 0.264287 0.478836 0.738578
1229 4 0.361127 0.445444 0.745779
3329 4 0.493099 0.430979 0.727543
1206 4 0.491237 0.492575 0.722084
1204 2 0.470391 0.48817 0.735168
999 4 0.429376 0.483657 0.753507
1205 4 0.449544 0.483765 0.748252
1202 4 0.00279867 0.0919957 0.786727
1227 4 0.142182 0.115542 0.786171
1225 2 0.154354 0.102577 0.768594
1129 2 0.110941 0.154127 0.809635
1131 4 0.105607 0.138475 0.82839
1226 4 0.166525 0.089612 0.751018
1148 4 0.185029 0.0977084 0.753841
966 4 0.224609 0.0962689 0.776735
838 2 0.293238 0.0870664 0.833543
840 4 0.275027 0.0910917 0.81689
964 2 0.243525 0.10111 0.792354
965 4 0.262441 0.105952 0.807973
959 4 0.313566 0.138796 0.783527
958 2 0.297531 0.122506 0.793661
960 4 0.281497 0.106216 0.803796
1086 4 0.302104 0.156201 0.785848
2400 4 0.397206 0.107994 0.789322
2398 2 0.411726 0.109109 0.809647
2399 4 0.426245 0.110224 0.829973
2320 2 0.464017 0.097766 0.823871
2321 4 0.484723 0.0938046 0.810426
922 2 0.0609712 0.224143 0.819837
923 4 0.0427627 0.238541 0.810545
924 4 0.0791797 0.209745 0.829129
821 4 0.0286879 0.240171 0.762338
1130 4 0.116276 0.169778 0.79088
1235 4 0.110406 0.226652 0.765502
1234 2 0.0945506 0.245419 0.770148
1125 4 0.120826 0.210344 0.829919
1141 2 0.261815 0.250005 0.761518
1084 2 0.308805 0.179506 0.791942
1085 4 0.315506 0.202812 0.798036
1298 4 0.274785 0.230926 0.791562
1143 4 0.259671 0.23289 0.77962
1297 2 0.288398 0.239841 0.810546
48 3 0.408477 0.237302 0.811478
47 3 0.422691 0.20482 0.823949
819 4 0.419058 0.177258 0.751779
46 1 0.422606 0.219627 0.806345
50 3 0.415232 0.208971 0.787617
817 2 0.439047 0.178005 0.766781
818 4 0.459036 0.178751 0.781784