ITEM: TIMESTEP
1750000
ITEM: NUMBER OF ATOMS
4590
ITEM: BOX BOUNDS pp pp pp
-9.9985700000000008e+00 9.9985700000000008e+00
-9.9985700000000008e+00 9.9985700000000008e+00
-9.9985700000000008e+00 9.9985700000000008e+00
ITEM: ATOMS id type xs ys zs
464 4 0.0368366 0.0237722 0.0763815
463 2 0.0126885 0.0172879 0.0764385
1254 4 0.159035 0.0289323 0.00708217
578 4 0.188196 0.0312799 0.073195
491 4 0.23138 0.0191159 0.0715747
1252 2 0.168005 0.00812121 0.0176472
490 2 0.254353 0.023302 0.0626365
492 4 0.277326 0.0274881 0.0536983
486 4 0.294717 0.0208542 0.0469186
484 2 0.317965 0.015248 0.0396197
485 4 0.341213 0.00964184 0.0323207
1607 4 0.360371 0.00945165 0.0400823
2468 4 0.414533 0.0389034 0.043221
2467 2 0.426495 0.0300513 0.0633144
2469 4 0.438456 0.0211992 0.0834078
1759 2 0.477964 0.0277445 0.0882317
1760 4 0.455162 0.01806 0.0916226
1246 2 0.0126689 0.136534 0.0229294
1248 4 0.0302683 0.145663 0.00769437
360 4 0.245252 0.108016 0.0187209
359 4 0.288107 0.10021 0.0432817
358 2 0.266679 0.104113 0.0310013
664 2 0.333494 0.155664 0.0311209
665 4 0.32985 0.146537 0.0541123
666 4 0.337138 0.16479 0.0081295
557 4 0.342996 0.15063 0.069301
556 2 0.360515 0.142837 0.085349
869 4 0.051743 0.179125 0.0139525
555 4 0.113266 0.224266 0.0265148
553 2 0.13595 0.219395 0.0171925
554 4 0.158633 0.214525 0.00787027
353 4 0.233941 0.207568 0.0791473
770 4 0.471661 0.195003 0.0575712
769 2 0.472956 0.177069 0.0749465
755 4 0.239474 0.302495 0.0602094
754 2 0.258742 0.314587 0.0705878
1070 4 0.311424 0.302908 0.00364648
756 4 0.27801 0.326679 0.0809661
1069 2 0.332707 0.289877 0.00210465
1071 4 0.353991 0.276846 0.00056282
671 4 0.453764 0.278343 0.00501564
670 2 0.457064 0.29608 0.0223272
563 4 0.474264 0.306536 0.0514473
672 4 0.460363 0.313817 0.0396389
562 2 0.486446 0.304308 0.0731687
104 3 0.454872 0.331774 0.0362666
1095 4 0.44292 0.335276 0.0186441
102 3 0.489208 0.344752 0.0281899
1166 4 0.488981 0.327555 0.0128285
619 2 0.0588965 0.370619 0.00500391
621 4 0.0452369 0.373264 0.0257789
2787 4 0.0317369 0.382061 0.0392235
2785 2 0.028596 0.3683 0.0598621
2786 4 0.0254552 0.354539 0.0805008
292 2 0.0852298 0.387859 0.068694
294 4 0.0866284 0.411959 0.0621809
913 2 0.142795 0.385491 0.0430053
915 4 0.128202 0.404922 0.0488938
288 4 0.150634 0.351305 0.0268599
914 4 0.157388 0.366061 0.0371167
293 4 0.0838311 0.363759 0.0752071
740 4 0.293354 0.330035 0.0696614
250 2 0.312105 0.40342 0.0429043
252 4 0.29562 0.390946 0.0288395
251 4 0.32859 0.415894 0.0569691
739 2 0.313424 0.343755 0.0755022
1305 4 0.395514 0.372282 0.0377103
1303 2 0.420232 0.371478 0.0413863
1304 4 0.444951 0.370673 0.0450623
956 4 0.457888 0.385286 0.0350001
105 3 0.478938 0.340636 0.0638336
101 1 0.471676 0.346289 0.0430021
103 3 0.463764 0.368102 0.0430241
955 2 0.471883 0.404189 0.0434839
2841 4 0.468104 0.370655 0.0212712
550 2 0.0748676 0.420686 0.0240294
552 4 0.0817961 0.425195 0.0476269
1440 4 0.13847 0.465978 0.0515351
1438 2 0.119106 0.450293 0.0494956
243 4 0.14771 0.482265 0.0538091
1439 4 0.099741 0.434608 0.0474561
241 2 0.168323 0.494482 0.0609518
244 2 0.230951 0.468677 0.0623656
902 4 0.211731 0.431735 0.0420039
901 2 0.190716 0.425428 0.030013
903 4 0.169701 0.419121 0.018022
246 4 0.22091 0.447628 0.0533499
1289 4 0.221218 0.447974 0.0321534
245 4 0.240993 0.489727 0.0713813
1288 2 0.230473 0.458595 0.0114964
609 4 0.320262 0.416502 0.0749064
957 4 0.485879 0.423092 0.0519677
380 4 0.0111642 0.0200559 0.138227
1806 4 0.150932 0.0270927 0.123462
1804 2 0.138195 0.00789454 0.133176
579 4 0.160011 0.0144573 0.110922
577 2 0.174104 0.0228686 0.0920585
1505 4 0.300154 0.00446137 0.111957
24 3 0.414234 0.0478251 0.151553
21 1 0.39214 0.0463289 0.158483
22 3 0.379157 0.0595369 0.14484
23 3 0.3848 0.0243767 0.156864
2724 4 0.428624 0.048349 0.137122
2723 4 0.438699 0.0124876 0.103757
2722 2 0.433662 0.0304183 0.120439
237 4 0.0745277 0.136241 0.149257
477 4 0.0824045 0.148303 0.134839
475 2 0.0883948 0.166639 0.118929
423 4 0.15859 0.124076 0.135557
421 2 0.179228 0.115298 0.124503
422 4 0.199865 0.106519 0.113448
532 2 0.231171 0.12972 0.114415
534 4 0.216827 0.111028 0.122783
533 4 0.245515 0.148412 0.106047
296 4 0.391985 0.12672 0.114183
295 2 0.411977 0.115231 0.123853
558 4 0.378034 0.135044 0.101397
629 4 0.386657 0.146737 0.114397
297 4 0.431968 0.103742 0.133523
771 4 0.47425 0.159136 0.0923217
2893 2 0.494153 0.127593 0.117783
2895 4 0.485319 0.148099 0.10653
2519 4 0.49269 0.166706 0.101772
476 4 0.094385 0.184974 0.10302
736 2 0.155242 0.184078 0.168393
737 4 0.15846 0.208863 0.167668
372 4 0.159305 0.228279 0.176239
284 4 0.172869 0.221862 0.161477
354 4 0.217765 0.241668 0.111954
352 2 0.225853 0.224618 0.0955505
285 4 0.203703 0.234426 0.124166
283 2 0.188286 0.228144 0.142822
764 4 0.22079 0.242177 0.132447
763 2 0.238319 0.253941 0.145845
310 2 0.306622 0.207201 0.141325
312 4 0.311961 0.23106 0.136091
311 4 0.301284 0.183341 0.146559
461 4 0.313284 0.250727 0.140088
628 2 0.387465 0.170687 0.121534
630 4 0.388273 0.194637 0.12867
728 4 0.397014 0.208981 0.141984
519 4 0.470605 0.242087 0.120958
526 2 0.497939 0.243289 0.150576
836 4 0.0732175 0.307828 0.113263
835 2 0.078974 0.329107 0.101462
506 4 0.146727 0.263162 0.0919242
338 4 0.129775 0.268981 0.100712
339 4 0.13219 0.265008 0.150503
337 2 0.130983 0.266994 0.125607
507 4 0.195248 0.252946 0.0854365
505 2 0.170988 0.258054 0.0886803
765 4 0.255849 0.265705 0.159243
610 2 0.284063 0.298999 0.157661
612 4 0.265689 0.282047 0.15722
611 4 0.302437 0.315951 0.158103
323 4 0.340668 0.314273 0.102389
322 2 0.351553 0.298707 0.11865
460 2 0.336262 0.255613 0.14865
324 4 0.362437 0.283141 0.13491
255 4 0.373778 0.270416 0.146207
462 4 0.35924 0.260498 0.157212
253 2 0.393026 0.263955 0.131615
254 4 0.412275 0.257494 0.117022
624 4 0.402127 0.304517 0.144268
622 2 0.405842 0.327266 0.153957
528 4 0.48385 0.251508 0.131626
517 2 0.449183 0.25497 0.120389
518 4 0.427762 0.267853 0.119821
596 4 0.489603 0.332368 0.152055
313 2 0.0300422 0.36652 0.117994
314 4 0.0373317 0.35516 0.0969469
315 4 0.0227527 0.377881 0.139041
837 4 0.0847305 0.350385 0.0896607
455 4 0.15835 0.381053 0.138528
454 2 0.14619 0.378259 0.160196
608 4 0.317437 0.407318 0.123982
607 2 0.31885 0.41191 0.0994441
741 4 0.333495 0.357474 0.0813429
386 4 0.351811 0.35722 0.0869519
387 4 0.376221 0.385603 0.120107
385 2 0.364016 0.371411 0.103529
13 3 0.382083 0.388734 0.140164
11 1 0.401935 0.386594 0.151983
12 3 0.40908 0.36477 0.150631
623 4 0.409557 0.350014 0.163646
15 3 0.417813 0.400253 0.143041
524 4 0.316018 0.485717 0.15671
523 2 0.326042 0.486525 0.133818
1488 4 0.303476 0.495749 0.168345
525 4 0.336067 0.487333 0.110926
659 4 0.403984 0.482613 0.142002
658 2 0.391413 0.496339 0.158698
495 4 0.417154 0.469816 0.149433
494 4 0.417486 0.420268 0.142675
493 2 0.41732 0.445042 0.146054
675 4 0.166774 0.0246233 0.186757
673 2 0.160968 0.0257009 0.211054
582 4 0.163636 0.0811102 0.180509
691 2 0.142646 0.0614102 0.249255
429 4 0.153115 0.0087113 0.245645
692 4 0.148738 0.0372382 0.251198
674 4 0.155162 0.0267785 0.23535
581 4 0.210765 0.0674917 0.170807
654 4 0.219525 0.0537736 0.184558
580 2 0.187201 0.0743009 0.175658
652 2 0.241687 0.0653382 0.184019
653 4 0.263849 0.0769028 0.183481
759 4 0.384025 0.0718162 0.185916
25 3 0.39023 0.0535948 0.179982
757 2 0.394195 0.0707415 0.208733
744 4 0.392839 0.0769569 0.246121
758 4 0.404365 0.0696667 0.231549
235 2 0.068571 0.131191 0.173009
544 2 0.0858622 0.100269 0.234654
545 4 0.0694646 0.110727 0.21894
236 4 0.0626143 0.126142 0.196762
738 4 0.152024 0.159293 0.169118
567 4 0.154936 0.0926507 0.193458
565 2 0.152701 0.116955 0.188028
566 4 0.150466 0.141259 0.182599
600 4 0.186391 0.116418 0.240002
598 2 0.185841 0.139771 0.248918
29 3 0.316987 0.126668 0.237816
26 1 0.305884 0.143765 0.226735
30 3 0.283879 0.138433 0.224286
28 3 0.315536 0.147302 0.205933
27 3 0.30767 0.163056 0.239138
309 4 0.329754 0.154342 0.193819
332 4 0.475086 0.146889 0.232774
370 2 0.148084 0.249047 0.184484
307 2 0.351778 0.165966 0.196059
727 2 0.391539 0.200717 0.164939
497 4 0.352106 0.238483 0.219806
729 4 0.386064 0.192454 0.187893
496 2 0.361243 0.21771 0.209311
498 4 0.37038 0.196937 0.198815
308 4 0.373801 0.17759 0.198298
331 2 0.484996 0.168839 0.226052
333 4 0.494906 0.190789 0.219331
363 4 0.03418 0.264418 0.233099
361 2 0.0572246 0.273137 0.237353
648 4 0.0513325 0.288325 0.183984
646 2 0.0589751 0.311793 0.187982
366 4 0.00830136 0.331188 0.211893
362 4 0.0802692 0.281856 0.241608
371 4 0.136863 0.269814 0.192729
749 4 0.13475 0.324154 0.242786
748 2 0.115257 0.308706 0.245349
299 4 0.152543 0.330389 0.239687
302 4 0.315842 0.322041 0.172091
595 2 0.492727 0.316065 0.170753
521 4 0.493651 0.282661 0.199826
1757 4 0.0667171 0.408236 0.166457
647 4 0.0666178 0.335262 0.191981
705 4 0.0847073 0.335753 0.202464
456 4 0.134031 0.375465 0.181865
417 4 0.132491 0.370042 0.200328
704 4 0.125969 0.356775 0.183589
415 2 0.130651 0.390318 0.214841
703 2 0.105338 0.346264 0.193026
301 2 0.309774 0.345183 0.179357
303 4 0.303707 0.368325 0.186623
14 3 0.398497 0.391992 0.174287
645 4 0.407026 0.405925 0.186536
1756 2 0.0712531 0.427485 0.181756
1758 4 0.075789 0.446735 0.197055
603 4 0.0787491 0.449825 0.216524
416 4 0.128811 0.410595 0.229355
601 2 0.0988865 0.438915 0.226557
602 4 0.119024 0.428006 0.236589
637 2 0.162968 0.435857 0.227239
626 4 0.230268 0.495555 0.216859
625 2 0.209356 0.483311 0.210699
627 4 0.188444 0.471067 0.204539
639 4 0.185545 0.4454 0.222298
1629 4 0.24682 0.489315 0.224325
1627 2 0.258448 0.469569 0.234328
643 2 0.424733 0.420407 0.196632
109 3 0.470454 0.418689 0.189105
107 3 0.487318 0.42552 0.221993
644 4 0.44244 0.434888 0.206729
110 3 0.456783 0.444788 0.212548
106 1 0.475807 0.435149 0.204559
108 3 0.489277 0.451237 0.194653
512 4 0.0659155 0.0443445 0.277968
511 2 0.0509805 0.064065 0.27433
513 4 0.0360456 0.0837854 0.270693
427 2 0.141237 0.00299068 0.266891
428 4 0.12936 0.99727 0.288137
693 4 0.136553 0.0855822 0.247311
1463 4 0.164555 0.0249847 0.254339
467 4 0.178453 0.0500813 0.266659
1462 2 0.189303 0.0214219 0.25432
1464 4 0.214052 0.0178592 0.2543
466 2 0.181512 0.0600338 0.289392
468 4 0.18457 0.0699862 0.312124
606 4 0.193116 0.0781992 0.327933
683 4 0.256332 0.0340458 0.308928
682 2 0.270331 0.0532038 0.316813
684 4 0.28433 0.0723618 0.324698
708 4 0.35226 0.0814225 0.324644
479 4 0.444637 0.048672 0.312629
478 2 0.436887 0.0651191 0.295464
480 4 0.429137 0.0815661 0.2783
2739 4 0.00293889 0.0992194 0.303798
2483 4 0.0495652 0.114385 0.315631
529 2 0.0015492 0.09231 0.256564
531 4 0.0264603 0.0908405 0.254997
2482 2 0.0709489 0.127279 0.314347
546 4 0.10226 0.0898118 0.250368
731 4 0.120332 0.0850983 0.259799
2484 4 0.0923326 0.140174 0.313064
399 4 0.11107 0.144521 0.313639
732 4 0.0977907 0.0821184 0.304338
730 2 0.109061 0.0836084 0.282069
397 2 0.125927 0.131721 0.32915
392 4 0.0975647 0.153143 0.298076
473 4 0.198313 0.0967325 0.330109
474 4 0.205166 0.127455 0.291251
472 2 0.201739 0.112094 0.31068
599 4 0.185291 0.163124 0.257835
632 4 0.281997 0.130989 0.292193
706 2 0.327738 0.0773763 0.321902
633 4 0.291972 0.0851381 0.309482
631 2 0.286984 0.108064 0.300837
707 4 0.303217 0.07333 0.319159
742 2 0.388543 0.0880956 0.26809
743 4 0.384246 0.0992344 0.290059
349 2 0.401155 0.135171 0.306267
351 4 0.385361 0.116766 0.300186
350 4 0.416948 0.153577 0.312348
451 2 0.456643 0.135227 0.307811
452 4 0.435111 0.144487 0.316518
453 4 0.478175 0.125967 0.299105
389 4 0.0165658 0.229269 0.307523
388 2 0.0345862 0.245818 0.30237
393 4 0.0866023 0.197955 0.278778
391 2 0.0920835 0.175549 0.288427
405 4 0.16478 0.2108 0.301245
249 4 0.194557 0.179578 0.257398
403 2 0.16928 0.193338 0.283925
404 4 0.17378 0.175875 0.266604
247 2 0.218728 0.185802 0.258895
248 4 0.242898 0.192026 0.260392
279 4 0.259756 0.205014 0.262245
277 2 0.259538 0.228864 0.269749
418 2 0.398025 0.240311 0.29253
306 4 0.418197 0.239697 0.32837
419 4 0.378531 0.240848 0.276881
420 4 0.417518 0.239774 0.30818
390 4 0.0526066 0.262368 0.297217
444 4 0.0518938 0.278867 0.286403
442 2 0.0646058 0.298906 0.294278
443 4 0.0773178 0.318945 0.302153
548 4 0.0280867 0.321726 0.277227
750 4 0.0957645 0.293257 0.247913
408 4 0.0858237 0.328141 0.317873
536 4 0.245343 0.263331 0.287176
535 2 0.221919 0.270877 0.291598
537 4 0.198495 0.278423 0.29602
278 4 0.259321 0.252714 0.277253
377 4 0.367795 0.311167 0.32647
547 2 0.0166482 0.335859 0.294391
549 4 0.00520956 0.349992 0.311555
733 2 0.13824 0.341501 0.313875
298 2 0.161606 0.337601 0.261846
734 4 0.156042 0.343991 0.296495
767 4 0.154214 0.391888 0.297135
735 4 0.120438 0.339011 0.331255
766 2 0.14785 0.408256 0.279338
300 4 0.170669 0.344813 0.284005
344 4 0.186396 0.338385 0.308599
438 4 0.254125 0.407984 0.305419
436 2 0.268914 0.40903 0.325552
434 4 0.432273 0.36431 0.313445
3717 4 0.0484335 0.499442 0.255278
3960 4 0.0140242 0.445948 0.292688
3958 2 0.00414333 0.435414 0.272277
3959 4 0.994262 0.42488 0.251867
638 4 0.140392 0.426314 0.23218
290 4 0.133063 0.437146 0.247413
768 4 0.141486 0.424624 0.26154
501 4 0.107508 0.493436 0.337504
289 2 0.132657 0.45611 0.263703
499 2 0.116125 0.474385 0.323793
500 4 0.124742 0.455334 0.310082
291 4 0.132251 0.475074 0.279994
1437 4 0.242612 0.464606 0.305969
1435 2 0.230612 0.462661 0.327818
1628 4 0.270076 0.449822 0.244331
1574 4 0.312654 0.485297 0.277118
713 4 0.412754 0.48693 0.313538
542 4 0.468367 0.473657 0.276835
541 2 0.449438 0.477243 0.292772
543 4 0.430509 0.480828 0.30871
615 4 0.423562 0.464109 0.315434
447 4 0.432267 0.483174 0.328145
317 4 0.0190199 0.044278 0.349396
316 2 0.0397068 0.0460121 0.363333
318 4 0.0603937 0.0477463 0.377269
605 4 0.197352 0.0450742 0.365155
604 2 0.195234 0.0616367 0.346544
439 2 0.233022 0.0412491 0.393573
440 4 0.22246 0.0342625 0.372014
441 4 0.243585 0.0482357 0.415133
1669 2 0.286804 0.0452944 0.417264
1671 4 0.291881 0.0682029 0.425902
1518 4 0.312887 0.066581 0.40651
699 4 0.302677 0.083504 0.414398
1517 4 0.344294 0.054265 0.369596
1516 2 0.328591 0.060423 0.388053
1427 4 0.42698 0.0337959 0.374248
1426 2 0.430129 0.0112771 0.384648
398 4 0.140784 0.118921 0.344661
276 4 0.19681 0.103214 0.348629
274 2 0.205734 0.108106 0.371467
373 2 0.246345 0.128561 0.413151
375 4 0.231805 0.109321 0.406549
275 4 0.214659 0.112998 0.394306
726 4 0.286219 0.091842 0.33365
725 4 0.257971 0.104729 0.372851
724 2 0.272095 0.0982853 0.353251
697 2 0.310496 0.105294 0.404951
698 4 0.318315 0.127084 0.395505
514 2 0.41272 0.161588 0.351939
256 2 0.399407 0.117834 0.392517
258 4 0.383969 0.107408 0.409194
257 4 0.414846 0.12826 0.37584
1580 4 0.471044 0.100498 0.354347
516 4 0.423607 0.143218 0.364946
1581 4 0.435404 0.129139 0.374601
1579 2 0.453224 0.114819 0.364474
346 2 0.00626557 0.182923 0.410396
487 2 0.291885 0.240903 0.384172
488 4 0.293267 0.228973 0.406102
509 4 0.291002 0.208235 0.408521
717 4 0.307523 0.218366 0.414516
515 4 0.401833 0.179958 0.338932
265 2 0.40852 0.21817 0.409809
267 4 0.416503 0.219915 0.386178
304 2 0.435948 0.227087 0.34066
305 4 0.453699 0.214476 0.352949
585 4 0.513845 0.211191 0.395958
268 2 0.498455 0.249514 0.378595
872 4 0.500348 0.224042 0.403553
616 2 0.0642018 0.327188 0.390407
617 4 0.0750244 0.315377 0.409604
343 2 0.192153 0.333128 0.332356
345 4 0.197909 0.32787 0.356113
402 4 0.209921 0.320801 0.369723
400 2 0.226697 0.302834 0.365145
1260 4 0.237311 0.271987 0.374825
1258 2 0.243297 0.263116 0.397423
678 4 0.189109 0.327951 0.372791
401 4 0.243473 0.284868 0.360567
489 4 0.290502 0.252833 0.362241
376 2 0.352484 0.323981 0.341522
269 4 0.484017 0.267581 0.369092
406 2 0.0723127 0.33851 0.336179
407 4 0.0588018 0.348879 0.354485
618 4 0.0533792 0.338999 0.371209
677 4 0.1645 0.364013 0.397177
676 2 0.176804 0.345982 0.384984
593 4 0.316645 0.330794 0.361604
592 2 0.302029 0.348008 0.350871
594 4 0.287413 0.365223 0.340138
437 4 0.283703 0.410075 0.345686
378 4 0.337173 0.336795 0.356574
433 2 0.437564 0.367957 0.337609
586 2 0.493114 0.391085 0.372026
587 4 0.473162 0.398084 0.358682
435 4 0.442855 0.371603 0.361773
119 3 0.458996 0.398109 0.415383
3988 2 0.454075 0.362946 0.408117
3990 4 0.442177 0.34138 0.412422
3989 4 0.465973 0.384512 0.403812
414 4 0.160941 0.429425 0.341748
1436 4 0.218612 0.460715 0.349668
412 2 0.180257 0.445059 0.344514
413 4 0.199573 0.460693 0.34728
1557 4 0.223514 0.436727 0.382456
1555 2 0.248246 0.439863 0.384371
1556 4 0.272978 0.443 0.386285
669 4 0.289159 0.431593 0.379198
667 2 0.312598 0.432836 0.387815
668 4 0.336037 0.434079 0.396432
614 4 0.400229 0.440592 0.352895
4 3 0.390039 0.447648 0.409135
2 3 0.354316 0.436146 0.407078
445 2 0.449587 0.492448 0.343609
613 2 0.411895 0.45235 0.334165
116 1 0.468809 0.419114 0.414439
120 3 0.480431 0.421394 0.394987
1742 4 0.482754 0.438381 0.383554
369 4 0.0508651 0.0642318 0.422389
368 4 0.0469485 0.0447691 0.468286
938 4 0.0513323 0.0353713 0.486272
937 2 0.0610583 0.0123468 0.486946
1059 4 0.0439997 0.0529909 0.487879
367 2 0.0489068 0.0545005 0.445337
1670 4 0.281727 0.0223859 0.408627
1818 4 0.266838 8.12973e-05 0.459777
962 4 0.260917 0.0596099 0.461519
1817 4 0.277276 0.0485656 0.466182
1816 2 0.272057 0.0243235 0.462979
961 2 0.274402 0.0805199 0.459046
687 4 0.150407 0.131443 0.425171
685 2 0.165053 0.131032 0.445432
686 4 0.179699 0.13062 0.465693
374 4 0.260886 0.1478 0.419753
431 4 0.321978 0.144912 0.43636
430 2 0.307023 0.146095 0.456363
963 4 0.287886 0.10143 0.456573
432 4 0.292067 0.147278 0.476366
321 4 0.292488 0.138559 0.494995
424 2 0.321069 0.106329 0.492232
510 4 0.275856 0.163847 0.425872
425 4 0.302822 0.121511 0.500087
426 4 0.339317 0.0911463 0.484376
904 2 0.428048 0.130182 0.494713
906 4 0.433827 0.153908 0.48934
347 4 0.0166016 0.20287 0.421372
508 2 0.283429 0.186041 0.417197
649 2 0.30149 0.215177 0.478949
650 4 0.30093 0.240174 0.479014
651 4 0.302051 0.19018 0.478884
715 2 0.329993 0.217669 0.425461
711 4 0.282869 0.246724 0.47464
716 4 0.352463 0.216972 0.436406
576 4 0.372825 0.197686 0.478429
574 2 0.387103 0.196814 0.457922
410 4 0.376641 0.184787 0.49177
575 4 0.401381 0.195942 0.437414
266 4 0.400537 0.216424 0.43344
871 2 0.482748 0.221994 0.421194
873 4 0.465148 0.219947 0.438836
2812 2 0.0829473 0.314077 0.470736
2813 4 0.0657436 0.296645 0.47577
2814 4 0.100151 0.331509 0.465701
1136 4 0.14405 0.291101 0.456485
1135 2 0.133107 0.293798 0.478805
1259 4 0.249284 0.254244 0.42002
709 2 0.273765 0.254637 0.452738
710 4 0.264661 0.262551 0.430837
503 4 0.176252 0.391352 0.438612
502 2 0.169246 0.414684 0.432982
383 4 0.0387598 0.439809 0.456573
382 2 0.0598801 0.453101 0.455005
384 4 0.0810003 0.466392 0.453437
634 2 0.150409 0.477181 0.421459
504 4 0.162239 0.438017 0.427352
636 4 0.150845 0.452262 0.419445
773 4 0.178174 0.449747 0.432629
772 2 0.194909 0.459453 0.448469
774 4 0.211644 0.469159 0.464309
540 4 0.197645 0.484598 0.496536
336 4 0.309904 0.443768 0.459811
334 2 0.322866 0.439986 0.438767
240 4 0.320824 0.442068 0.49813
335 4 0.335829 0.436204 0.417723
1 1 0.370971 0.442854 0.421457
1585 2 0.34403 0.489744 0.456856
880 2 0.373538 0.431605 0.478966
881 4 0.36805 0.433993 0.454689
1586 4 0.348856 0.467727 0.446031
5 3 0.364126 0.461425 0.432723
3 3 0.375326 0.425669 0.436428
1269 4 0.456213 0.453605 0.495006
3603 4 0.497005 0.421981 0.447559
1267 2 0.459335 0.44188 0.473143
118 3 0.483024 0.422038 0.432544
117 3 0.452281 0.43509 0.415307
1268 4 0.462457 0.430155 0.451281
2318 4 0.0540318 0.0279044 0.576251
1058 4 0.0284982 0.070603 0.53204
1057 2 0.036249 0.061797 0.50996
1182 4 0.234529 0.0675919 0.570719
1180 2 0.256905 0.0720589 0.560495
1181 4 0.279281 0.0765259 0.55027
842 4 0.322922 0.0513018 0.573578
841 2 0.301235 0.0399539 0.578687
1217 4 0.341542 0.0615112 0.56409
2333 4 0.340098 0.0427672 0.571647
2332 2 0.345772 0.0217241 0.559393
1216 2 0.354759 0.0786964 0.551634
150 3 0.397496 0.0552037 0.512296
146 1 0.402864 0.0745575 0.523032
1090 2 0.400799 0.00262319 0.56184
2334 4 0.351446 0.000681046 0.547138
147 3 0.416055 0.0697118 0.541243
1091 4 0.421696 0.00615057 0.548572
88 3 0.43054 0.0117096 0.532283
87 3 0.466634 0.0015644 0.529643
4467 4 0.473145 0.0501563 0.579909
3007 2 0.443756 0.0735945 0.571919
2283 4 0.437911 0.00747446 0.561359
4465 2 0.497953 0.0470312 0.579982
3009 4 0.426222 0.0824091 0.556425
2281 2 0.447984 0.0175943 0.581885
824 4 0.0609399 0.101608 0.568322
2429 4 0.0615645 0.107844 0.54827
1270 2 0.0866995 0.163903 0.558622
2428 2 0.086202 0.109635 0.552139
2430 4 0.110839 0.111426 0.556007
260 4 0.138686 0.153658 0.517878
1271 4 0.110263 0.161446 0.566616
1032 4 0.180387 0.0875044 0.586565
1151 4 0.197817 0.161994 0.571468
1150 2 0.205061 0.157779 0.547911
1152 4 0.212305 0.153564 0.524354
319 2 0.303642 0.15666 0.508153
1218 4 0.367977 0.0958815 0.539178
900 4 0.369316 0.110818 0.554527
148 3 0.383569 0.0851631 0.530355
898 2 0.361524 0.129293 0.569465
3250 2 0.418392 0.11755 0.543765
149 3 0.414647 0.0885329 0.50874
3251 4 0.417674 0.104949 0.522181
905 4 0.422269 0.106457 0.500087
3252 4 0.419109 0.130152 0.565349
3053 4 0.432028 0.124408 0.58153
877 2 0.0215814 0.175044 0.554745
1272 4 0.0631361 0.16636 0.550628
879 4 0.0464263 0.174683 0.557534
908 4 0.0783064 0.211228 0.582581
259 2 0.129771 0.177018 0.517705
1033 2 0.136515 0.221521 0.548236
1034 4 0.151536 0.226178 0.567675
1035 4 0.121495 0.216865 0.528797
261 4 0.120856 0.200377 0.517533
1219 2 0.168331 0.184293 0.575463
1221 4 0.158816 0.206947 0.570832
1220 4 0.177847 0.16164 0.580094
993 4 0.24854 0.232152 0.573327
320 4 0.314796 0.174761 0.521311
790 2 0.294406 0.251302 0.555423
791 4 0.31 0.23176 0.555163
411 4 0.334855 0.178759 0.51857
409 2 0.355748 0.181773 0.50517
2845 2 0.0326968 0.310531 0.561535
2846 4 0.0359869 0.306605 0.537062
1041 4 0.121374 0.312377 0.511664
1137 4 0.122164 0.296495 0.501124
792 4 0.278811 0.270845 0.555682
804 4 0.263327 0.27799 0.5679
812 4 0.263845 0.282764 0.546585
811 2 0.275587 0.289515 0.525567
813 4 0.287328 0.296266 0.504549
1039 2 0.111623 0.333594 0.520604
1040 4 0.101872 0.354811 0.529544
1160 4 0.139137 0.384098 0.546122
897 4 0.137541 0.400143 0.557456
895 2 0.124036 0.405122 0.577901
1159 2 0.161497 0.389054 0.53609
1190 4 0.201708 0.393579 0.534476
1161 4 0.183856 0.394011 0.526058
1173 4 0.20045 0.404843 0.518308
1189 2 0.213858 0.390327 0.556086
1191 4 0.226009 0.387075 0.577695
1938 4 0.035374 0.476403 0.552241
1936 2 0.0138996 0.486962 0.544994
539 4 0.161809 0.461706 0.52285
538 2 0.179727 0.473152 0.509693
1171 2 0.211904 0.426164 0.512031
1172 4 0.223357 0.447486 0.505754
1186 2 0.244986 0.483874 0.52718
1187 4 0.248313 0.491978 0.550599
1188 4 0.24166 0.475771 0.503761
239 4 0.307404 0.418725 0.540269
238 2 0.314114 0.430396 0.5192
1910 4 0.406177 0.468995 0.564479
663 4 0.376271 0.447573 0.512583
661 2 0.382614 0.454359 0.535797
882 4 0.379025 0.429217 0.503242
662 4 0.388957 0.461144 0.559011
1002 4 0.390843 0.470047 0.578983
4149 4 0.396933 0.447337 0.573608
1000 2 0.370244 0.481678 0.587082
4084 2 0.481189 0.470052 0.522654
4085 4 0.459418 0.465051 0.51142
4147 2 0.41949 0.449687 0.584138
2317 2 0.0549769 0.00854109 0.592042
1030 2 0.201957 0.0748631 0.586249
1031 4 0.223527 0.0622219 0.585933
98 3 0.219016 0.025506 0.664556
100 3 0.254089 0.0390252 0.66237
843 4 0.279548 0.0286059 0.583795
950 4 0.248509 0.0370112 0.642227
951 4 0.274461 0.0388982 0.599523
949 2 0.261485 0.0379547 0.620875
1003 2 0.334099 0.015609 0.636954
1005 4 0.320075 0.0277173 0.620165
887 4 0.336102 0.0642222 0.581636
886 2 0.334914 0.0740085 0.604614
1004 4 0.348124 0.0035007 0.653743
888 4 0.333726 0.0837947 0.627593
3008 4 0.461289 0.06478 0.587413
2282 4 0.458057 0.0277141 0.60241
1164 4 0.470274 0.0753797 0.656486
823 2 0.0413387 0.100437 0.583801
825 4 0.0217374 0.0992675 0.59928
1200 4 0.0303044 0.136027 0.650173
1198 2 0.0183755 0.114775 0.644583
851 4 0.0219689 0.151378 0.660332
1199 4 0.00644658 0.0935236 0.638992
1073 4 0.0853111 0.147185 0.667327
1154 4 0.121991 0.139819 0.599521
1155 4 0.162127 0.138239 0.62931
1153 2 0.142059 0.139029 0.614416
944 4 0.172886 0.104053 0.594407
943 2 0.181394 0.125678 0.58518
1284 4 0.178386 0.128451 0.63647
1211 4 0.176352 0.147653 0.640564
945 4 0.189902 0.147303 0.575952
325 2 0.222556 0.160717 0.602317
326 4 0.244381 0.169753 0.610514
1282 2 0.188281 0.107695 0.646291
1283 4 0.198177 0.0869393 0.656112
1238 4 0.318319 0.0907039 0.635432
1237 2 0.293393 0.0904846 0.633476
1239 4 0.268467 0.0902653 0.63152
1194 4 0.338664 0.15094 0.596256
899 4 0.353732 0.147768 0.584403
806 4 0.338027 0.0963142 0.643059
805 2 0.337091 0.111832 0.662642
3052 2 0.450016 0.123825 0.598887
3054 4 0.468004 0.123242 0.616244
3400 2 0.483179 0.108244 0.642102
3402 4 0.480268 0.129993 0.630115
3401 4 0.486089 0.086495 0.654089
850 2 0.0398154 0.164873 0.649171
852 4 0.057662 0.178368 0.638011
1083 4 0.0416157 0.188546 0.625177
1208 4 0.0558518 0.198588 0.640496
909 4 0.0606712 0.179176 0.616675
907 2 0.0694888 0.195202 0.599628
1207 2 0.0555397 0.22308 0.645514
1081 2 0.0212199 0.197799 0.614061
695 4 0.157098 0.239129 0.583175
948 4 0.148394 0.218484 0.647467
946 2 0.132723 0.208263 0.664055
327 4 0.200731 0.151681 0.59412
1210 2 0.175289 0.172298 0.636483
991 2 0.228452 0.230441 0.588117
694 2 0.17724 0.241531 0.597792
992 4 0.208365 0.22873 0.602907
696 4 0.197383 0.243932 0.61241
8 3 0.213722 0.214597 0.615239
6 1 0.209697 0.213817 0.638078
9 3 0.188079 0.20639 0.642062
7 3 0.224513 0.199111 0.647742
1212 4 0.174226 0.196944 0.632401
10 3 0.212618 0.234482 0.647192
1193 4 0.32502 0.199022 0.597907
1192 2 0.331842 0.174981 0.597081
1025 4 0.384849 0.241221 0.656995
1024 2 0.406164 0.231062 0.648772
1026 4 0.42748 0.220902 0.640549
952 2 0.453891 0.245277 0.619652
954 4 0.440421 0.225595 0.627159
2847 4 0.0294068 0.314456 0.586008
984 4 0.0206587 0.317752 0.603764
1209 4 0.0552276 0.247573 0.650531
982 2 0.0176561 0.322309 0.628164
3263 4 0.0103582 0.308067 0.589298
983 4 0.0146535 0.326867 0.652565
857 4 0.112334 0.325885 0.621213
1064 4 0.219621 0.251934 0.639354
797 4 0.170404 0.334718 0.626878
1065 4 0.227991 0.300551 0.631169
1063 2 0.223806 0.276243 0.635261
796 2 0.190116 0.319778 0.63054
798 4 0.209828 0.304839 0.634202
802 2 0.264809 0.271611 0.592031
803 4 0.26629 0.265232 0.616162
953 4 0.467361 0.264959 0.612145
1263 4 0.493273 0.309349 0.629102
1261 2 0.488089 0.30188 0.652394
856 2 0.134161 0.33657 0.627098
858 4 0.155987 0.347255 0.632983
896 4 0.110531 0.410101 0.598346
1008 4 0.381249 0.366259 0.643749
1006 2 0.401862 0.355373 0.634707
1007 4 0.422476 0.344487 0.625665
2016 4 0.0913648 0.483303 0.666103
1176 4 0.253193 0.440212 0.617606
1174 2 0.261469 0.429593 0.638675
1175 4 0.269745 0.418975 0.659745
1952 4 0.278412 0.486705 0.655474
4148 4 0.442046 0.452037 0.594668
2167 2 0.464527 0.470443 0.627412
2169 4 0.45563 0.464374 0.604847
2168 4 0.473425 0.476512 0.649977
2991 4 0.00675414 0.0447759 0.721542
2990 4 0.996671 0.0100087 0.756043
2989 2 0.00171233 0.0273923 0.738792
96 1 0.237044 0.0338356 0.676555
97 3 0.244163 0.0177648 0.691394
2202 4 0.226618 0.0427974 0.706723
99 3 0.230614 0.0526982 0.68844
2262 4 0.233237 0.024145 0.706934
2200 2 0.219976 0.0605854 0.722991
2260 2 0.235041 0.00869643 0.726511
2201 4 0.213334 0.0783733 0.739259
2400 4 0.324967 0.0745177 0.72082
2398 2 0.347755 0.0662182 0.726903
2322 4 0.377662 0.0659905 0.716445
2399 4 0.370543 0.0579187 0.732987
2320 2 0.396862 0.0667797 0.700448
2342 4 0.400828 0.0104242 0.702251
1113 4 0.378995 0.0441073 0.745776
1926 4 0.399194 0.0472983 0.744408
2343 4 0.445935 0.00359093 0.681771
2341 2 0.423381 0.00700755 0.692011
1162 2 0.45088 0.077497 0.672124
2321 4 0.416061 0.067569 0.68445
1163 4 0.431485 0.0796142 0.687762
2441 4 0.468465 0.0441471 0.751774
1924 2 0.424054 0.044743 0.745198
1925 4 0.448914 0.0421876 0.745988
1077 4 0.0210295 0.121908 0.705453
864 4 0.0400437 0.1194 0.711425
1075 2 0.00813909 0.140355 0.694557
862 2 0.0377237 0.119321 0.73632
1225 2 0.14743 0.129849 0.714806
1227 4 0.127888 0.144157 0.708595
1226 4 0.166971 0.11554 0.721017
1148 4 0.173153 0.118734 0.740048
1147 2 0.195812 0.108361 0.742091
45 3 0.2344 0.160624 0.749048
917 4 0.187022 0.160695 0.702299
916 2 0.205357 0.165706 0.718544
1149 4 0.21847 0.0979866 0.744133
810 4 0.243388 0.167447 0.733073
830 4 0.330073 0.146737 0.683014
829 2 0.318882 0.164931 0.696012
807 4 0.336155 0.12735 0.682226
846 4 0.407772 0.107413 0.741626
1072 2 0.0910248 0.169702 0.676574
947 4 0.117053 0.198043 0.680644
1074 4 0.0967384 0.192219 0.685821
893 4 0.101602 0.210054 0.68544
1277 4 0.155678 0.207034 0.746089
892 2 0.0957848 0.217205 0.708682
894 4 0.089968 0.224356 0.731924
60 3 0.0905944 0.217753 0.751697
918 4 0.223692 0.170717 0.734789
808 2 0.266768 0.173315 0.726433
809 4 0.290149 0.179182 0.719793
831 4 0.307692 0.183124 0.70901
3204 4 0.322655 0.185071 0.722125
3202 2 0.342738 0.193531 0.734384
3203 4 0.362821 0.201992 0.746642
3484 2 0.387111 0.236856 0.738931
3486 4 0.379433 0.213465 0.743302
3074 4 0.495645 0.201975 0.671291
821 4 0.143772 0.315895 0.698699
820 2 0.154756 0.332129 0.714224
989 4 0.107578 0.273601 0.7483
988 2 0.114599 0.293198 0.73445
990 4 0.12162 0.312795 0.7206
58 3 0.10021 0.25412 0.750088
3485 4 0.394789 0.260246 0.73456
3123 4 0.494995 0.307861 0.687026
1262 4 0.482905 0.294411 0.675686
3356 4 0.499353 0.28882 0.686161
3274 2 0.0104512 0.348966 0.679147
3276 4 0.0213661 0.364184 0.695714
780 4 0.0825455 0.352115 0.751472
816 4 0.0866252 0.371063 0.745735
815 4 0.115393 0.357746 0.707059
814 2 0.101009 0.364405 0.726397
942 4 0.128827 0.362663 0.692925
940 2 0.142829 0.382963 0.697051
941 4 0.156831 0.403263 0.701178
822 4 0.165739 0.348363 0.729748
1121 4 0.174925 0.339218 0.745677
1067 4 0.205822 0.415255 0.692766
1066 2 0.228521 0.414661 0.682298
2012 4 0.197168 0.420018 0.751679
1068 4 0.25122 0.414067 0.671829
1028 4 0.267683 0.402902 0.672245
1027 2 0.28168 0.394758 0.691296
1029 4 0.295676 0.386613 0.710347
1230 4 0.313932 0.400036 0.739844
998 4 0.36236 0.401028 0.745046
1280 4 0.0586313 0.431293 0.690614
1279 2 0.0667195 0.430464 0.714259