ITEM: TIMESTEP
1470000
ITEM: NUMBER OF ATOMS
4590
ITEM: BOX BOUNDS pp pp pp
-9.9985700000000008e+00 9.9985700000000008e+00
-9.9985700000000008e+00 9.9985700000000008e+00
-9.9985700000000008e+00 9.9985700000000008e+00
ITEM: ATOMS id type xs ys zs
1667 4 0.0505486 0.0758124 0.0586193
463 2 0.0277646 0.0162159 0.0756238
19 3 0.00674831 0.0724955 0.0484645
784 2 0.0126221 0.0451659 0.0273132
785 4 0.0301789 0.0334678 0.0138935
465 4 0.0256842 0.996934 0.0598424
579 4 0.143811 0.0129909 0.0818839
491 4 0.236698 0.0262284 0.0484496
490 2 0.258371 0.0319397 0.0373672
492 4 0.280044 0.0376511 0.0262847
486 4 0.299537 0.0426441 0.0266803
484 2 0.316971 0.0341392 0.042457
485 4 0.334405 0.0256342 0.0582336
1607 4 0.34446 0.00806887 0.0570169
2467 2 0.483772 0.0303629 0.0323994
2468 4 0.496273 0.0386533 0.0123951
2723 4 0.459122 0.0135488 0.0653554
1760 4 0.480274 0.00869677 0.064833
2469 4 0.471271 0.0220724 0.0524037
1666 2 0.0612492 0.0983332 0.0567511
1668 4 0.0719497 0.120854 0.054883
1246 2 0.0297839 0.155609 0.0333773
1248 4 0.0336965 0.161142 0.00930951
1247 4 0.0258712 0.150077 0.057445
591 4 0.0178914 0.147644 0.0759779
359 4 0.264373 0.0871054 0.0375455
358 2 0.265832 0.0885097 0.012624
666 4 0.33073 0.157847 0.0192185
665 4 0.347968 0.139102 0.0622552
664 2 0.339349 0.148475 0.0407368
556 2 0.386531 0.137515 0.081376
557 4 0.36684 0.136397 0.0660074
866 4 0.349246 0.155733 0.0101448
297 4 0.433004 0.1284 0.0270734
295 2 0.435604 0.131708 0.0517205
296 4 0.438204 0.135016 0.0763676
555 4 0.1198 0.211006 0.0546695
554 4 0.121824 0.219459 0.00542349
553 2 0.120812 0.215233 0.0300465
1132 2 0.152906 0.250263 0.000903088
770 4 0.429261 0.207433 0.0486682
769 2 0.449447 0.202308 0.0625044
771 4 0.469632 0.197182 0.0763406
2895 4 0.483067 0.18124 0.0763789
836 4 0.0621517 0.319864 0.0727019
1134 4 0.170765 0.267448 0.00419963
754 2 0.296385 0.29188 0.0702769
755 4 0.283906 0.272171 0.0612766
322 2 0.356265 0.274705 0.0617984
323 4 0.347289 0.284289 0.0405202
1070 4 0.349624 0.314858 0.0130109
255 4 0.384157 0.272402 0.0803891
835 2 0.0698593 0.343505 0.0700789
619 2 0.0438351 0.380288 0.00412476
621 4 0.0234599 0.379971 0.0186137
2787 4 0.0200494 0.379379 0.0382097
292 2 0.070501 0.400753 0.0709894
2785 2 0.0132692 0.384128 0.0618032
837 4 0.0775669 0.367146 0.067456
293 4 0.0664173 0.37873 0.0821008
913 2 0.134712 0.354822 0.0672643
914 4 0.149348 0.359965 0.0476557
288 4 0.153949 0.358543 0.0272585
286 2 0.177812 0.359745 0.0198923
287 4 0.201676 0.360947 0.012526
251 4 0.300469 0.394628 0.0594598
250 2 0.27975 0.400491 0.0467501
609 4 0.297213 0.406006 0.0750685
356 4 0.26045 0.370122 0.0124276
252 4 0.259032 0.406355 0.0340404
739 2 0.335079 0.334416 0.0814904
741 4 0.358414 0.339553 0.0741226
957 4 0.385326 0.41345 0.000991946
672 4 0.480595 0.349903 0.0237792
670 2 0.45672 0.352986 0.0170243
562 2 0.494829 0.358399 0.0642038
563 4 0.483541 0.352018 0.0428252
671 4 0.432844 0.356069 0.0102695
1766 4 0.0849419 0.496153 0.0760185
294 4 0.0745848 0.422777 0.0598779
552 4 0.0929899 0.424425 0.0537022
550 2 0.0987972 0.424946 0.029388
1440 4 0.165895 0.475084 0.0576937
1438 2 0.156465 0.451929 0.058004
243 4 0.155479 0.48624 0.0476193
1439 4 0.147035 0.428774 0.0583142
551 4 0.104604 0.425466 0.00507374
902 4 0.224143 0.467788 0.0338087
246 4 0.214642 0.48452 0.0412627
901 2 0.23618 0.446196 0.0300545
1289 4 0.228067 0.48676 0.0264139
1288 2 0.245202 0.494381 0.00987586
903 4 0.248217 0.424604 0.0263002
1628 4 0.280633 0.441567 0.0469922
1627 2 0.275558 0.450987 0.0695908
523 2 0.358841 0.488907 0.0729639
525 4 0.374246 0.497477 0.0552317
464 4 0.0298451 0.0354979 0.0914052
2760 4 0.0363902 0.0414123 0.110397
2758 2 0.0237788 0.0625698 0.106097
20 3 0.999829 0.0822618 0.0841633
578 4 0.110832 0.0505572 0.0832494
577 2 0.127322 0.0317741 0.0825666
1806 4 0.155782 0.00194008 0.0911145
24 3 0.385444 0.0698302 0.155423
2722 2 0.454229 0.0258022 0.0865945
2724 4 0.449337 0.0380555 0.107834
235 2 0.0791127 0.124857 0.162176
589 2 0.0137838 0.126092 0.0879695
590 4 0.00967624 0.104539 0.0999611
2759 4 0.0111674 0.0837272 0.101796
423 4 0.163596 0.146595 0.100614
477 4 0.0850551 0.157012 0.138377
237 4 0.0932326 0.139578 0.147716
475 2 0.0895386 0.159834 0.113942
421 2 0.179171 0.138726 0.118521
422 4 0.194746 0.130856 0.136428
533 4 0.248217 0.102235 0.107653
532 2 0.225875 0.109037 0.116584
534 4 0.203534 0.11584 0.125515
558 4 0.406222 0.138634 0.0967445
629 4 0.425299 0.144572 0.0907079
628 2 0.429249 0.160953 0.10918
2590 2 0.500616 0.126161 0.132875
2592 4 0.485694 0.109824 0.144521
2893 2 0.495473 0.164457 0.0901483
476 4 0.094022 0.162656 0.0895056
339 4 0.113686 0.253086 0.132531
371 4 0.133784 0.227211 0.167076
370 2 0.15852 0.230301 0.169017
353 4 0.277553 0.229163 0.0854341
285 4 0.251241 0.232891 0.164374
310 2 0.308913 0.188455 0.148422
312 4 0.318196 0.20329 0.130563
354 4 0.270223 0.234484 0.134614
352 2 0.273888 0.231824 0.110024
764 4 0.267663 0.242343 0.154727
311 4 0.29963 0.17362 0.16628
630 4 0.433199 0.177334 0.127653
517 2 0.460612 0.239283 0.105375
519 4 0.484582 0.232592 0.10779
518 4 0.436642 0.245974 0.102959
528 4 0.499273 0.22605 0.120966
337 2 0.137286 0.254625 0.124416
338 4 0.160886 0.256164 0.116301
506 4 0.180157 0.257102 0.11595
505 2 0.186569 0.280491 0.122033
507 4 0.192981 0.30388 0.128116
740 4 0.311745 0.329279 0.0888582
756 4 0.308863 0.31159 0.0792772
461 4 0.322837 0.267271 0.125771
763 2 0.277051 0.265011 0.159546
765 4 0.286438 0.287679 0.164365
324 4 0.365241 0.265121 0.0830765
460 2 0.344351 0.262252 0.114061
253 2 0.404162 0.266545 0.0941982
462 4 0.365865 0.257233 0.102351
624 4 0.427814 0.322588 0.121412
254 4 0.424166 0.260688 0.108007
2786 4 0.00648902 0.388877 0.0853967
313 2 0.00309108 0.39362 0.128332
315 4 0.00539013 0.398139 0.152816
915 4 0.120075 0.349679 0.0868729
455 4 0.113176 0.361738 0.0978938
454 2 0.117317 0.367246 0.121929
456 4 0.121458 0.372754 0.145964
415 2 0.154871 0.390347 0.165983
416 4 0.174411 0.40586 0.167627
607 2 0.316659 0.408185 0.0906345
301 2 0.313086 0.38791 0.157933
303 4 0.305545 0.411279 0.153222
302 4 0.320628 0.364541 0.162644
386 4 0.370688 0.347382 0.0871531
387 4 0.386147 0.366595 0.130657
385 2 0.378417 0.356989 0.108905
13 3 0.382686 0.380368 0.14503
11 1 0.402066 0.390927 0.152192
608 4 0.336104 0.410365 0.106201
15 3 0.408714 0.40628 0.136742
12 3 0.418603 0.37515 0.154797
622 2 0.421437 0.338878 0.139276
623 4 0.415061 0.355169 0.157141
494 4 0.424098 0.417415 0.136386
626 4 0.238506 0.460205 0.157883
1629 4 0.270483 0.460406 0.0921894
1487 4 0.275042 0.479042 0.0970405
63 3 0.252774 0.465127 0.145926
65 3 0.288253 0.459936 0.134439
61 1 0.26908 0.471665 0.130768
64 3 0.261634 0.468079 0.109086
62 3 0.273272 0.494108 0.133575
524 4 0.343437 0.480336 0.0906962
658 2 0.406418 0.489334 0.159087
659 4 0.413026 0.484865 0.135391
495 4 0.419311 0.4667 0.129406
493 2 0.421704 0.442058 0.132896
673 2 0.102151 0.0254181 0.220039
544 2 0.114507 0.07685 0.213049
693 4 0.14699 0.0604806 0.233117
675 4 0.0877052 0.0055559 0.215349
674 4 0.116596 0.0452804 0.224729
546 4 0.127086 0.0624236 0.229138
1463 4 0.124651 0.0321086 0.238456
581 4 0.194846 0.0754268 0.167714
691 2 0.166847 0.0729399 0.22442
652 2 0.22692 0.0653404 0.175961
654 4 0.203926 0.0710241 0.183969
692 4 0.186704 0.0853991 0.215722
1505 4 0.277719 0.032498 0.183773
653 4 0.249914 0.0596567 0.167952
1504 2 0.294566 0.0143384 0.187176
1506 4 0.311413 0.996179 0.190579
1830 4 0.327823 0.00361034 0.244258
21 1 0.373945 0.070698 0.175558
23 3 0.35967 0.0524901 0.177319
759 4 0.407749 0.0734454 0.199164
25 3 0.388678 0.0707297 0.192925
757 2 0.409408 0.0782929 0.223637
236 4 0.0649928 0.110135 0.176636
381 4 0.0108535 0.0894504 0.168754
565 2 0.160866 0.144551 0.170399
545 4 0.101929 0.0912763 0.19696
567 4 0.13675 0.138443 0.172904
582 4 0.157584 0.108372 0.1729
566 4 0.184983 0.150659 0.167893
580 2 0.176215 0.0918992 0.170307
598 2 0.200954 0.115934 0.229895
600 4 0.1999 0.0909524 0.229898
738 4 0.200403 0.163532 0.170458
404 4 0.18097 0.15157 0.231007
249 4 0.197429 0.155905 0.241595
599 4 0.202008 0.140915 0.229893
29 3 0.333584 0.146378 0.238215
758 4 0.411067 0.0831404 0.24811
22 3 0.36147 0.0900147 0.17617
363 4 0.0496273 0.239214 0.208079
361 2 0.0625927 0.250244 0.226393
403 2 0.163835 0.16948 0.234296
405 4 0.1467 0.187389 0.237585
283 2 0.226756 0.229448 0.16809
372 4 0.183256 0.233391 0.170958
284 4 0.202271 0.226005 0.171805
737 4 0.189051 0.212233 0.170236
736 2 0.194727 0.187882 0.170347
332 4 0.451818 0.178779 0.237193
362 4 0.0755582 0.261274 0.244707
648 4 0.0460252 0.318701 0.223965
646 2 0.0646059 0.323338 0.207889
750 4 0.0836272 0.279656 0.238314
647 4 0.0831866 0.327974 0.191813
748 2 0.108309 0.282088 0.241489
749 4 0.132991 0.284519 0.244664
612 4 0.302048 0.299019 0.171754
727 2 0.326969 0.285891 0.228015
610 2 0.306273 0.323065 0.166357
729 4 0.306608 0.275038 0.237649
308 4 0.297874 0.25996 0.248555
498 4 0.296039 0.279613 0.253739
728 4 0.347331 0.296744 0.218381
705 4 0.0854859 0.348296 0.194192
417 4 0.135331 0.374834 0.164338
704 4 0.116609 0.373439 0.164194
703 2 0.101048 0.360867 0.179193
611 4 0.310497 0.347111 0.160959
14 3 0.398342 0.401329 0.172597
645 4 0.401248 0.41751 0.185434
109 3 0.493814 0.406009 0.207762
3716 4 0.0487061 0.498414 0.195263
603 4 0.075652 0.456423 0.231099
1758 4 0.0776504 0.475556 0.228519
601 2 0.0816153 0.439932 0.248922
1756 2 0.0797582 0.475081 0.203609
1757 4 0.0818659 0.474607 0.178699
638 4 0.169751 0.449313 0.24005
1659 4 0.245311 0.493053 0.245827
625 2 0.220941 0.457655 0.175494
627 4 0.203376 0.455105 0.193105
639 4 0.187716 0.466812 0.196787
637 2 0.178734 0.458063 0.218418
1657 2 0.241847 0.500834 0.222318
1575 4 0.336716 0.489755 0.193206
1573 2 0.359457 0.49564 0.184637
660 4 0.399809 0.493804 0.182784
643 2 0.423549 0.41882 0.196664
107 3 0.473426 0.426249 0.231997
644 4 0.445851 0.42013 0.207893
110 3 0.461746 0.422387 0.196761
106 1 0.48011 0.424593 0.210048
108 3 0.491785 0.443802 0.204293
232 2 0.0549571 0.00588888 0.311973
512 4 0.0439353 0.0315859 0.253203
511 2 0.0473868 0.055192 0.260688
428 4 0.0857955 0.0295195 0.297087
513 4 0.0508384 0.078798 0.268173
234 4 0.0751813 0.012782 0.298986
1462 2 0.146034 0.0279276 0.250724
429 4 0.108825 0.0313332 0.252736
731 4 0.120401 0.0675367 0.248353
427 2 0.0973104 0.0304264 0.274911
730 2 0.123312 0.0792863 0.270231
1464 4 0.167416 0.0237467 0.262991
744 4 0.399051 0.0723212 0.259811
708 4 0.342646 0.0850882 0.320671
480 4 0.461627 0.043581 0.256642
479 4 0.439519 0.0534366 0.3004
478 2 0.450573 0.0485088 0.278521
1517 4 0.435208 0.0696812 0.311997
1516 2 0.419054 0.0807372 0.327553
531 4 0.0361569 0.0913132 0.277755
2482 2 0.0531889 0.119976 0.287604
2483 4 0.0569236 0.0980211 0.276236
2484 4 0.0494543 0.14193 0.298972
392 4 0.0747601 0.154251 0.261503
529 2 0.0120984 0.0848163 0.279795
732 4 0.126223 0.0910359 0.29211
474 4 0.201713 0.142839 0.325717
706 2 0.320798 0.0838976 0.332772
467 4 0.251565 0.10826 0.308033
30 3 0.305476 0.145256 0.263243
631 2 0.304654 0.13363 0.3238
466 2 0.26559 0.0956628 0.324457
26 1 0.327954 0.147866 0.260676
632 4 0.310242 0.157176 0.317512
707 4 0.29895 0.0827071 0.344873
633 4 0.299065 0.110084 0.330088
742 2 0.391624 0.0872107 0.278474
743 4 0.384198 0.1021 0.297138
349 2 0.408001 0.136633 0.29806
351 4 0.388411 0.121469 0.294671
27 3 0.338878 0.131221 0.272199
451 2 0.460507 0.124677 0.313916
452 4 0.442135 0.138787 0.304506
350 4 0.42759 0.151797 0.301449
453 4 0.478879 0.110567 0.323327
393 4 0.0827079 0.198181 0.284034
391 2 0.078734 0.176216 0.272769
247 2 0.216269 0.163212 0.25632
248 4 0.235109 0.170519 0.271045
279 4 0.238369 0.191045 0.270699
278 4 0.260458 0.228517 0.29537
277 2 0.249414 0.209781 0.283034
309 4 0.318593 0.218308 0.266901
307 2 0.308233 0.239134 0.257728
536 4 0.25584 0.244467 0.307056
28 3 0.334556 0.168432 0.269152
331 2 0.468209 0.179514 0.25606
2681 4 0.491518 0.199857 0.331978
2682 4 0.498925 0.173857 0.289909
333 4 0.4846 0.180249 0.274927
419 4 0.447371 0.225557 0.29556
418 2 0.438109 0.223356 0.31868
2680 2 0.495221 0.186857 0.310943
2453 4 0.501653 0.190419 0.27695
549 4 8.96636e-05 0.315424 0.318933
388 2 0.0226181 0.25673 0.326238
390 4 0.0332826 0.272459 0.309989
444 4 0.034789 0.268697 0.289598
442 2 0.0518774 0.286926 0.288661
443 4 0.0689658 0.305155 0.287724
408 4 0.0729317 0.311519 0.306634
406 2 0.0708592 0.320147 0.330011
299 4 0.137598 0.300542 0.256835
298 2 0.139238 0.325197 0.260663
537 4 0.250965 0.284588 0.277607
344 4 0.237777 0.27955 0.323999
343 2 0.227523 0.301036 0.331641
535 2 0.253402 0.264527 0.292331
496 2 0.295883 0.296942 0.271763
497 4 0.295726 0.31427 0.289788
547 2 0.0156349 0.334358 0.323935
548 4 0.0311801 0.353292 0.328938
300 4 0.140878 0.349851 0.264491
734 4 0.155784 0.34854 0.277418
733 2 0.160972 0.35428 0.301195
735 4 0.166159 0.36002 0.324971
438 4 0.251067 0.387693 0.305589
767 4 0.173791 0.413444 0.295466
436 2 0.270536 0.40299 0.302107
587 4 0.442876 0.354939 0.311503
586 2 0.44997 0.337391 0.327841
2537 4 0.495056 0.3908 0.291178
602 4 0.0875787 0.423441 0.266746
768 4 0.163605 0.447998 0.260783
289 2 0.150304 0.483517 0.262141
500 4 0.155466 0.470954 0.32307
499 2 0.132703 0.481236 0.32192
776 4 0.0907185 0.490235 0.326548
501 4 0.10994 0.491517 0.32077
290 4 0.160315 0.463546 0.25091
766 2 0.168698 0.430721 0.278125
413 4 0.217961 0.457135 0.333655
437 4 0.290005 0.418287 0.298625
1437 4 0.275353 0.464881 0.332572
542 4 0.395358 0.475235 0.321691
2756 4 0.00243793 0.0594957 0.362035
317 4 0.0228552 0.0604599 0.363073
316 2 0.0382574 0.0470638 0.377513
318 4 0.0536596 0.0336677 0.391952
1602 4 0.0705025 0.0122022 0.403716
1600 2 0.08569 0.992352 0.404424
1406 4 0.129123 0.00749606 0.352314
605 4 0.183081 0.059832 0.377781
439 2 0.243308 0.03738 0.386222
441 4 0.247074 0.0585348 0.399007
604 2 0.20187 0.0751437 0.371642
440 4 0.239541 0.0162252 0.373436
683 4 0.269154 0.0308027 0.334193
682 2 0.278533 0.0508559 0.345815
684 4 0.287913 0.0709092 0.357437
468 4 0.279616 0.0830653 0.340882
1670 4 0.363206 0.0379878 0.359851
1669 2 0.37744 0.0581705 0.355946
1427 4 0.396771 0.0203835 0.405103
1426 2 0.420106 0.0143508 0.398449
1671 4 0.391673 0.0783531 0.352042
1428 4 0.443441 0.00831804 0.391796
398 4 0.0871298 0.132736 0.335271
397 2 0.10318 0.113984 0.339258
399 4 0.119231 0.0952313 0.343246
606 4 0.22066 0.0904553 0.365503
472 2 0.203191 0.12387 0.34194
473 4 0.204669 0.104902 0.358163
276 4 0.214935 0.10706 0.374531
274 2 0.217798 0.12045 0.395452
726 4 0.284622 0.0909076 0.358874
724 2 0.279599 0.0947779 0.383061
725 4 0.274577 0.0986483 0.407247
1518 4 0.402899 0.0917932 0.343108
699 4 0.388284 0.0974157 0.357099
698 4 0.366461 0.139116 0.340201
697 2 0.377372 0.118266 0.34865
431 4 0.340842 0.131759 0.413622
1579 2 0.479697 0.0848501 0.398597
1581 4 0.457546 0.0950072 0.404194
516 4 0.449577 0.11312 0.402358
514 2 0.459465 0.13066 0.387535
257 4 0.437577 0.0983824 0.411776
515 4 0.469353 0.148201 0.372711
389 4 0.0119535 0.241 0.342486
2654 4 0.0215351 0.177474 0.4173
487 2 0.31282 0.232963 0.382777
489 4 0.302862 0.246053 0.363944
510 4 0.268086 0.188644 0.415834
488 4 0.322778 0.219873 0.401609
420 4 0.428848 0.221154 0.3418
306 4 0.4256 0.216726 0.360877
304 2 0.446853 0.219491 0.373755
305 4 0.468106 0.222256 0.386633
584 4 0.500939 0.170576 0.396568
270 4 0.476072 0.239388 0.39215
583 2 0.484452 0.181589 0.411801
616 2 0.0607798 0.30783 0.383054
617 4 0.0567242 0.285176 0.392827
618 4 0.0648354 0.330484 0.373281
407 4 0.0687867 0.328775 0.353387
402 4 0.217086 0.329045 0.360037
345 4 0.21727 0.322522 0.339282
400 2 0.219886 0.324424 0.38445
1260 4 0.236929 0.266357 0.390478
401 4 0.222686 0.319804 0.408863
378 4 0.321295 0.322261 0.385864
1258 2 0.252906 0.265752 0.409702
376 2 0.340526 0.32686 0.37056
433 2 0.401495 0.321363 0.352945
435 4 0.377269 0.324861 0.347842
377 4 0.359756 0.33146 0.355256
434 4 0.425721 0.317865 0.358048
588 4 0.457064 0.319844 0.344179
268 2 0.485495 0.261218 0.384414
1714 2 0.448377 0.322028 0.380588
1715 4 0.44395 0.310555 0.358818
269 4 0.494918 0.283048 0.376679
677 4 0.155559 0.346737 0.360308
678 4 0.201502 0.331769 0.347425
676 2 0.17853 0.339253 0.353867
336 4 0.295069 0.410418 0.375889
593 4 0.323879 0.356009 0.363051
592 2 0.323744 0.380987 0.361931
594 4 0.323608 0.405965 0.360812
1716 4 0.452803 0.333501 0.402359
119 3 0.492811 0.412077 0.388794
3989 4 0.497827 0.396176 0.401982
414 4 0.172051 0.43866 0.340839
412 2 0.195006 0.447898 0.337247
1436 4 0.229184 0.458683 0.350759
1557 4 0.2062 0.464938 0.400496
1555 2 0.222208 0.450723 0.413414
334 2 0.307482 0.426094 0.390902
1435 2 0.252268 0.461782 0.341665
335 4 0.319894 0.44177 0.405914
2 3 0.317632 0.4606 0.403316
1 1 0.309574 0.481217 0.409575
240 4 0.335663 0.452965 0.410169
614 4 0.354661 0.429568 0.38737
613 2 0.374195 0.445071 0.385565
541 2 0.400041 0.471669 0.345992
543 4 0.404724 0.468103 0.370293
615 4 0.39373 0.460573 0.383761
3601 2 0.501805 0.46535 0.401077
447 4 0.414415 0.465489 0.38776
445 2 0.430574 0.449248 0.397777
3603 4 0.494776 0.457227 0.378498
117 3 0.497617 0.441311 0.365666
446 4 0.446732 0.433008 0.407794
120 3 0.476868 0.412297 0.354685
116 1 0.495265 0.418448 0.366618
1743 4 0.447649 0.48946 0.361552
1741 2 0.466844 0.473448 0.360979
1742 4 0.48604 0.457436 0.360405
2584 2 0.00316266 0.0446183 0.478662
720 4 0.0247561 0.0772546 0.475867
2586 4 0.0103615 0.0674191 0.485975
367 2 0.0567645 0.0570751 0.484916
369 4 0.0700232 0.0705664 0.468564
1479 4 0.152246 0.0026263 0.416367
1818 4 0.25257 0.0103159 0.483654
962 4 0.285257 0.0650769 0.457711
1817 4 0.2904 0.0257792 0.454836
1816 2 0.271485 0.0180476 0.469245
426 4 0.384452 0.0520801 0.47478
424 2 0.377684 0.0732541 0.463333
718 2 0.0120394 0.0987415 0.477201
260 4 0.110871 0.142752 0.492772
687 4 0.151019 0.163613 0.448223
685 2 0.150895 0.144611 0.464474
686 4 0.150772 0.125609 0.480725
259 2 0.109593 0.167026 0.498629
1152 4 0.16899 0.124372 0.489056
375 4 0.224989 0.146017 0.43383
275 4 0.220661 0.13384 0.416373
373 2 0.240659 0.165484 0.433023
961 2 0.297193 0.0868895 0.460343
963 4 0.309129 0.108702 0.462975
430 2 0.331483 0.12836 0.436558
321 4 0.303378 0.126901 0.46629
432 4 0.322124 0.12496 0.459493
319 2 0.28905 0.144344 0.477044
320 4 0.274722 0.161786 0.487797
425 4 0.370916 0.0944282 0.451886
266 4 0.403691 0.161212 0.443478
256 2 0.436222 0.0953576 0.436559
258 4 0.434866 0.0923327 0.461342
2653 2 0.00208606 0.179309 0.432906
346 2 0.00267628 0.203183 0.480191
347 4 0.0194056 0.21238 0.496338
327 4 0.211649 0.193782 0.494692
509 4 0.286092 0.234597 0.423885
374 4 0.25633 0.184951 0.432216
508 2 0.277089 0.21162 0.41986
709 2 0.268295 0.25017 0.458406
711 4 0.278086 0.250086 0.481413
651 4 0.275986 0.181736 0.500484
717 4 0.329243 0.21599 0.419816
575 4 0.385664 0.167197 0.45194
576 4 0.345317 0.174814 0.480485
715 2 0.338775 0.231384 0.43706
574 2 0.365491 0.171006 0.466213
716 4 0.348307 0.246778 0.454304
265 2 0.424199 0.173665 0.436439
267 4 0.444707 0.186117 0.4294
585 4 0.467964 0.192602 0.427035
872 4 0.453735 0.203171 0.433946
871 2 0.447773 0.225762 0.44285
873 4 0.441812 0.248353 0.451755
2814 4 0.0604165 0.305938 0.474853
2812 2 0.0395024 0.309343 0.488127
2613 4 0.00849481 0.296768 0.498758
1136 4 0.112065 0.304953 0.444779
1135 2 0.121048 0.309647 0.467636
1137 4 0.13003 0.314341 0.490493
993 4 0.24159 0.305017 0.475113
991 2 0.229951 0.283562 0.480535
992 4 0.218312 0.262108 0.485958
710 4 0.258504 0.250254 0.435399
1259 4 0.268883 0.265146 0.428926
503 4 0.203586 0.412285 0.466058
3988 2 0.491575 0.39382 0.426076
3990 4 0.485323 0.391463 0.450171
383 4 0.0179405 0.430007 0.464115
382 2 0.0260168 0.451594 0.454423
384 4 0.0340931 0.473182 0.44473
635 4 0.172227 0.485788 0.429639
504 4 0.199516 0.460702 0.477886
1556 4 0.238216 0.436509 0.426332
634 2 0.183522 0.481997 0.451622
502 2 0.201551 0.436493 0.471972
773 4 0.199823 0.474459 0.494353
636 4 0.194817 0.478205 0.473604
667 2 0.27491 0.44664 0.43345
669 4 0.256809 0.429425 0.43453
668 4 0.29301 0.463856 0.432371
5 3 0.323534 0.490332 0.42509
4 3 0.288364 0.478557 0.4186
1585 2 0.34863 0.499252 0.448182
239 4 0.357896 0.436935 0.451995
238 2 0.34678 0.44495 0.431082
1586 4 0.34157 0.483763 0.429867
1697 4 0.474474 0.492988 0.422035
1268 4 0.426083 0.450807 0.500714
1059 4 0.0449903 0.0456446 0.520759
1057 2 0.056658 0.0577024 0.539297
1058 4 0.0683257 0.0697601 0.557835
824 4 0.0829401 0.0744356 0.575234
938 4 0.0340086 0.0286743 0.513135
937 2 0.0353016 0.00384627 0.510475
368 4 0.0435059 0.0435838 0.501267
2429 4 0.0855405 0.0611699 0.561061
2428 2 0.110393 0.061874 0.558413
2430 4 0.135246 0.0625781 0.555764
1182 4 0.22987 0.0738462 0.556677
843 4 0.293536 0.0109491 0.57626
1180 2 0.250426 0.0798405 0.543766
841 2 0.316654 0.00142889 0.576606
1217 4 0.356558 0.0178293 0.567861
1216 2 0.354076 0.0389334 0.554684
89 3 0.402365 0.0456273 0.56614
1218 4 0.351594 0.0600374 0.541507
90 3 0.40472 0.00906748 0.574828
2333 4 0.357873 0.998345 0.575181
944 4 0.110213 0.11452 0.553838
943 2 0.13242 0.12591 0.55537
945 4 0.154626 0.1373 0.556903
1031 4 0.233789 0.0891073 0.568836
1151 4 0.200036 0.139219 0.525339
1220 4 0.187712 0.153651 0.531504
1150 2 0.184513 0.131796 0.507198
1181 4 0.270982 0.0858347 0.530855
887 4 0.295524 0.129756 0.544572
886 2 0.292519 0.148383 0.560978
888 4 0.289514 0.16701 0.577385
1062 4 0.486415 0.121969 0.56425
877 2 0.0330515 0.20688 0.558457
1272 4 0.0754803 0.217132 0.568823
879 4 0.0557075 0.211037 0.568184
878 4 0.0103955 0.202724 0.548731
1033 2 0.134146 0.227358 0.512036
1034 4 0.149441 0.245671 0.519509
1035 4 0.118851 0.209044 0.504563
261 4 0.108315 0.1913 0.504487
1270 2 0.0970793 0.206422 0.575454
1271 4 0.118678 0.195713 0.582085
1219 2 0.190826 0.16838 0.551467
1221 4 0.19394 0.18311 0.57143
6 1 0.230192 0.23926 0.545701
7 3 0.226678 0.229134 0.566054
325 2 0.213979 0.218665 0.493923
326 4 0.216308 0.243548 0.493153
10 3 0.22333 0.225281 0.529083
1239 4 0.270154 0.237057 0.552452
1238 4 0.291308 0.193355 0.564426
1237 2 0.280731 0.215206 0.558439
411 4 0.296761 0.181906 0.50661
649 2 0.274373 0.206232 0.495738
806 4 0.301911 0.182451 0.577426
650 4 0.27276 0.230727 0.490991
791 4 0.280254 0.246114 0.500043
9 3 0.25283 0.243795 0.543388
409 2 0.321398 0.17883 0.503652
410 4 0.346035 0.175755 0.500694
2813 4 0.0185882 0.312748 0.5014
2846 4 0.0089809 0.340865 0.569047
936 4 0.011898 0.295829 0.518329
934 2 0.0114643 0.315514 0.533739
3354 4 0.995751 0.310803 0.50048
695 4 0.166576 0.254375 0.533145
1041 4 0.119324 0.325338 0.504
694 2 0.186132 0.25675 0.517746
696 4 0.205688 0.259125 0.502348
8 3 0.21804 0.259013 0.544952
790 2 0.282351 0.264558 0.516794
804 4 0.300478 0.288006 0.543964
792 4 0.284448 0.283002 0.533545
802 2 0.293301 0.296616 0.566315
812 4 0.31935 0.289792 0.539561
811 2 0.325379 0.306777 0.522231
813 4 0.331408 0.323763 0.504901
560 4 0.449892 0.288508 0.51957
559 2 0.467939 0.30534 0.523586
561 4 0.485987 0.322173 0.527602
935 4 0.0110306 0.335199 0.54915
1039 2 0.108429 0.335334 0.524164
1040 4 0.0975344 0.345329 0.544328
897 4 0.135971 0.408435 0.567164
1161 4 0.20261 0.408062 0.558335
1159 2 0.178076 0.412771 0.55939
926 4 0.498366 0.334492 0.537805
1011 4 0.502223 0.330833 0.518168
925 2 0.491849 0.340075 0.56129
752 4 0.486701 0.342747 0.523787
751 2 0.476021 0.363297 0.514363
753 4 0.465342 0.383847 0.504938
1938 4 0.0535457 0.491516 0.532943
895 2 0.114666 0.415074 0.578441
1160 4 0.153543 0.417481 0.560445
539 4 0.166956 0.493206 0.509131
1173 4 0.209452 0.423232 0.548458
1171 2 0.228046 0.439002 0.554001
774 4 0.239852 0.476267 0.524271
1172 4 0.246641 0.454772 0.559544
772 2 0.219838 0.475363 0.509312
881 4 0.322764 0.453881 0.534028
880 2 0.341034 0.451197 0.51717
663 4 0.417576 0.485883 0.548755
882 4 0.359304 0.448513 0.500312
661 2 0.427183 0.498163 0.568302
4084 2 0.479365 0.493671 0.539913
1267 2 0.449587 0.453846 0.508686
1269 4 0.47309 0.456886 0.516657
4085 4 0.476805 0.470077 0.532042
823 2 0.066441 0.0724318 0.593914
2319 4 0.0513304 0.0205064 0.599257
825 4 0.049942 0.070428 0.612594
2317 2 0.0636263 0.00659156 0.616001
98 3 0.212632 0.066003 0.663648
100 3 0.243282 0.0463745 0.654004
950 4 0.249937 0.0496288 0.634637
1005 4 0.305176 0.0178312 0.644336
951 4 0.297686 0.0352597 0.638413
1092 4 0.321699 0.0211591 0.63117
949 2 0.273811 0.0424443 0.636525
1003 2 0.302352 0.997963 0.659251
86 1 0.400933 0.0299214 0.58316
88 3 0.379948 0.0308169 0.593021
1090 2 0.343848 0.0238742 0.619891
2283 4 0.38553 0.0240423 0.612627
2281 2 0.393597 0.0145676 0.634314
1091 4 0.365998 0.0265892 0.608613
2282 4 0.401665 0.00509278 0.656001
87 3 0.416837 0.034727 0.59907
3007 2 0.46905 0.0622777 0.608093
3008 4 0.493351 0.0587435 0.603383
3009 4 0.44475 0.065812 0.612804
1164 4 0.493958 0.0709584 0.65308
1198 2 0.0119277 0.143 0.621875
1199 4 0.00401773 0.124631 0.636882
1200 4 0.0198376 0.161368 0.606869
1284 4 0.169305 0.152817 0.628976
1030 2 0.216848 0.100542 0.583239
1032 4 0.199908 0.111977 0.597641
1282 2 0.174486 0.132244 0.615744
1283 4 0.179667 0.11167 0.602513
900 4 0.354452 0.104646 0.607935
898 2 0.358255 0.125731 0.620824
899 4 0.362058 0.146816 0.633713
830 4 0.363869 0.160858 0.654516
150 3 0.408143 0.12084 0.618142
146 1 0.412135 0.139573 0.630462
148 3 0.393721 0.144394 0.643732
149 3 0.416677 0.157471 0.616411
147 3 0.430349 0.135971 0.644042
3052 2 0.472935 0.130783 0.656423
3053 4 0.448704 0.1338 0.651042
3054 4 0.497165 0.127767 0.661804
851 4 0.0455375 0.174389 0.658818
850 2 0.066468 0.188053 0.658199
852 4 0.0873985 0.201717 0.657579
1081 2 0.0689906 0.228904 0.62329
1082 4 0.0578443 0.240711 0.604275
1244 4 0.00204164 0.229686 0.637423
1083 4 0.0801369 0.217097 0.642304
1155 4 0.156738 0.166791 0.622965
1208 4 0.0986933 0.217723 0.655874
908 4 0.132269 0.172105 0.640902
1153 2 0.138292 0.172297 0.607009
907 2 0.11895 0.187653 0.655256
1154 4 0.119845 0.177803 0.591054
1211 4 0.169075 0.17488 0.636122
1210 2 0.192048 0.184607 0.637792
1212 4 0.215021 0.194335 0.639461
805 2 0.311088 0.188065 0.599997
807 4 0.320265 0.193679 0.622568
1193 4 0.36512 0.192372 0.588664
1194 4 0.371763 0.165281 0.63017
1192 2 0.368441 0.178827 0.609417
904 2 0.41896 0.203353 0.609704
905 4 0.418388 0.178542 0.612747
3251 4 0.43124 0.169797 0.625185
3250 2 0.450593 0.176109 0.639705
906 4 0.419533 0.228164 0.606662
3252 4 0.469946 0.182421 0.654224
1026 4 0.429064 0.24608 0.615161
857 4 0.150399 0.266796 0.639753
856 2 0.162832 0.288369 0.642032
858 4 0.175264 0.309943 0.644312
797 4 0.178012 0.325418 0.631409
1065 4 0.238135 0.315013 0.625046
796 2 0.202721 0.328584 0.629268
798 4 0.227431 0.331749 0.627126
803 4 0.286124 0.305226 0.588665
1064 4 0.281447 0.297706 0.607012
1063 2 0.259791 0.306359 0.616029
1025 4 0.421596 0.271507 0.657569
1024 2 0.42533 0.258794 0.636365
954 4 0.442116 0.257807 0.603973
952 2 0.455242 0.277172 0.595147
953 4 0.468368 0.296537 0.586322
3275 4 0.0280672 0.379028 0.650926
3274 2 0.0521554 0.383847 0.655586
3276 4 0.0762436 0.388666 0.660246
983 4 0.00978976 0.374209 0.660198
982 2 0.00151278 0.355913 0.645301
1189 2 0.232186 0.403702 0.61048
1190 4 0.215476 0.406814 0.628817
1191 4 0.248896 0.400591 0.592142
1029 4 0.281526 0.396134 0.668469
927 4 0.485333 0.345658 0.584775
896 4 0.0933605 0.421712 0.589719
1176 4 0.209315 0.459484 0.642861
1174 2 0.221984 0.449983 0.662211
4147 2 0.463385 0.490725 0.608044
2167 2 0.495603 0.486112 0.649513
4148 4 0.485635 0.479321 0.608286
2169 4 0.498587 0.48592 0.624689
1183 2 0.0425919 0.00109958 0.70095
1185 4 0.0617945 0.0155243 0.707905
96 1 0.227717 0.0496742 0.670298
97 3 0.216295 0.0300441 0.673953
2202 4 0.222694 0.0509785 0.702839
99 3 0.238135 0.0560739 0.690019
2262 4 0.217652 0.0321444 0.694071
2200 2 0.224126 0.0659166 0.722838
2260 2 0.207183 0.0124122 0.705306
2201 4 0.225557 0.0808547 0.742838
844 2 0.397903 0.0651819 0.748201
846 4 0.406256 0.0422961 0.742576
1113 4 0.416153 0.0241756 0.740323
2398 2 0.392212 0.0130687 0.700933
2400 4 0.370019 0.00892113 0.690187
2399 4 0.414404 0.0172162 0.711679
1924 2 0.452788 0.0069591 0.735298
1926 4 0.432855 0.0154275 0.722803
1162 2 0.478383 0.0612592 0.670066
2321 4 0.445145 0.0605798 0.690152
2320 2 0.431982 0.0505182 0.708878
1163 4 0.462808 0.0515601 0.687052
2322 4 0.418819 0.0404566 0.727605
1076 4 0.0402681 0.148372 0.66903
1077 4 0.0321782 0.117514 0.707541
864 4 0.023705 0.11978 0.725081
862 2 0.0364676 0.10549 0.741147
1075 2 0.0362231 0.132943 0.688285
1225 2 0.152621 0.140918 0.710958
1226 4 0.160424 0.138689 0.734608
1227 4 0.144818 0.143147 0.687308
1148 4 0.179166 0.129955 0.73072
1147 2 0.19673 0.11392 0.738438
1149 4 0.214294 0.0978843 0.746155
44 3 0.305197 0.156564 0.74357
43 3 0.298717 0.151433 0.706474
41 1 0.308827 0.165072 0.72229
42 3 0.331468 0.165613 0.71826
829 2 0.354027 0.162635 0.677432
809 4 0.360192 0.102677 0.713742
810 4 0.345991 0.150611 0.714903
808 2 0.353092 0.126644 0.714323
831 4 0.344184 0.164412 0.700348
3204 4 0.346466 0.179164 0.715282
1072 2 0.0543545 0.231223 0.743945
1073 4 0.036022 0.215014 0.738811
1106 4 0.0316448 0.196479 0.730129
909 4 0.105632 0.203202 0.66961
1207 2 0.0956273 0.235101 0.673588
1209 4 0.0925613 0.25248 0.691302
918 4 0.238965 0.242784 0.751654
977 4 0.227202 0.228863 0.744146
976 2 0.207692 0.24273 0.736917
45 3 0.300442 0.186196 0.720833
3202 2 0.368621 0.189112 0.72123
3203 4 0.390776 0.19906 0.727177
3486 4 0.396136 0.203514 0.709736
3484 2 0.414661 0.219758 0.705475
3485 4 0.433186 0.236001 0.701214
1074 4 0.072687 0.247432 0.749078
947 4 0.0817508 0.26301 0.73885
893 4 0.0628675 0.264934 0.744454
948 4 0.1075 0.26573 0.696068
946 2 0.0946255 0.26437 0.717459
978 4 0.188183 0.256597 0.729688
1277 4 0.171915 0.261249 0.73873
916 2 0.263078 0.248039 0.747642
917 4 0.287192 0.253295 0.743629
1007 4 0.400969 0.317163 0.672871
1263 4 0.429196 0.270351 0.716785
3356 4 0.48252 0.273844 0.702819
1261 2 0.451841 0.280493 0.713698
1262 4 0.474485 0.290636 0.71061
3123 4 0.489575 0.296381 0.70206
815 4 0.144815 0.356949 0.746176