ITEM: TIMESTEP
940000
ITEM: NUMBER OF ATOMS
4590
ITEM: BOX BOUNDS pp pp pp
-9.9985700000000008e+00 9.9985700000000008e+00
-9.9985700000000008e+00 9.9985700000000008e+00
-9.9985700000000008e+00 9.9985700000000008e+00
ITEM: ATOMS id type xs ys zs
463 2 0.0353152 0.0269578 0.0401787
464 4 0.0529219 0.0427405 0.0483082
1667 4 0.0677337 0.0482356 0.034874
465 4 0.0177085 0.011175 0.0320493
1666 2 0.0769475 0.0714611 0.0339448
3291 4 0.000810555 0.0191515 0.0237208
579 4 0.120195 0.00298557 0.0640516
577 2 0.109105 0.0210507 0.0773122
1253 4 0.162357 0.0339763 0.012943
994 2 0.14011 0.00115111 0.00558473
995 4 0.142572 0.0256444 0.00996613
533 4 0.225733 0.0612026 0.0757856
1254 4 0.207396 0.0556506 0.0145015
1252 2 0.184877 0.0448134 0.0137222
359 4 0.203058 0.0722393 0.00370857
491 4 0.256462 0.0399935 0.0172025
490 2 0.276014 0.037564 0.0325967
492 4 0.295566 0.0351345 0.0479909
486 4 0.310417 0.0445285 0.0572683
484 2 0.328874 0.0279802 0.0605335
297 4 0.370124 0.0558931 0.0576653
746 4 0.379056 0.0389203 0.0583377
485 4 0.347332 0.0114318 0.0637988
745 2 0.403134 0.0363719 0.052097
295 2 0.366344 0.0777276 0.0692477
747 4 0.427212 0.0338236 0.0458564
2975 4 0.439787 0.0430139 0.0346077
1826 4 0.441993 0.0220452 0.0357163
1825 2 0.463286 0.0108479 0.028903
2974 2 0.449802 0.0648689 0.0277344
1827 4 0.484578 0.99965 0.0220898
1246 2 0.0293813 0.107013 0.0120133
1247 4 0.044759 0.0910202 0.0235427
1248 4 0.0140037 0.123007 0.00048399
1668 4 0.0861612 0.0946865 0.0330156
423 4 0.172272 0.155318 0.0299462
532 2 0.215892 0.0835021 0.070212
534 4 0.206051 0.105802 0.0646383
421 2 0.183305 0.136694 0.0424608
422 4 0.194338 0.118071 0.0549754
665 4 0.295301 0.146785 0.0403856
557 4 0.298347 0.112579 0.0740635
664 2 0.315912 0.143342 0.0266558
556 2 0.323145 0.11296 0.0772385
666 4 0.336523 0.139898 0.0129259
558 4 0.347943 0.113341 0.0804135
2976 4 0.459817 0.0867238 0.0208611
2624 4 0.00367475 0.190053 0.0727819
554 4 0.133959 0.224967 0.0129823
1133 4 0.143716 0.206733 0.01066
553 2 0.122285 0.24532 0.0216213
572 4 0.327238 0.251148 0.0280258
323 4 0.375169 0.234754 0.0384891
771 4 0.483789 0.188638 0.0226932
769 2 0.462441 0.182876 0.0343663
770 4 0.441094 0.177114 0.0460395
836 4 0.0699476 0.314745 0.0144363
555 4 0.11061 0.265673 0.0302602
483 4 0.23933 0.256753 0.0269113
481 2 0.256813 0.269494 0.0143732
482 4 0.274295 0.282236 0.00183511
571 2 0.311737 0.265788 0.0149663
322 2 0.393271 0.25187 0.036358
324 4 0.411373 0.268985 0.0342269
294 4 0.0720472 0.40552 0.064344
621 4 0.0190687 0.389436 0.0176966
552 4 0.0743685 0.412876 0.010479
2787 4 0.00212962 0.387488 0.0294983
2771 4 0.000342023 0.398891 0.0104304
619 2 0.0403153 0.382872 0.0062658
835 2 0.0834644 0.328603 0.0302616
292 2 0.0830905 0.383552 0.0598004
293 4 0.0941339 0.361584 0.0552567
837 4 0.0969812 0.342461 0.0460869
915 4 0.109092 0.359004 0.0454557
913 2 0.128305 0.369017 0.0329749
914 4 0.147519 0.37903 0.020494
288 4 0.160858 0.362743 0.0118916
250 2 0.271401 0.39162 0.0622533
252 4 0.262926 0.368344 0.0656517
251 4 0.279876 0.414897 0.0588548
957 4 0.348215 0.399862 0.0131529
955 2 0.368937 0.409082 0.00262686
672 4 0.42229 0.395197 0.0425179
670 2 0.431705 0.385571 0.0214495
563 4 0.437768 0.412255 0.075779
562 2 0.461896 0.415647 0.0813912
550 2 0.0674207 0.43648 0.0149246
551 4 0.060473 0.460084 0.0193702
245 4 0.178025 0.446441 0.00615007
609 4 0.295744 0.423489 0.0643731
607 2 0.319718 0.430012 0.0671774
608 4 0.343693 0.436535 0.0699816
525 4 0.344202 0.482842 0.0699388
2386 2 0.501243 0.454492 0.0797278
2388 4 0.499149 0.476657 0.0683486
578 4 0.0980151 0.0391159 0.0905727
566 4 0.176086 0.0750922 0.112953
1505 4 0.26482 0.00524597 0.137101
2468 4 0.493599 0.0762982 0.106545
235 2 0.0779175 0.162023 0.153469
589 2 0.00185437 0.148439 0.122985
591 4 0.0180198 0.164929 0.132575
236 4 0.0554052 0.164998 0.163934
237 4 0.10043 0.159047 0.143004
477 4 0.105695 0.141185 0.149047
475 2 0.122642 0.137851 0.130968
476 4 0.139589 0.134516 0.112889
565 2 0.172917 0.0988975 0.119914
567 4 0.169748 0.122703 0.126874
296 4 0.362565 0.099562 0.08083
629 4 0.371229 0.116958 0.0800564
628 2 0.373326 0.138414 0.0927219
630 4 0.375423 0.15987 0.105387
339 4 0.118245 0.206218 0.103509
337 2 0.132371 0.221052 0.117847
338 4 0.146497 0.235886 0.132185
371 4 0.166434 0.201944 0.15403
506 4 0.159355 0.247251 0.120391
352 2 0.313735 0.248376 0.163459
255 4 0.381311 0.236368 0.147234
253 2 0.387994 0.240275 0.123459
254 4 0.394678 0.244183 0.0996844
526 2 0.482556 0.223387 0.140283
527 4 0.47835 0.206571 0.158303
528 4 0.486763 0.240202 0.122263
519 4 0.468852 0.245568 0.114772
449 4 0.03324 0.261934 0.129282
448 2 0.0227517 0.252539 0.149944
703 2 0.0614041 0.319372 0.143317
704 4 0.0700607 0.307159 0.12329
705 4 0.0527474 0.331586 0.163343
455 4 0.130296 0.319143 0.090226
505 2 0.167555 0.268797 0.110711
507 4 0.175755 0.290343 0.101031
353 4 0.294772 0.26373 0.157998
755 4 0.296012 0.269696 0.137934
754 2 0.313288 0.275543 0.12083
756 4 0.330564 0.281389 0.103727
612 4 0.270625 0.295111 0.140785
610 2 0.266136 0.318328 0.148908
740 4 0.330775 0.301406 0.105756
739 2 0.345424 0.319722 0.114423
622 2 0.393673 0.324605 0.164652
518 4 0.439995 0.275006 0.0864641
517 2 0.454424 0.260287 0.100618
417 4 0.0994612 0.377348 0.113826
416 4 0.0922214 0.371223 0.162926
456 4 0.106845 0.360464 0.105825
454 2 0.118571 0.339803 0.0980254
415 2 0.0958413 0.374286 0.138376
611 4 0.261647 0.341546 0.157031
741 4 0.360073 0.338038 0.123089
387 4 0.380947 0.379363 0.14445
385 2 0.371293 0.365326 0.126148
386 4 0.36164 0.35129 0.107846
13 3 0.392366 0.390678 0.155101
11 1 0.411481 0.379588 0.162174
623 4 0.397092 0.343481 0.148616
12 3 0.409584 0.35731 0.156765
15 3 0.429798 0.38829 0.151809
494 4 0.42558 0.406997 0.147978
228 4 0.498087 0.402624 0.0949752
1787 4 0.0222731 0.485812 0.0914392
1786 2 0.00343536 0.470782 0.0847765
1466 4 0.0420367 0.493462 0.0908191
1440 4 0.159797 0.487149 0.104113
1438 2 0.182238 0.486922 0.115139
1439 4 0.204678 0.486695 0.126164
627 4 0.243068 0.440436 0.148241
626 4 0.260583 0.484076 0.131228
625 2 0.251825 0.462256 0.139735
660 4 0.392224 0.499583 0.148169
658 2 0.406987 0.482669 0.137161
564 4 0.486025 0.41904 0.0870033
659 4 0.421749 0.465756 0.126153
495 4 0.436214 0.451488 0.127774
493 2 0.430897 0.429243 0.137876
1672 2 0.49245 0.429504 0.128109
1674 4 0.491827 0.439961 0.150813
1673 4 0.493074 0.419048 0.105405
232 2 0.00537315 0.0236565 0.242188
1403 4 0.0957554 0.00362045 0.237169
675 4 0.0902955 0.0200751 0.247196
653 4 0.193603 0.0720036 0.190841
22 3 0.351594 0.0799705 0.169894
24 3 0.368457 0.0467025 0.174533
23 3 0.35474 0.0656356 0.204495
21 1 0.365138 0.0676904 0.183854
25 3 0.385106 0.0783781 0.186243
759 4 0.403146 0.0777217 0.195349
757 2 0.41261 0.08277 0.217934
393 4 0.0689685 0.147065 0.239697
391 2 0.0924872 0.150908 0.247265
545 4 0.109596 0.0980401 0.237592
544 2 0.128901 0.0880149 0.249919
652 2 0.193358 0.0896298 0.208573
654 4 0.193113 0.107256 0.226305
692 4 0.193666 0.116586 0.247659
581 4 0.197099 0.126632 0.228885
580 2 0.200445 0.141092 0.208763
582 4 0.203792 0.155552 0.188641
29 3 0.327781 0.157031 0.24746
744 4 0.409218 0.102316 0.24126
758 4 0.422075 0.0878182 0.24052
450 4 0.0122635 0.243144 0.170605
16 1 0.000957002 0.207185 0.174373
17 3 0.0238008 0.206029 0.176817
361 2 0.0764989 0.249067 0.224499
702 4 0.0106947 0.23594 0.188525
363 4 0.056142 0.244957 0.210575
700 2 0.0267701 0.245951 0.204851
370 2 0.176278 0.220346 0.167802
372 4 0.186122 0.238747 0.181573
738 4 0.252632 0.174797 0.183799
737 4 0.297659 0.195808 0.178158
736 2 0.275145 0.185303 0.180978
284 4 0.290001 0.223532 0.224205
283 2 0.307646 0.226001 0.206664
285 4 0.325292 0.228469 0.189122
354 4 0.332699 0.233022 0.168919
311 4 0.328512 0.172243 0.170778
462 4 0.388301 0.24218 0.165466
312 4 0.34249 0.219227 0.180672
310 2 0.335501 0.195735 0.175725
764 4 0.343147 0.224446 0.20122
460 2 0.365575 0.241067 0.175833
461 4 0.342848 0.239953 0.186199
763 2 0.355281 0.220225 0.222671
765 4 0.367414 0.216003 0.244122
701 4 0.0428455 0.255963 0.221177
648 4 0.0507455 0.320574 0.218068
646 2 0.0435626 0.328879 0.195605
362 4 0.0968559 0.253176 0.238423
748 2 0.0998856 0.295346 0.247401
749 4 0.0993822 0.320344 0.247301
750 4 0.100389 0.270347 0.247501
624 4 0.390253 0.305728 0.180688
647 4 0.0363796 0.337184 0.173141
299 4 0.142833 0.339168 0.230098
298 2 0.159035 0.34643 0.247702
302 4 0.27852 0.405878 0.170452
14 3 0.413724 0.381555 0.185185
645 4 0.402642 0.390934 0.19904
728 4 0.358104 0.367767 0.234658
107 3 0.493353 0.399885 0.209917
643 2 0.421507 0.398876 0.2134
110 3 0.459766 0.411587 0.221225
644 4 0.440373 0.406817 0.227759
106 1 0.477735 0.416686 0.208196
1757 4 0.0631125 0.47614 0.217254
3715 2 0.0183315 0.493303 0.23662
603 4 0.0860964 0.426053 0.250931
1756 2 0.0873985 0.481937 0.215928
291 4 0.147337 0.441154 0.200023
1758 4 0.111685 0.487734 0.214602
289 2 0.170252 0.446906 0.208208
639 4 0.242407 0.444451 0.169029
637 2 0.22417 0.450355 0.185084
290 4 0.193167 0.452658 0.216394
638 4 0.205934 0.456259 0.201138
768 4 0.21299 0.44602 0.21815
766 2 0.214471 0.428295 0.235723
1435 2 0.209018 0.492048 0.247004
1436 4 0.199101 0.469988 0.25334
301 2 0.296339 0.418691 0.18243
303 4 0.314158 0.431504 0.194409
109 3 0.471157 0.418571 0.186024
1568 4 0.49684 0.453213 0.21278
108 3 0.487302 0.436582 0.215339
234 4 0.0134675 0.00884836 0.260637
529 2 0.000781635 0.0679736 0.302824
317 4 0.0503973 0.0433698 0.326637
511 2 0.0523167 0.0775675 0.280733
531 4 0.0106989 0.07 0.279961
512 4 0.0768353 0.0739838 0.277391
513 4 0.0277981 0.0811513 0.284076
674 4 0.0879136 0.0577716 0.279968
673 2 0.0891046 0.0389233 0.263582
693 4 0.167388 0.0811002 0.271131
722 4 0.15771 0.0640942 0.270662
721 2 0.147231 0.0414134 0.271639
723 4 0.136753 0.0187325 0.272616
427 2 0.100509 0.0113409 0.318967
732 4 0.149909 0.0758741 0.330788
428 4 0.0870466 0.00469904 0.298971
546 4 0.148207 0.0779896 0.262247
730 2 0.13431 0.0564571 0.332989
1769 4 0.214791 0.997954 0.265794
605 4 0.165602 0.0762713 0.319374
1464 4 0.209177 0.0480255 0.294689
1462 2 0.203017 0.0264655 0.283625
1463 4 0.196858 0.00490549 0.272562
683 4 0.255309 0.0600873 0.309495
682 2 0.268313 0.080329 0.316305
1517 4 0.368092 0.00975029 0.315766
1516 2 0.364677 0.0324804 0.325608
479 4 0.455475 0.0598643 0.255714
480 4 0.494032 0.0382566 0.279106
478 2 0.474753 0.0490605 0.26741
2483 4 0.0140456 0.0877092 0.271794
2482 2 0.0112914 0.110944 0.262976
2484 4 0.0085373 0.134178 0.254159
392 4 0.116006 0.154752 0.254834
249 4 0.156284 0.152028 0.260064
404 4 0.13693 0.155715 0.265512
598 2 0.14448 0.123992 0.293391
599 4 0.147064 0.139552 0.273989
600 4 0.141897 0.108433 0.312792
247 2 0.180782 0.156591 0.258017
691 2 0.180527 0.0988434 0.259395
248 4 0.205281 0.161154 0.25597
684 4 0.281316 0.100571 0.323114
30 3 0.297456 0.147385 0.267585
631 2 0.293967 0.116223 0.286658
632 4 0.313007 0.121921 0.271487
633 4 0.274927 0.110525 0.30183
26 1 0.315356 0.161428 0.266557
27 3 0.328667 0.1581 0.28502
466 2 0.261353 0.131567 0.331491
468 4 0.283034 0.11964 0.327906
726 4 0.295437 0.102302 0.336173
742 2 0.403102 0.114076 0.262461
743 4 0.396985 0.125835 0.283663
351 4 0.401476 0.137563 0.300638
707 4 0.34682 0.165115 0.291782
349 2 0.419227 0.148908 0.314106
350 4 0.436979 0.160252 0.327573
452 4 0.457169 0.161141 0.331304
389 4 0.07455 0.237218 0.301758
405 4 0.132159 0.204835 0.273583
403 2 0.134545 0.180275 0.269548
474 4 0.179732 0.168852 0.314425
472 2 0.197031 0.179912 0.328695
279 4 0.220379 0.219681 0.256709
277 2 0.230772 0.236192 0.272347
278 4 0.241164 0.252704 0.287985
28 3 0.308123 0.183475 0.266399
708 4 0.392776 0.184347 0.287435
706 2 0.369798 0.174731 0.289608
418 2 0.432275 0.228733 0.325108
419 4 0.430567 0.249417 0.311163
442 2 0.0729065 0.315264 0.29229
388 2 0.0733871 0.258863 0.289294
444 4 0.0813834 0.291799 0.290635
390 4 0.0722242 0.280507 0.276831
536 4 0.247313 0.271101 0.287651
344 4 0.242921 0.263843 0.30575
535 2 0.248124 0.291555 0.273293
343 2 0.223048 0.272194 0.318419
537 4 0.248936 0.31201 0.258936
345 4 0.203175 0.280546 0.331088
309 4 0.313102 0.275155 0.255523
307 2 0.328652 0.293996 0.260853
497 4 0.319957 0.324894 0.329887
496 2 0.33163 0.323024 0.307855
308 4 0.344202 0.312836 0.266184
498 4 0.343303 0.321154 0.285822
443 4 0.0644297 0.338728 0.293945
548 4 0.0415071 0.388522 0.330213
300 4 0.175238 0.353692 0.265307
734 4 0.172086 0.357167 0.284901
735 4 0.192151 0.340664 0.32763
733 2 0.182118 0.348916 0.306266
436 2 0.238124 0.409297 0.292679
438 4 0.249663 0.404207 0.314269
767 4 0.215952 0.41057 0.253295
437 4 0.226585 0.414386 0.271089
729 4 0.349914 0.332977 0.269634
727 2 0.354009 0.350372 0.252146
542 4 0.396167 0.375529 0.261947
541 2 0.402828 0.379548 0.285709
543 4 0.409489 0.383568 0.309471
615 4 0.396723 0.395142 0.319627
447 4 0.416176 0.400387 0.320938
3717 4 0.01214 0.478624 0.255891
2462 4 0.0156545 0.466796 0.271313
2463 4 0.0144611 0.41985 0.2885
2461 2 0.0150578 0.443323 0.279907
3959 4 0.0187247 0.487174 0.27381
3958 2 0.0176091 0.500487 0.294946
602 4 0.0941306 0.419053 0.299789
601 2 0.0901135 0.422553 0.27536
414 4 0.138058 0.460873 0.259056
412 2 0.162271 0.465252 0.263503
776 4 0.110855 0.485771 0.330636
413 4 0.186483 0.469632 0.267949
1557 4 0.207795 0.46987 0.268354
1555 2 0.210045 0.45943 0.290963
1556 4 0.212294 0.44899 0.313571
712 2 0.385981 0.484146 0.285626
713 4 0.377767 0.462974 0.296089
445 2 0.429151 0.421673 0.319011
118 3 0.501054 0.439142 0.327346
446 4 0.442127 0.44296 0.317085
316 2 0.046825 0.0362695 0.350343
318 4 0.0432526 0.0291692 0.37405
1602 4 0.0719464 0.029389 0.389214
1600 2 0.0835765 0.00730611 0.390719
429 4 0.113972 0.0179828 0.338962
731 4 0.118712 0.0370401 0.33519
1701 4 0.173915 0.0191332 0.39152
441 4 0.246379 0.0703432 0.385648
439 2 0.235539 0.067022 0.363362
440 4 0.224699 0.0637009 0.341077
1699 2 0.168001 0.00229582 0.374007
1670 4 0.315431 0.0129777 0.376054
1669 2 0.332224 0.0298274 0.368355
1671 4 0.349016 0.0466772 0.360655
1427 4 0.3623 0.0621335 0.353811
699 4 0.348387 0.0713714 0.340148
1426 2 0.379334 0.0571255 0.371416
1518 4 0.361262 0.0552104 0.33545
1428 4 0.396367 0.0521176 0.389022
1580 4 0.463564 0.0289191 0.40594
1579 2 0.446171 0.0452157 0.413494
399 4 0.123454 0.120328 0.366095
398 4 0.10919 0.15304 0.401126
397 2 0.116322 0.136684 0.383611
687 4 0.158287 0.13824 0.401418
604 2 0.174392 0.0914293 0.337211
467 4 0.239672 0.143494 0.335076
606 4 0.183183 0.106587 0.355047
725 4 0.298522 0.0925439 0.385122
724 2 0.29698 0.0974231 0.360647
697 2 0.346291 0.0960221 0.343771
698 4 0.344195 0.120673 0.347394
257 4 0.407 0.089635 0.395565
256 2 0.394049 0.0928723 0.416706
516 4 0.427088 0.0961662 0.400803
514 2 0.442386 0.108405 0.385267
515 4 0.457683 0.120644 0.36973
451 2 0.465797 0.146311 0.349492
453 4 0.474424 0.131481 0.367681
473 4 0.214329 0.190971 0.342965
276 4 0.232928 0.199334 0.340191
274 2 0.239969 0.207863 0.362615
275 4 0.247011 0.216392 0.38504
375 4 0.243822 0.236121 0.380854
373 2 0.251032 0.247783 0.401763
306 4 0.438391 0.207866 0.358451
304 2 0.461449 0.208432 0.368103
305 4 0.484508 0.208998 0.377755
420 4 0.433983 0.20805 0.339052
270 4 0.49963 0.222954 0.37562
2926 2 0.00908366 0.321158 0.333247
617 4 0.0393187 0.315328 0.406388
616 2 0.063272 0.317608 0.399589
2927 4 0.0266518 0.330176 0.348583
618 4 0.0872253 0.319889 0.392791
677 4 0.141574 0.309606 0.343034
676 2 0.164003 0.298616 0.344195
401 4 0.217481 0.303601 0.393625
678 4 0.186431 0.287626 0.345355
400 2 0.210839 0.292969 0.371991
402 4 0.204197 0.282337 0.350358
488 4 0.328999 0.250589 0.407723
510 4 0.260373 0.277053 0.411724
508 2 0.260692 0.298511 0.398893
489 4 0.301624 0.286281 0.385873
487 2 0.315311 0.268435 0.396798
509 4 0.261011 0.319969 0.386062
377 4 0.302583 0.327435 0.341249
435 4 0.321269 0.331067 0.348684
376 2 0.283409 0.331563 0.356757
407 4 0.0841583 0.335261 0.379
547 2 0.0357678 0.368231 0.343648
549 4 0.0300285 0.34794 0.357083
681 4 0.0232472 0.334826 0.369877
679 2 0.0179338 0.348043 0.390425
680 4 0.0126205 0.361261 0.410974
408 4 0.0959558 0.367723 0.342837
406 2 0.0900571 0.351492 0.360918
669 4 0.239732 0.414437 0.402843
667 2 0.25085 0.396083 0.39001
668 4 0.261968 0.377728 0.377177
378 4 0.264235 0.335692 0.372265
613 2 0.373723 0.396871 0.329281
433 2 0.340953 0.333689 0.363878
434 4 0.360636 0.336312 0.379072
614 4 0.350724 0.3986 0.338934
586 2 0.438891 0.399584 0.393027
587 4 0.455632 0.3831 0.401583
777 4 0.0620779 0.477999 0.338456
775 2 0.0864662 0.481885 0.334546
499 2 0.145275 0.470167 0.346982
500 4 0.161797 0.452336 0.352835
501 4 0.128754 0.487998 0.341128
1716 4 0.369895 0.452411 0.407049
1714 2 0.387456 0.439944 0.394346
1715 4 0.405016 0.427477 0.381643
594 4 0.434753 0.477934 0.35133
592 2 0.428216 0.45666 0.362726
593 4 0.421679 0.435386 0.374122
588 4 0.42215 0.416068 0.384471
120 3 0.471404 0.445944 0.349533
116 1 0.494149 0.446061 0.34839
2586 4 0.012681 0.0733275 0.452921
368 4 0.076181 0.0570987 0.461476
369 4 0.120961 0.0749781 0.448216
367 2 0.0985708 0.0660384 0.454846
938 4 0.11389 0.0807245 0.498327
1817 4 0.262619 0.0200975 0.497812
1816 2 0.258522 0.00245189 0.480577
961 2 0.297238 0.076786 0.480882
962 4 0.290559 0.0592643 0.497422
424 2 0.369828 0.0750762 0.466913
425 4 0.353579 0.0711297 0.485502
88 3 0.411695 0.00490984 0.46257
426 4 0.386078 0.0790227 0.448324
3488 4 0.487228 0.0367463 0.477935
1061 4 0.467189 0.0426372 0.477334
1581 4 0.428777 0.0615123 0.421048
1060 2 0.446546 0.0302697 0.470544
1062 4 0.425903 0.0179023 0.463755
720 4 0.0071225 0.0898886 0.447028
458 4 0.0408488 0.140274 0.474854
718 2 0.0213368 0.105375 0.460567
719 4 0.0355511 0.120862 0.474105
457 2 0.0492281 0.159124 0.460725
685 2 0.162338 0.131286 0.425091
260 4 0.114242 0.159623 0.469608
686 4 0.16639 0.124332 0.448764
1152 4 0.184446 0.13476 0.449371
1150 2 0.188924 0.14301 0.472546
1151 4 0.193401 0.15126 0.49572
963 4 0.303916 0.0943076 0.464342
432 4 0.316149 0.106605 0.454995
321 4 0.263179 0.120258 0.443792
319 2 0.268879 0.137796 0.460677
320 4 0.274579 0.155334 0.477563
430 2 0.334743 0.108192 0.438354
258 4 0.381098 0.0961095 0.437848
431 4 0.353337 0.10978 0.421713
459 4 0.0576074 0.177975 0.446596
259 2 0.125898 0.181617 0.467245
261 4 0.137555 0.20361 0.464882
1035 4 0.153205 0.195369 0.471689
1033 2 0.170957 0.210536 0.480633
1034 4 0.188709 0.225703 0.489578
695 4 0.182161 0.243393 0.495028
411 4 0.289812 0.165478 0.484452
715 2 0.326684 0.226102 0.444287
716 4 0.322881 0.210333 0.463315
717 4 0.330487 0.24187 0.425258
575 4 0.384708 0.234024 0.475502
574 2 0.369184 0.214426 0.475778
576 4 0.353659 0.194828 0.476053
266 4 0.387771 0.244432 0.457491
347 4 0.043948 0.282642 0.442689
346 2 0.0216369 0.278591 0.432155
327 4 0.133384 0.324934 0.496576
374 4 0.258243 0.259446 0.422672
650 4 0.269866 0.275686 0.428387
651 4 0.301795 0.29114 0.463635
649 2 0.285831 0.283413 0.446011
265 2 0.40748 0.255507 0.468173
560 4 0.457118 0.321675 0.4878
267 4 0.427188 0.266583 0.478855
585 4 0.466405 0.267434 0.483959
872 4 0.427564 0.27877 0.494843
584 4 0.454606 0.313909 0.469763
583 2 0.460506 0.290672 0.476861
384 4 0.0745823 0.405746 0.49407
636 4 0.226501 0.414714 0.418014
635 4 0.176985 0.416782 0.424691
634 2 0.201743 0.415748 0.421353
503 4 0.204633 0.338899 0.423176
502 2 0.217532 0.354351 0.43801
504 4 0.23043 0.369803 0.452844
773 4 0.240874 0.384602 0.459609
772 2 0.234034 0.379921 0.483199
336 4 0.332064 0.375313 0.429238
334 2 0.339388 0.385457 0.450886
335 4 0.346712 0.395601 0.472534
240 4 0.355171 0.41352 0.473516
238 2 0.353862 0.408289 0.497931
753 4 0.447533 0.390013 0.420805
751 2 0.459047 0.382913 0.441834
925 2 0.466398 0.411053 0.486665
926 4 0.469851 0.387655 0.478553
559 2 0.465428 0.345114 0.485199
752 4 0.47056 0.375813 0.462863
561 4 0.473739 0.368552 0.482598
382 2 0.069142 0.430055 0.496223
383 4 0.0637017 0.454365 0.498377
568 2 0.179524 0.497558 0.434468
570 4 0.201751 0.487894 0.428325
4 3 0.318598 0.476378 0.432007
3 3 0.343571 0.471258 0.460194
1 1 0.337915 0.484481 0.441986
5 3 0.354975 0.484641 0.426901
927 4 0.462945 0.43445 0.494778
1126 2 0.0809363 0.0105754 0.525544
1128 4 0.0827792 0.0354855 0.526669
937 2 0.104953 0.0650308 0.515619
939 4 0.0960152 0.049337 0.532911
2428 2 0.155176 0.0274719 0.567806
2429 4 0.130553 0.028923 0.5719
2430 4 0.1798 0.0260208 0.563711
1031 4 0.210403 0.0811133 0.567616
640 2 0.460949 0.0657954 0.517946
641 4 0.439133 0.0623979 0.506213
642 4 0.482766 0.069193 0.52968
1154 4 0.108935 0.153911 0.576193
1182 4 0.222306 0.0899434 0.553569
1180 2 0.241255 0.0902301 0.537259
1181 4 0.260204 0.0905168 0.520949
877 2 0.0320985 0.186495 0.547181
1272 4 0.0704726 0.190552 0.548332
879 4 0.0534756 0.197847 0.553453
878 4 0.0107214 0.175144 0.540908
1271 4 0.110488 0.174077 0.573393
1270 2 0.0904804 0.182315 0.560862
1220 4 0.201884 0.20177 0.559947
1219 2 0.222597 0.210919 0.549343
1221 4 0.243311 0.220068 0.53874
410 4 0.321513 0.180371 0.520144
409 2 0.305663 0.172925 0.502298
791 4 0.306013 0.247952 0.522342
1193 4 0.412287 0.178143 0.572385
1136 4 0.0680292 0.321031 0.537582
1135 2 0.0506138 0.328708 0.553797
325 2 0.14973 0.310582 0.508906
326 4 0.166076 0.29623 0.521236
9 3 0.170237 0.311817 0.535163
6 1 0.186563 0.301351 0.547904
8 3 0.185259 0.278353 0.545109
10 3 0.207188 0.308772 0.541723
7 3 0.18304 0.30636 0.570077
696 4 0.179994 0.282174 0.526524
694 2 0.181078 0.262784 0.510776
711 4 0.215931 0.324092 0.532191
790 2 0.327972 0.257273 0.529833
792 4 0.349931 0.266594 0.537324
812 4 0.345303 0.285868 0.541492
811 2 0.369954 0.28967 0.543249
813 4 0.394604 0.293473 0.545005
873 4 0.405373 0.303511 0.532208
871 2 0.416468 0.291141 0.513525
935 4 0.0163663 0.373433 0.577137
934 2 0.00158815 0.358426 0.563661
1137 4 0.0331984 0.336385 0.570013
897 4 0.154886 0.3996 0.554431
895 2 0.138469 0.399261 0.573287
1160 4 0.163552 0.415177 0.546183
709 2 0.228138 0.344276 0.523898
774 4 0.227194 0.375239 0.506789
710 4 0.240344 0.36446 0.515605
1159 2 0.188019 0.415977 0.541095
239 4 0.352554 0.403057 0.522346
1161 4 0.212487 0.416777 0.536007
1171 2 0.241009 0.441402 0.547127
1173 4 0.21966 0.429031 0.551174
1188 4 0.23727 0.493254 0.553856
1172 4 0.262358 0.453772 0.543081
1187 4 0.267192 0.495014 0.513828
1186 2 0.252231 0.494134 0.533842
882 4 0.348016 0.452325 0.5114
929 4 0.357615 0.452943 0.577945
880 2 0.368743 0.464481 0.518313
1000 2 0.415793 0.458901 0.554445
1001 4 0.39565 0.463352 0.540315
881 4 0.389471 0.476637 0.525225
1002 4 0.435935 0.45445 0.568574
661 2 0.455186 0.482375 0.51829
663 4 0.435133 0.492877 0.528911
662 4 0.475238 0.471873 0.50767
1267 2 0.459978 0.483569 0.577504
1269 4 0.45427 0.459331 0.575234
4085 4 0.493928 0.475172 0.503426
2317 2 0.0404489 0.0121299 0.623595
2319 4 0.0230028 0.0276484 0.632539
1059 4 0.0947264 0.0278668 0.596334
1058 4 0.121638 0.0314159 0.638332
1057 2 0.108182 0.0296413 0.617333
944 4 0.120969 0.0348662 0.658609
824 4 0.134919 0.0222622 0.650412
951 4 0.294298 0.012719 0.65264
1092 4 0.312813 0.0106333 0.647777
1090 2 0.336186 0.0193253 0.649596
1091 4 0.35956 0.0280172 0.651415
2283 4 0.376999 0.017696 0.654135
2281 2 0.390616 0.00209235 0.640125
3007 2 0.492023 0.0760669 0.608334
1082 4 0.0689614 0.155118 0.657218
1081 2 0.0840369 0.136469 0.6643
1153 2 0.123001 0.138396 0.589854
1155 4 0.137068 0.122881 0.603514
1032 4 0.226668 0.091991 0.613636
1030 2 0.218535 0.0865521 0.590626
1282 2 0.236123 0.125379 0.633842
1283 4 0.224854 0.103463 0.629616
1284 4 0.247393 0.147295 0.638067
1211 4 0.264875 0.156537 0.642047
900 4 0.334053 0.150985 0.612721
3009 4 0.481408 0.0954492 0.620031
809 4 0.461297 0.0945706 0.624938
808 2 0.452265 0.0975861 0.648057
1207 2 0.095105 0.249158 0.660909
1210 2 0.265352 0.181308 0.645415
1212 4 0.265829 0.20608 0.648783
888 4 0.32835 0.238896 0.618368
898 2 0.35083 0.169524 0.612499
886 2 0.348044 0.224156 0.613888
887 4 0.367737 0.209415 0.609408
899 4 0.367607 0.188062 0.612277
1194 4 0.388894 0.200096 0.610746
1192 2 0.400591 0.18912 0.591566
830 4 0.377556 0.199493 0.625391
829 2 0.377458 0.197144 0.650283
1025 4 0.453655 0.20635 0.628989
1024 2 0.465912 0.225443 0.618479
1026 4 0.478169 0.244535 0.60797
906 4 0.490716 0.242051 0.591794
1208 4 0.108486 0.269734 0.65614
1259 4 0.188845 0.324567 0.606193
857 4 0.219466 0.254639 0.639973
856 2 0.211012 0.273825 0.653596
1258 2 0.195888 0.31628 0.628708
1260 4 0.202931 0.307994 0.651222
796 2 0.229237 0.330034 0.665483
804 4 0.323726 0.320861 0.58614
802 2 0.307752 0.303902 0.595218
803 4 0.291778 0.286944 0.604296
1239 4 0.287077 0.274927 0.619836
1237 2 0.291254 0.278337 0.644252
952 2 0.482432 0.283907 0.60367
953 4 0.48214 0.307246 0.612636
954 4 0.482724 0.260568 0.594704
1041 4 0.0351408 0.341953 0.589923
1039 2 0.0298025 0.348817 0.613366
1040 4 0.0244643 0.355681 0.636809
3274 2 0.00132893 0.376267 0.6571
3275 4 0.00696352 0.354849 0.645494
993 4 0.0574031 0.346029 0.587058
991 2 0.0806676 0.34874 0.595809
896 4 0.122053 0.398922 0.592143
992 4 0.103932 0.351452 0.604561
1190 4 0.199603 0.404274 0.58853
798 4 0.245518 0.348513 0.661164
1029 4 0.250159 0.395544 0.656673
1065 4 0.26553 0.348415 0.664122
1007 4 0.400826 0.348983 0.663065
1189 2 0.206137 0.419788 0.607018
1191 4 0.212672 0.435302 0.625506
1176 4 0.222079 0.477063 0.656375
891 4 0.318229 0.486908 0.648185
889 2 0.324005 0.494357 0.625026
928 2 0.349906 0.476319 0.582338
930 4 0.342196 0.499696 0.586731
1185 4 0.0591737 0.00398354 0.677896
943 2 0.121825 0.0581004 0.667808
945 4 0.122681 0.0813345 0.677007
949 2 0.281444 0.027518 0.668163
950 4 0.268591 0.042317 0.683686
1004 4 0.302241 0.0776622 0.699488
1003 2 0.31953 0.0617495 0.690941
1005 4 0.336818 0.0458368 0.682393
43 3 0.409803 0.0669275 0.694968
846 4 0.44567 0.0703383 0.736528
42 3 0.439626 0.074177 0.716663
2321 4 0.489638 0.0255217 0.726547
2320 2 0.485206 0.00734876 0.743139
844 2 0.466934 0.067078 0.749272
1163 4 0.490008 0.0366946 0.709857
41 1 0.427242 0.0817424 0.698815
45 3 0.440594 0.0829766 0.680407
1077 4 0.0102471 0.107285 0.748543
850 2 0.0442845 0.105314 0.700434
851 4 0.0332238 0.105523 0.722857
1107 4 0.0198611 0.119786 0.734705
852 4 0.0553453 0.105105 0.67801
864 4 0.0323184 0.107657 0.742463
1105 2 0.0196504 0.143101 0.743735
1083 4 0.0991125 0.117821 0.671382
909 4 0.11124 0.130605 0.678821
907 2 0.133379 0.126435 0.689667
908 4 0.155519 0.122266 0.700513
1227 4 0.174968 0.122506 0.706046
1225 2 0.191975 0.122112 0.72437
1226 4 0.208983 0.121719 0.742694
1142 4 0.41738 0.117425 0.718263
1141 2 0.409532 0.13606 0.732972
1143 4 0.401685 0.154694 0.747681
44 3 0.418811 0.102753 0.703903
810 4 0.443233 0.100602 0.671177
1209 4 0.0817244 0.228581 0.665679
976 2 0.222854 0.242195 0.742372
977 4 0.239327 0.227445 0.730698
918 4 0.255811 0.224086 0.717894
916 2 0.278932 0.233395 0.719879
917 4 0.302053 0.242703 0.721864
831 4 0.377361 0.194795 0.675176
3355 2 0.497939 0.226221 0.7198
1263 4 0.42574 0.19422 0.695131
1261 2 0.443645 0.211119 0.699494
1262 4 0.46155 0.228018 0.703856
3356 4 0.475804 0.235431 0.712702
3123 4 0.472608 0.245677 0.697057
1243 2 0.00722511 0.256693 0.67028
1245 4 0.0176871 0.274074 0.684896
1179 4 0.010886 0.282105 0.702155
892 2 0.0789858 0.30661 0.713087
894 4 0.0718955 0.311307 0.689575
1177 2 0.000186031 0.304683 0.701177
893 4 0.0860762 0.301912 0.7366
1074 4 0.0988259 0.287512 0.742587
947 4 0.10663 0.305607 0.74211
946 2 0.130296 0.313429 0.740129
948 4 0.153962 0.32125 0.738147
858 4 0.202558 0.293012 0.667219
797 4 0.212956 0.311556 0.669801
1278 4 0.166307 0.310005 0.749858
1238 4 0.295431 0.281748 0.668667
806 4 0.308468 0.290761 0.681525
805 2 0.332412 0.29655 0.685807
1006 2 0.385111 0.334075 0.675554
1008 4 0.369397 0.319166 0.688043
807 4 0.356357 0.302338 0.69009
1166 4 0.446545 0.309561 0.732422
3122 4 0.455721 0.290353 0.682238
3121 2 0.464165 0.268015 0.689647
1165 2 0.462717 0.309433 0.751491
815 4 0.0907348 0.375 0.742563
1067 4 0.166402 0.362013 0.705244
940 2 0.126185 0.365919 0.716717
941 4 0.14626 0.35776 0.704244
942 4 0.106109 0.374077 0.729191
1028 4 0.212816 0.403144 0.689053
1066 2 0.186878 0.372899 0.695896
1068 4 0.207354 0.383786 0.686547
1027 2 0.231487 0.399344 0.672863
1063 2 0.288209 0.347715 0.674626
1064 4 0.310888 0.347016 0.685131
1206 4 0.441212 0.364544 0.690999
1099 2 0.496336 0.391645 0.747781
1205 4 0.46288 0.377304 0.734224
1101 4 0.47903 0.373622 0.746856
1204 2 0.452046 0.370924 0.712612
1019 4 0.463025 0.386977 0.754653
1280 4 0.0652755 0.443657 0.698943
1281 4 0.0812502 0.468122 0.739526
1279 2 0.0732628 0.455889 0.719235
2015 4 0.120409 0.474998 0.735857
1079 4 0.134687 0.464605 0.746316
2014 2 0.110184 0.495878 0.726657
1175 4 0.230409 0.437844 0.686262
1174 2 0.226244 0.457453 0.671318
2028 4 0.200012 0.486936 0.746951
1228 2 0.381937 0.454935 0.724389
1230 4 0.371276 0.434466 0.71477
1229 4 0.392599 0.475405 0.734007
1249 2 0.470958 0.480881 0.735407
1250 4 0.471473 0.485672 0.710872
2991 4 0.00992556 0.0735697 0.763105
1203 4 0.0610274 0.0714038 0.787115
1201 2 0.0813549 0.0724348 0.801637
1202 4 0.101682 0.0734658 0.81616
839 4 0.249295 0.0773872 0.81179
975 4 0.287252 0.0110858 0.828493
1255 2 0.280079 0.0457136 0.818179
1256 4 0.264598 0.0653296 0.817325
1257 4 0.29556 0.0260976 0.819032
1112 4 0.456163 0.00742242 0.818274
845 4 0.488198 0.0638177 0.762016
863 4 0.0600602 0.0900186 0.780146
862 2 0.0461893 0.0988377 0.761305
1106 4 0.0194397 0.166416 0.752765
1148 4 0.196076 0.123388 0.757981
1149 4 0.219743 0.124275 0.802024
1147 2 0.20791 0.123832 0.780003
838 2 0.255821 0.0954378 0.827814
960 4 0.322659 0.113566 0.779772
958 2 0.302968 0.128898 0.781316
959 4 0.283277 0.144229 0.782861
1298 4 0.382483 0.156783 0.751001
1086 4 0.375068 0.108185 0.795264
1084 2 0.378709 0.104516 0.819728
3269 4 0.492439 0.112297 0.769523
3270 4 0.489688 0.16122 0.759542
3268 2 0.491064 0.136758 0.764532
3479 4 0.488386 0.115868 0.789066
1146 4 0.469639 0.165007 0.765994
3478 2 0.493796 0.0924423 0.795931
1073 4 0.100057 0.242293 0.763905
1130 4 0.131724 0.200009 0.817199