ITEM: TIMESTEP
2120000
ITEM: NUMBER OF ATOMS
4590
ITEM: BOX BOUNDS pp pp pp
-9.9985700000000008e+00 9.9985700000000008e+00
-9.9985700000000008e+00 9.9985700000000008e+00
-9.9985700000000008e+00 9.9985700000000008e+00
ITEM: ATOMS id type xs ys zs
463 2 0.999801 0.0286127 0.0610434
464 4 0.0138117 0.0456032 0.0492024
3232 2 0.0592272 0.0245717 0.000758289
1246 2 0.998539 0.0500639 0.00177346
3233 4 0.0812721 0.0148558 0.00745164
486 4 0.282654 0.00464319 0.0167085
484 2 0.304433 0.0147558 0.0236779
485 4 0.326213 0.0248683 0.0306473
1607 4 0.34459 0.0165536 0.03177
2724 4 0.400615 0.0694398 0.055757
1606 2 0.363511 0.00436622 0.0208778
2722 2 0.413946 0.0605208 0.0365761
2723 4 0.427277 0.0516018 0.0173952
1759 2 0.458185 0.0236182 0.0254471
1760 4 0.438239 0.035289 0.0159021
2469 4 0.42293 0.0376011 0.00287416
1761 4 0.478132 0.0119473 0.0349922
360 4 0.226672 0.110285 0.00747802
358 2 0.238716 0.111281 0.0293667
359 4 0.250761 0.112278 0.0512554
665 4 0.363215 0.0872722 0.0469967
664 2 0.365062 0.111298 0.0403224
666 4 0.366909 0.135323 0.0336481
866 4 0.369377 0.143756 0.0154285
770 4 0.448324 0.15751 0.080376
2624 4 0.0135755 0.185845 0.0253488
2623 2 0.00852857 0.210295 0.0239674
2625 4 0.00348167 0.234745 0.022586
1233 4 0.0683889 0.238726 0.00155337
555 4 0.105839 0.221328 0.000390199
506 4 0.157601 0.232893 0.0753856
505 2 0.167755 0.22598 0.0536071
507 4 0.177908 0.219068 0.0318285
353 4 0.262465 0.225647 0.0772033
352 2 0.266489 0.250096 0.0805565
1307 4 0.442019 0.246883 0.00459905
1232 4 0.0370232 0.275712 0.0137562
1231 2 0.052706 0.257219 0.00765477
657 4 0.008203 0.253142 0.0156987
655 2 0.000744217 0.276477 0.0206973
355 2 0.151523 0.298143 0.0178538
357 4 0.127648 0.305551 0.0183976
287 4 0.119036 0.323318 0.0174928
356 4 0.175397 0.290735 0.01731
755 4 0.271519 0.320033 0.0232558
754 2 0.2849 0.311378 0.0425232
756 4 0.29828 0.302723 0.0617906
740 4 0.318503 0.305799 0.0658021
354 4 0.270514 0.274545 0.0839097
739 2 0.330124 0.320972 0.0819241
1070 4 0.338203 0.324164 0.00403574
1304 4 0.463928 0.32007 0.0236364
1303 2 0.465458 0.317021 0.0484063
1305 4 0.466988 0.313973 0.0731761
621 4 0.0192541 0.399899 0.0127253
2787 4 0.0115421 0.398894 0.0315612
2785 2 0.030444 0.390125 0.0453817
2786 4 0.0493458 0.381356 0.0592022
837 4 0.0649698 0.374631 0.069321
314 4 0.0563109 0.390545 0.0768405
835 2 0.0807873 0.356934 0.0771821
286 2 0.11278 0.343639 0.0306501
288 4 0.106523 0.363959 0.0438074
913 2 0.10313 0.403767 0.0326561
914 4 0.110147 0.379771 0.0322899
1094 4 0.454522 0.350253 0.0383485
1095 4 0.453472 0.399916 0.0441123
2841 4 0.463808 0.416009 0.044946
1093 2 0.453997 0.375085 0.0412304
101 1 0.482667 0.410186 0.0765288
104 3 0.49791 0.39336 0.0717407
293 4 0.0675912 0.475205 0.0827618
915 4 0.0961133 0.427763 0.0330224
292 2 0.0913512 0.479962 0.0765963
294 4 0.115111 0.484718 0.0704308
64 3 0.231305 0.476527 0.0461824
242 4 0.211103 0.451935 0.0706786
63 3 0.244101 0.445408 0.0285109
61 1 0.238021 0.46764 0.0258278
65 3 0.221109 0.469295 0.0106663
1658 4 0.205271 0.4842 0.00981729
241 2 0.192326 0.458877 0.0856584
625 2 0.231639 0.500146 0.0800667
1657 2 0.185606 0.494357 0.0214499
1803 4 0.219136 0.500446 0.0115561
626 4 0.231118 0.493508 0.0559659
903 4 0.27901 0.424667 0.0409586
901 2 0.300637 0.435875 0.0353191
902 4 0.322265 0.447083 0.0296795
1289 4 0.325775 0.466345 0.0257344
62 3 0.256221 0.479458 0.0181963
1288 2 0.319573 0.480877 0.00635527
246 4 0.295362 0.488855 0.0432447
244 2 0.306503 0.493084 0.0652263
252 4 0.337955 0.461727 0.0391452
251 4 0.364008 0.440371 0.0761026
250 2 0.350981 0.451049 0.0576239
105 3 0.47844 0.422407 0.0577823
2839 2 0.446345 0.428835 0.0324671
2840 4 0.428882 0.441661 0.0199882
1046 4 0.495309 0.418826 0.0476924
379 2 0.0101967 0.0694206 0.1457
380 4 0.020339 0.0579113 0.165445
579 4 0.146161 0.00400243 0.112171
577 2 0.151825 0.0273433 0.105221
423 4 0.156221 0.0693306 0.0935156
578 4 0.157489 0.0506841 0.0982713
421 2 0.178807 0.0791921 0.0977376
652 2 0.224629 0.0511131 0.155421
653 4 0.246037 0.0607731 0.146843
654 4 0.203222 0.041453 0.163999
24 3 0.369094 0.0332795 0.132346
21 1 0.373059 0.0546104 0.140573
22 3 0.387271 0.0655986 0.126205
23 3 0.35313 0.0664198 0.1419
25 3 0.382718 0.0533291 0.161157
297 4 0.471502 0.0207005 0.113007
295 2 0.4617 0.0427903 0.119421
296 4 0.451897 0.06488 0.125835
558 4 0.44769 0.0836662 0.129806
629 4 0.446865 0.073194 0.146476
2895 4 0.489855 0.0759362 0.150914
2893 2 0.512978 0.0675213 0.146477
236 4 0.102844 0.111916 0.143336
235 2 0.103596 0.132504 0.129168
237 4 0.104347 0.153092 0.115
477 4 0.112218 0.161841 0.0984859
534 4 0.219559 0.0953124 0.104037
422 4 0.201392 0.0890536 0.10196
532 2 0.231495 0.116737 0.108904
533 4 0.243431 0.138162 0.113772
557 4 0.448675 0.132734 0.120209
556 2 0.448183 0.1082 0.125008
476 4 0.132523 0.199409 0.124507
475 2 0.12237 0.180625 0.111497
311 4 0.260781 0.209863 0.0900816
310 2 0.272253 0.204138 0.111548
312 4 0.283725 0.198413 0.133014
461 4 0.292738 0.206425 0.148464
460 2 0.30345 0.228915 0.150617
769 2 0.468076 0.171923 0.0855995
2519 4 0.491439 0.170255 0.103231
519 4 0.494212 0.225162 0.121355
517 2 0.472527 0.222261 0.133459
518 4 0.450841 0.21936 0.145563
771 4 0.487828 0.186337 0.090823
648 4 0.0623605 0.305787 0.124369
646 2 0.0867597 0.307145 0.129662
647 4 0.111159 0.308503 0.134955
337 2 0.14393 0.294497 0.119963
339 4 0.126616 0.29477 0.138
338 4 0.161244 0.294223 0.101927
285 4 0.217581 0.312352 0.152803
462 4 0.314162 0.251405 0.152771
764 4 0.262301 0.273486 0.102492
763 2 0.267279 0.282783 0.125163
765 4 0.272257 0.29208 0.147834
612 4 0.290844 0.297085 0.154864
610 2 0.293918 0.320985 0.161534
323 4 0.319568 0.303963 0.112291
322 2 0.322297 0.285861 0.129321
324 4 0.325027 0.267758 0.146351
624 4 0.41457 0.317841 0.126373
255 4 0.332626 0.25537 0.160044
313 2 0.0506473 0.394945 0.100793
315 4 0.0449837 0.399346 0.124746
1757 4 0.0496941 0.394178 0.141976
836 4 0.0966049 0.339237 0.0850432
705 4 0.108837 0.343049 0.154165
703 2 0.131008 0.350844 0.162702
455 4 0.21893 0.369036 0.158765
611 4 0.296992 0.344886 0.168205
741 4 0.341744 0.336145 0.0980461
622 2 0.413744 0.341681 0.133865
386 4 0.350173 0.352826 0.0900738
387 4 0.34601 0.378634 0.132704
385 2 0.348091 0.36573 0.111389
13 3 0.357348 0.375064 0.150515
11 1 0.377514 0.385649 0.154957
15 3 0.377855 0.406172 0.145093
12 3 0.394649 0.372871 0.146456
623 4 0.412917 0.365522 0.141357
102 3 0.463095 0.400611 0.0839039
1789 2 0.000902362 0.498915 0.154304
1440 4 0.168371 0.484713 0.104739
1438 2 0.145092 0.488575 0.0964708
243 4 0.173549 0.46582 0.100638
1573 2 0.294559 0.497079 0.122349
1575 4 0.31262 0.501821 0.105721
245 4 0.317643 0.497312 0.0872078
608 4 0.318367 0.430235 0.123763
1574 4 0.276498 0.492336 0.138977
658 2 0.399706 0.48967 0.160878
494 4 0.39289 0.416582 0.136242
609 4 0.356524 0.430691 0.0914438
525 4 0.349563 0.460629 0.150926
523 2 0.340321 0.483846 0.151767
607 2 0.337446 0.430463 0.107604
659 4 0.386901 0.470531 0.151137
495 4 0.385981 0.46583 0.130981
493 2 0.389436 0.441206 0.133612
103 3 0.491043 0.423947 0.0932286
513 4 0.0348832 0.0744787 0.235219
511 2 0.0488852 0.0537962 0.236383
512 4 0.0628872 0.0331136 0.237546
582 4 0.150582 0.0655328 0.167349
567 4 0.139783 0.0770411 0.178076
580 2 0.168664 0.0484254 0.169707
581 4 0.186746 0.0313181 0.172065
673 2 0.237726 0.0106047 0.218107
674 4 0.23479 0.0123988 0.242872
1463 4 0.251765 0.00987279 0.252718
759 4 0.385013 0.043016 0.178009
757 2 0.388375 0.0621823 0.19371
758 4 0.391738 0.0813486 0.209411
628 2 0.439744 0.0779032 0.169977
531 4 0.0236375 0.0921678 0.233933
566 4 0.157562 0.120974 0.19403
565 2 0.148672 0.0990076 0.186053
391 2 0.163354 0.166972 0.243238
599 4 0.205911 0.131075 0.231539
598 2 0.189337 0.120528 0.216071
600 4 0.172763 0.10998 0.200604
632 4 0.281665 0.15671 0.24243
744 4 0.378155 0.0966218 0.21525
742 2 0.384811 0.0937947 0.239185
630 4 0.432623 0.0826125 0.193478
393 4 0.15245 0.175076 0.222247
738 4 0.149247 0.238259 0.187102
29 3 0.279609 0.182396 0.198573
26 1 0.296739 0.183733 0.214166
30 3 0.300614 0.205506 0.219605
28 3 0.316048 0.174166 0.205561
27 3 0.290509 0.172195 0.233066
253 2 0.34734 0.246505 0.178212
309 4 0.385564 0.219837 0.239096
307 2 0.401784 0.238492 0.235348
254 4 0.362054 0.23764 0.196381
728 4 0.424482 0.225853 0.169199
331 2 0.496867 0.188859 0.236176
727 2 0.428166 0.244499 0.185445
332 4 0.474325 0.179193 0.241035
363 4 0.0537199 0.26336 0.225378
361 2 0.0637705 0.282415 0.212688
362 4 0.0738212 0.301471 0.199998
748 2 0.107513 0.317735 0.223341
750 4 0.0916035 0.303716 0.210093
736 2 0.160384 0.260467 0.184286
737 4 0.171521 0.282676 0.181471
372 4 0.171197 0.301071 0.194251
283 2 0.196294 0.306437 0.16451
284 4 0.175007 0.300522 0.176216
370 2 0.175438 0.318551 0.211619
497 4 0.414303 0.314835 0.220644
308 4 0.418004 0.257148 0.2316
496 2 0.422702 0.291304 0.221631
729 4 0.431851 0.263144 0.201692
498 4 0.4311 0.267774 0.222618
1756 2 0.0584094 0.392424 0.165346
1758 4 0.0671246 0.39067 0.188716
749 4 0.123423 0.331754 0.236589
704 4 0.153179 0.358638 0.171239
415 2 0.151038 0.389417 0.201978
416 4 0.14545 0.407325 0.218508
456 4 0.172819 0.361975 0.176782
417 4 0.156626 0.371508 0.185448
602 4 0.113382 0.405978 0.235734
454 2 0.195874 0.365506 0.167774
371 4 0.17968 0.336031 0.228987
302 4 0.302096 0.356521 0.184318
301 2 0.313647 0.374808 0.196862
303 4 0.325198 0.393095 0.209406
14 3 0.380438 0.387828 0.177872
645 4 0.392194 0.405269 0.179351
643 2 0.414096 0.411042 0.18994
1790 4 0.00324262 0.48063 0.171197
3715 2 0.00506764 0.497257 0.213431
3716 4 0.00358318 0.489072 0.189852
603 4 0.085833 0.436629 0.207409
290 4 0.139445 0.421887 0.241319
638 4 0.140711 0.442 0.242128
601 2 0.0996075 0.421303 0.221571
637 2 0.147299 0.457031 0.223264
639 4 0.153887 0.472061 0.2044
644 4 0.435999 0.416816 0.200529
107 3 0.459303 0.42148 0.230562
109 3 0.48062 0.438057 0.20442
110 3 0.443399 0.435014 0.19963
106 1 0.459936 0.438344 0.21493
108 3 0.456797 0.458663 0.225686
2478 4 0.00767676 0.00534485 0.309406
2477 4 0.997556 0.0460311 0.28215
2738 4 0.00955128 0.0621501 0.289795
2476 2 0.00261614 0.025688 0.295778
2737 2 0.0321585 0.0728307 0.28993
546 4 0.0837329 0.0817769 0.33375
692 4 0.138962 0.0176398 0.320323
232 2 0.0996852 0.0033358 0.271667
234 4 0.113744 0.0210282 0.260966
691 2 0.122893 0.0343371 0.329713
605 4 0.155806 0.0646656 0.333149
1700 4 0.152342 0.00366379 0.325237
468 4 0.233036 0.0711373 0.274662
466 2 0.238264 0.0480688 0.266557
440 4 0.222912 0.00939255 0.306883
683 4 0.239294 0.0801236 0.291506
429 4 0.23832 0.0057559 0.265718
439 2 0.222552 0.0235444 0.327493
467 4 0.243493 0.0250002 0.258453
1464 4 0.301268 0.0116779 0.259568
1462 2 0.276517 0.0107754 0.256143
707 4 0.330092 0.0672061 0.285235
706 2 0.351657 0.0776138 0.278039
479 4 0.447313 0.0305056 0.258611
478 2 0.463116 0.0479206 0.267106
480 4 0.478919 0.0653357 0.275601
2739 4 0.0547656 0.0835114 0.290065
544 2 0.0940635 0.088763 0.312079
545 4 0.104394 0.095749 0.290407
397 2 0.15432 0.154532 0.326341
398 4 0.146664 0.175443 0.31497
2483 4 0.176544 0.0973936 0.271474
392 4 0.174258 0.158868 0.264228
2482 2 0.180015 0.122083 0.273368
249 4 0.194677 0.159513 0.266114
2484 4 0.183486 0.146771 0.275262
474 4 0.223602 0.118006 0.309253
472 2 0.202726 0.120583 0.322771
682 2 0.255291 0.099305 0.290341
684 4 0.271288 0.118486 0.289175
633 4 0.263729 0.134523 0.2835
631 2 0.272697 0.145616 0.262965
726 4 0.279141 0.138792 0.294396
724 2 0.293503 0.134735 0.314457
725 4 0.307864 0.130677 0.334518
708 4 0.373222 0.0880216 0.270842
743 4 0.391468 0.0909677 0.26312
349 2 0.39392 0.115824 0.296018
351 4 0.383225 0.103758 0.276907
350 4 0.404615 0.127889 0.315129
452 4 0.413709 0.145063 0.309134
451 2 0.438428 0.141302 0.308993
453 4 0.463146 0.137541 0.308852
403 2 0.125214 0.237036 0.277092
404 4 0.133367 0.217539 0.263729
247 2 0.213718 0.174391 0.27254
248 4 0.232758 0.189269 0.278966
279 4 0.238535 0.208235 0.280132
277 2 0.227188 0.229985 0.275297
304 2 0.432419 0.248808 0.317188
389 4 0.0509936 0.2488 0.283285
388 2 0.0742776 0.256195 0.288609
735 4 0.0767291 0.319782 0.320768
405 4 0.11706 0.256532 0.290456
444 4 0.110412 0.258892 0.309541
390 4 0.0975617 0.263591 0.293932
278 4 0.215842 0.251735 0.270462
535 2 0.241424 0.285258 0.283481
536 4 0.223778 0.269863 0.274718
537 4 0.259071 0.300653 0.292243
419 4 0.370296 0.291185 0.268173
418 2 0.389215 0.278543 0.278537
377 4 0.367016 0.317597 0.315263
420 4 0.408135 0.265902 0.288902
306 4 0.426303 0.258419 0.29493
548 4 0.0457493 0.34959 0.287543
547 2 0.0366288 0.356308 0.309834
549 4 0.0275083 0.363026 0.332124
299 4 0.130114 0.337217 0.253642
733 2 0.099288 0.330531 0.321628
289 2 0.145098 0.406836 0.260468
734 4 0.121847 0.34128 0.322489
300 4 0.126249 0.342965 0.303167
298 2 0.128181 0.340091 0.278405
766 2 0.149906 0.368744 0.319315
767 4 0.127854 0.357358 0.316273
291 4 0.150751 0.391784 0.279616
768 4 0.171958 0.38013 0.322358
344 4 0.268507 0.38665 0.306212
436 2 0.301049 0.409739 0.29589
343 2 0.254342 0.374582 0.322911
438 4 0.280885 0.401804 0.308366
437 4 0.321212 0.417674 0.283415
434 4 0.422758 0.375248 0.309995
433 2 0.445383 0.37408 0.320576
435 4 0.468007 0.372911 0.331157
3960 4 0.0207452 0.426916 0.313568
3958 2 0.00497535 0.427232 0.294168
414 4 0.151169 0.424954 0.336988
499 2 0.122593 0.442343 0.308382
500 4 0.126798 0.423782 0.292166
501 4 0.118387 0.460905 0.324598
776 4 0.107823 0.478419 0.320486
1436 4 0.19911 0.467755 0.327877
542 4 0.48079 0.480037 0.28191
541 2 0.474129 0.487666 0.30477
543 4 0.467468 0.495295 0.327631
318 4 0.00730686 0.0522718 0.356775
316 2 0.00858504 0.0771594 0.354737
1602 4 0.0346578 0.0165401 0.411496
693 4 0.106824 0.0510345 0.339103
731 4 0.0863847 0.0725864 0.351475
730 2 0.101643 0.0778077 0.370583
732 4 0.116902 0.083029 0.38969
441 4 0.222191 0.0376963 0.348103
1670 4 0.315105 0.0167323 0.393305
1669 2 0.33324 0.0265172 0.379143
697 2 0.375511 0.060433 0.38758
699 4 0.364052 0.0511715 0.367379
1671 4 0.351375 0.0363021 0.364981
1518 4 0.369463 0.0317084 0.357742
1516 2 0.371889 0.0150702 0.339236
698 4 0.386969 0.0696945 0.407782
3081 4 0.488566 0.0417528 0.357691
317 4 0.00986323 0.102047 0.3527
604 2 0.158784 0.0890565 0.337775
399 4 0.161975 0.133621 0.337713
606 4 0.161761 0.113447 0.342401
473 4 0.181851 0.123161 0.336289
276 4 0.173537 0.127129 0.352023
274 2 0.186699 0.135842 0.371415
375 4 0.191178 0.159726 0.403646
275 4 0.19986 0.144555 0.390806
430 2 0.321772 0.129296 0.39672
431 4 0.319144 0.12039 0.373505
258 4 0.404574 0.0824607 0.40455
516 4 0.397023 0.137608 0.393368
256 2 0.408449 0.107149 0.403733
514 2 0.381987 0.156893 0.388153
257 4 0.412325 0.131836 0.402916
1581 4 0.418742 0.143538 0.389179
1579 2 0.44127 0.153679 0.385323
1580 4 0.463797 0.163819 0.381467
373 2 0.209074 0.177129 0.402205
510 4 0.245808 0.194498 0.407451
374 4 0.226969 0.194532 0.400764
508 2 0.265283 0.207566 0.398786
487 2 0.314302 0.207487 0.362636
488 4 0.301328 0.221222 0.379013
509 4 0.284759 0.220635 0.39012
717 4 0.295997 0.235602 0.395891
489 4 0.327275 0.193752 0.346259
715 2 0.311237 0.2338 0.415631
515 4 0.36695 0.176177 0.382938
305 4 0.438535 0.239197 0.339446
584 4 0.474813 0.177668 0.372903
267 4 0.442196 0.186781 0.391985
583 2 0.487637 0.198506 0.378053
265 2 0.44112 0.200131 0.413099
270 4 0.498554 0.229793 0.400415
618 4 0.0735255 0.308175 0.410416
407 4 0.076166 0.317934 0.393187
2550 4 0.0179126 0.321874 0.401331
442 2 0.109465 0.265765 0.333563
443 4 0.108519 0.272637 0.357585
408 4 0.109461 0.29022 0.368206
406 2 0.0928137 0.304077 0.380697
400 2 0.245721 0.328398 0.358085
401 4 0.250336 0.303917 0.360218
1260 4 0.253537 0.296782 0.377638
1258 2 0.254795 0.283139 0.398554
592 2 0.318718 0.331096 0.384745
593 4 0.33751 0.319374 0.373143
378 4 0.337664 0.327997 0.354392
376 2 0.35234 0.322797 0.334827
268 2 0.49671 0.254066 0.406126
269 4 0.494866 0.278339 0.411837
681 4 0.0205827 0.348146 0.34182
503 4 0.156885 0.412864 0.384935
345 4 0.240177 0.362514 0.339611
402 4 0.241106 0.352879 0.355951
678 4 0.227346 0.366693 0.355321
677 4 0.182041 0.368335 0.376428
676 2 0.204693 0.367514 0.365875
594 4 0.299925 0.342818 0.396347
586 2 0.491093 0.36848 0.361305
587 4 0.46851 0.366942 0.350683
412 2 0.168467 0.442895 0.339017
504 4 0.184049 0.451133 0.402208
502 2 0.170467 0.431998 0.393572
1435 2 0.20692 0.485476 0.343693
413 4 0.185764 0.460836 0.341045
1557 4 0.25236 0.450193 0.353349
1555 2 0.267376 0.469975 0.356244
1556 4 0.282392 0.489757 0.359139
669 4 0.299953 0.484604 0.35091
336 4 0.379588 0.492537 0.39245
1741 2 0.494691 0.442998 0.379995
445 2 0.488802 0.494974 0.360608
1742 4 0.473956 0.435427 0.391738
120 3 0.461313 0.438375 0.407251
1058 4 0.0264956 0.0703317 0.476425
962 4 0.246034 0.038514 0.463387
961 2 0.244908 0.0634761 0.462488
1816 2 0.248297 0.00779514 0.473388
1817 4 0.247509 0.0216412 0.452583
1059 4 0.0102378 0.115006 0.460912
368 4 0.00726044 0.134908 0.458183
1057 2 0.0183667 0.0926686 0.468668
260 4 0.116771 0.153378 0.493302
687 4 0.19587 0.096413 0.480246
685 2 0.209484 0.111206 0.465379
686 4 0.223098 0.125999 0.450513
963 4 0.243783 0.0884381 0.461588
432 4 0.324399 0.138202 0.419936
425 4 0.332662 0.124396 0.430691
424 2 0.341092 0.111782 0.450565
426 4 0.349522 0.0991681 0.47044
321 4 0.348205 0.153745 0.494926
649 2 0.306271 0.224547 0.47645
650 4 0.28531 0.234264 0.486008
711 4 0.266459 0.233102 0.476987
709 2 0.262836 0.248751 0.457826
716 4 0.326477 0.231998 0.435372
651 4 0.327233 0.21483 0.466891
409 2 0.370489 0.216097 0.471546
410 4 0.394814 0.22188 0.471326
411 4 0.346164 0.210315 0.471766
319 2 0.340072 0.174645 0.483871
320 4 0.331938 0.195545 0.472816
576 4 0.412859 0.219069 0.481118
574 2 0.432334 0.216903 0.465588
575 4 0.451809 0.214737 0.450057
266 4 0.440044 0.213481 0.434213
616 2 0.0581729 0.308147 0.430151
617 4 0.0428203 0.308118 0.449887
1135 2 0.149828 0.297483 0.480086
1136 4 0.162506 0.28586 0.461938
1137 4 0.137151 0.309107 0.498234
1259 4 0.256052 0.269496 0.419469
710 4 0.259213 0.264399 0.438664
2813 4 0.05474 0.362823 0.462147
2812 2 0.0650815 0.348858 0.480125
2814 4 0.075423 0.334894 0.498103
384 4 0.0715952 0.408842 0.470406
1160 4 0.105518 0.407632 0.492195
1714 2 0.494696 0.404537 0.420495
3989 4 0.465684 0.408378 0.444116
3988 2 0.452965 0.38843 0.452208
3990 4 0.440245 0.368482 0.4603
383 4 0.069732 0.458132 0.462175
382 2 0.0706636 0.433487 0.466291
1173 4 0.152958 0.472346 0.467137
1159 2 0.120856 0.426664 0.486933
773 4 0.114994 0.489334 0.480193
1161 4 0.136194 0.445697 0.481671
1171 2 0.160747 0.49223 0.454131
1190 4 0.150402 0.452362 0.471053
1189 2 0.172562 0.440882 0.46953
1191 4 0.194723 0.429402 0.468007
4085 4 0.472436 0.491923 0.500968
1269 4 0.464732 0.488914 0.483758
3601 2 0.501468 0.419586 0.471809
118 3 0.460838 0.453339 0.441798
1268 4 0.464774 0.445725 0.45855
116 1 0.450508 0.438458 0.427298
3603 4 0.479432 0.416779 0.460332
1267 2 0.464753 0.467319 0.471154
117 3 0.428709 0.445084 0.424128
1715 4 0.484599 0.413964 0.441337
119 3 0.450611 0.41713 0.436436
2319 4 0.0631941 0.0117067 0.548697
823 2 0.0478523 0.0756812 0.547005
824 4 0.0647794 0.0672897 0.530627
2317 2 0.0592014 0.0110339 0.57337
1182 4 0.215409 0.0481062 0.570997
1180 2 0.239048 0.0546816 0.566187
1031 4 0.208009 0.0326308 0.58135
1181 4 0.262687 0.0612571 0.561376
2333 4 0.362987 0.00986333 0.571781
1216 2 0.384693 0.0334329 0.575344
1218 4 0.38168 0.0501532 0.556999
4467 4 0.497484 0.0443262 0.540769
2429 4 0.0784011 0.081382 0.526091
825 4 0.0309253 0.0840728 0.563383
879 4 0.0794134 0.150012 0.549865
877 2 0.054459 0.148458 0.55006
470 4 0.0100503 0.145452 0.547208
878 4 0.0295045 0.146904 0.550254
1272 4 0.0777701 0.159221 0.567424
2428 2 0.0990326 0.0884949 0.513887
2430 4 0.119664 0.0956079 0.501684
259 2 0.126746 0.156602 0.516002
261 4 0.136721 0.159826 0.538702
1220 4 0.23983 0.147435 0.564118
945 4 0.246649 0.127866 0.562569
943 2 0.228843 0.113489 0.57264
327 4 0.248333 0.159222 0.578968
1151 4 0.257976 0.143249 0.554644
1150 2 0.267873 0.130628 0.535462
1152 4 0.27777 0.118007 0.51628
900 4 0.357923 0.139766 0.543719
898 2 0.347541 0.144743 0.565914
3053 4 0.469892 0.148751 0.529915
3052 2 0.473454 0.137381 0.551897
3054 4 0.477016 0.126012 0.57388
1033 2 0.146228 0.199971 0.545793
1034 4 0.144441 0.224562 0.54995
1035 4 0.148016 0.175381 0.541635
1219 2 0.225806 0.166217 0.555414
1221 4 0.211783 0.184999 0.546711
791 4 0.27113 0.221712 0.521544
790 2 0.281316 0.243808 0.527304
1041 4 0.134182 0.323287 0.510549
813 4 0.25469 0.319439 0.538239
792 4 0.291502 0.265904 0.533064
804 4 0.308171 0.277642 0.535878
812 4 0.290256 0.284438 0.541519
811 2 0.272473 0.301938 0.539879
802 2 0.323303 0.274386 0.555514
803 4 0.338435 0.27113 0.575151
1263 4 0.486468 0.300745 0.579329
2846 4 0.0499973 0.345417 0.535134
2845 2 0.0399443 0.336488 0.556214
1039 2 0.112868 0.335611 0.506194
896 4 0.0982388 0.382322 0.551562
895 2 0.103821 0.395992 0.531384
897 4 0.109404 0.409662 0.511207
1040 4 0.0915531 0.347936 0.501838
238 2 0.312055 0.405275 0.526652
240 4 0.335321 0.403635 0.517641
239 4 0.288789 0.406915 0.535663
1938 4 0.999823 0.479299 0.565409
538 2 0.144776 0.453628 0.544176
540 4 0.154529 0.476274 0.54003
539 4 0.135023 0.430981 0.548323
774 4 0.142283 0.478469 0.520665
2244 4 0.150585 0.491677 0.52924
772 2 0.128639 0.483902 0.500429
1394 4 0.164742 0.477294 0.521042
1187 4 0.232719 0.491987 0.524444
1393 2 0.188433 0.485157 0.519589
1395 4 0.212123 0.493021 0.518137
1174 2 0.30775 0.494353 0.581783
1000 2 0.395188 0.465712 0.581619
1002 4 0.410237 0.48208 0.570182
1176 4 0.327656 0.487473 0.568308
662 4 0.401016 0.486079 0.554807
661 2 0.390953 0.493894 0.533294
4084 2 0.482304 0.489573 0.523822
4086 4 0.492172 0.487222 0.546675
4147 2 0.445021 0.485079 0.563534
4148 4 0.46843 0.479658 0.570448
2169 4 0.482117 0.469517 0.582225
4149 4 0.421612 0.4905 0.556621
2318 4 0.0552086 0.0103612 0.598044
1032 4 0.184775 0.0584769 0.617307
1030 2 0.196392 0.0455538 0.599329
100 3 0.221774 0.00980286 0.644942
950 4 0.239241 0.00335173 0.637812
96 1 0.210316 0.00602643 0.664258
99 3 0.190605 0.0182685 0.664293
949 2 0.260894 0.01141 0.628251
951 4 0.282547 0.0194682 0.618691
843 4 0.328246 0.00389876 0.622725
886 2 0.295558 0.0810618 0.644728
887 4 0.303703 0.0817511 0.621098
1217 4 0.387707 0.0167127 0.593689
842 4 0.373936 0.0161295 0.606491
1005 4 0.391728 0.0020542 0.606833
841 2 0.351091 0.0100141 0.614608
1198 2 0.0391355 0.121005 0.64544
1200 4 0.0581894 0.108499 0.655723
1199 4 0.0200816 0.13351 0.635157
851 4 0.00275414 0.141623 0.638833
1073 4 0.0702631 0.119887 0.666829
1283 4 0.154887 0.0814604 0.667544
1270 2 0.0963045 0.15745 0.584113
1153 2 0.141902 0.143668 0.609469
1154 4 0.132168 0.160529 0.593779
1271 4 0.114839 0.15568 0.600802
1282 2 0.153801 0.104208 0.657223
1155 4 0.151635 0.126807 0.625158
1284 4 0.152715 0.126956 0.646902
1211 4 0.165284 0.137048 0.636055
944 4 0.211036 0.0991131 0.582711
1210 2 0.1856 0.149465 0.643686
1212 4 0.205917 0.161881 0.651317
899 4 0.337159 0.149721 0.588109
1194 4 0.343145 0.156785 0.605593
3402 4 0.471624 0.118672 0.591321
3401 4 0.470425 0.115863 0.641235
3400 2 0.471025 0.117267 0.616278
1164 4 0.464895 0.128901 0.65507
1207 2 0.0130913 0.228785 0.640388
909 4 0.0700123 0.230073 0.636412
850 2 0.00759234 0.165799 0.634677
1209 4 0.0245341 0.249881 0.647401
852 4 0.0124305 0.189975 0.63052
908 4 0.0917952 0.220685 0.592388
907 2 0.0809037 0.225379 0.6144
695 4 0.152647 0.248151 0.597466
694 2 0.173052 0.246656 0.611838
696 4 0.193458 0.24516 0.62621
325 2 0.257404 0.168874 0.600176
326 4 0.266474 0.178525 0.621383
1192 2 0.345498 0.176327 0.621011
1193 4 0.347851 0.19587 0.636429
830 4 0.352875 0.210125 0.65146
1024 2 0.415398 0.21815 0.655342
1026 4 0.431188 0.222457 0.63644
953 4 0.475751 0.21336 0.590378
954 4 0.450024 0.225558 0.631488
952 2 0.462888 0.219459 0.610933
3355 2 0.498083 0.237811 0.648358
3325 2 0.998871 0.3062 0.589375
3327 4 0.0109217 0.325121 0.578331
856 2 0.144558 0.325979 0.618388
858 4 0.165414 0.321098 0.631288
796 2 0.169583 0.293712 0.659511
797 4 0.164455 0.316174 0.649798
1261 2 0.48643 0.282344 0.596258
3123 4 0.486807 0.270498 0.631449
3356 4 0.486384 0.249597 0.629665
1262 4 0.486392 0.263943 0.613187
3121 2 0.48716 0.290884 0.645922
2847 4 0.0298913 0.327558 0.577295
3263 4 0.00848716 0.343897 0.585029
983 4 0.0576034 0.338544 0.629455
982 2 0.0403815 0.337484 0.611359
984 4 0.0231596 0.336424 0.593263
3275 4 0.0522253 0.346518 0.647576
857 4 0.123703 0.330859 0.605488
1006 2 0.397953 0.388619 0.602411
1007 4 0.374883 0.384515 0.611138
1008 4 0.421022 0.392724 0.593685
3329 4 0.481382 0.350961 0.63827
3328 2 0.496949 0.369443 0.644694
2172 4 0.0809465 0.497179 0.629977
2014 2 0.108394 0.480896 0.654636
2015 4 0.11995 0.461715 0.66576
1067 4 0.233757 0.472229 0.580623
1066 2 0.254624 0.479516 0.592313
1068 4 0.275491 0.486802 0.604002
1028 4 0.290911 0.491221 0.612022
1175 4 0.287844 0.501234 0.595259
1027 2 0.299013 0.481641 0.63365
1029 4 0.307114 0.472062 0.655278
1001 4 0.380138 0.449345 0.593056
1250 4 0.486643 0.479115 0.649447
2167 2 0.48258 0.476705 0.606168
2168 4 0.483043 0.483893 0.630112
1185 4 0.0861502 0.00829672 0.683839
2200 2 0.215444 0.0417772 0.707512
2201 4 0.201159 0.0549472 0.723249
2202 4 0.229729 0.0286072 0.691775
2262 4 0.239646 0.0108424 0.693314
1239 4 0.248104 0.0280743 0.685292
1149 4 0.188084 0.0526539 0.738106
97 3 0.223206 0.0126336 0.682128
1237 2 0.26652 0.0442432 0.680334
888 4 0.287414 0.0803724 0.668358
1238 4 0.284937 0.0604121 0.675376
806 4 0.289998 0.076067 0.687144
1112 4 0.343855 0.0100111 0.727865
1111 2 0.349835 0.0325481 0.736893
1113 4 0.355815 0.0550851 0.745921
2322 4 0.367962 0.0698435 0.748612
3099 4 0.500193 0.0312817 0.74383
864 4 0.0116405 0.113707 0.714676
862 2 0.0124825 0.121802 0.738318
1072 2 0.07727 0.138955 0.681407
1074 4 0.0842768 0.158022 0.695985
893 4 0.0383486 0.154955 0.745436
1075 2 0.00322804 0.15336 0.697394
1227 4 0.157129 0.134714 0.740078
7 3 0.169518 0.165878 0.713864
916 2 0.219699 0.147779 0.705406
917 4 0.207894 0.150373 0.683518
918 4 0.231504 0.145185 0.727294
45 3 0.244229 0.157459 0.737172
805 2 0.294749 0.0861534 0.709524
807 4 0.299499 0.0962397 0.731904
2399 4 0.35394 0.0741921 0.736095
2398 2 0.344349 0.0953415 0.726828
2400 4 0.334757 0.116491 0.71756
1162 2 0.476855 0.117678 0.673943
1163 4 0.488816 0.106456 0.692816
1076 4 0.00592669 0.177031 0.689807
947 4 0.0862279 0.178522 0.691747
946 2 0.109512 0.186427 0.696279
948 4 0.132797 0.194331 0.70081
9 3 0.147109 0.164187 0.683737
10 3 0.15134 0.196477 0.702634
1277 4 0.149386 0.215079 0.712856
6 1 0.161905 0.177576 0.695579
1276 2 0.14587 0.236514 0.725241
978 4 0.160006 0.199148 0.722449
1064 4 0.175647 0.203895 0.682607
8 3 0.180005 0.183156 0.682176
991 2 0.210968 0.202884 0.708345
992 4 0.191618 0.197563 0.69343
993 4 0.230318 0.208204 0.723259
1063 2 0.175826 0.228806 0.680462
976 2 0.17294 0.196809 0.743719
810 4 0.313789 0.219898 0.729307
808 2 0.332229 0.232841 0.718462
1025 4 0.399607 0.213842 0.674244
829 2 0.355174 0.227023 0.669746
809 4 0.35067 0.245784 0.707618
831 4 0.357474 0.24392 0.688032
846 4 0.354815 0.202819 0.703788
844 2 0.373744 0.192389 0.71636
845 4 0.392674 0.181959 0.728932
1278 4 0.142355 0.257948 0.737626
1065 4 0.176004 0.253717 0.678317
798 4 0.174712 0.271251 0.669224
3204 4 0.36542 0.259373 0.700765
3202 2 0.389714 0.263361 0.696401
3203 4 0.414009 0.267349 0.692037
3122 4 0.487512 0.31127 0.660394
3274 2 0.0496172 0.358079 0.669593
3276 4 0.0470092 0.36964 0.69161
815 4 0.0845553 0.384612 0.682368
814 2 0.0837156 0.383049 0.707308
816 4 0.0828759 0.381485 0.732249
942 4 0.122594 0.366595 0.727139
940 2 0.140858 0.381436 0.718692
941 4 0.159122 0.396278 0.710246
2013 4 0.166162 0.4091 0.697543
1230 4 0.322185 0.399329 0.73148
1228 2 0.339792 0.413952 0.721413
860 4 0.490979 0.401015 0.707349
859 2 0.50524 0.400738 0.686813
1281 4 0.068667 0.430517 0.734363
1280 4 0.0531911 0.447384 0.689902
1279 2 0.060929 0.43895 0.712132
885 4 0.0851735 0.418944 0.732724
1079 4 0.126371 0.455668 0.684076
1078 2 0.13631 0.433846 0.691162
1080 4 0.146249 0.412024 0.698248
2012 4 0.209787 0.430686 0.709017
2011 2 0.187974 0.419893 0.70328
929 4 0.285619 0.466967 0.723374
928 2 0.290541 0.488966 0.734191
1229 4 0.357399 0.428576 0.711347
998 4 0.365981 0.445476 0.703021
997 2 0.380669 0.451601 0.722306
999 4 0.395357 0.457726 0.741592
1019 4 0.410775 0.45429 0.754477
1205 4 0.412228 0.460721 0.734206
1249 2 0.476276 0.471639 0.670937
1206 4 0.454365 0.459111 0.707325
1251 4 0.465909 0.464163 0.692426
1204 2 0.433297 0.459916 0.720766
1147 2 0.189018 0.0708664 0.755212
1257 4 0.321074 0.084707 0.766714
1202 4 0.0173642 0.0920529 0.807334
1201 2 0.00987755 0.111109 0.792981
1203 4 0.00239086 0.130165 0.778629
863 4 0.0133246 0.129897 0.76196
892 2 0.0288974 0.163126 0.767094
894 4 0.0194461 0.171296 0.788753
1225 2 0.169181 0.120819 0.757015
1148 4 0.189952 0.089079 0.772317
1226 4 0.181233 0.106925 0.773952
1255 2 0.320905 0.0865677 0.791647
41 1 0.250272 0.16116 0.758816
43 3 0.253281 0.140926 0.769767
2320 2 0.386986 0.0814888 0.759911
2321 4 0.40601 0.0931341 0.771209
1256 4 0.320737 0.0884284 0.816581
1086 4 0.334714 0.1155 0.823477
819 4 0.380969 0.165103 0.815734
817 2 0.393594 0.157934 0.795377
818 4 0.406218 0.150765 0.775019
1085 4 0.362803 0.156346 0.816894
1084 2 0.348758 0.135923 0.820186
1110 4 0.437894 0.128626 0.824178
989 4 0.0341145 0.174434 0.80535
60 3 0.0161847 0.184327 0.802398
1104 4 0.0159617 0.238761 0.798028
988 2 0.0503783 0.188112 0.818524
990 4 0.0666422 0.201791 0.831699
58 3 0.00774216 0.220169 0.794542
977 4 0.185874 0.194471 0.764989
44 3 0.233932 0.173637 0.769574
42 3 0.270065 0.172872 0.759258
1143 4 0.301485 0.201079 0.814556
1142 4 0.281158 0.17792 0.775172
1141 2 0.291321 0.1895 0.794864
48 3 0.408638 0.200766 0.815478
49 3 0.410783 0.23871 0.8153
46 1 0.411695 0.219687 0.828556
1102 2 0.0315359 0.257371 0.80405
970 2 0.0515938 0.316939 0.808287