ITEM: TIMESTEP
930000
ITEM: NUMBER OF ATOMS
4590
ITEM: BOX BOUNDS pp pp pp
-9.9985700000000008e+00 9.9985700000000008e+00
-9.9985700000000008e+00 9.9985700000000008e+00
-9.9985700000000008e+00 9.9985700000000008e+00
ITEM: ATOMS id type xs ys zs
463 2 0.0338388 0.032575 0.0355596
464 4 0.0560731 0.0402484 0.044041
1667 4 0.0653649 0.0500017 0.0275417
465 4 0.0116046 0.0249016 0.0270783
1666 2 0.0771374 0.0711988 0.0336465
3291 4 0.997573 0.0197808 0.0138894
579 4 0.116732 0.00966251 0.0626345
577 2 0.107246 0.0234957 0.0811777
533 4 0.226396 0.0623474 0.0667042
1254 4 0.197351 0.0598838 0.0126253
1252 2 0.180122 0.0425848 0.00723436
491 4 0.257612 0.0404434 0.0162073
490 2 0.275466 0.0400044 0.0337063
492 4 0.29332 0.0395654 0.0512052
486 4 0.310591 0.0440284 0.0605275
484 2 0.324952 0.0237343 0.063191
297 4 0.367141 0.0594764 0.0580516
746 4 0.389753 0.0518014 0.058636
485 4 0.339313 0.0034402 0.0658545
745 2 0.410354 0.0403655 0.0502696
295 2 0.363101 0.0823345 0.0673446
747 4 0.430955 0.0289296 0.0419033
2975 4 0.444144 0.0391302 0.0313121
1826 4 0.448287 0.0184165 0.0353939
1825 2 0.469204 0.00815876 0.0263141
2974 2 0.454533 0.061531 0.0273822
1246 2 0.0333615 0.109396 0.0081611
1247 4 0.052964 0.0953943 0.0148597
1248 4 0.0137589 0.123398 0.00146249
1668 4 0.0889099 0.0923959 0.0397514
423 4 0.169828 0.154201 0.0355291
532 2 0.217386 0.0854281 0.0633464
534 4 0.208375 0.108509 0.0599886
421 2 0.180908 0.132862 0.0423894
422 4 0.191988 0.111523 0.0492496
665 4 0.295151 0.145518 0.0325492
557 4 0.298244 0.113864 0.0706187
664 2 0.318573 0.142319 0.0244041
556 2 0.321795 0.114575 0.078986
666 4 0.341995 0.139121 0.0162589
558 4 0.345346 0.115286 0.0873532
296 4 0.35906 0.105193 0.0766375
629 4 0.363751 0.12491 0.0831154
2976 4 0.464923 0.0839318 0.0234523
554 4 0.131229 0.226576 0.0121708
1133 4 0.14323 0.21227 0.00729654
553 2 0.117505 0.245301 0.0214558
572 4 0.319919 0.249741 0.0243996
323 4 0.384079 0.233376 0.0443037
771 4 0.487752 0.188909 0.0212587
769 2 0.466584 0.181899 0.0325712
770 4 0.445417 0.174889 0.0438837
836 4 0.0692482 0.316562 0.0225163
555 4 0.10378 0.264025 0.0307408
483 4 0.22987 0.263377 0.0383598
481 2 0.249426 0.274936 0.0279131
482 4 0.268982 0.286495 0.0174663
571 2 0.303845 0.268207 0.0193175
573 4 0.28777 0.286672 0.0142354
357 4 0.277595 0.303787 0.0107136
322 2 0.39975 0.252097 0.0389096
324 4 0.415422 0.270819 0.0335156
294 4 0.0742134 0.395173 0.0606627
292 2 0.088179 0.376378 0.0518932
621 4 0.0116596 0.402047 0.00742663
619 2 0.0335192 0.394064 0.998283
2787 4 0.995159 0.400778 0.0173779
835 2 0.0908357 0.327678 0.0284822
293 4 0.102145 0.357584 0.0431237
837 4 0.112423 0.338794 0.0344481
915 4 0.121382 0.355785 0.0367431
913 2 0.137305 0.368776 0.0224999
914 4 0.153228 0.381768 0.00825669
288 4 0.167919 0.369946 0.01399
286 2 0.184868 0.362904 0.99701
250 2 0.276007 0.389738 0.0681688
252 4 0.266629 0.366629 0.0699534
251 4 0.285385 0.412848 0.0663843
957 4 0.339991 0.389876 0.012819
955 2 0.359268 0.4026 0.00324329
672 4 0.432976 0.391229 0.0432484
670 2 0.429925 0.385953 0.0189991
563 4 0.440679 0.425651 0.0690656
552 4 0.0658643 0.41806 0.00940212
550 2 0.0609871 0.440923 0.0182721
551 4 0.05611 0.463786 0.0271421
245 4 0.184746 0.446695 0.00983013
609 4 0.296226 0.429979 0.0669819
607 2 0.32118 0.429645 0.0685314
523 2 0.331793 0.501459 0.0729619
608 4 0.346133 0.429311 0.070081
525 4 0.338605 0.482546 0.0580946
562 2 0.460225 0.427084 0.0845924
564 4 0.479771 0.428516 0.100119
2387 4 0.495446 0.442076 0.0875547
228 4 0.499403 0.42517 0.103178
2386 2 0.497709 0.459933 0.0702005
2388 4 0.499972 0.477791 0.0528464
578 4 0.0977608 0.0373288 0.0997209
1806 4 0.158693 0.998646 0.140965
566 4 0.174525 0.0753811 0.100846
1505 4 0.272378 0.0124776 0.145598
22 3 0.352195 0.0720415 0.163872
2468 4 0.494924 0.0802506 0.104142
235 2 0.079616 0.160973 0.16014
589 2 0.00512477 0.149951 0.123152
237 4 0.0981225 0.147055 0.150708
477 4 0.102325 0.128531 0.144658
475 2 0.121885 0.134608 0.130318
476 4 0.141446 0.140684 0.115978
565 2 0.175806 0.0989213 0.109177
567 4 0.177086 0.122461 0.117508
628 2 0.368259 0.1433 0.099445
630 4 0.372767 0.16169 0.115774
591 4 0.0168895 0.171854 0.125798
19 3 0.00625654 0.204437 0.145323
236 4 0.0611094 0.174891 0.169572
339 4 0.12228 0.205681 0.100155
337 2 0.135496 0.221069 0.114774
338 4 0.148713 0.236457 0.129392
371 4 0.160329 0.21015 0.157196
506 4 0.159934 0.249983 0.119852
255 4 0.383662 0.237895 0.143372
462 4 0.382591 0.24213 0.162923
253 2 0.389252 0.240515 0.119143
254 4 0.394842 0.243134 0.0949132
311 4 0.334602 0.167509 0.173542
526 2 0.477353 0.216668 0.137895
527 4 0.471595 0.199194 0.154827
528 4 0.483111 0.234141 0.120963
449 4 0.048857 0.258864 0.12461
448 2 0.0304464 0.255812 0.141251
450 4 0.0120359 0.252759 0.157892
703 2 0.0594595 0.316609 0.142036
704 4 0.0725445 0.303989 0.124869
705 4 0.0463746 0.329229 0.159203
455 4 0.126977 0.320767 0.0944141
505 2 0.172393 0.270534 0.112951
507 4 0.184852 0.291084 0.10605
353 4 0.301253 0.262542 0.165508
755 4 0.303094 0.257314 0.143278
754 2 0.316132 0.270782 0.126731
756 4 0.32917 0.28425 0.110184
612 4 0.274717 0.297782 0.141699
610 2 0.266114 0.317308 0.154735
740 4 0.338564 0.29962 0.097755
739 2 0.347622 0.317845 0.11228
622 2 0.400368 0.325455 0.161879
518 4 0.43818 0.264791 0.0834016
519 4 0.469626 0.248455 0.118686
517 2 0.453903 0.256623 0.101044
315 4 0.999067 0.431557 0.110307
417 4 0.0978842 0.375194 0.115549
416 4 0.101876 0.381091 0.165046
456 4 0.0947925 0.354968 0.111595
454 2 0.110885 0.337867 0.103005
415 2 0.0998801 0.378143 0.140298
302 4 0.281174 0.409156 0.164125
741 4 0.35668 0.33607 0.126805
387 4 0.388054 0.37995 0.140989
385 2 0.374314 0.364462 0.126972
386 4 0.360573 0.348974 0.112954
13 3 0.396862 0.395304 0.152613
11 1 0.414745 0.383695 0.16177
623 4 0.398702 0.34843 0.152153
12 3 0.412679 0.361421 0.156409
15 3 0.434331 0.391661 0.15331
494 4 0.426503 0.408313 0.145829
1787 4 0.0254861 0.475575 0.0938868
1786 2 0.00201585 0.468118 0.0895611
1466 4 0.0374017 0.489585 0.0845665
243 4 0.147526 0.500215 0.0953023
1440 4 0.163848 0.489211 0.101794
1438 2 0.18594 0.487795 0.113418
1439 4 0.208033 0.486379 0.125042
627 4 0.245299 0.438151 0.15205
626 4 0.261616 0.479852 0.129792
625 2 0.253457 0.459001 0.140921
658 2 0.404733 0.48193 0.138454
660 4 0.388271 0.500734 0.139224
659 4 0.421195 0.463126 0.137685
495 4 0.439055 0.454283 0.130667
493 2 0.432779 0.431298 0.138248
1672 2 0.492004 0.441302 0.130083
1674 4 0.496855 0.462552 0.142332
1673 4 0.487154 0.420051 0.117833
234 4 0.00231072 0.0115276 0.252078
232 2 0.999024 0.0251747 0.231386
1403 4 0.0971207 0.0102792 0.231077
653 4 0.183633 0.0577946 0.180818
652 2 0.190814 0.0765802 0.195674
24 3 0.371659 0.0452186 0.181601
23 3 0.350561 0.0698939 0.20136
21 1 0.36427 0.0671795 0.182837
758 4 0.420854 0.0866773 0.241106
393 4 0.0668919 0.151052 0.245281
391 2 0.0911914 0.1561 0.248318
545 4 0.0942871 0.0994871 0.242227
544 2 0.116111 0.0913481 0.251318
392 4 0.115491 0.161148 0.251355
654 4 0.197996 0.0953658 0.21053
692 4 0.196459 0.0978266 0.231736
581 4 0.206237 0.108759 0.219415
580 2 0.204516 0.130064 0.206442
582 4 0.202795 0.15137 0.193469
249 4 0.155441 0.159798 0.257095
247 2 0.180382 0.158534 0.255865
29 3 0.328569 0.158987 0.247577
759 4 0.396958 0.0878421 0.197193
25 3 0.382082 0.0813045 0.184216
757 2 0.408906 0.0872597 0.21915
744 4 0.412665 0.104425 0.244465
16 1 0.0111683 0.210308 0.167227
17 3 0.0339907 0.212051 0.16952
361 2 0.0750686 0.24924 0.226219
702 4 0.0095768 0.24997 0.177333
20 3 0.00339494 0.194339 0.181483
18 3 0.00153504 0.230803 0.172285
370 2 0.169655 0.225975 0.17416
362 4 0.0959309 0.248905 0.239997
404 4 0.137313 0.162925 0.261266
372 4 0.178981 0.2418 0.191124
738 4 0.260544 0.171411 0.188314
352 2 0.315749 0.247592 0.179348
737 4 0.295838 0.206132 0.181277
736 2 0.278191 0.188771 0.184795
284 4 0.284745 0.221602 0.243161
283 2 0.30078 0.22303 0.224029
285 4 0.316815 0.224457 0.204897
310 2 0.331698 0.190515 0.182895
312 4 0.328793 0.213521 0.192248
354 4 0.330246 0.232641 0.193187
764 4 0.335968 0.219953 0.210433
460 2 0.365504 0.232194 0.178236
461 4 0.348417 0.222258 0.193549
763 2 0.352604 0.219009 0.229075
765 4 0.36924 0.218066 0.247717
363 4 0.0542064 0.249574 0.212441
701 4 0.0386884 0.260748 0.216538
700 2 0.0241326 0.255359 0.196936
648 4 0.0498085 0.326499 0.223357
646 2 0.042614 0.32899 0.199541
647 4 0.0354195 0.331481 0.175725
750 4 0.101165 0.265504 0.249494
748 2 0.106372 0.289908 0.247912
749 4 0.111578 0.314312 0.246329
624 4 0.402033 0.302481 0.171604
299 4 0.147424 0.339004 0.229288
298 2 0.163381 0.343085 0.2481
611 4 0.257512 0.336833 0.167771
301 2 0.295533 0.41936 0.18187
14 3 0.414621 0.385894 0.184869
645 4 0.407512 0.388284 0.203444
728 4 0.354861 0.356741 0.237192
643 2 0.426451 0.398388 0.216266
110 3 0.464899 0.407593 0.222122
644 4 0.445391 0.408492 0.229087
109 3 0.467584 0.413352 0.18501
1757 4 0.0699581 0.468002 0.204267
603 4 0.0857238 0.427867 0.24867
3716 4 0.02352 0.505437 0.219733
1756 2 0.0931152 0.476155 0.209007
291 4 0.142739 0.436881 0.200819
1758 4 0.116272 0.484307 0.213747
289 2 0.164752 0.44809 0.204687
639 4 0.240908 0.446574 0.169438
637 2 0.2218 0.449724 0.185254
290 4 0.186765 0.459299 0.208555
638 4 0.202692 0.452873 0.20107
768 4 0.211639 0.443478 0.217541
766 2 0.217536 0.427239 0.235616
303 4 0.309891 0.429563 0.199615
106 1 0.478259 0.415569 0.205493
1568 4 0.488299 0.457001 0.212411
108 3 0.48332 0.437872 0.209414
529 2 0.00714496 0.0714905 0.299764
317 4 0.0549761 0.0395005 0.320735
674 4 0.0810814 0.0513274 0.281178
511 2 0.0609719 0.0799264 0.280282
531 4 0.0270838 0.0746389 0.285009
675 4 0.0851175 0.0163306 0.245686
512 4 0.0831829 0.070629 0.273544
546 4 0.137935 0.0832092 0.260409
693 4 0.167585 0.0784575 0.267678
673 2 0.0830995 0.033829 0.263432
722 4 0.149843 0.0689808 0.268497
721 2 0.141076 0.0456966 0.27098
723 4 0.132309 0.0224124 0.273462
427 2 0.0975751 0.01276 0.315308
732 4 0.152874 0.0650445 0.326173
605 4 0.167433 0.0723608 0.315138
428 4 0.0906429 0.00359323 0.293102
1464 4 0.207472 0.0588657 0.292183
1462 2 0.204504 0.0341547 0.289788
683 4 0.256726 0.0505087 0.302749
1463 4 0.201536 0.00944376 0.287393
682 2 0.259412 0.0736412 0.311851
1517 4 0.378105 0.00704357 0.31527
479 4 0.458485 0.0615764 0.256564
480 4 0.496145 0.0356984 0.276881
478 2 0.477315 0.0486374 0.266723
513 4 0.0387608 0.0892239 0.287021
2483 4 0.0264031 0.0936064 0.274066
2482 2 0.0157545 0.114106 0.264499
2484 4 0.00510584 0.134606 0.254931
598 2 0.143543 0.12709 0.283946
599 4 0.143115 0.145552 0.267089
600 4 0.143971 0.108627 0.300802
691 2 0.182022 0.0881421 0.249707
474 4 0.184525 0.170773 0.315415
604 2 0.173549 0.0900133 0.331756
466 2 0.246966 0.132572 0.338371
684 4 0.262098 0.0967736 0.320954
468 4 0.253973 0.108581 0.337656
30 3 0.297011 0.151499 0.266699
631 2 0.289243 0.117538 0.303814
632 4 0.304314 0.118927 0.283912
633 4 0.274172 0.116148 0.323717
26 1 0.314992 0.165401 0.265267
27 3 0.327112 0.164146 0.284778
742 2 0.408125 0.116883 0.265663
743 4 0.403586 0.129341 0.286861
351 4 0.400167 0.130048 0.307942
707 4 0.34398 0.161454 0.291391
349 2 0.419944 0.142611 0.316673
350 4 0.439721 0.155173 0.325404
452 4 0.458257 0.162145 0.332858
389 4 0.0644064 0.237529 0.30218
405 4 0.13442 0.212849 0.261119
403 2 0.135866 0.187887 0.261193
248 4 0.205324 0.15727 0.254634
472 2 0.200772 0.18416 0.328905
279 4 0.221356 0.21691 0.265708
277 2 0.233373 0.235244 0.277734
28 3 0.307866 0.187277 0.262256
708 4 0.389385 0.182374 0.292583
706 2 0.366683 0.171914 0.291987
418 2 0.427111 0.226514 0.323557
419 4 0.431296 0.246606 0.309275
442 2 0.0709023 0.314409 0.293645
388 2 0.0665362 0.259144 0.289793
444 4 0.0757046 0.289875 0.293245
390 4 0.0686659 0.280759 0.277405
278 4 0.245391 0.253578 0.28976
536 4 0.244188 0.269198 0.274416
344 4 0.229794 0.268629 0.296898
535 2 0.245111 0.293536 0.268761
343 2 0.215324 0.274635 0.316384
537 4 0.246035 0.317874 0.263106
309 4 0.319774 0.272093 0.257993
307 2 0.329918 0.292835 0.267588
308 4 0.340062 0.313576 0.277183
496 2 0.331353 0.33019 0.314318
498 4 0.343667 0.318348 0.296062
729 4 0.348299 0.331577 0.279905
443 4 0.0660999 0.338944 0.294045
547 2 0.0429531 0.377066 0.335646
548 4 0.0488064 0.398712 0.324583
602 4 0.0996158 0.416426 0.295327
300 4 0.179338 0.347166 0.266912
734 4 0.182169 0.357592 0.283335
735 4 0.19272 0.341445 0.329472
733 2 0.187444 0.349518 0.306403
436 2 0.233792 0.406318 0.293828
437 4 0.225796 0.416208 0.272301
438 4 0.241789 0.396427 0.315355
767 4 0.223434 0.410999 0.25369
727 2 0.35158 0.344159 0.258548
542 4 0.405261 0.354886 0.266406
541 2 0.394633 0.371286 0.282003
543 4 0.384005 0.387686 0.2976
615 4 0.38182 0.387573 0.317704
447 4 0.396736 0.397505 0.312295
613 2 0.365467 0.391096 0.336287
3717 4 0.00613603 0.474987 0.255389
2462 4 0.0147141 0.469455 0.27184
2463 4 0.00870912 0.423329 0.290199
2461 2 0.0117116 0.446392 0.281019
3959 4 0.0130423 0.48914 0.272656
3715 2 0.014828 0.490212 0.237561
601 2 0.0926698 0.422147 0.271998
414 4 0.129669 0.45501 0.272703
412 2 0.153821 0.457912 0.26692
776 4 0.113929 0.484696 0.330539
775 2 0.0897979 0.488426 0.335922
1435 2 0.207785 0.491021 0.250161
1436 4 0.193372 0.47076 0.252796
413 4 0.177973 0.460813 0.261137
1557 4 0.1996 0.457704 0.266363
1555 2 0.204076 0.454553 0.29076
1556 4 0.208552 0.451402 0.315157
712 2 0.38883 0.480057 0.284779
713 4 0.384135 0.458111 0.295803
714 4 0.393526 0.502003 0.273756
445 2 0.412313 0.416295 0.317726
118 3 0.491336 0.444293 0.326807
446 4 0.427889 0.435084 0.323158
316 2 0.0477877 0.0365355 0.344498
318 4 0.0405994 0.0335705 0.368262
1602 4 0.0778159 0.0269017 0.387772
1479 4 0.157265 0.988143 0.358167
730 2 0.134189 0.051309 0.335521
429 4 0.104507 0.0219268 0.337513
1600 2 0.0882503 0.00554889 0.380003
731 4 0.115504 0.0375736 0.34487
1700 4 0.167145 0.00436053 0.361845
1406 4 0.163915 0.00291069 0.3429
1701 4 0.187171 0.023706 0.403383
441 4 0.238977 0.0633257 0.39064
439 2 0.232806 0.0616207 0.36647
440 4 0.226635 0.0599157 0.3423
1699 2 0.177158 0.0140333 0.382614
1670 4 0.311299 0.00619285 0.383154
1669 2 0.330518 0.0206329 0.376275
1671 4 0.349736 0.0350729 0.369396
1516 2 0.367281 0.0167675 0.335604
1427 4 0.370343 0.0263288 0.371107
699 4 0.359821 0.0456217 0.354349
697 2 0.34892 0.0678882 0.351101
1426 2 0.385554 0.0398567 0.385626
1518 4 0.356457 0.0264914 0.355937
1428 4 0.400765 0.0533847 0.400145
1580 4 0.456608 0.0277984 0.400125
1579 2 0.444303 0.0447967 0.41372
399 4 0.110071 0.117762 0.369037
398 4 0.112268 0.161234 0.393654
397 2 0.111169 0.139498 0.381346
467 4 0.239959 0.156563 0.339086
687 4 0.165543 0.153242 0.40149
606 4 0.179665 0.107666 0.348374
726 4 0.272354 0.101798 0.336876
725 4 0.304963 0.102082 0.374787
724 2 0.288659 0.10194 0.355831
698 4 0.338019 0.0901546 0.347852
257 4 0.406348 0.0964239 0.39814
516 4 0.419753 0.109962 0.401459
514 2 0.438126 0.117159 0.386103
515 4 0.456499 0.124355 0.370747
451 2 0.466116 0.148344 0.35217
453 4 0.473974 0.134544 0.371483
473 4 0.21702 0.197547 0.342395
276 4 0.235502 0.197734 0.338671
274 2 0.239619 0.209866 0.360143
275 4 0.243737 0.221997 0.381615
375 4 0.243177 0.240893 0.381926
488 4 0.327688 0.250169 0.408472
306 4 0.434815 0.200805 0.35292
304 2 0.455747 0.206414 0.365393
305 4 0.47668 0.212024 0.377865
420 4 0.422926 0.206421 0.337838
270 4 0.495407 0.217987 0.372883
268 2 0.498583 0.242616 0.369965
2926 2 0.00683308 0.329215 0.337672
617 4 0.0383775 0.314949 0.392512
616 2 0.0628194 0.316806 0.38758
618 4 0.0872613 0.318662 0.382648
677 4 0.139364 0.30924 0.34325
676 2 0.160594 0.296461 0.346591
407 4 0.0937047 0.33349 0.370082
401 4 0.217702 0.295513 0.402573
345 4 0.200854 0.28064 0.335871
678 4 0.181824 0.283683 0.349933
400 2 0.208264 0.292551 0.379609
402 4 0.198825 0.289589 0.356646
510 4 0.263981 0.289153 0.410142
373 2 0.255411 0.255819 0.397824
508 2 0.262359 0.309486 0.395682
489 4 0.302931 0.287509 0.386257
487 2 0.315309 0.268839 0.397364
374 4 0.267645 0.270745 0.413721
497 4 0.319038 0.342031 0.332575
269 4 0.501759 0.267244 0.367047
549 4 0.0370999 0.355421 0.34671
2927 4 0.0183225 0.348843 0.348062
681 4 0.0272615 0.351808 0.366008
679 2 0.0164517 0.355775 0.388202
680 4 0.00564194 0.359742 0.410396
408 4 0.0888919 0.377159 0.346196
406 2 0.0912983 0.355325 0.358139
636 4 0.226256 0.414326 0.413594
669 4 0.242441 0.423306 0.406415
667 2 0.247281 0.401326 0.395522
668 4 0.252121 0.379347 0.384629
509 4 0.260738 0.32982 0.381221
377 4 0.308803 0.32897 0.344002
376 2 0.289801 0.336396 0.358458
378 4 0.2708 0.343822 0.372914
435 4 0.328766 0.33532 0.347361
433 2 0.346042 0.338747 0.365109
434 4 0.363317 0.342175 0.382856
614 4 0.349113 0.39462 0.35487
586 2 0.430912 0.407288 0.395355
753 4 0.456456 0.389325 0.42244
587 4 0.443811 0.388004 0.404677
777 4 0.0656672 0.492156 0.341305
499 2 0.14838 0.474146 0.346925
500 4 0.164322 0.456429 0.354484
501 4 0.132437 0.491863 0.339366
592 2 0.418256 0.460356 0.360791
1716 4 0.366483 0.465011 0.411179
1714 2 0.38683 0.45392 0.40179
1715 4 0.407177 0.442828 0.392401
593 4 0.427947 0.443979 0.377011
588 4 0.418014 0.426573 0.386032
594 4 0.408566 0.476732 0.344571
117 3 0.495724 0.470629 0.353261
120 3 0.467665 0.446177 0.356028
116 1 0.489306 0.448868 0.349465
3602 4 0.490263 0.49856 0.370357
368 4 0.0794446 0.0742112 0.458663
369 4 0.125023 0.0738325 0.438093
367 2 0.102234 0.0740219 0.448378
1817 4 0.266112 0.0263105 0.489098
1816 2 0.253023 0.00695191 0.480204
961 2 0.304101 0.0752832 0.484608
424 2 0.371464 0.075956 0.467048
425 4 0.35888 0.0666534 0.486549
3488 4 0.490171 0.0378026 0.480121
1061 4 0.473244 0.0398488 0.470332
1581 4 0.431997 0.0617949 0.427315
1060 2 0.451047 0.028342 0.470494
1062 4 0.428849 0.0168352 0.470655
720 4 0.00245738 0.0994614 0.441591
458 4 0.0365423 0.137582 0.46968
718 2 0.0215401 0.108411 0.455042
719 4 0.0406229 0.11736 0.468494
457 2 0.0450673 0.158467 0.458895
686 4 0.165376 0.130722 0.446139
685 2 0.165459 0.141982 0.423815
1152 4 0.184835 0.131117 0.451454
1150 2 0.185821 0.13983 0.474869
963 4 0.307667 0.0874169 0.463038
432 4 0.317741 0.103509 0.457483
321 4 0.257331 0.120467 0.449416
319 2 0.265938 0.141364 0.460112
320 4 0.274546 0.162261 0.470809
430 2 0.335265 0.110487 0.441069
256 2 0.389313 0.0955308 0.41642
426 4 0.384048 0.0852587 0.447547
258 4 0.372278 0.0946378 0.434701
431 4 0.352788 0.117465 0.424655
459 4 0.0535924 0.179352 0.448109
259 2 0.118973 0.180478 0.463145
261 4 0.132099 0.201755 0.462729
1035 4 0.152259 0.205481 0.461407
260 4 0.105847 0.159201 0.463562
1033 2 0.170084 0.215075 0.476085
1034 4 0.187908 0.224668 0.490762
411 4 0.287445 0.167774 0.485032
715 2 0.32488 0.226527 0.444854
716 4 0.321398 0.207835 0.461092
717 4 0.328363 0.245219 0.428617
575 4 0.383356 0.230417 0.481678
574 2 0.370771 0.211044 0.472112
576 4 0.358185 0.191672 0.462547
266 4 0.386106 0.241146 0.463662
347 4 0.0321159 0.279113 0.43695
346 2 0.01209 0.281238 0.42213
327 4 0.135808 0.326595 0.49266
650 4 0.269233 0.283177 0.428979
651 4 0.305994 0.30049 0.458126
649 2 0.287614 0.291833 0.443553
265 2 0.405319 0.255075 0.471538
560 4 0.454969 0.324794 0.475032
267 4 0.424532 0.269005 0.479414
585 4 0.474448 0.27723 0.487441
872 4 0.427297 0.273929 0.498407
584 4 0.452518 0.311868 0.458806
583 2 0.463483 0.294549 0.473124
384 4 0.0682861 0.405646 0.498193
503 4 0.206786 0.33754 0.423393
502 2 0.219244 0.352766 0.438824
504 4 0.231703 0.367993 0.454255
773 4 0.238906 0.385868 0.460112
772 2 0.233759 0.381048 0.4841
336 4 0.328774 0.374453 0.431077
334 2 0.334266 0.390077 0.44981
335 4 0.339757 0.405701 0.468542
240 4 0.356253 0.414852 0.474628
238 2 0.355347 0.406045 0.498012
751 2 0.462693 0.385817 0.446397
925 2 0.46231 0.413612 0.489829
926 4 0.470547 0.390005 0.490051
559 2 0.46478 0.347 0.481016
752 4 0.468931 0.382309 0.470355
561 4 0.474591 0.369206 0.487001
383 4 0.065284 0.455309 0.493157
382 2 0.066785 0.430477 0.495675
635 4 0.180331 0.417079 0.43319
570 4 0.202044 0.489278 0.422478
634 2 0.203294 0.415702 0.423392
1 1 0.33549 0.485492 0.440879
3 3 0.340927 0.46835 0.455541
4 3 0.313296 0.483613 0.434375
5 3 0.349042 0.484669 0.422594
4085 4 0.493526 0.473724 0.497261
927 4 0.454074 0.437219 0.489607
1126 2 0.0886245 0.0113105 0.526397
1128 4 0.0890925 0.0359245 0.522025
937 2 0.101522 0.0640957 0.51505
939 4 0.0863729 0.0531762 0.531677
2428 2 0.149652 0.0226211 0.565952
2429 4 0.125478 0.0213278 0.559695
938 4 0.116672 0.0750151 0.498424
2430 4 0.173825 0.0239145 0.572209
1182 4 0.220826 0.0822279 0.548439
962 4 0.300535 0.0631494 0.506177
2196 4 0.362632 0.995967 0.578896
640 2 0.46052 0.0639636 0.511824
641 4 0.436746 0.0641276 0.504081
642 4 0.484294 0.0637997 0.519568
4467 4 0.486809 0.992109 0.577219
1154 4 0.110416 0.152258 0.577097
1271 4 0.110188 0.170637 0.56805
1031 4 0.214572 0.086873 0.566324
1180 2 0.239854 0.0891136 0.533753
1151 4 0.186807 0.148543 0.498285
1181 4 0.258883 0.0959994 0.519067
877 2 0.0339449 0.183639 0.538386
1272 4 0.0720468 0.197291 0.549733
879 4 0.0551598 0.196859 0.53781
878 4 0.01273 0.170418 0.538962
1270 2 0.0911173 0.183964 0.558892
1220 4 0.207787 0.20417 0.559264
1219 2 0.227951 0.216467 0.551054
1221 4 0.248115 0.228763 0.542843
695 4 0.179205 0.241371 0.497619
410 4 0.315102 0.181353 0.524419
409 2 0.301273 0.174563 0.504726
791 4 0.304395 0.242857 0.529549
1136 4 0.075208 0.317772 0.542227
1135 2 0.0670825 0.328107 0.563495
325 2 0.15208 0.314406 0.507214
326 4 0.168352 0.302216 0.521768
9 3 0.176191 0.317135 0.533608
6 1 0.187157 0.302945 0.548332
8 3 0.182638 0.280847 0.542885
10 3 0.2096 0.30672 0.5475
7 3 0.179569 0.307049 0.569656
696 4 0.173324 0.282948 0.524777
694 2 0.176264 0.262159 0.511198
711 4 0.212504 0.324329 0.537363
790 2 0.326584 0.254262 0.531206
804 4 0.317271 0.318316 0.578652
792 4 0.348773 0.265667 0.532862
812 4 0.348695 0.284186 0.542287
811 2 0.372117 0.291899 0.546418
813 4 0.39554 0.299613 0.550549
873 4 0.410821 0.300656 0.537329
871 2 0.419059 0.287293 0.517868
935 4 0.0132661 0.383027 0.573173
897 4 0.152764 0.395732 0.549897
895 2 0.137111 0.396483 0.56938
1160 4 0.164518 0.411833 0.545511
709 2 0.226094 0.342147 0.526272
774 4 0.228612 0.376227 0.508089
710 4 0.239684 0.359965 0.515181
239 4 0.35444 0.397239 0.521396
1159 2 0.18789 0.417176 0.538414
1161 4 0.211263 0.422518 0.531318
1171 2 0.241207 0.437586 0.548547
1173 4 0.222492 0.421051 0.547308
1172 4 0.259922 0.45412 0.549787
1186 2 0.245548 0.499992 0.532272
1187 4 0.257786 0.49739 0.510624
882 4 0.341249 0.453154 0.513164
929 4 0.373063 0.442351 0.565601
880 2 0.360077 0.465296 0.524268
1000 2 0.412909 0.456179 0.554449
1001 4 0.395023 0.465773 0.539847
881 4 0.378904 0.477437 0.535371
928 2 0.358311 0.456331 0.580165
1002 4 0.430795 0.446585 0.56905
661 2 0.459161 0.4857 0.521949
663 4 0.437602 0.490426 0.533698
662 4 0.48072 0.480973 0.510199
1267 2 0.457736 0.47675 0.57914
1268 4 0.466987 0.497901 0.588743
1269 4 0.448485 0.455598 0.569537
2317 2 0.0428309 0.00969911 0.621551
2319 4 0.0246409 0.0242106 0.630701
1059 4 0.0937242 0.0257035 0.588245
1058 4 0.12573 0.0280524 0.626597
1057 2 0.109727 0.026878 0.607421
944 4 0.11386 0.0405986 0.636829
824 4 0.139654 0.0232651 0.639754
823 2 0.145026 0.999638 0.645925
943 2 0.119144 0.0562662 0.655585
951 4 0.296095 0.0207542 0.652045
949 2 0.280377 0.0337237 0.666534
1092 4 0.314398 0.0146613 0.64689
1090 2 0.338909 0.0176795 0.650804
1091 4 0.363419 0.0206976 0.654717
2283 4 0.382609 0.0176464 0.652716
2281 2 0.392933 0.000181805 0.638102
3007 2 0.496438 0.0735531 0.609775
1082 4 0.0629676 0.151554 0.665017
1081 2 0.0821167 0.135574 0.663242
1153 2 0.122758 0.141501 0.595996
1155 4 0.135099 0.130744 0.614894
1083 4 0.101266 0.119595 0.661468
1032 4 0.226723 0.091223 0.614636
1030 2 0.220647 0.089048 0.59048
1282 2 0.236066 0.12977 0.634499
1283 4 0.22823 0.109313 0.622447
1284 4 0.243903 0.150228 0.646552
1211 4 0.260377 0.15704 0.637621
900 4 0.317942 0.141122 0.621546
898 2 0.333943 0.159822 0.625958
3009 4 0.480097 0.0892668 0.620322
809 4 0.463412 0.099626 0.622507
808 2 0.456957 0.0988724 0.646651
1209 4 0.0807629 0.227747 0.661655
1244 4 0.00181068 0.238365 0.653014
1207 2 0.0986011 0.245101 0.65924
1210 2 0.259318 0.18107 0.644447
1212 4 0.258259 0.205101 0.651273
888 4 0.320473 0.227276 0.616081
886 2 0.338616 0.212934 0.625586
887 4 0.356759 0.198593 0.63509
899 4 0.349943 0.178522 0.630369
1193 4 0.392492 0.179697 0.584356
1194 4 0.37092 0.183926 0.629273
1192 2 0.381706 0.181812 0.606814
830 4 0.358906 0.181157 0.645872
829 2 0.366706 0.187896 0.668652
1025 4 0.447648 0.210648 0.626612
1024 2 0.469412 0.222167 0.622275
1026 4 0.491177 0.233685 0.617938
906 4 0.495703 0.236476 0.598464
1208 4 0.116439 0.262455 0.656825
1259 4 0.190854 0.320927 0.578499
857 4 0.213113 0.266667 0.642042
856 2 0.205317 0.290418 0.642601
1258 2 0.193874 0.323324 0.603203
858 4 0.19752 0.314168 0.643161
1260 4 0.196894 0.325721 0.627908
802 2 0.302511 0.301718 0.590134
803 4 0.287751 0.28512 0.601616
1239 4 0.284139 0.273486 0.617422
1237 2 0.293704 0.278087 0.640061
1238 4 0.303268 0.282687 0.6627
952 2 0.488044 0.280816 0.600396
953 4 0.485786 0.305585 0.602961
954 4 0.490301 0.256047 0.597832
1137 4 0.0589571 0.338442 0.584764
983 4 0.998802 0.338092 0.641912
1041 4 0.0491703 0.338673 0.604001
1039 2 0.0405118 0.34479 0.626646
1040 4 0.0318532 0.350907 0.649291
3274 2 0.00740154 0.375757 0.6546
3275 4 0.0110544 0.351153 0.65206
3276 4 0.00374872 0.400362 0.657139
993 4 0.0680579 0.343574 0.603629
896 4 0.121457 0.397234 0.588863
991 2 0.0920049 0.34733 0.609762
992 4 0.115952 0.351086 0.615895
797 4 0.204615 0.334315 0.64559
796 2 0.226755 0.341964 0.654338
1190 4 0.207472 0.408743 0.585226
798 4 0.248894 0.349612 0.663086
1029 4 0.248403 0.392475 0.665296
1007 4 0.394532 0.34739 0.665887
1189 2 0.212269 0.426 0.602671
1191 4 0.217066 0.443257 0.620117
891 4 0.323027 0.463673 0.653161
889 2 0.332008 0.472883 0.63172
1953 4 0.336906 0.490159 0.591272
890 4 0.340989 0.482092 0.610279
930 4 0.343559 0.47031 0.59473
4149 4 0.467832 0.51283 0.601442
1185 4 0.0617889 0.999115 0.676065
945 4 0.124427 0.0719338 0.674341
950 4 0.264659 0.0466932 0.681023
1004 4 0.30499 0.0756282 0.694518
1003 2 0.321289 0.0568282 0.692052
1005 4 0.337588 0.0380283 0.689585
43 3 0.414613 0.0654061 0.693808
846 4 0.441875 0.071172 0.737601
42 3 0.443732 0.0693683 0.717239
2321 4 0.484108 0.0206322 0.724648
2320 2 0.481468 0.00373343 0.742887
844 2 0.464291 0.065616 0.747184
1163 4 0.487855 0.0328428 0.709768
1162 2 0.502644 0.0530022 0.709481
850 2 0.0377707 0.114264 0.705681
851 4 0.02239 0.119212 0.724763
1107 4 0.0146674 0.130474 0.741109
852 4 0.0531514 0.109316 0.686598
864 4 0.0220043 0.113081 0.74577
909 4 0.109754 0.119939 0.67971
907 2 0.133199 0.122749 0.687931
908 4 0.156645 0.125558 0.696153
1227 4 0.16658 0.125015 0.712678
1225 2 0.188623 0.122405 0.724187
1226 4 0.210666 0.119795 0.735696
1142 4 0.409408 0.113939 0.7218
1141 2 0.403813 0.136231 0.731645
1143 4 0.398219 0.158523 0.741491
1298 4 0.378589 0.16043 0.746633
41 1 0.429348 0.0806338 0.703263
44 3 0.41762 0.0963554 0.71566
810 4 0.450502 0.0981188 0.670796
45 3 0.441351 0.0910049 0.686922
1073 4 0.104381 0.24747 0.762391
976 2 0.222193 0.241357 0.744009
977 4 0.241825 0.2326 0.731239
918 4 0.255294 0.22733 0.717284
916 2 0.276929 0.239588 0.719897
917 4 0.298565 0.251846 0.72251
831 4 0.374506 0.194635 0.691432
1263 4 0.444349 0.198066 0.69292
1261 2 0.450223 0.219394 0.704573
1262 4 0.456098 0.240722 0.716226
3356 4 0.474741 0.250027 0.718092
1243 2 0.00923474 0.255519 0.669622
1177 2 0.998982 0.306701 0.69597
1245 4 0.0166588 0.272672 0.68623
1179 4 0.0110478 0.2852 0.700134
892 2 0.0720382 0.306231 0.711904
894 4 0.0574681 0.30923 0.691807
893 4 0.0866083 0.303231 0.732001
1074 4 0.0961364 0.284567 0.729886
1072 2 0.100259 0.266019 0.746139
947 4 0.107362 0.299396 0.72706
946 2 0.130677 0.306803 0.732231
948 4 0.153991 0.314209 0.737401
1278 4 0.166224 0.298936 0.744729
806 4 0.307631 0.288603 0.680726
805 2 0.331764 0.293633 0.684906
1006 2 0.383964 0.327728 0.677151
1008 4 0.373396 0.308066 0.688416
807 4 0.355897 0.298662 0.689086
1166 4 0.445076 0.312151 0.735797
3123 4 0.475454 0.252834 0.698564
3122 4 0.4447 0.289117 0.683121
3121 2 0.460077 0.270976 0.690842
815 4 0.0977055 0.374649 0.747486
1067 4 0.163687 0.36522 0.70799
940 2 0.12862 0.367854 0.718259
941 4 0.146046 0.3565 0.704381
942 4 0.111193 0.379207 0.732138
1028 4 0.2057 0.405235 0.687975
1066 2 0.183757 0.375305 0.697004
1068 4 0.203826 0.385389 0.686018
1027 2 0.227052 0.398855 0.676636
1065 4 0.264187 0.351629 0.672932
1063 2 0.288912 0.350565 0.676499
1064 4 0.313638 0.349502 0.680065
1206 4 0.425219 0.368454 0.682451
1099 2 0.49428 0.387887 0.740544
1205 4 0.454461 0.371239 0.722922
1101 4 0.478433 0.368679 0.738282
1204 2 0.43984 0.369847 0.702687
1019 4 0.459272 0.375135 0.742087
1018 2 0.441405 0.385848 0.755914
1280 4 0.067365 0.43956 0.698864
1281 4 0.072348 0.463898 0.742264
1279 2 0.0698565 0.451729 0.720564
1078 2 0.15302 0.455024 0.748004
2015 4 0.116211 0.479622 0.739448
1079 4 0.134441 0.469015 0.738824
2014 2 0.105927 0.499133 0.727667
1080 4 0.171598 0.441032 0.757184
1175 4 0.227735 0.439271 0.681298
1174 2 0.224734 0.462232 0.671867
1176 4 0.221734 0.485194 0.662435
2028 4 0.201784 0.489302 0.72915
1228 2 0.378602 0.460782 0.726037
1230 4 0.366666 0.444544 0.711236
1229 4 0.390538 0.477019 0.740837
3183 4 0.500619 0.444219 0.696184
1249 2 0.469218 0.482781 0.736657
1250 4 0.46528 0.490325 0.713146
2168 4 0.473263 0.502129 0.699613
2991 4 0.0168624 0.0663658 0.762718
1203 4 0.0640108 0.0750033 0.78751
1202 4 0.103718 0.0795693 0.817563
1201 2 0.0838645 0.0772863 0.802536
839 4 0.250626 0.0702935 0.819167
1255 2 0.280574 0.0415792 0.819032
1256 4 0.270326 0.0643813 0.819507
1257 4 0.290821 0.018777 0.818557
975 4 0.293083 0.999763 0.823973
1112 4 0.460713 0.004147 0.824257
845 4 0.486707 0.06006 0.756767
1111 2 0.464263 0.997683 0.800366
863 4 0.0525778 0.0881685 0.776517