ITEM: TIMESTEP
1520000
ITEM: NUMBER OF ATOMS
4590
ITEM: BOX BOUNDS pp pp pp
-9.9985700000000008e+00 9.9985700000000008e+00
-9.9985700000000008e+00 9.9985700000000008e+00
-9.9985700000000008e+00 9.9985700000000008e+00
ITEM: ATOMS id type xs ys zs
463 2 0.0378118 0.996125 0.0819322
19 3 0.00933689 0.0727091 0.0475662
784 2 0.0120914 0.0539462 0.0160003
1667 4 0.0216108 0.0875831 0.0487934
578 4 0.13118 0.059819 0.078254
491 4 0.231567 0.0227004 0.0501126
490 2 0.254802 0.0307225 0.0455333
492 4 0.278036 0.0387446 0.0409541
486 4 0.290116 0.02497 0.0492777
484 2 0.314799 0.0289271 0.0497975
358 2 0.256336 0.0753852 0.00843236
485 4 0.339482 0.0328841 0.0503173
1607 4 0.350314 0.017477 0.0449543
2467 2 0.490673 0.0421033 0.0356126
2468 4 0.484692 0.0463104 0.0117022
2723 4 0.488668 0.0303888 0.0768322
2722 2 0.464609 0.0321901 0.0833964
1666 2 0.0453779 0.0951667 0.0504636
1668 4 0.0691451 0.10275 0.0521338
1246 2 0.0259719 0.144845 0.0454451
1248 4 0.0310043 0.152813 0.0222857
1247 4 0.0209394 0.136877 0.0686045
3234 4 0.0163843 0.145697 0.00873094
359 4 0.254441 0.0835277 0.031997
866 4 0.327348 0.158252 0.000376139
666 4 0.322592 0.16073 0.0184925
664 2 0.328267 0.157874 0.0426754
665 4 0.333942 0.155018 0.0668583
556 2 0.370427 0.138804 0.0821114
557 4 0.350872 0.144436 0.0675824
296 4 0.409378 0.133309 0.0878204
297 4 0.436334 0.121315 0.0474443
295 2 0.422856 0.127312 0.0676324
2894 4 0.503513 0.1385 0.0757433
2466 4 0.505524 0.119805 0.077366
2893 2 0.495266 0.161793 0.071924
555 4 0.118922 0.196717 0.0469883
554 4 0.144499 0.22556 0.0151359
553 2 0.13171 0.211138 0.0310621
770 4 0.431253 0.20253 0.0582145
769 2 0.454547 0.201855 0.0672755
771 4 0.477841 0.20118 0.0763364
2895 4 0.487018 0.185086 0.0681047
836 4 0.0568967 0.315994 0.0743805
869 4 0.11898 0.263188 0.0111965
754 2 0.297301 0.292192 0.0721901
755 4 0.287804 0.269766 0.0778518
756 4 0.306799 0.314618 0.0665283
740 4 0.311925 0.334661 0.0650655
322 2 0.377628 0.280846 0.06359
323 4 0.375839 0.283163 0.0387583
1070 4 0.340049 0.317368 0.000862335
671 4 0.440351 0.32345 0.00860915
835 2 0.0677716 0.338472 0.0730952
619 2 0.0404984 0.384252 0.00305968
621 4 0.0223085 0.381119 0.0199266
2787 4 0.0176501 0.384346 0.0397677
292 2 0.0732803 0.394251 0.0693101
2785 2 0.00728419 0.382592 0.0624536
837 4 0.0786465 0.36095 0.07181
293 4 0.0643873 0.372548 0.0779768
2786 4 0.996918 0.380838 0.0851395
913 2 0.147234 0.362859 0.062741
914 4 0.168723 0.355626 0.0522028
915 4 0.125744 0.370092 0.0732792
288 4 0.176886 0.34869 0.0349088
286 2 0.19011 0.355172 0.0147027
251 4 0.312332 0.39512 0.0463564
250 2 0.288151 0.401227 0.0481331
609 4 0.315268 0.406505 0.0629533
356 4 0.263548 0.369844 0.00830173
252 4 0.26397 0.407334 0.0499099
607 2 0.329616 0.411898 0.0827071
739 2 0.334826 0.334752 0.0751015
741 4 0.357727 0.334843 0.0851375
957 4 0.418669 0.41808 0.0149777
672 4 0.47917 0.353366 0.018551
670 2 0.45976 0.338408 0.0135801
562 2 0.485888 0.357933 0.0582403
563 4 0.473858 0.360516 0.0364742
564 4 0.497919 0.35535 0.0800064
294 4 0.0821732 0.415953 0.0606434
552 4 0.0880207 0.424022 0.0448524
550 2 0.0974095 0.418148 0.0224352
1440 4 0.143128 0.478312 0.0729227
1438 2 0.148525 0.45504 0.0655425
243 4 0.15118 0.487113 0.0574167
1439 4 0.153923 0.431768 0.0581622
1766 4 0.0877912 0.498715 0.075399
246 4 0.212463 0.493531 0.0572052
902 4 0.213172 0.472924 0.0525788
901 2 0.222316 0.45068 0.0457412
1289 4 0.223111 0.488859 0.0413878
903 4 0.23146 0.428435 0.0389037
523 2 0.34632 0.492576 0.0707194
525 4 0.363662 0.49118 0.0527617
464 4 0.0486515 0.0150612 0.0941429
2760 4 0.0418546 0.0339383 0.100679
2758 2 0.0263374 0.0533203 0.0977244
2759 4 0.0108202 0.0727024 0.0947695
381 4 0.0105768 0.0683097 0.167236
579 4 0.15406 0.0221088 0.101816
577 2 0.14262 0.0409639 0.090035
1806 4 0.166253 0.00796762 0.110258
581 4 0.188081 0.0609264 0.167103
653 4 0.256226 0.0596234 0.167915
24 3 0.390006 0.058822 0.159399
2724 4 0.44055 0.0339914 0.0899605
591 4 0.0260695 0.130691 0.0867726
589 2 0.0144412 0.110124 0.0949577
590 4 0.00281285 0.0895583 0.103143
235 2 0.0772115 0.125138 0.16248
477 4 0.103385 0.143194 0.138533
237 4 0.0937059 0.125971 0.143707
475 2 0.0994905 0.151943 0.115436
476 4 0.0955955 0.160692 0.0923395
566 4 0.162282 0.145782 0.168963
423 4 0.171038 0.163822 0.102376
421 2 0.184083 0.143119 0.107516
422 4 0.197127 0.122417 0.112656
532 2 0.23294 0.11502 0.119749
534 4 0.209118 0.107423 0.119664
533 4 0.256761 0.122617 0.119835
558 4 0.389981 0.133173 0.0966404
629 4 0.406823 0.141734 0.106132
628 2 0.424501 0.156831 0.115338
630 4 0.442179 0.171928 0.124543
283 2 0.193912 0.219614 0.162924
285 4 0.217885 0.225744 0.159337
354 4 0.242494 0.233311 0.14755
353 4 0.258718 0.226391 0.100756
310 2 0.303255 0.200981 0.15189
312 4 0.303164 0.214535 0.130879
352 2 0.250606 0.229851 0.124153
764 4 0.254884 0.246272 0.156699
517 2 0.46162 0.234797 0.112665
519 4 0.48343 0.238532 0.124308
518 4 0.439809 0.231063 0.101023
254 4 0.425869 0.245286 0.103734
339 4 0.102814 0.268578 0.119414
337 2 0.127098 0.263214 0.121997
338 4 0.151382 0.25785 0.124581
506 4 0.163741 0.255052 0.108768
505 2 0.181183 0.271142 0.116649
507 4 0.198624 0.287231 0.12453
763 2 0.273141 0.261149 0.165099
610 2 0.309584 0.312957 0.168149
461 4 0.338352 0.244965 0.119471
324 4 0.379417 0.27853 0.0884217
255 4 0.384922 0.273949 0.105304
460 2 0.352036 0.264435 0.1118
253 2 0.405395 0.259617 0.104519
462 4 0.365719 0.283906 0.104128
622 2 0.417366 0.331013 0.146056
624 4 0.431171 0.312685 0.136123
313 2 0.0144565 0.404907 0.1166
314 4 0.0111951 0.390066 0.0967433
455 4 0.142682 0.344644 0.152924
1628 4 0.235575 0.400398 0.109317
301 2 0.31704 0.381396 0.162623
303 4 0.3177 0.406356 0.163945
611 4 0.31301 0.337544 0.16516
302 4 0.31638 0.356436 0.161301
386 4 0.361108 0.348059 0.100047
387 4 0.389982 0.378831 0.126881
385 2 0.375545 0.363445 0.113464
13 3 0.38306 0.390264 0.142159
11 1 0.403447 0.390004 0.153236
12 3 0.407857 0.368525 0.160192
623 4 0.403561 0.349341 0.155989
608 4 0.343964 0.417292 0.102461
15 3 0.420005 0.396891 0.139198
494 4 0.420471 0.413705 0.126917
315 4 0.0177178 0.419748 0.136456
1757 4 0.0938524 0.451077 0.153413
626 4 0.231261 0.454741 0.166764
64 3 0.250286 0.451622 0.156534
1627 2 0.241118 0.417458 0.126735
1629 4 0.246661 0.434518 0.144153
1487 4 0.25208 0.453622 0.134929
61 1 0.261237 0.466817 0.170231
62 3 0.270999 0.48298 0.157093
1486 2 0.264587 0.465699 0.11696
1488 4 0.277094 0.477776 0.0989905
524 4 0.328978 0.493971 0.0886771
658 2 0.397132 0.486165 0.144654
659 4 0.412449 0.472225 0.130645
495 4 0.429419 0.46208 0.135889
493 2 0.424945 0.437892 0.131403
512 4 0.0757778 0.052874 0.232778
511 2 0.0594654 0.0658057 0.246629
545 4 0.0916889 0.0725073 0.182225
693 4 0.130393 0.072378 0.23165
691 2 0.15497 0.0766813 0.230042
675 4 0.121178 0.0249276 0.228621
544 2 0.102419 0.0754388 0.204618
731 4 0.113324 0.0717908 0.246104
546 4 0.11315 0.0783702 0.227011
652 2 0.231561 0.0635999 0.166914
654 4 0.206896 0.0675763 0.165913
580 2 0.166491 0.0733092 0.169497
1505 4 0.306494 0.0186391 0.174512
21 1 0.380451 0.0672543 0.17879
23 3 0.369073 0.0504136 0.189986
25 3 0.396609 0.0759927 0.192251
757 2 0.410264 0.074231 0.226287
758 4 0.411409 0.062138 0.248142
22 3 0.365528 0.0838202 0.173131
236 4 0.0607172 0.124304 0.181253
565 2 0.148708 0.124789 0.169431
567 4 0.135134 0.103796 0.1699
582 4 0.144902 0.0856921 0.171891
738 4 0.180466 0.152509 0.174149
692 4 0.179548 0.0809845 0.228433
598 2 0.191628 0.116592 0.221769
600 4 0.1956 0.0920116 0.22405
404 4 0.173112 0.150338 0.229697
249 4 0.192454 0.155945 0.233147
599 4 0.187656 0.141173 0.219489
403 2 0.160489 0.171243 0.224328
29 3 0.331031 0.130605 0.242727
759 4 0.409119 0.0863241 0.204433
332 4 0.442819 0.153908 0.248115
363 4 0.0277437 0.249142 0.226072
370 2 0.145165 0.238041 0.178062
405 4 0.147867 0.192148 0.218958
284 4 0.169938 0.213485 0.166511
372 4 0.14807 0.21458 0.169918
737 4 0.158251 0.196489 0.165602
736 2 0.169359 0.174499 0.169876
311 4 0.303346 0.187426 0.172901
307 2 0.313957 0.224881 0.250053
308 4 0.318318 0.246299 0.237911
361 2 0.0505284 0.256885 0.23286
362 4 0.073313 0.264628 0.239648
648 4 0.0381172 0.297485 0.20557
646 2 0.0561838 0.31426 0.201405
647 4 0.0742505 0.331036 0.197239
750 4 0.0789115 0.278724 0.226374
371 4 0.142261 0.261502 0.186207
748 2 0.101318 0.288202 0.232145
749 4 0.123724 0.29768 0.237915
299 4 0.131309 0.299338 0.257027
612 4 0.306158 0.288371 0.171138
765 4 0.291398 0.276025 0.173499
498 4 0.319438 0.262725 0.251304
729 4 0.329851 0.262318 0.234648
727 2 0.341094 0.275951 0.216959
728 4 0.352337 0.289583 0.199269
705 4 0.0751239 0.339106 0.215876
454 2 0.138818 0.352034 0.176496
456 4 0.134953 0.359425 0.200068
415 2 0.154207 0.383446 0.220036
417 4 0.136619 0.36576 0.218293
704 4 0.124343 0.346781 0.211487
703 2 0.0997336 0.342943 0.213682
416 4 0.171795 0.401132 0.221778
14 3 0.402544 0.40387 0.171818
645 4 0.404384 0.397479 0.190858
109 3 0.490595 0.41109 0.208988
643 2 0.420123 0.412893 0.202686
3717 4 0.0383637 0.484284 0.245496
603 4 0.067175 0.446898 0.218397
3715 2 0.0323411 0.49193 0.222465
3716 4 0.0263185 0.499576 0.199434
1758 4 0.0752004 0.454828 0.19966
1756 2 0.0845264 0.452953 0.176537
601 2 0.0832089 0.441016 0.23666
63 3 0.24605 0.476953 0.184549
1659 4 0.236982 0.490659 0.243645
625 2 0.21054 0.445219 0.177019
627 4 0.189819 0.435697 0.187275
639 4 0.189782 0.43649 0.20639
637 2 0.178324 0.446509 0.226227
65 3 0.277376 0.456189 0.182281
1575 4 0.338405 0.487815 0.206452
1574 4 0.370861 0.485727 0.168466
1573 2 0.354633 0.486771 0.187459
107 3 0.485261 0.440593 0.231655
644 4 0.435862 0.428306 0.214514
110 3 0.456791 0.427497 0.211385
106 1 0.479265 0.431178 0.211541
108 3 0.48502 0.44575 0.194426
234 4 0.076142 0.0142084 0.313281
513 4 0.043153 0.0787373 0.26048
673 2 0.127051 0.0275246 0.252786
428 4 0.0929652 0.0196977 0.320964
674 4 0.132923 0.0301216 0.276951
1463 4 0.149844 0.026351 0.285623
429 4 0.134814 0.031663 0.296342
427 2 0.11389 0.0256804 0.308653
1462 2 0.16946 0.0111209 0.282713
466 2 0.2319 0.0716901 0.297443
467 4 0.212192 0.0660505 0.283127
468 4 0.251608 0.0773297 0.31176
706 2 0.307819 0.0672406 0.32444
682 2 0.260583 0.0383762 0.331185
684 4 0.25516 0.0591966 0.318446
633 4 0.269592 0.0819757 0.328514
744 4 0.397692 0.0641061 0.263688
708 4 0.330054 0.064361 0.313372
1516 2 0.389807 0.0912736 0.347196
1518 4 0.367535 0.0894487 0.358413
480 4 0.447436 0.0530986 0.273437
479 4 0.431373 0.074696 0.315583
478 2 0.439404 0.0638973 0.29451
1517 4 0.412078 0.0930986 0.335979
529 2 0.0100108 0.0901447 0.277288
531 4 0.0329329 0.0804092 0.275058
2482 2 0.0629978 0.107536 0.286199
2483 4 0.0453977 0.0953856 0.273246
2484 4 0.0805978 0.119687 0.299152
392 4 0.0702879 0.153751 0.277889
730 2 0.107086 0.0878548 0.264221
732 4 0.100847 0.103919 0.282337
399 4 0.125826 0.117663 0.330272
247 2 0.211759 0.163328 0.247218
474 4 0.207014 0.144269 0.319514
472 2 0.218215 0.127928 0.33477
30 3 0.297322 0.146986 0.246334
631 2 0.267096 0.104341 0.317617
26 1 0.318488 0.146034 0.254686
632 4 0.264601 0.126706 0.306719
27 3 0.317652 0.139463 0.276715
28 3 0.328426 0.166966 0.253474
742 2 0.388717 0.0850354 0.274013
743 4 0.379742 0.105965 0.284337
349 2 0.400621 0.136426 0.298362
351 4 0.3798 0.122985 0.295045
451 2 0.454083 0.140669 0.31616
452 4 0.436047 0.157482 0.312015
350 4 0.421442 0.149868 0.301678
453 4 0.47212 0.123856 0.320305
331 2 0.46123 0.167817 0.257746
391 2 0.0791058 0.176523 0.28326
393 4 0.0879236 0.199295 0.288631
248 4 0.231065 0.170711 0.261288
279 4 0.242207 0.184524 0.271988
277 2 0.245381 0.206677 0.283138
536 4 0.240846 0.245737 0.298364
278 4 0.248555 0.22883 0.294289
309 4 0.309597 0.203462 0.262194
2682 4 0.491402 0.191182 0.28045
333 4 0.47964 0.181727 0.267378
419 4 0.439216 0.228387 0.29899
418 2 0.431537 0.223286 0.322232
2680 2 0.495555 0.199752 0.303569
2453 4 0.498544 0.182101 0.261839
2681 4 0.499709 0.208323 0.326688
388 2 0.0195311 0.257557 0.319616
390 4 0.0215846 0.273702 0.300633
444 4 0.0267884 0.279051 0.281566
442 2 0.0487316 0.290155 0.286081
443 4 0.0706747 0.301259 0.290595
408 4 0.0778307 0.306754 0.308493
406 2 0.0776693 0.318812 0.330396
298 2 0.137825 0.320185 0.269197
344 4 0.223752 0.321125 0.338473
535 2 0.241825 0.270316 0.293882
537 4 0.242803 0.294895 0.289399
496 2 0.318693 0.282369 0.266754
497 4 0.317949 0.302014 0.282205
300 4 0.144342 0.341032 0.281367
734 4 0.139544 0.36005 0.285085
733 2 0.142022 0.362644 0.30983
735 4 0.144501 0.365237 0.334575
438 4 0.254556 0.394689 0.302253
436 2 0.271413 0.412896 0.299164
587 4 0.478054 0.356384 0.303333
586 2 0.47374 0.348059 0.326512
2537 4 0.49965 0.399907 0.27409
767 4 0.170611 0.420419 0.28898
602 4 0.0992428 0.435135 0.254922
289 2 0.151169 0.494663 0.255322
500 4 0.135247 0.468309 0.339381
499 2 0.122056 0.480109 0.321719
776 4 0.0887674 0.49265 0.302811
501 4 0.108865 0.491908 0.304057
638 4 0.166866 0.456529 0.246064
768 4 0.155583 0.460474 0.263086
766 2 0.163097 0.440446 0.276033
290 4 0.140303 0.47227 0.257702
1437 4 0.238945 0.481464 0.314539
437 4 0.28827 0.431103 0.296075
542 4 0.408832 0.479405 0.297959
541 2 0.414619 0.478524 0.322268
2756 4 0.0104504 0.0610695 0.361259
317 4 0.026236 0.0558581 0.374779
316 2 0.0429256 0.0392371 0.383168
318 4 0.0596152 0.0226162 0.391557
1602 4 0.0775884 0.011397 0.388454
605 4 0.18085 0.0665211 0.352356
439 2 0.24134 0.0239442 0.393594
441 4 0.231165 0.0419488 0.407647
604 2 0.199297 0.0826734 0.357251
707 4 0.285585 0.0701202 0.335508
440 4 0.251515 0.00593969 0.379541
683 4 0.266006 0.0175557 0.343924
726 4 0.268082 0.0722967 0.345841
724 2 0.268684 0.0835415 0.368165
1670 4 0.347708 0.0350021 0.358817
1669 2 0.349668 0.0587145 0.366503
1427 4 0.400634 0.0318729 0.396025
1671 4 0.351628 0.0824268 0.374188
1426 2 0.418635 0.0155446 0.4019
1428 4 0.436637 0.999216 0.407774
2654 4 0.0171117 0.174615 0.399257
398 4 0.0877656 0.139694 0.354077
397 2 0.106796 0.128679 0.342174
606 4 0.217745 0.0988256 0.362147
473 4 0.229415 0.111588 0.350025
276 4 0.230267 0.110122 0.370071
274 2 0.221628 0.122117 0.390237
275 4 0.21299 0.134112 0.410403
375 4 0.232045 0.141611 0.41086
725 4 0.269287 0.0947864 0.39049
699 4 0.356267 0.100963 0.370704
698 4 0.347161 0.147661 0.355307
697 2 0.351714 0.124312 0.363005
431 4 0.352759 0.123437 0.406762
1580 4 0.47568 0.111429 0.385683
1579 2 0.456433 0.124967 0.394138
516 4 0.422408 0.152441 0.395372
514 2 0.424908 0.163377 0.373027
1581 4 0.437187 0.138504 0.402592
389 4 0.0174777 0.241413 0.338598
487 2 0.310086 0.241962 0.384631
488 4 0.313034 0.224611 0.402392
717 4 0.332316 0.224272 0.404249
515 4 0.427407 0.174313 0.350681
420 4 0.423858 0.218184 0.345474
306 4 0.437289 0.208462 0.357155
304 2 0.44923 0.217348 0.377246
305 4 0.461171 0.226235 0.397336
270 4 0.468384 0.245369 0.395951
583 2 0.490962 0.185013 0.396204
585 4 0.476766 0.202561 0.406962
547 2 0.0202699 0.329205 0.33259
616 2 0.0619151 0.308248 0.387547
617 4 0.0566633 0.293736 0.407219
618 4 0.067167 0.32276 0.367875
407 4 0.077508 0.330871 0.352299
343 2 0.213889 0.331564 0.358941
1260 4 0.239527 0.266205 0.387151
401 4 0.248414 0.325431 0.415352
489 4 0.307138 0.259313 0.36687
1258 2 0.258229 0.262585 0.403347
378 4 0.33531 0.327885 0.360972
376 2 0.360153 0.327263 0.358213
377 4 0.384996 0.326641 0.355454
435 4 0.413605 0.301302 0.345915
433 2 0.434087 0.315037 0.350039
434 4 0.45457 0.328771 0.354164
268 2 0.484046 0.261532 0.38506
1715 4 0.464523 0.338421 0.370035
548 4 0.0415385 0.342163 0.334807
677 4 0.150507 0.357051 0.353332
400 2 0.226411 0.334941 0.408236
345 4 0.204025 0.342002 0.379408
402 4 0.204409 0.344451 0.40112
678 4 0.186655 0.353305 0.387683
676 2 0.168581 0.355178 0.370508
593 4 0.317438 0.332199 0.351847
592 2 0.31497 0.356627 0.356577
594 4 0.312501 0.381054 0.361308
1716 4 0.485646 0.335023 0.415234
1714 2 0.475085 0.336722 0.392635
588 4 0.469426 0.339734 0.349691
119 3 0.493701 0.390005 0.384814
3989 4 0.494073 0.38614 0.403695
414 4 0.161898 0.428102 0.337007
413 4 0.200052 0.451465 0.35935
412 2 0.180975 0.439784 0.348179
1436 4 0.209301 0.467507 0.352317
1557 4 0.194784 0.425418 0.415991
1435 2 0.224123 0.474486 0.333428
1555 2 0.21879 0.43239 0.416558
1556 4 0.242795 0.439362 0.417124
336 4 0.238008 0.456546 0.376967
334 2 0.249638 0.474696 0.389636
335 4 0.261268 0.492845 0.402305
2 3 0.263133 0.509067 0.415991
240 4 0.280543 0.502005 0.405105
238 2 0.300345 0.49063 0.394923
239 4 0.320147 0.479256 0.384741
614 4 0.388634 0.432791 0.370003
613 2 0.404582 0.451875 0.367423
446 4 0.46236 0.463302 0.416425
615 4 0.42053 0.470958 0.364842
543 4 0.420406 0.477644 0.346577
447 4 0.433798 0.477899 0.37806
445 2 0.448079 0.470601 0.397242
720 4 0.0111536 0.0656341 0.472366
367 2 0.0724486 0.0570702 0.466862
369 4 0.0787177 0.0694581 0.446068
368 4 0.0661795 0.0446823 0.487657
1479 4 0.16398 0.999944 0.422522
1818 4 0.250983 0.0157245 0.482149
962 4 0.299878 0.0460079 0.456928
1817 4 0.290423 0.0288222 0.454334
1816 2 0.270703 0.0222733 0.468242
961 2 0.317163 0.0640734 0.456691
426 4 0.394595 0.065361 0.467362
424 2 0.373344 0.0745172 0.457888
963 4 0.334448 0.0821388 0.456454
260 4 0.11548 0.146341 0.491809
687 4 0.147033 0.131026 0.439833
685 2 0.152507 0.136507 0.463606
686 4 0.157982 0.141988 0.487379
1152 4 0.16817 0.126321 0.492135
373 2 0.245757 0.160454 0.41992
319 2 0.335899 0.109651 0.478803
320 4 0.325569 0.131063 0.486547
411 4 0.320913 0.148264 0.494602
321 4 0.346229 0.0882383 0.471058
432 4 0.338583 0.0836304 0.433505
425 4 0.352093 0.0836734 0.448415
430 2 0.345671 0.103534 0.420134
257 4 0.423283 0.146469 0.41529
256 2 0.426618 0.135657 0.437587
258 4 0.429953 0.124845 0.459884
346 2 0.00619268 0.192777 0.481105
2653 2 0.0136758 0.170907 0.423744
510 4 0.273906 0.178645 0.415595
509 4 0.293077 0.222287 0.430715
374 4 0.25947 0.179297 0.42898
508 2 0.283491 0.200466 0.423155
651 4 0.306037 0.176579 0.495569
649 2 0.296263 0.199054 0.490617
650 4 0.286489 0.221529 0.485665
711 4 0.283574 0.239487 0.475473
791 4 0.28828 0.258054 0.511745
709 2 0.274739 0.251048 0.455139
575 4 0.415266 0.171236 0.451334
409 2 0.340117 0.164159 0.492669
576 4 0.371235 0.174817 0.474768
715 2 0.337752 0.217644 0.427737
574 2 0.39325 0.173027 0.463051
410 4 0.359321 0.180053 0.490736
716 4 0.343188 0.211016 0.451225
266 4 0.42333 0.171078 0.432581
265 2 0.441182 0.186873 0.425031
267 4 0.459034 0.202668 0.41748
872 4 0.470473 0.219911 0.41471
871 2 0.467852 0.236551 0.433188
2814 4 0.0587742 0.310379 0.470295
2812 2 0.0339203 0.308621 0.472386
2813 4 0.00906644 0.306863 0.474477
1136 4 0.123892 0.302941 0.441963
1135 2 0.121028 0.310327 0.465679
1137 4 0.118163 0.317713 0.489394
1041 4 0.105292 0.332291 0.494547
1259 4 0.276931 0.258966 0.419543
710 4 0.265903 0.262609 0.434806
873 4 0.465231 0.25319 0.451666
3990 4 0.483504 0.381516 0.452353
3988 2 0.488789 0.383828 0.428024
383 4 0.0218254 0.435393 0.450686
382 2 0.035342 0.454398 0.441669
384 4 0.0488586 0.473402 0.432652
634 2 0.171158 0.489957 0.453105
635 4 0.15293 0.499762 0.439077
773 4 0.201705 0.475931 0.484185
636 4 0.189386 0.480153 0.467133
503 4 0.192437 0.416882 0.472545
504 4 0.204218 0.465172 0.467069
502 2 0.198328 0.441027 0.469807
667 2 0.267073 0.455642 0.438883
669 4 0.256305 0.434179 0.431916
4 3 0.272304 0.496249 0.450112
668 4 0.277842 0.477106 0.44585
882 4 0.37036 0.454477 0.488346
1268 4 0.427519 0.441556 0.482613
1059 4 0.0606023 0.0527146 0.514649
1057 2 0.0654788 0.059996 0.538067
937 2 0.0490106 0.0157514 0.498233
938 4 0.0480875 0.0407119 0.497093
1058 4 0.0703553 0.0672774 0.561484
824 4 0.0626731 0.075817 0.578801
2429 4 0.0826923 0.0762318 0.574411
2428 2 0.106136 0.0805207 0.566851
843 4 0.293726 0.999659 0.567475
1181 4 0.271968 0.081773 0.545527
841 2 0.318679 0.999581 0.569052
1217 4 0.356201 0.0317781 0.571431
1216 2 0.356674 0.0463381 0.55111
89 3 0.402156 0.0423351 0.564816
1218 4 0.357148 0.060898 0.530788
90 3 0.415726 0.00883507 0.575364
2333 4 0.358733 0.0122387 0.566748
86 1 0.411883 0.0302558 0.582075
842 4 0.343633 0.999503 0.570628
2430 4 0.12958 0.0848096 0.55929
944 4 0.128073 0.104947 0.559997
943 2 0.13433 0.129145 0.560706
945 4 0.140587 0.153342 0.561415
1180 2 0.247973 0.0858923 0.551224
1182 4 0.223978 0.0900116 0.556921
1031 4 0.212604 0.0936249 0.572338
1151 4 0.199591 0.137439 0.529415
1220 4 0.188455 0.149037 0.540535
1150 2 0.18388 0.13188 0.510775
887 4 0.313564 0.139671 0.546451
886 2 0.301931 0.152469 0.564508
1062 4 0.475328 0.122415 0.562897
1061 4 0.506168 0.0855454 0.549105
1060 2 0.490748 0.10398 0.556001
877 2 0.029482 0.208305 0.556185
1272 4 0.0693073 0.214026 0.548479
879 4 0.0520247 0.219081 0.557128
878 4 0.00693918 0.197529 0.555242
347 4 0.0111982 0.195749 0.505421
1082 4 0.0613128 0.251956 0.584843
1033 2 0.128217 0.221948 0.517352
1034 4 0.147891 0.236128 0.523436
1035 4 0.108542 0.207769 0.511267
261 4 0.106668 0.188633 0.516997
1270 2 0.0869049 0.201507 0.56108
1271 4 0.104503 0.188988 0.57368
1154 4 0.123495 0.196754 0.569497
259 2 0.111074 0.167487 0.504403
695 4 0.158351 0.239159 0.539345
1219 2 0.187349 0.169631 0.554671
1221 4 0.186242 0.190226 0.568807
326 4 0.247394 0.224815 0.585613
694 2 0.182382 0.238171 0.532511
696 4 0.206413 0.237184 0.525678
325 2 0.236192 0.209793 0.569059
992 4 0.239846 0.239645 0.548722
327 4 0.22499 0.194772 0.552504
8 3 0.242529 0.247623 0.567912
1238 4 0.29074 0.18415 0.593869
1237 2 0.27905 0.206154 0.595945
888 4 0.290298 0.165267 0.582565
790 2 0.291956 0.2736 0.53098
936 4 0.00473296 0.308817 0.495533
934 2 0.00773831 0.322632 0.516155
2612 4 0.993758 0.25107 0.513509
991 2 0.234958 0.250104 0.526543
993 4 0.230071 0.260564 0.504365
804 4 0.304268 0.293828 0.568704
792 4 0.295632 0.289145 0.550215
802 2 0.280462 0.294196 0.576341
812 4 0.304689 0.309943 0.554826
811 2 0.318317 0.318894 0.535869
813 4 0.331945 0.327845 0.516913
803 4 0.256656 0.294564 0.583977
560 4 0.473398 0.290176 0.520011
559 2 0.486851 0.310906 0.523812
935 4 0.0107437 0.336447 0.536778
2846 4 0.992278 0.357599 0.580457
1039 2 0.106888 0.338447 0.518728
1040 4 0.108484 0.344604 0.542909
897 4 0.13444 0.407672 0.575496
895 2 0.114056 0.417041 0.586537
1159 2 0.171211 0.412009 0.564824
1161 4 0.189926 0.414311 0.548404
751 2 0.487667 0.370675 0.515008
753 4 0.475685 0.392438 0.51219
1938 4 0.0477104 0.482504 0.531022
1160 4 0.152495 0.409708 0.581244
1173 4 0.211073 0.414345 0.551654
1171 2 0.230183 0.430413 0.550314
774 4 0.229766 0.483858 0.524811
772 2 0.215735 0.479894 0.504498
1188 4 0.248517 0.486104 0.534811
1172 4 0.249294 0.44648 0.548974
881 4 0.336614 0.450483 0.525034
880 2 0.353487 0.45248 0.50669
663 4 0.416376 0.4804 0.550916
661 2 0.420404 0.489065 0.574022
4084 2 0.474795 0.484417 0.527
1267 2 0.440624 0.445274 0.503579
1269 4 0.453729 0.448993 0.524546
4085 4 0.464368 0.46364 0.517792
662 4 0.424432 0.497729 0.597128
823 2 0.0660536 0.0717127 0.603233
2319 4 0.0392098 0.0351927 0.626605
825 4 0.069434 0.0676083 0.627665
2317 2 0.0457734 0.0122708 0.619076
98 3 0.207566 0.056867 0.652409
100 3 0.243321 0.045138 0.651114
96 1 0.225531 0.0489867 0.664801
950 4 0.257046 0.0577902 0.643627
1005 4 0.319331 0.0245017 0.628696
951 4 0.289086 0.0748108 0.609212
1092 4 0.32929 0.0319624 0.611395
949 2 0.273066 0.0663005 0.62642
1003 2 0.310845 0.00698837 0.644395
88 3 0.397966 0.0303599 0.600641
1090 2 0.354117 0.0310112 0.608581
2283 4 0.390835 0.0180152 0.616263
2281 2 0.40062 0.0178264 0.639271
1091 4 0.378943 0.03006 0.605768
2282 4 0.410404 0.0176375 0.66228
87 3 0.431879 0.0401311 0.587714
3007 2 0.471941 0.0607172 0.611999
3008 4 0.490939 0.0536609 0.597355
3009 4 0.452942 0.0677735 0.626643
1282 2 0.170674 0.160932 0.615145
1030 2 0.200105 0.107911 0.588613
1032 4 0.187607 0.122197 0.604888
1283 4 0.183169 0.139483 0.612148
900 4 0.353384 0.0954322 0.603253
898 2 0.355277 0.11721 0.61539
899 4 0.357171 0.138988 0.627528
150 3 0.415522 0.0862945 0.60314
148 3 0.399498 0.102481 0.633121
1194 4 0.354491 0.158232 0.63165
146 1 0.417314 0.103218 0.618274
149 3 0.417635 0.123657 0.607294
147 3 0.43692 0.1008 0.630059
3052 2 0.475322 0.109025 0.648858
3053 4 0.450956 0.110131 0.643361
3251 4 0.425586 0.138074 0.621235
905 4 0.415522 0.144134 0.602184
3250 2 0.433919 0.144835 0.643819
3054 4 0.499689 0.107918 0.654356
851 4 0.0244928 0.173799 0.658874
850 2 0.0383396 0.192774 0.650309
1081 2 0.0587427 0.236787 0.604553
852 4 0.0521864 0.21175 0.641743
1083 4 0.0561727 0.221618 0.624262
1208 4 0.0554518 0.230136 0.645316
909 4 0.0707557 0.214487 0.63538
1207 2 0.0675738 0.248733 0.656821
1284 4 0.158179 0.182382 0.618141
1155 4 0.141284 0.193051 0.616086
908 4 0.117964 0.199957 0.62757
1153 2 0.132389 0.194903 0.592792
907 2 0.0943598 0.207222 0.631475
10 3 0.251411 0.246836 0.604493
1211 4 0.157704 0.200185 0.626103
1210 2 0.174491 0.204316 0.644167
1239 4 0.267359 0.228159 0.59802
806 4 0.297741 0.167646 0.602354
805 2 0.307363 0.172025 0.625013
807 4 0.316985 0.176405 0.647671
1193 4 0.375071 0.200893 0.61561
1192 2 0.364781 0.179562 0.62363
906 4 0.412608 0.194053 0.602738
1025 4 0.411463 0.237473 0.655617
1024 2 0.414007 0.224786 0.634222
1026 4 0.416552 0.2121 0.612826
904 2 0.414065 0.169094 0.602461
954 4 0.425723 0.229298 0.602936
857 4 0.142051 0.281385 0.634201
856 2 0.160342 0.298067 0.637711
6 1 0.239139 0.257577 0.588597
7 3 0.216823 0.256119 0.593984
9 3 0.245194 0.279959 0.587704
858 4 0.178634 0.314749 0.64122
1065 4 0.225202 0.306948 0.631052
796 2 0.205069 0.331411 0.639385
798 4 0.229344 0.326566 0.635862
1063 2 0.244892 0.304548 0.615829
1064 4 0.264581 0.302147 0.600607
1007 4 0.400084 0.324967 0.657039
953 4 0.459422 0.26159 0.584984
952 2 0.442573 0.245444 0.59396
3275 4 0.0227752 0.375666 0.663689
3274 2 0.0391164 0.393204 0.656579
3276 4 0.0554576 0.410742 0.649469
983 4 0.0129439 0.364557 0.676549
982 2 0.00919144 0.34691 0.659238
797 4 0.180793 0.336255 0.642908
1189 2 0.239736 0.387232 0.595493
1190 4 0.22955 0.409325 0.601266
1191 4 0.249921 0.365139 0.589719
1029 4 0.292391 0.391084 0.66739
1027 2 0.273089 0.405747 0.673525
896 4 0.0936725 0.426411 0.597578
1176 4 0.227777 0.46855 0.645753
1174 2 0.232048 0.446751 0.657233
1175 4 0.236319 0.424953 0.668712
1028 4 0.253788 0.42041 0.67966
1000 2 0.4084 0.501269 0.626571
1001 4 0.384539 0.497685 0.633126
4147 2 0.463806 0.496613 0.606115
2167 2 0.48388 0.478012 0.653188
2169 4 0.485233 0.484984 0.629214
1002 4 0.432262 0.504853 0.620017
4149 4 0.440921 0.506186 0.602981
1183 2 0.0339976 0.00364153 0.696386
1185 4 0.0446904 0.0248158 0.704291
97 3 0.219445 0.029303 0.675032
2202 4 0.22547 0.0544998 0.697795
99 3 0.231293 0.0644496 0.681114
2262 4 0.223168 0.0356653 0.694752
2200 2 0.223716 0.0698969 0.717417
2260 2 0.216893 0.0146589 0.706774
2201 4 0.221962 0.085294 0.73704
844 2 0.413977 0.0536864 0.744462
846 4 0.415403 0.0293539 0.738887
1113 4 0.401586 0.0210843 0.749723
2398 2 0.391059 0.0170736 0.709135
2400 4 0.37013 0.0192243 0.695624
845 4 0.412551 0.078019 0.750036
2399 4 0.411988 0.0149229 0.722645
1162 2 0.489403 0.0501704 0.667583
2322 4 0.429093 0.0301224 0.720629
2321 4 0.451567 0.0592397 0.68675
2320 2 0.44033 0.044681 0.70369
1163 4 0.464754 0.0485878 0.671468
1924 2 0.451829 0.00846025 0.744342
1926 4 0.428624 0.012393 0.735901
2342 4 0.435824 0.0153145 0.706183
1076 4 0.0408423 0.165003 0.69238
1077 4 0.0280899 0.11688 0.697099
864 4 0.0361633 0.0991204 0.706056
862 2 0.0391499 0.0972032 0.730806
1075 2 0.0344661 0.140942 0.69474
1225 2 0.149323 0.130661 0.716349
1227 4 0.135862 0.140916 0.697942
1226 4 0.162783 0.120405 0.734756
1148 4 0.181208 0.129236 0.731603
1147 2 0.194915 0.110602 0.741095
1149 4 0.208623 0.0919692 0.750586
43 3 0.265179 0.170325 0.737501
808 2 0.304794 0.16056 0.754023
809 4 0.316435 0.143556 0.739863
830 4 0.33638 0.156535 0.672838
3252 4 0.442252 0.151596 0.666403
1072 2 0.065198 0.202488 0.728699
1073 4 0.0431383 0.196881 0.739048
1106 4 0.0265591 0.195084 0.74942
1245 4 0.00100444 0.258763 0.688272
1243 2 0.998549 0.245331 0.667326
1074 4 0.0872576 0.208095 0.718349
893 4 0.0917647 0.23297 0.725149
947 4 0.10165 0.219944 0.713138
946 2 0.106675 0.235523 0.694239
1212 4 0.191277 0.208446 0.662232
977 4 0.224179 0.238327 0.74163
976 2 0.201043 0.24762 0.743503
918 4 0.234516 0.221175 0.744596
45 3 0.244794 0.199238 0.750388
829 2 0.331339 0.166234 0.695325
3204 4 0.325618 0.183793 0.736708
916 2 0.254948 0.235414 0.746821
831 4 0.326297 0.175934 0.717813
3202 2 0.346069 0.197782 0.740064
3203 4 0.366519 0.211771 0.743419
3486 4 0.376709 0.205045 0.72842
3484 2 0.396345 0.215453 0.716964
3485 4 0.415982 0.225862 0.705508
892 2 0.0904044 0.249096 0.744209
1209 4 0.0796959 0.267331 0.668326
948 4 0.1117 0.251103 0.675339
1276 2 0.153506 0.274239 0.752263
1277 4 0.161224 0.257124 0.735751
978 4 0.177906 0.256913 0.745376
917 4 0.27538 0.249653 0.749047
3355 2 0.495099 0.27323 0.692915
1263 4 0.43245 0.301602 0.724919
3356 4 0.484255 0.294694 0.686065
1261 2 0.454686 0.301103 0.713496
1262 4 0.476922 0.300604 0.702072
3123 4 0.485437 0.31495 0.68943
815 4 0.134843 0.364858 0.73905
814 2 0.11111 0.357396 0.741546
942 4 0.147116 0.380166 0.73614
940 2 0.161137 0.400822 0.737524
816 4 0.0873762 0.349934 0.744041
1067 4 0.199277 0.40893 0.718023
1006 2 0.397202 0.345083 0.671607
1008 4 0.39432 0.365199 0.686174
998 4 0.388263 0.347209 0.723193
997 2 0.400648 0.368643 0.726709
999 4 0.413033 0.390077 0.730225
1019 4 0.413283 0.406519 0.742501
1205 4 0.428135 0.401097 0.731671
3430 2 0.00904277 0.466839 0.714965
3431 4 0.0130693 0.443015 0.721396
1280 4 0.0685876 0.461971 0.693936
1279 2 0.0721624 0.447059 0.713685
3432 4 0.00501624 0.490664 0.708535
1281 4 0.0757372 0.432147 0.733434
2015 4 0.134178 0.460142 0.696611
1079 4 0.154131 0.460918 0.69796
1078 2 0.168838 0.448719 0.714087
2014 2 0.128357 0.481015 0.684137
885 4 0.0847308 0.434832 0.752896
941 4 0.175158 0.421478 0.738908
1080 4 0.183545 0.436521 0.730214
1068 4 0.238686 0.421148 0.689767
1066 2 0.218982 0.415039 0.703895
2013 4 0.198508 0.442896 0.741813