ITEM: TIMESTEP
1050000
ITEM: NUMBER OF ATOMS
4590
ITEM: BOX BOUNDS pp pp pp
-9.9985700000000008e+00 9.9985700000000008e+00
-9.9985700000000008e+00 9.9985700000000008e+00
-9.9985700000000008e+00 9.9985700000000008e+00
ITEM: ATOMS id type xs ys zs
463 2 0.037266 0.0235943 0.0413872
464 4 0.0527182 0.0432338 0.040551
1667 4 0.0502586 0.0618092 0.0341771
465 4 0.0218139 0.00395483 0.0422235
1666 2 0.0733014 0.0680902 0.0415768
3291 4 0.0111725 0.0112173 0.0258406
579 4 0.128324 0.00994491 0.0860861
994 2 0.153824 0.0103774 0.00774684
1668 4 0.0963443 0.0743711 0.0489765
995 4 0.151914 0.0307836 0.993425
1254 4 0.20755 0.0730695 0.0153194
1252 2 0.187968 0.0589218 0.00887332
1253 4 0.168385 0.044774 0.00242726
491 4 0.256714 0.0397865 0.00704138
490 2 0.276443 0.0424058 0.022177
492 4 0.296172 0.0450252 0.0373126
486 4 0.316083 0.0400292 0.0390183
484 2 0.322927 0.0198534 0.0521057
297 4 0.337588 0.0679325 0.047842
746 4 0.369202 0.0584577 0.0474477
745 2 0.39084 0.0492173 0.0389855
747 4 0.412477 0.039977 0.0305232
2975 4 0.431005 0.0434393 0.0248168
1826 4 0.421752 0.023949 0.0234152
1825 2 0.442113 0.0113295 0.030582
1827 4 0.462474 0.99871 0.0377487
1653 4 0.481408 0.000962637 0.0437746
1246 2 0.026981 0.123664 0.0349171
1247 4 0.032808 0.11309 0.0568129
1248 4 0.021154 0.134237 0.0130213
423 4 0.160134 0.158356 0.0341267
359 4 0.227398 0.0791927 0.0124676
532 2 0.217131 0.100533 0.0669131
534 4 0.211544 0.121772 0.0549605
421 2 0.17953 0.147467 0.0455467
422 4 0.198926 0.136579 0.0569667
295 2 0.334774 0.0924114 0.0520895
296 4 0.331961 0.11689 0.0563371
665 4 0.298216 0.138228 0.0141635
664 2 0.322476 0.144018 0.0124028
556 2 0.293205 0.125036 0.0710826
558 4 0.316378 0.128364 0.0623013
629 4 0.333393 0.137094 0.0581294
557 4 0.270032 0.121709 0.0798639
666 4 0.346736 0.149808 0.0106421
866 4 0.368017 0.147501 0.00835619
628 2 0.344365 0.153899 0.0730421
630 4 0.355337 0.170704 0.0879548
2974 2 0.435212 0.0676262 0.0200768
2976 4 0.43942 0.0918131 0.0153369
554 4 0.122058 0.210739 0.0230581
553 2 0.123332 0.232261 0.0357214
1133 4 0.131777 0.20954 0.00504251
323 4 0.384934 0.214676 0.0344434
322 2 0.3992 0.228562 0.04957
770 4 0.447618 0.175294 0.0351594
771 4 0.487191 0.183115 0.064715
769 2 0.467404 0.179204 0.0499372
324 4 0.413467 0.242448 0.0646965
2895 4 0.500951 0.175135 0.0755252
836 4 0.09036 0.304343 0.0323849
555 4 0.124607 0.253783 0.0483847
483 4 0.260909 0.298195 0.00896052
481 2 0.272596 0.314787 0.994356
571 2 0.322557 0.32991 0.998932
572 4 0.343665 0.322618 0.010178
619 2 0.017942 0.386211 0.0107004
621 4 5.36408e-05 0.389754 0.0278069
835 2 0.0933725 0.328057 0.0397181
294 4 0.08351 0.40449 0.0666262
455 4 0.119108 0.334557 0.0809889
292 2 0.09038 0.385939 0.0513343
293 4 0.09725 0.367388 0.0360423
837 4 0.096385 0.35177 0.0470513
915 4 0.11285 0.355097 0.0308139
913 2 0.136808 0.361289 0.0272299
914 4 0.160766 0.36748 0.0236459
288 4 0.178895 0.360537 0.0151555
573 4 0.30145 0.337202 0.987687
250 2 0.281703 0.384066 0.0553522
252 4 0.269161 0.369586 0.071421
251 4 0.294245 0.398546 0.0392834
609 4 0.304493 0.410482 0.0509033
672 4 0.411226 0.387644 0.0341154
670 2 0.419052 0.387063 0.0103753
563 4 0.493578 0.402584 0.0512232
552 4 0.0580454 0.41437 0.0114306
550 2 0.066147 0.436332 0.0202186
551 4 0.0742485 0.458293 0.0290066
245 4 0.202866 0.485773 0.000208279
607 2 0.316523 0.427223 0.0650528
525 4 0.319612 0.497503 0.0683147
608 4 0.328552 0.443963 0.0792023
1420 2 0.998111 0.0142464 0.163299
577 2 0.105634 0.00741684 0.0962798
578 4 0.0829428 0.00488877 0.106474
1806 4 0.153348 0.997503 0.113301
1505 4 0.27014 0.0381403 0.166625
22 3 0.355243 0.0824184 0.164455
2468 4 0.476141 0.0624385 0.117372
2467 2 0.496687 0.0482054 0.118038
235 2 0.0704869 0.146611 0.15997
589 2 0.0304431 0.142598 0.119861
591 4 0.0513362 0.151271 0.130512
590 4 0.00954997 0.133925 0.10921
237 4 0.0934525 0.142043 0.151201
477 4 0.101672 0.149305 0.134079
475 2 0.123998 0.143647 0.124348
476 4 0.146325 0.137989 0.114616
533 4 0.222717 0.0792934 0.0788657
566 4 0.179593 0.0973501 0.0852914
567 4 0.160689 0.126431 0.121314
565 2 0.170141 0.111891 0.103303
311 4 0.325514 0.160143 0.130037
2591 4 0.498131 0.146843 0.140422
339 4 0.118778 0.22691 0.0866653
337 2 0.134705 0.232864 0.104997
338 4 0.150632 0.238819 0.123329
370 2 0.169171 0.234501 0.157554
371 4 0.177934 0.213182 0.147864
352 2 0.328994 0.236229 0.128112
285 4 0.317254 0.217676 0.173239
353 4 0.315588 0.254929 0.118326
310 2 0.331455 0.182222 0.140155
354 4 0.342401 0.217529 0.137899
312 4 0.337397 0.204302 0.150273
461 4 0.358462 0.205611 0.138387
255 4 0.401794 0.22243 0.093697
462 4 0.393036 0.206382 0.102265
460 2 0.375749 0.205997 0.120326
253 2 0.414594 0.243069 0.0996426
528 4 0.493443 0.240527 0.107056
703 2 0.0673637 0.315567 0.164183
704 4 0.0824949 0.315513 0.144278
506 4 0.151967 0.258874 0.122303
372 4 0.160408 0.25582 0.167243
505 2 0.17194 0.273147 0.117554
507 4 0.191913 0.287419 0.112806
755 4 0.298631 0.268307 0.119432
754 2 0.30456 0.290218 0.108945
756 4 0.31049 0.312128 0.0984593
612 4 0.268724 0.319964 0.134403
610 2 0.260026 0.330708 0.155237
740 4 0.328708 0.307604 0.0901503
739 2 0.349245 0.32186 0.0905499
518 4 0.443656 0.260911 0.0949771
519 4 0.492602 0.259704 0.105157
254 4 0.427395 0.263708 0.105588
517 2 0.468129 0.260308 0.100067
2786 4 0.00348984 0.391803 0.0844683
314 4 0.0157774 0.405563 0.0937963
417 4 0.0960519 0.370407 0.117022
456 4 0.114358 0.36289 0.12192
454 2 0.116733 0.348723 0.101455
415 2 0.0967475 0.38193 0.139202
416 4 0.097443 0.393452 0.161381
741 4 0.369783 0.336115 0.0909496
387 4 0.384632 0.384577 0.136107
385 2 0.376584 0.369387 0.11795
386 4 0.368536 0.354198 0.0997922
13 3 0.386594 0.383302 0.155978
623 4 0.404072 0.34052 0.159757
15 3 0.424122 0.385464 0.158119
494 4 0.427962 0.40505 0.157578
313 2 0.00623828 0.416876 0.11395
1440 4 0.154994 0.490732 0.0891601
1438 2 0.167485 0.481889 0.108933
1439 4 0.179976 0.473047 0.128706
627 4 0.22538 0.466856 0.14941
639 4 0.217483 0.448751 0.145654
625 2 0.245929 0.474242 0.137231
626 4 0.266479 0.481628 0.125051
660 4 0.372771 0.498603 0.156935
658 2 0.392102 0.484339 0.150003
659 4 0.411432 0.470075 0.143072
495 4 0.416499 0.453257 0.15084
493 2 0.42223 0.429154 0.154209
1421 4 0.0152258 0.00720357 0.180112
673 2 0.0796867 0.0341253 0.239124
675 4 0.0873909 0.0124808 0.229258
653 4 0.200354 0.0422969 0.172664
652 2 0.199806 0.0619718 0.188084
654 4 0.199257 0.0816467 0.203504
1828 2 0.293864 0.00236382 0.237008
1504 2 0.273483 0.0262896 0.188386
1506 4 0.276825 0.014439 0.210148
1829 4 0.291832 0.0213291 0.220841
24 3 0.354441 0.0475759 0.178527
23 3 0.339522 0.0765465 0.198086
21 1 0.356627 0.070064 0.18381
25 3 0.376813 0.0738031 0.193669
759 4 0.39358 0.0791278 0.185154
757 2 0.405263 0.0854831 0.206327
744 4 0.409221 0.0781529 0.239674
480 4 0.477777 0.0708171 0.243178
236 4 0.0475213 0.151179 0.168739
2482 2 0.00889622 0.118624 0.234955
2483 4 0.0227029 0.0986749 0.241003
581 4 0.185852 0.0920711 0.214435
580 2 0.189578 0.116213 0.219771
582 4 0.193305 0.140355 0.225107
738 4 0.231538 0.143521 0.183763
736 2 0.246808 0.163262 0.182254
758 4 0.416945 0.0918384 0.227501
361 2 0.0725801 0.247257 0.222241
362 4 0.094248 0.241744 0.233434
283 2 0.293882 0.208917 0.174729
737 4 0.262078 0.183004 0.180745
284 4 0.270511 0.200158 0.176219
764 4 0.335706 0.224783 0.169398
763 2 0.352995 0.2135 0.183503
765 4 0.370285 0.202217 0.197607
363 4 0.0509123 0.252771 0.211048
705 4 0.0522326 0.315621 0.184089
648 4 0.0388584 0.300051 0.239405
646 2 0.0510561 0.309962 0.219958
647 4 0.0632538 0.319872 0.200511
748 2 0.112428 0.281302 0.238083
750 4 0.100097 0.259563 0.23881
299 4 0.132262 0.319421 0.246955
749 4 0.124759 0.303041 0.237356
307 2 0.323215 0.283004 0.246088
309 4 0.329988 0.273806 0.223846
622 2 0.407711 0.318853 0.171692
624 4 0.41135 0.297186 0.183628
2463 4 0.0126431 0.398363 0.252221
611 4 0.251328 0.341453 0.176072
302 4 0.266899 0.41124 0.180731
301 2 0.289138 0.407775 0.19162
303 4 0.311378 0.404309 0.202509
12 3 0.406376 0.355962 0.172527
11 1 0.405273 0.378657 0.168936
14 3 0.403578 0.389419 0.189423
645 4 0.413466 0.398035 0.205023
728 4 0.346625 0.3513 0.250635
643 2 0.436506 0.40225 0.213774
644 4 0.459546 0.406465 0.222525
3716 4 0.0447794 0.483226 0.212401
1757 4 0.0630181 0.482863 0.206534
3715 2 0.0341831 0.472703 0.232454
3717 4 0.0235868 0.462179 0.252508
2461 2 0.0112846 0.423305 0.251107
1756 2 0.085056 0.473246 0.199676
291 4 0.12658 0.459899 0.20067
1758 4 0.107094 0.463629 0.192819
289 2 0.150643 0.45337 0.198793
637 2 0.200694 0.451679 0.16395
290 4 0.174706 0.446841 0.196916
638 4 0.183906 0.454606 0.182247
768 4 0.193647 0.448115 0.20147
766 2 0.208913 0.447409 0.221259
1430 4 0.248325 0.501352 0.195472
767 4 0.22418 0.446704 0.241049
107 3 0.494073 0.426005 0.184946
110 3 0.471146 0.420774 0.213927
106 1 0.482962 0.43634 0.202234
109 3 0.468549 0.452255 0.193438
108 3 0.498511 0.446543 0.21611
1568 4 0.506982 0.451833 0.234788
317 4 0.0421732 0.069084 0.329011
529 2 0.00994032 0.0788607 0.274204
234 4 0.020774 0.000720054 0.279423
674 4 0.0719824 0.0557698 0.24899
512 4 0.0850139 0.0791472 0.261333
545 4 0.082474 0.0788308 0.281155
232 2 0.00526651 0.00227035 0.259871
691 2 0.151947 0.0630024 0.28816
722 4 0.106494 0.0255512 0.295221
721 2 0.122707 0.0137614 0.280277
427 2 0.0863181 0.00430315 0.323591
546 4 0.112113 0.0446387 0.302442
429 4 0.104738 0.0195014 0.316183
693 4 0.131437 0.0530406 0.29842
544 2 0.0972936 0.0617348 0.291798
1464 4 0.200931 0.0454249 0.268815
1462 2 0.188589 0.0244299 0.263153
683 4 0.244926 0.069875 0.316615
1463 4 0.176247 0.0034348 0.257491
692 4 0.172457 0.0729642 0.277899
1517 4 0.407249 0.0544626 0.299207
1516 2 0.395703 0.0595143 0.320802
479 4 0.452713 0.0414588 0.274968
478 2 0.465245 0.0561379 0.259073
511 2 0.06333 0.0865769 0.251344
513 4 0.0416461 0.0940065 0.241354
531 4 0.0253278 0.0868432 0.256185
393 4 0.0911182 0.136099 0.254926
391 2 0.0894631 0.160823 0.258267
600 4 0.165058 0.0919467 0.282328
598 2 0.18525 0.106058 0.278045
599 4 0.205442 0.120169 0.273763
249 4 0.208887 0.141659 0.268922
404 4 0.18724 0.142215 0.273137
682 2 0.256317 0.0862656 0.331674
30 3 0.30187 0.161825 0.291034
631 2 0.292457 0.126889 0.307826
632 4 0.300795 0.140711 0.288731
633 4 0.284118 0.113067 0.326921
29 3 0.331521 0.166425 0.268289
684 4 0.267709 0.102656 0.346732
706 2 0.401059 0.113736 0.300615
707 4 0.378746 0.122509 0.30771
708 4 0.423372 0.104964 0.293519
742 2 0.422169 0.0876531 0.258839
743 4 0.435117 0.0971533 0.278004
351 4 0.442222 0.0986476 0.295151
349 2 0.453982 0.116421 0.308227
350 4 0.465742 0.134194 0.321303
452 4 0.459286 0.153984 0.33008
389 4 0.0618777 0.242183 0.283044
403 2 0.167277 0.156864 0.276614
392 4 0.0878079 0.185547 0.261608
405 4 0.147315 0.171513 0.280091
474 4 0.177404 0.180638 0.328183
248 4 0.224825 0.188177 0.25982
247 2 0.216856 0.164918 0.264371
279 4 0.22601 0.209198 0.26458
277 2 0.234431 0.231241 0.272849
26 1 0.317432 0.176697 0.283599
28 3 0.306927 0.194884 0.273736
27 3 0.329952 0.184107 0.301419
419 4 0.436541 0.21663 0.306545
418 2 0.432037 0.213138 0.33089
442 2 0.0699103 0.329388 0.288136
388 2 0.0715204 0.264836 0.287408
444 4 0.0719399 0.304468 0.288285
390 4 0.0811632 0.287488 0.291772
677 4 0.138534 0.291957 0.304952
676 2 0.149504 0.289944 0.327331
278 4 0.242853 0.253284 0.281117
344 4 0.229421 0.305816 0.308569
343 2 0.208396 0.302396 0.321662
536 4 0.243043 0.271688 0.286724
537 4 0.267768 0.30012 0.253845
308 4 0.316443 0.292202 0.26833
535 2 0.255405 0.285904 0.270285
496 2 0.30738 0.319468 0.302857
497 4 0.30811 0.334201 0.323046
498 4 0.306651 0.304736 0.282668
729 4 0.321965 0.312058 0.269415
443 4 0.0678808 0.354309 0.287987
298 2 0.144888 0.338783 0.256486
300 4 0.157514 0.358146 0.266017
734 4 0.171851 0.371011 0.273868
735 4 0.180153 0.349516 0.31825
733 2 0.176002 0.360264 0.296059
436 2 0.233314 0.41518 0.293825
438 4 0.245098 0.40333 0.312423
727 2 0.334295 0.331679 0.260025
543 4 0.408654 0.405171 0.292235
615 4 0.398879 0.406939 0.310518
613 2 0.378896 0.400764 0.324219
541 2 0.414534 0.38325 0.281743
447 4 0.408623 0.422152 0.303298
542 4 0.420414 0.361329 0.271251
2462 4 0.00992607 0.448246 0.249992
3959 4 0.00626838 0.458827 0.264278
3958 2 0.00372717 0.480701 0.27612
603 4 0.072236 0.419154 0.269484
777 4 0.0614693 0.468535 0.319645
602 4 0.114627 0.434478 0.291139
601 2 0.0934314 0.426816 0.280311
414 4 0.128191 0.446497 0.295562
412 2 0.151847 0.444628 0.303443
775 2 0.085566 0.469759 0.326205
413 4 0.175502 0.442759 0.311323
437 4 0.221531 0.427031 0.275227
1435 2 0.204078 0.468267 0.294934
1436 4 0.190034 0.455049 0.310847
1437 4 0.218122 0.481485 0.279021
1557 4 0.183659 0.454674 0.328761
712 2 0.394873 0.477512 0.292716
713 4 0.392815 0.453151 0.287473
445 2 0.424238 0.42489 0.322633
316 2 0.0549863 0.0606202 0.348743
318 4 0.0677994 0.0521564 0.368475
1602 4 0.0658553 0.0387537 0.383444
2756 4 0.0254238 0.0564926 0.355812
1600 2 0.0742355 0.015301 0.385662
731 4 0.118531 0.0299177 0.327751
730 2 0.133648 0.0464075 0.338919
732 4 0.148765 0.0628974 0.350088
605 4 0.16053 0.0770286 0.340387
1699 2 0.171777 0.00109999 0.361245
1701 4 0.186341 0.014539 0.376491
439 2 0.228737 0.0768656 0.378349
440 4 0.215373 0.0760853 0.357231
441 4 0.2421 0.0776459 0.399468
1670 4 0.359007 0.0198396 0.374593
1669 2 0.363942 0.042202 0.364556
1671 4 0.368877 0.0645645 0.354519
1427 4 0.389604 0.0671763 0.36174
1426 2 0.411742 0.0702641 0.372944
1518 4 0.384156 0.0645659 0.342397
699 4 0.382673 0.0829017 0.343778
1580 4 0.470466 0.0241316 0.378144
1579 2 0.459348 0.0418069 0.391898
1581 4 0.44823 0.0594822 0.405651
257 4 0.453915 0.0767483 0.41336
1428 4 0.433881 0.0733519 0.384147
399 4 0.119465 0.127888 0.379651
398 4 0.0906182 0.167294 0.368889
397 2 0.105041 0.147591 0.37427
687 4 0.178112 0.120721 0.407071
604 2 0.176409 0.093134 0.351047
606 4 0.192288 0.109239 0.361708
467 4 0.244906 0.165299 0.337039
466 2 0.256521 0.143244 0.338998
468 4 0.268135 0.121188 0.340957
726 4 0.275674 0.12429 0.358479
725 4 0.313117 0.100107 0.38115
724 2 0.294395 0.112199 0.369814
698 4 0.345326 0.112801 0.358335
697 2 0.363999 0.0978514 0.351056
516 4 0.456113 0.0778283 0.394227
514 2 0.466907 0.0998163 0.389208
515 4 0.477701 0.121804 0.384189
451 2 0.466988 0.154478 0.353863
453 4 0.474689 0.154971 0.377646
472 2 0.200698 0.173084 0.333232
473 4 0.223993 0.16553 0.338282
276 4 0.235555 0.17554 0.351287
274 2 0.2395 0.194162 0.367499
375 4 0.246995 0.200791 0.402028
275 4 0.243444 0.212784 0.383712
488 4 0.317152 0.247811 0.40552
306 4 0.437254 0.203426 0.371174
304 2 0.458083 0.213903 0.380205
305 4 0.478912 0.22438 0.389236
420 4 0.427533 0.209645 0.355236
270 4 0.497548 0.233879 0.391477
2928 4 0.99586 0.303241 0.338113
616 2 0.076463 0.298016 0.387328
617 4 0.0823638 0.277058 0.39962
618 4 0.0705622 0.318975 0.375036
2926 2 0.995397 0.326359 0.347627
678 4 0.160473 0.287931 0.34971
345 4 0.187371 0.298975 0.334755
402 4 0.175849 0.299197 0.351518
401 4 0.201031 0.294736 0.394491
400 2 0.18844 0.296967 0.373005
487 2 0.312812 0.259526 0.383861
489 4 0.308473 0.271242 0.362203
376 2 0.277736 0.319635 0.391301
377 4 0.292488 0.32981 0.373865
509 4 0.264113 0.289507 0.416196
378 4 0.262984 0.30946 0.408738
434 4 0.358712 0.331763 0.354237
2924 4 0.502865 0.317439 0.416548
548 4 0.0403292 0.401056 0.352092
547 2 0.025414 0.381542 0.356776
549 4 0.0104988 0.362029 0.361461
681 4 0.00451602 0.349435 0.375675
679 2 0.0195283 0.343474 0.394761
2927 4 0.994934 0.349477 0.357142
408 4 0.0805171 0.378375 0.345725
406 2 0.0808608 0.35568 0.356213
407 4 0.0812045 0.332986 0.366702
669 4 0.241903 0.386866 0.395613
636 4 0.233871 0.397395 0.411559
433 2 0.335469 0.33464 0.362992
435 4 0.312226 0.337518 0.371747
667 2 0.265004 0.396428 0.395947
668 4 0.288104 0.405989 0.396281
614 4 0.358912 0.39459 0.337919
588 4 0.371723 0.414686 0.384433
586 2 0.389394 0.397712 0.389411
1715 4 0.350391 0.422939 0.385504
1714 2 0.348148 0.421221 0.410347
587 4 0.407066 0.380738 0.394389
776 4 0.109663 0.470983 0.332764
499 2 0.131167 0.454353 0.358375
500 4 0.150819 0.454939 0.373823
501 4 0.111515 0.453766 0.342927
1555 2 0.191121 0.43927 0.346988
1556 4 0.198583 0.423866 0.365215
593 4 0.364675 0.435561 0.379919
592 2 0.386009 0.446817 0.373338
594 4 0.407343 0.458074 0.366757
118 3 0.492098 0.445489 0.336862
446 4 0.439854 0.427629 0.341968
119 3 0.483163 0.438065 0.373048
117 3 0.46408 0.464035 0.353707
120 3 0.459869 0.427927 0.345258
116 1 0.474754 0.443715 0.352173
3989 4 0.494877 0.427918 0.384328
2586 4 0.007454 0.0682053 0.472585
368 4 0.075286 0.0772835 0.42747
720 4 0.0221671 0.0813576 0.466003
367 2 0.0994585 0.0829394 0.430449
843 4 0.329291 0.000782606 0.482444
1816 2 0.261477 0.00626391 0.470494
961 2 0.291068 0.0663095 0.463535
962 4 0.268228 0.0625504 0.47299
963 4 0.313908 0.0700686 0.454081
1817 4 0.25225 0.023512 0.486067
841 2 0.350816 0.00241676 0.49506
1216 2 0.388327 0.0413059 0.496071
1218 4 0.394403 0.0599973 0.480614
3487 2 0.490315 0.0367273 0.481021
256 2 0.441592 0.0790449 0.434993
258 4 0.429268 0.0813415 0.456627
458 4 0.0505094 0.134831 0.458228
718 2 0.027586 0.104635 0.458655
719 4 0.0330049 0.127912 0.451307
457 2 0.042391 0.158475 0.457745
369 4 0.123631 0.0885953 0.433429
260 4 0.093835 0.156396 0.464326
685 2 0.1742 0.119707 0.431745
686 4 0.170287 0.118693 0.45642
1152 4 0.185046 0.125122 0.467766
1150 2 0.193961 0.12266 0.490996
321 4 0.246159 0.131449 0.471289
432 4 0.316204 0.085475 0.439945
319 2 0.269032 0.140492 0.475787
320 4 0.291905 0.149535 0.480284
430 2 0.337287 0.0983831 0.43619
431 4 0.358369 0.111291 0.432435
425 4 0.364261 0.0892807 0.455729
424 2 0.388909 0.0903201 0.459801
426 4 0.413557 0.0913596 0.463874
459 4 0.0342726 0.182119 0.457262
348 4 0.995544 0.240901 0.403733
259 2 0.111538 0.173053 0.470186
261 4 0.12924 0.18971 0.476047
1035 4 0.146412 0.197627 0.481632
1033 2 0.163246 0.214866 0.48831
1034 4 0.180081 0.232105 0.494987
373 2 0.256524 0.212745 0.421815
411 4 0.299129 0.168425 0.475727
374 4 0.266053 0.224698 0.441601
409 2 0.306542 0.183465 0.494275
650 4 0.267995 0.239372 0.453381
649 2 0.273415 0.241262 0.477717
715 2 0.327073 0.242315 0.44929
717 4 0.321138 0.250388 0.426382
651 4 0.278834 0.243151 0.502053
510 4 0.267129 0.242594 0.433247
716 4 0.333008 0.234241 0.472198
575 4 0.382466 0.218078 0.46675
574 2 0.370204 0.204234 0.483577
266 4 0.384498 0.237187 0.458281
265 2 0.402044 0.248887 0.471713
585 4 0.445404 0.248596 0.463749
346 2 0.00612078 0.25128 0.423872
347 4 0.016698 0.26166 0.444011
327 4 0.124867 0.314521 0.474035
325 2 0.139682 0.307839 0.493037
508 2 0.265621 0.266051 0.424722
267 4 0.41959 0.260587 0.485145
560 4 0.456147 0.305792 0.480903
584 4 0.460107 0.287916 0.490924
583 2 0.452755 0.268256 0.477337
559 2 0.464005 0.327365 0.490804
2846 4 0.9984 0.368846 0.473438
680 4 0.0345406 0.337512 0.413847
2847 4 0.0402503 0.352951 0.495722
2845 2 0.019325 0.360899 0.48458
503 4 0.205191 0.331823 0.4236
635 4 0.186932 0.403892 0.427536
634 2 0.210401 0.400644 0.419548
502 2 0.219326 0.347489 0.437015
504 4 0.23346 0.363156 0.45043
773 4 0.218313 0.370969 0.462353
772 2 0.228241 0.373224 0.48519
336 4 0.329252 0.359963 0.431946
334 2 0.341677 0.367411 0.452325
335 4 0.354102 0.374858 0.472705
240 4 0.344909 0.383719 0.488685
1011 4 0.489176 0.357406 0.498082
751 2 0.48109 0.385498 0.468071
752 4 0.48139 0.372409 0.489373
753 4 0.480791 0.398586 0.446768
561 4 0.471863 0.348938 0.500705
926 4 0.46876 0.36777 0.502921
382 2 0.0691197 0.440183 0.489534
384 4 0.0481208 0.431087 0.479459
2 3 0.32229 0.455782 0.464556
1 1 0.343919 0.456295 0.456739
1586 4 0.341985 0.487107 0.424968
4 3 0.347706 0.437341 0.443901
3 3 0.35843 0.456631 0.474842
1716 4 0.345905 0.419504 0.435191
5 3 0.346873 0.474983 0.444064
663 4 0.418939 0.483637 0.500392
661 2 0.443935 0.483579 0.499777
662 4 0.468931 0.483522 0.499161
1059 4 0.069814 0.0467345 0.575664
939 4 0.0928337 0.0436459 0.530458
1128 4 0.0953354 0.0236211 0.535348
937 2 0.0913771 0.0682677 0.53456
1126 2 0.0931383 0.998831 0.532937
2430 4 0.178063 0.036721 0.576071
1181 4 0.266622 0.0887679 0.520263
89 3 0.394221 0.0180108 0.529274
842 4 0.372342 0.00405091 0.507675
1217 4 0.382252 0.0226144 0.511527
640 2 0.461446 0.0620579 0.526449
642 4 0.466518 0.0765901 0.546153
641 4 0.456373 0.0475257 0.506744
3488 4 0.469483 0.0398419 0.494493
1061 4 0.453089 0.0302281 0.491142
1060 2 0.442108 0.0113937 0.503384
938 4 0.0899205 0.0928895 0.538662
1154 4 0.105171 0.155864 0.578478
1180 2 0.244691 0.0930223 0.531493
1031 4 0.218178 0.0910034 0.561684
1182 4 0.22276 0.0972767 0.542723
1151 4 0.202876 0.120199 0.514226
877 2 0.0281238 0.188514 0.527006
1272 4 0.0691698 0.177613 0.539164
879 4 0.051429 0.186856 0.535911
878 4 0.00481872 0.190173 0.518101
1270 2 0.0838701 0.175676 0.559297
1271 4 0.0985703 0.173738 0.57943
695 4 0.164628 0.23842 0.508609
1220 4 0.200818 0.185227 0.549048
1219 2 0.215849 0.203211 0.54034
1221 4 0.230881 0.221194 0.531632
791 4 0.314684 0.227894 0.524562
410 4 0.313956 0.198505 0.512822
576 4 0.357942 0.190389 0.500404
1136 4 0.0854742 0.305188 0.529574
1135 2 0.0971164 0.314969 0.549423
326 4 0.154496 0.301157 0.512038
696 4 0.159447 0.285484 0.524698
694 2 0.162037 0.261952 0.516654
1137 4 0.108759 0.324751 0.569271
8 3 0.16632 0.290515 0.542682
9 3 0.165918 0.316625 0.515068
6 1 0.175311 0.310637 0.535422
10 3 0.197906 0.308733 0.533294
7 3 0.170508 0.326948 0.550915
711 4 0.216827 0.314688 0.535374
790 2 0.318328 0.251584 0.531683
804 4 0.326928 0.283679 0.556674
792 4 0.321973 0.275273 0.538804
802 2 0.31454 0.292288 0.576614
812 4 0.338788 0.288473 0.543531
811 2 0.362102 0.297076 0.546288
813 4 0.385416 0.30568 0.549045
873 4 0.401492 0.291493 0.54464
871 2 0.410664 0.281327 0.523719
872 4 0.419836 0.27116 0.502797
897 4 0.152246 0.405466 0.561867
895 2 0.139345 0.396435 0.581289
1160 4 0.151556 0.419076 0.546666
993 4 0.125176 0.328949 0.578815
1259 4 0.176299 0.343859 0.558558
709 2 0.223521 0.336984 0.52625
710 4 0.230216 0.35928 0.517126
1159 2 0.175043 0.419442 0.538098
774 4 0.238169 0.375478 0.508027
238 2 0.341901 0.403209 0.504056
925 2 0.462885 0.382906 0.521936
927 4 0.45701 0.398041 0.540951
383 4 0.0901187 0.449279 0.499608
1161 4 0.19853 0.419807 0.529529
1171 2 0.238893 0.438431 0.536442
1173 4 0.219765 0.423661 0.53003
1188 4 0.223086 0.490135 0.515271
1186 2 0.242588 0.494399 0.530327
1172 4 0.258022 0.453201 0.542854
882 4 0.32675 0.449254 0.521614
239 4 0.338894 0.422699 0.519427
880 2 0.350667 0.454822 0.52632
1000 2 0.406251 0.468144 0.550657
1001 4 0.385297 0.474857 0.538781
881 4 0.374584 0.460391 0.531026
1002 4 0.427205 0.461431 0.562533
1267 2 0.462379 0.466876 0.558461
1269 4 0.47318 0.444371 0.557035
4085 4 0.485931 0.486776 0.508567
1268 4 0.451577 0.489381 0.559887
2319 4 0.0542101 0.0353348 0.631176
2317 2 0.060973 0.011376 0.628848
2428 2 0.155861 0.0457457 0.583199
1057 2 0.0902217 0.0482288 0.590034
1058 4 0.110629 0.0497232 0.604403
2429 4 0.13366 0.0547704 0.590328
944 4 0.124791 0.0645698 0.606849
824 4 0.13056 0.0453533 0.607145
823 2 0.126858 0.0258138 0.6223
943 2 0.126568 0.0789219 0.627246
825 4 0.123156 0.00627434 0.637455
951 4 0.300845 0.037862 0.657323
1092 4 0.316376 0.028654 0.6492
949 2 0.276955 0.043357 0.662249
950 4 0.253065 0.0488519 0.667175
1090 2 0.340439 0.0271469 0.642576
1091 4 0.364502 0.0256398 0.635952
2283 4 0.383781 0.0240449 0.635613
2281 2 0.404632 0.0141807 0.625964
3007 2 0.486376 0.0593064 0.60557
3009 4 0.47204 0.0797494 0.604254
1082 4 0.0500974 0.155203 0.619171
1081 2 0.0693984 0.152135 0.634767
1153 2 0.11317 0.146449 0.600216
1155 4 0.12117 0.137034 0.621954
945 4 0.128346 0.093274 0.647643
1083 4 0.0886994 0.149068 0.650363
909 4 0.106573 0.148172 0.658992
1030 2 0.225154 0.086702 0.585306
1032 4 0.23213 0.0824005 0.608928
1282 2 0.229727 0.119994 0.630158
1283 4 0.230656 0.100365 0.614697
1284 4 0.228799 0.139622 0.645618
1211 4 0.235795 0.150629 0.631367
900 4 0.328662 0.169452 0.62019
809 4 0.475136 0.08659 0.622799
808 2 0.457876 0.0919962 0.640063
810 4 0.440617 0.0974024 0.657328
1208 4 0.0877895 0.24148 0.65286
1210 2 0.245071 0.171259 0.642021
1212 4 0.254347 0.19189 0.652675
886 2 0.343637 0.247772 0.621993
898 2 0.340059 0.191115 0.615091
887 4 0.35346 0.232143 0.605128
899 4 0.351456 0.212778 0.609992
1194 4 0.367468 0.222041 0.617652
1192 2 0.391043 0.21593 0.61199
830 4 0.365281 0.204103 0.644192
1193 4 0.414619 0.20982 0.606329
1025 4 0.437672 0.239852 0.631218
1024 2 0.460629 0.248656 0.63576
982 2 0.999709 0.327066 0.606254
857 4 0.191229 0.310996 0.650441
856 2 0.202254 0.318064 0.629141
803 4 0.302153 0.300898 0.596554
1239 4 0.299529 0.295786 0.615895
1237 2 0.302976 0.284414 0.637894
1238 4 0.306423 0.273042 0.659894
888 4 0.333814 0.263401 0.638858
1026 4 0.483586 0.257459 0.640302
954 4 0.486524 0.27684 0.639067
952 2 0.479498 0.299394 0.630875
953 4 0.472472 0.321949 0.622684
983 4 0.0159926 0.345907 0.604002
1039 2 0.082478 0.343383 0.593435
1040 4 0.0602795 0.350035 0.602824
3275 4 0.00903095 0.358585 0.618228
3274 2 0.00758248 0.372759 0.638774
3276 4 0.006134 0.386933 0.659321
1041 4 0.104676 0.336731 0.584046
991 2 0.137737 0.338206 0.598352
896 4 0.126445 0.387404 0.60071
992 4 0.150297 0.347463 0.617889
1258 2 0.191215 0.343508 0.578622
858 4 0.213279 0.325131 0.607841
1260 4 0.20613 0.343158 0.598687
797 4 0.223162 0.344161 0.611136
796 2 0.240762 0.35322 0.626413
1191 4 0.214448 0.406136 0.618763
1029 4 0.259464 0.368953 0.66204
798 4 0.258361 0.362279 0.641689
1065 4 0.275653 0.356101 0.656104
1063 2 0.297147 0.360377 0.668141
1189 2 0.192775 0.418532 0.617422
1190 4 0.171102 0.430928 0.61608
1176 4 0.245414 0.454044 0.662728
928 2 0.325656 0.489817 0.607141
929 4 0.336491 0.468584 0.599593
1185 4 0.0782545 0.996499 0.689439
2989 2 0.0146617 0.0639805 0.732207
2991 4 0.0325422 0.0579592 0.715799
1004 4 0.309031 0.0711215 0.696302
1003 2 0.325423 0.0527733 0.700755
1005 4 0.341815 0.0344252 0.705208
43 3 0.407019 0.0667683 0.692559
2321 4 0.481318 0.0237333 0.705022
2320 2 0.463814 0.031745 0.720977
2322 4 0.446309 0.0397566 0.736933
42 3 0.436279 0.0827928 0.709871
850 2 0.0538875 0.122799 0.710369
851 4 0.0337023 0.123249 0.725118
1075 2 0.997394 0.132483 0.717503
1077 4 0.0154762 0.128408 0.734284
864 4 0.0273532 0.11357 0.740524
852 4 0.0740728 0.12235 0.69562
907 2 0.125525 0.139901 0.67305
908 4 0.144477 0.131631 0.687107
1227 4 0.164906 0.132562 0.688077
1225 2 0.170879 0.129679 0.712185
1226 4 0.176851 0.126796 0.736293
1141 2 0.401785 0.123475 0.728779
44 3 0.407369 0.104219 0.699018
1143 4 0.38627 0.138933 0.740841
1142 4 0.4173 0.108017 0.716716
45 3 0.430603 0.089114 0.673529
846 4 0.433557 0.0976349 0.722837
844 2 0.45183 0.0892963 0.737729
41 1 0.42032 0.0857536 0.69357
1073 4 0.0838491 0.228429 0.727385
976 2 0.231099 0.237191 0.745846
977 4 0.24965 0.232264 0.729823
918 4 0.262281 0.229532 0.71562
916 2 0.286716 0.231669 0.710767
917 4 0.311151 0.233806 0.705913
829 2 0.371389 0.213916 0.666364
831 4 0.377498 0.223728 0.688536
1263 4 0.417418 0.201549 0.699656
1261 2 0.437421 0.216216 0.696502
1262 4 0.457423 0.230883 0.693348
3355 2 0.490457 0.221137 0.694038
3356 4 0.47088 0.226948 0.679611
3123 4 0.466565 0.247436 0.702696
894 4 0.0581725 0.307972 0.718835
892 2 0.0753641 0.296894 0.733219
1072 2 0.0924714 0.248855 0.738944
1209 4 0.0911036 0.259797 0.699273
1074 4 0.101094 0.269281 0.750503
1207 2 0.0894465 0.250639 0.676067
806 4 0.325648 0.274332 0.669019
805 2 0.346649 0.28732 0.672947
1008 4 0.387542 0.303062 0.671306
807 4 0.367651 0.300307 0.676876
1006 2 0.394875 0.326666 0.675083
1166 4 0.421608 0.302872 0.72648
3122 4 0.459433 0.295994 0.693102
3121 2 0.462999 0.271715 0.697899
815 4 0.0839239 0.370533 0.741712
940 2 0.122376 0.375569 0.730212
941 4 0.14562 0.384771 0.730634
942 4 0.0991311 0.366366 0.729789
1067 4 0.15706 0.387997 0.712902
1027 2 0.239334 0.375236 0.675475
1028 4 0.219204 0.38152 0.68891
1066 2 0.17873 0.380276 0.703107
1068 4 0.200401 0.372554 0.693312
1064 4 0.318641 0.364652 0.680179
1007 4 0.402209 0.350269 0.67886
1206 4 0.438827 0.37572 0.711651
1204 2 0.448793 0.378079 0.734461
1280 4 0.0730779 0.453347 0.686019
1279 2 0.0793797 0.458929 0.709562
885 4 0.0772493 0.456099 0.746796
1281 4 0.0856815 0.464512 0.733106
2015 4 0.131633 0.48712 0.739073
1079 4 0.149117 0.484413 0.752423
2026 2 0.227757 0.497939 0.732373
1175 4 0.231253 0.429088 0.703684
1174 2 0.238333 0.441566 0.683206
2028 4 0.207585 0.486556 0.741791
1228 2 0.367571 0.452659 0.731699
1230 4 0.363515 0.429388 0.7235
1229 4 0.371628 0.475929 0.739898
1249 2 0.460085 0.478464 0.711497
1251 4 0.45155 0.455828 0.717816
1201 2 0.0796164 0.083408 0.802713
1202 4 0.098387 0.0672241 0.806019
975 4 0.288824 0.00813581 0.819217
1255 2 0.285326 0.0478768 0.801263
1256 4 0.286463 0.0721936 0.795556
1257 4 0.284188 0.02356 0.806971
1112 4 0.411025 0.0350543 0.796243
3204 4 0.472847 0.0149072 0.783708
1113 4 0.440466 0.0341901 0.75583
3202 2 0.488963 0.0289862 0.770776
1111 2 0.425746 0.0346222 0.776037
148 3 0.489856 0.0833025 0.748185
3084 4 0.995823 0.0862127 0.762392
2990 4 0.996781 0.0700018 0.748614
1107 4 0.0641615 0.158641 0.773631
1203 4 0.0608457 0.0995919 0.799408
863 4 0.0576581 0.105589 0.779493
862 2 0.0425056 0.10958 0.760008
1105 2 0.0407032 0.16614 0.769313
1148 4 0.173898 0.117906 0.754404
1149 4 0.208873 0.11181 0.789621
1147 2 0.191386 0.114858 0.772012
839 4 0.281882 0.0821673 0.812256
838 2 0.262933 0.0932645 0.824213
960 4 0.318378 0.120385 0.776859
958 2 0.297306 0.128215 0.787806
959 4 0.276234 0.136046 0.798752
1298 4 0.376897 0.150431 0.753291
1086 4 0.365805 0.127812 0.797626
1084 2 0.384115 0.11538 0.80926
1085 4 0.402426 0.102947 0.820893
845 4 0.470103 0.0809576 0.75262
3268 2 0.493994 0.16505 0.777427
3479 4 0.487981 0.127364 0.794606
3478 2 0.486167 0.106603 0.78079
3269 4 0.494507 0.143739 0.790496
3480 4 0.484353 0.0858423 0.766974
1106 4 0.017245 0.173639 0.764994