ITEM: TIMESTEP
520000
ITEM: NUMBER OF ATOMS
4590
ITEM: BOX BOUNDS pp pp pp
-9.9985700000000008e+00 9.9985700000000008e+00
-9.9985700000000008e+00 9.9985700000000008e+00
-9.9985700000000008e+00 9.9985700000000008e+00
ITEM: ATOMS id type xs ys zs
463 2 0.0485561 0.0386508 0.0223555
464 4 0.058962 0.0354806 0.0448688
1667 4 0.0792146 0.0357825 0.0488679
1666 2 0.0861578 0.0156051 0.0619005
533 4 0.183539 0.0569542 0.0341029
532 2 0.192841 0.0789865 0.0268071
490 2 0.2923 0.0398728 0.0104475
491 4 0.29057 0.0178389 0.0221392
297 4 0.394522 0.0578925 0.0627826
295 2 0.384615 0.077447 0.0748092
746 4 0.41203 0.050312 0.0592289
745 2 0.435855 0.0484436 0.0518766
747 4 0.45968 0.0465751 0.0445244
2975 4 0.476517 0.0425348 0.0363905
1826 4 0.468501 0.0264782 0.0445958
1825 2 0.47493 0.00244521 0.0420941
590 4 0.000268855 0.0836438 0.057822
589 2 0.0207632 0.096827 0.0522215
591 4 0.0412575 0.11001 0.0466209
701 4 0.11424 0.114701 0.0555581
700 2 0.101367 0.102148 0.0729332
423 4 0.176425 0.159786 0.0292339
534 4 0.202143 0.101019 0.0195113
421 2 0.182032 0.136588 0.0217775
422 4 0.187639 0.113391 0.0143211
360 4 0.267861 0.122024 0.0267482
358 2 0.262434 0.103958 0.0103369
664 2 0.325941 0.149747 0.0157676
665 4 0.338729 0.143073 0.0361905
557 4 0.3576 0.146762 0.0414665
556 2 0.36204 0.130431 0.0598719
558 4 0.36648 0.1141 0.0782774
629 4 0.400932 0.13523 0.0745912
770 4 0.465329 0.163682 0.0598559
553 2 0.0999471 0.20047 0.0123775
554 4 0.097161 0.176772 0.0198474
555 4 0.102733 0.224169 0.00490754
324 4 0.367279 0.251201 0.0183616
771 4 0.434456 0.179661 0.0239083
769 2 0.449893 0.171671 0.0418821
518 4 0.459228 0.24292 0.0678854
294 4 0.103268 0.305478 0.0376749
292 2 0.120081 0.300198 0.019938
293 4 0.136895 0.294918 0.00220101
837 4 0.142125 0.275364 0.000937317
483 4 0.221192 0.285094 0.0383126
481 2 0.240959 0.274529 0.0493948
572 4 0.321296 0.253632 0.0668641
357 4 0.328923 0.257501 0.0133033
573 4 0.274795 0.256878 0.0487595
571 2 0.298045 0.255255 0.0578118
482 4 0.260726 0.263964 0.060477
322 2 0.387014 0.255595 0.0330721
323 4 0.406749 0.259989 0.0477825
287 4 0.212715 0.378081 0.00927512
286 2 0.196236 0.360104 0.00375781
956 4 0.316565 0.352916 0.00751646
955 2 0.340803 0.357067 0.012044
957 4 0.36504 0.361217 0.0165715
672 4 0.445252 0.350059 0.0270232
671 4 0.450844 0.374073 0.0705291
670 2 0.448048 0.362066 0.0487762
551 4 0.0646371 0.468405 0.00853502
550 2 0.0866914 0.458654 0.00192448
241 2 0.140146 0.49427 0.0805621
245 4 0.200586 0.438991 0.999028
252 4 0.275638 0.419973 0.0243395
1779 4 0.263871 0.479401 0.0379882
251 4 0.310825 0.431596 0.0579181
250 2 0.293232 0.425784 0.0411288
609 4 0.317207 0.449435 0.0635119
1777 2 0.28116 0.493144 0.0262673
607 2 0.34088 0.451362 0.0713242
608 4 0.364553 0.453289 0.0791364
19 3 0.0761975 0.0522753 0.120609
18 3 0.112118 0.0631181 0.126658
16 1 0.0921169 0.0685814 0.11624
450 4 0.131666 0.0665233 0.126189
448 2 0.13925 0.0430075 0.13002
449 4 0.146834 0.0194916 0.13385
20 3 0.0953243 0.0704876 0.0937741
236 4 0.139854 0.0825111 0.13533
1760 4 0.475668 0.00793491 0.14434
702 4 0.0884948 0.0895946 0.0903083
17 3 0.0846477 0.0886847 0.12456
235 2 0.143774 0.104031 0.123219
237 4 0.147694 0.125552 0.111107
477 4 0.153085 0.139807 0.0984522
475 2 0.144183 0.163036 0.100972
578 4 0.141166 0.0871841 0.154711
566 4 0.198957 0.115269 0.0942602
565 2 0.211413 0.121472 0.115034
567 4 0.22387 0.127675 0.135808
580 2 0.238492 0.129178 0.165482
582 4 0.250915 0.14864 0.155885
296 4 0.374707 0.0970015 0.0868358
628 2 0.411636 0.147902 0.0933
311 4 0.347765 0.145398 0.164323
2468 4 0.483845 0.106 0.0852551
2467 2 0.49327 0.0856558 0.09632
630 4 0.42234 0.160574 0.112009
380 4 0.0016781 0.183846 0.155973
339 4 0.0933062 0.215239 0.0994454
476 4 0.135281 0.186264 0.103492
337 2 0.112565 0.230143 0.105114
338 4 0.131825 0.245047 0.110783
506 4 0.150535 0.247305 0.104598
738 4 0.208877 0.186646 0.166025
352 2 0.257572 0.234874 0.135508
354 4 0.264549 0.214385 0.148026
461 4 0.329792 0.215274 0.164001
283 2 0.298902 0.204134 0.163939
284 4 0.275078 0.211679 0.164776
285 4 0.322725 0.19659 0.163103
254 4 0.412955 0.219641 0.0910143
460 2 0.346213 0.226795 0.149075
255 4 0.374088 0.23577 0.11803
462 4 0.362635 0.238316 0.134149
253 2 0.393522 0.227705 0.104522
517 2 0.459844 0.240732 0.0927854
519 4 0.460461 0.238543 0.117685
528 4 0.461455 0.24325 0.136626
703 2 0.0305927 0.327408 0.147191
704 4 0.0179324 0.311532 0.1326
456 4 0.122505 0.317814 0.116649
505 2 0.169688 0.260201 0.0950038
507 4 0.188842 0.273097 0.08541
612 4 0.231462 0.325613 0.148017
353 4 0.250594 0.255362 0.12299
755 4 0.26218 0.274044 0.123633
754 2 0.285424 0.282328 0.127669
756 4 0.308668 0.290611 0.131705
610 2 0.256296 0.327845 0.149878
740 4 0.311984 0.280018 0.113164
611 4 0.28113 0.330077 0.15174
739 2 0.330023 0.29083 0.0996412
741 4 0.348063 0.301642 0.0861185
622 2 0.404778 0.315283 0.158354
624 4 0.406104 0.290793 0.153492
526 2 0.479808 0.259488 0.141591
705 4 0.043253 0.343283 0.161781
455 4 0.134289 0.36035 0.0931419
454 2 0.128397 0.339082 0.104896
415 2 0.120308 0.401678 0.159425
623 4 0.403451 0.339773 0.163216
387 4 0.385255 0.384501 0.144992
385 2 0.365944 0.373543 0.133494
386 4 0.346634 0.362585 0.121996
13 3 0.401849 0.377268 0.155907
597 4 0.483568 0.342307 0.158936
15 3 0.436326 0.365736 0.146107
11 1 0.421937 0.368514 0.163539
1788 4 0.0393618 0.48849 0.104634
416 4 0.114586 0.416918 0.140447
243 4 0.153251 0.482878 0.0985523
1438 2 0.196143 0.499408 0.0999008
639 4 0.239877 0.432677 0.148704
1440 4 0.172052 0.493429 0.096884
627 4 0.24152 0.444332 0.133582
626 4 0.263772 0.463743 0.0932237
625 2 0.252646 0.454037 0.113403
1574 4 0.358233 0.492209 0.150726
658 2 0.388052 0.494158 0.131936
660 4 0.365462 0.483589 0.133724
495 4 0.418052 0.45207 0.11774
228 4 0.492469 0.438591 0.085064
493 2 0.433011 0.435657 0.129231
494 4 0.44797 0.419244 0.140721
1539 4 0.14448 0.004765 0.207801
673 2 0.116443 0.0307358 0.219701
674 4 0.126219 0.0506553 0.208177
675 4 0.106667 0.0108162 0.231226
579 4 0.120276 0.0621911 0.192654
577 2 0.130721 0.0746876 0.173683
693 4 0.196832 0.0720595 0.218447
653 4 0.268454 0.06269 0.164849
21 1 0.358003 0.0604883 0.204682
24 3 0.358934 0.0422172 0.218955
25 3 0.377238 0.0618734 0.192568
759 4 0.39567 0.0688503 0.187408
22 3 0.340202 0.0578349 0.190356
23 3 0.35494 0.0799577 0.216928
757 2 0.416653 0.0805404 0.194354
511 2 0.0384169 0.166112 0.217611
513 4 0.0137274 0.163819 0.22083
531 4 0.014351 0.160326 0.239243
544 2 0.155079 0.141061 0.220788
545 4 0.135947 0.157058 0.218993
652 2 0.248847 0.0766206 0.17168
691 2 0.203163 0.0859895 0.198672
692 4 0.209494 0.0999195 0.178897
654 4 0.229239 0.0905513 0.178511
581 4 0.22607 0.109716 0.175079
546 4 0.174211 0.125064 0.222583
722 4 0.18007 0.116842 0.240789
28 3 0.322498 0.166239 0.227106
310 2 0.366206 0.160826 0.171188
758 4 0.437636 0.0922304 0.201301
512 4 0.0631063 0.168404 0.214393
393 4 0.0676593 0.174712 0.23319
363 4 0.0607462 0.23105 0.193654
391 2 0.0798608 0.195143 0.240863
361 2 0.0562951 0.242382 0.215493
392 4 0.0920623 0.215575 0.248535
372 4 0.132989 0.227936 0.22354
370 2 0.155954 0.234788 0.21641
736 2 0.231833 0.19629 0.163745
737 4 0.254789 0.205934 0.161465
371 4 0.178919 0.241639 0.209279
26 1 0.326882 0.172531 0.249005
764 4 0.324216 0.209392 0.182494
763 2 0.334547 0.213357 0.204915
312 4 0.384646 0.176254 0.178052
765 4 0.344878 0.217321 0.227337
27 3 0.347446 0.182808 0.249815
362 4 0.051844 0.253715 0.237332
748 2 0.0765165 0.290186 0.249358
750 4 0.0650718 0.269378 0.241534
298 2 0.164431 0.326883 0.243334
648 4 0.0868245 0.336337 0.212915
299 4 0.175191 0.309615 0.228802
536 4 0.240619 0.326749 0.243168
279 4 0.255236 0.267463 0.212385
278 4 0.248902 0.310031 0.237851
277 2 0.252069 0.288747 0.225118
647 4 0.0599183 0.342239 0.171179
646 2 0.0733714 0.339288 0.192047
263 4 0.0171573 0.378204 0.212063
365 4 0.00270974 0.349166 0.221741
417 4 0.126031 0.386437 0.178403
535 2 0.223963 0.33883 0.228961
537 4 0.207307 0.35091 0.214755
302 4 0.322888 0.398459 0.174661
727 2 0.334493 0.337351 0.25045
728 4 0.357821 0.338634 0.241541
541 2 0.408757 0.350327 0.244995
14 3 0.431279 0.38272 0.179329
12 3 0.417902 0.348107 0.173359
645 4 0.446676 0.387504 0.191692
542 4 0.422888 0.334289 0.232024
643 2 0.452081 0.40958 0.202114
291 4 0.168524 0.416965 0.191433
289 2 0.187035 0.430761 0.201036
290 4 0.205546 0.444556 0.210639
637 2 0.243082 0.441977 0.171692
638 4 0.246286 0.451277 0.194679
301 2 0.30935 0.419424 0.17619
768 4 0.260273 0.449748 0.210361
303 4 0.295812 0.44039 0.177719
766 2 0.261708 0.457064 0.234227
106 1 0.494034 0.443454 0.216913
644 4 0.457486 0.431656 0.212535
110 3 0.471834 0.446895 0.213175
108 3 0.496941 0.425602 0.231448
234 4 0.0301465 0.0281504 0.283277
232 2 0.00634706 0.0232122 0.277413
1464 4 0.157286 0.0336042 0.269179
723 4 0.169013 0.0812148 0.274093
731 4 0.126094 0.0798282 0.331522
1462 2 0.178267 0.03478 0.282727
1463 4 0.199249 0.0359557 0.296276
744 4 0.407866 0.0611144 0.263545
742 2 0.398314 0.080567 0.276016
698 4 0.361724 0.0158269 0.318354
478 2 0.487785 0.0631067 0.290666
479 4 0.468114 0.0635861 0.306094
530 4 0.000981081 0.1349 0.280176
529 2 0.00766606 0.147613 0.259709
721 2 0.174541 0.0990282 0.257441
247 2 0.229586 0.14835 0.306763
248 4 0.228039 0.126025 0.295609
29 3 0.327314 0.1538 0.262694
632 4 0.32635 0.135497 0.270158
351 4 0.405596 0.105625 0.297851
743 4 0.388762 0.10002 0.288488
631 2 0.34199 0.119717 0.281627
633 4 0.357631 0.103936 0.293095
349 2 0.424202 0.11329 0.312691
350 4 0.442808 0.120955 0.327531
249 4 0.231132 0.170674 0.317917
404 4 0.225396 0.192071 0.31999
474 4 0.243573 0.184933 0.329033
403 2 0.211205 0.199649 0.300849
405 4 0.197015 0.207228 0.281708
30 3 0.310933 0.187084 0.25625
707 4 0.356744 0.188679 0.266419
706 2 0.374098 0.195915 0.282901
708 4 0.391453 0.20315 0.299384
418 2 0.455105 0.245893 0.311664
420 4 0.434873 0.237966 0.324034
442 2 0.0667305 0.296444 0.305895
443 4 0.0470008 0.296873 0.321249
749 4 0.0879612 0.310995 0.257181
444 4 0.0864601 0.296014 0.290542
390 4 0.106335 0.297417 0.292002
388 2 0.127645 0.28538 0.297118
389 4 0.148955 0.273343 0.302235
344 4 0.241496 0.306225 0.253343
343 2 0.228473 0.306622 0.274683
676 2 0.192226 0.319124 0.323571
345 4 0.21545 0.307019 0.296024
401 4 0.240369 0.251812 0.331915
496 2 0.313669 0.323098 0.298995
497 4 0.318837 0.32159 0.323412
377 4 0.300784 0.325408 0.329351
498 4 0.308502 0.324607 0.274577
309 4 0.259642 0.314498 0.254181
307 2 0.277989 0.331443 0.255385
419 4 0.475336 0.253821 0.299294
300 4 0.153671 0.344152 0.257866
734 4 0.172003 0.35251 0.258645
677 4 0.183675 0.336191 0.307422
735 4 0.195645 0.38558 0.287768
733 2 0.183824 0.369045 0.273207
308 4 0.296335 0.348388 0.25659
729 4 0.311166 0.336069 0.259359
435 4 0.361948 0.37399 0.324551
613 2 0.369233 0.37222 0.281376
614 4 0.364745 0.377739 0.305346
615 4 0.373721 0.366701 0.257406
543 4 0.394625 0.366365 0.257967
447 4 0.406888 0.379753 0.268702
433 2 0.356631 0.351851 0.334885
445 2 0.421257 0.396703 0.280164
446 4 0.435627 0.413653 0.291626
602 4 0.0578712 0.433923 0.323067
601 2 0.0817744 0.43305 0.315783
548 4 0.0380928 0.435883 0.323084
1758 4 0.115957 0.501298 0.270314
603 4 0.105678 0.432178 0.308499
414 4 0.184435 0.483019 0.313004
438 4 0.22766 0.432362 0.300384
436 2 0.245989 0.441023 0.285747
767 4 0.263143 0.464381 0.258093
437 4 0.264317 0.449683 0.27111
713 4 0.411947 0.482444 0.309479
594 4 0.425008 0.47838 0.323662
714 4 0.429511 0.486616 0.262844
712 2 0.420729 0.48453 0.286161
118 3 0.483316 0.431137 0.307768
116 1 0.477987 0.435442 0.329937
117 3 0.461217 0.451172 0.330634
428 4 0.0821717 0.00714316 0.342265
1773 4 0.0194386 0.000434017 0.395857
317 4 0.0226932 0.0532076 0.338286
316 2 0.0411576 0.0637786 0.35142
318 4 0.059622 0.0743496 0.364554
730 2 0.147393 0.0736824 0.343087
429 4 0.102587 0.0505546 0.356385
427 2 0.0923795 0.0288489 0.349325
1602 4 0.178054 0.00171812 0.375635
732 4 0.168693 0.0675366 0.354652
441 4 0.187575 0.0217965 0.380232
439 2 0.197078 0.0439162 0.386984
440 4 0.206581 0.0660359 0.393736
1701 4 0.242367 0.0141552 0.373517
683 4 0.29956 0.0721704 0.332976
1818 4 0.283068 0.0124065 0.415916
697 2 0.356641 0.0231831 0.341705
699 4 0.351558 0.0305393 0.365055
256 2 0.387119 0.076842 0.41293
398 4 0.0820433 0.142276 0.333472
397 2 0.08682 0.144673 0.357897
399 4 0.0915967 0.14707 0.382323
686 4 0.141478 0.159436 0.413916
606 4 0.216288 0.0849156 0.397153
605 4 0.205792 0.129615 0.37734
600 4 0.198297 0.149144 0.368052
604 2 0.21104 0.107265 0.387246
598 2 0.210357 0.163112 0.351181
682 2 0.307322 0.0936467 0.343159
321 4 0.260958 0.134438 0.404445
684 4 0.315084 0.115123 0.353342
726 4 0.326229 0.111833 0.370139
724 2 0.321344 0.108552 0.39444
468 4 0.331597 0.125736 0.357256
257 4 0.391062 0.0983738 0.400846
466 2 0.340369 0.14914 0.356549
516 4 0.400559 0.112722 0.412244
514 2 0.41071 0.130257 0.397593
515 4 0.420861 0.147791 0.382941
452 4 0.464497 0.146224 0.341667
451 2 0.451841 0.151341 0.362615
453 4 0.439184 0.156459 0.383563
2654 4 0.0289657 0.197194 0.349194
2653 2 0.00693156 0.207721 0.354567
348 4 0.0577056 0.231909 0.400733
599 4 0.222417 0.17708 0.33431
472 2 0.251452 0.202047 0.345471
473 4 0.259331 0.219161 0.361909
276 4 0.269309 0.232343 0.373265
274 2 0.250046 0.24113 0.386566
467 4 0.349141 0.172544 0.355843
717 4 0.348239 0.235502 0.402394
715 2 0.354184 0.212359 0.395028
716 4 0.360129 0.189217 0.387662
488 4 0.338656 0.243006 0.386585
306 4 0.492246 0.19634 0.38204
304 2 0.477275 0.216271 0.380094
305 4 0.462304 0.236202 0.378147
617 4 0.08585 0.258225 0.374873
616 2 0.0932592 0.276903 0.359993
618 4 0.100668 0.29558 0.345112
678 4 0.200776 0.302057 0.33972
402 4 0.201154 0.282093 0.338692
400 2 0.220762 0.266952 0.335304
275 4 0.230784 0.249917 0.399867
487 2 0.329092 0.26372 0.396815
376 2 0.284732 0.318708 0.347312
378 4 0.268679 0.312009 0.365274
489 4 0.319528 0.284433 0.407046
509 4 0.272781 0.323364 0.383218
434 4 0.351313 0.329712 0.345218
268 2 0.46261 0.27963 0.368153
270 4 0.445823 0.272745 0.385356
269 4 0.479397 0.286516 0.350949
560 4 0.479655 0.313078 0.411383
559 2 0.464999 0.333335 0.411372
406 2 0.0853595 0.399819 0.381829
407 4 0.0824126 0.384136 0.401077
408 4 0.0883063 0.415503 0.36258
510 4 0.236524 0.355302 0.396106
503 4 0.220541 0.400264 0.388967
502 2 0.238502 0.411785 0.401999
508 2 0.254653 0.339333 0.389662
561 4 0.450342 0.353592 0.41136
751 2 0.442512 0.384104 0.399168
752 4 0.444348 0.359853 0.393363
753 4 0.440677 0.408355 0.404972
679 2 0.996529 0.427011 0.418189
547 2 0.0357934 0.435834 0.347981
549 4 0.033494 0.435784 0.372879
776 4 0.124567 0.499559 0.341254
499 2 0.130183 0.468004 0.363383
500 4 0.131575 0.456051 0.385301
501 4 0.128792 0.479956 0.341466
412 2 0.190128 0.49156 0.335804
667 2 0.291949 0.436507 0.417024
504 4 0.256464 0.423306 0.415031
668 4 0.315418 0.438843 0.408722
4 3 0.32765 0.454872 0.411679
1556 4 0.264198 0.492791 0.406894
1 1 0.331626 0.468254 0.393145
5 3 0.323822 0.489308 0.396944
3 3 0.321241 0.45921 0.37447
2 3 0.354296 0.469148 0.389344
3989 4 0.495969 0.450283 0.363038
119 3 0.496558 0.443777 0.341074
120 3 0.470786 0.416347 0.340046
587 4 0.446122 0.424825 0.393766
1715 4 0.42389 0.48954 0.403903
592 2 0.426727 0.464862 0.344626
588 4 0.428749 0.469268 0.408722
593 4 0.428446 0.451343 0.36559
586 2 0.437436 0.447046 0.401244
1771 2 0.0264494 0.999309 0.419831
369 4 0.097472 0.0343908 0.444268
367 2 0.113531 0.0511854 0.4535
368 4 0.129591 0.06798 0.462731
340 2 0.149652 0.0132725 0.493283
342 4 0.161788 0.0211452 0.472889
1817 4 0.260435 0.00833703 0.460322
1816 2 0.271751 0.0103718 0.438119
963 4 0.290977 0.0553619 0.496514
432 4 0.290911 0.0671584 0.4806
258 4 0.383176 0.0553103 0.425013
424 2 0.370927 0.0320257 0.455473
425 4 0.371508 0.0132386 0.471962
426 4 0.370346 0.0508129 0.438984
642 4 0.423142 0.0674455 0.49131
720 4 0.0387583 0.0877505 0.435908
458 4 0.0309631 0.142095 0.470408
718 2 0.0320284 0.10525 0.452451
719 4 0.0252984 0.12275 0.468993
457 2 0.0137013 0.159506 0.465502
687 4 0.0977622 0.151269 0.436784
685 2 0.11962 0.155353 0.42535
1151 4 0.168337 0.0889019 0.476052
1150 2 0.178221 0.107921 0.488927
319 2 0.261982 0.154988 0.418652
430 2 0.288863 0.0870156 0.465544
431 4 0.286815 0.106873 0.450489
725 4 0.31646 0.105272 0.418742
346 2 0.0383891 0.229867 0.416478
347 4 0.0190727 0.227825 0.432222
259 2 0.101836 0.174985 0.492908
1035 4 0.124083 0.21106 0.488311
1033 2 0.136398 0.231906 0.494552
261 4 0.11323 0.19528 0.483772
320 4 0.263007 0.175537 0.43286
411 4 0.272956 0.175598 0.449928
409 2 0.280045 0.185128 0.47193
410 4 0.287134 0.194658 0.493932
575 4 0.379888 0.224255 0.459984
574 2 0.386521 0.200444 0.463757
576 4 0.393153 0.176633 0.467529
266 4 0.382576 0.234698 0.442713
325 2 0.151107 0.325242 0.487963
327 4 0.126925 0.330923 0.48511
375 4 0.236576 0.249759 0.418663
373 2 0.231292 0.265548 0.437316
374 4 0.226007 0.281337 0.45597
9 3 0.189092 0.33523 0.49134
326 4 0.175289 0.319561 0.490816
650 4 0.257013 0.308411 0.467629
651 4 0.300176 0.308063 0.442379
649 2 0.278594 0.308237 0.455004
267 4 0.401583 0.280028 0.433512
265 2 0.39208 0.257363 0.438113
584 4 0.496661 0.29796 0.445468
872 4 0.432571 0.308084 0.474906
871 2 0.43422 0.301531 0.49898
384 4 0.095204 0.391596 0.494681
774 4 0.242964 0.402189 0.478883
710 4 0.247879 0.390943 0.49295
709 2 0.237164 0.368559 0.496001
336 4 0.316801 0.40164 0.422601
334 2 0.33352 0.39252 0.438801
772 2 0.250504 0.412776 0.457523
335 4 0.35024 0.3834 0.455002
238 2 0.377929 0.384491 0.486555
240 4 0.35649 0.383002 0.473775
239 4 0.399368 0.38598 0.499335
680 4 0.00606559 0.445172 0.432487
568 2 0.183056 0.499196 0.430702
634 2 0.233696 0.458566 0.430193
570 4 0.204029 0.488094 0.422824
635 4 0.219658 0.479238 0.431087
669 4 0.26848 0.434172 0.425326
636 4 0.247734 0.437894 0.4293
773 4 0.258045 0.423363 0.436163
1126 2 0.0676664 0.0632181 0.549611
1127 4 0.0576737 0.0409448 0.544205
2236 2 0.0681331 0.0068118 0.523407
2238 4 0.06875 0.0247765 0.540787
1128 4 0.077659 0.0854915 0.555017
1059 4 0.0945245 0.0486619 0.575476
939 4 0.0950644 0.0811594 0.546608
341 4 0.137515 0.00539991 0.513676
937 2 0.117569 0.0805313 0.535729
938 4 0.140073 0.0799033 0.524851
2430 4 0.185273 0.0235967 0.569254
2428 2 0.17616 0.00135395 0.562369
962 4 0.270076 0.0108184 0.505442
1181 4 0.267204 0.0752334 0.521132
961 2 0.280527 0.0330902 0.500978
842 4 0.34611 0.0337383 0.54557
841 2 0.344635 0.0175776 0.564591
843 4 0.34316 0.00141682 0.583613
1216 2 0.417359 0.0134481 0.580945
640 2 0.439493 0.0780406 0.50698
1271 4 0.117244 0.157266 0.56181
1154 4 0.123384 0.143688 0.575768
1153 2 0.11985 0.118969 0.574464
1155 4 0.116317 0.094251 0.573159
260 4 0.090442 0.15469 0.502044
1152 4 0.188106 0.12694 0.501801
1220 4 0.206879 0.1549 0.551508
1030 2 0.239933 0.0943932 0.581289
1031 4 0.253118 0.0885459 0.560865
1182 4 0.253632 0.123121 0.525956
1180 2 0.260418 0.0991772 0.523544
900 4 0.3233 0.161626 0.542328
898 2 0.3362 0.148893 0.559552
899 4 0.3491 0.136161 0.576776
641 4 0.455844 0.0886357 0.522651
1198 2 0.00254334 0.171073 0.555446
1200 4 0.0251911 0.177034 0.564206
877 2 0.0464543 0.191861 0.530133
879 4 0.0677386 0.190366 0.543168
878 4 0.0251699 0.193356 0.517097
1270 2 0.10228 0.175537 0.553597
1272 4 0.0873163 0.193807 0.545384
1034 4 0.148714 0.252752 0.500793
1221 4 0.220819 0.202525 0.545326
856 2 0.226994 0.238622 0.54973
858 4 0.213634 0.243649 0.570258
1219 2 0.213849 0.178712 0.548417
857 4 0.240354 0.233596 0.529201
791 4 0.298017 0.236981 0.562208
790 2 0.31525 0.243797 0.545423
695 4 0.169094 0.253993 0.502464
694 2 0.17227 0.278712 0.504476
696 4 0.175446 0.303431 0.506488
1260 4 0.191026 0.266905 0.577658
1259 4 0.178507 0.301402 0.543689
1258 2 0.184767 0.284153 0.560673
8 3 0.196436 0.301067 0.506287
6 1 0.201651 0.323664 0.507053
7 3 0.196633 0.331748 0.527996
10 3 0.223857 0.326656 0.50298
802 2 0.296364 0.298839 0.563499
804 4 0.293811 0.287847 0.541187
792 4 0.332482 0.250614 0.528637
812 4 0.344329 0.266037 0.53418
811 2 0.355639 0.288145 0.537099
813 4 0.366949 0.310252 0.540018
873 4 0.435869 0.294979 0.523053
1136 4 0.0376332 0.347573 0.540095
935 4 0.0119072 0.407648 0.537542
1135 2 0.044813 0.359993 0.560574
1137 4 0.0519929 0.372413 0.581052
897 4 0.166792 0.393194 0.569966
382 2 0.0963559 0.409769 0.511815
711 4 0.226449 0.346175 0.499052
1160 4 0.177287 0.408823 0.562014
929 4 0.385477 0.413302 0.552386
1002 4 0.390583 0.412966 0.532309
925 2 0.453969 0.39997 0.520725
926 4 0.44251 0.386504 0.538404
927 4 0.465427 0.413436 0.503046
1010 4 0.494991 0.360484 0.532962
383 4 0.0975077 0.427942 0.52895
2244 4 0.152688 0.495089 0.514553
1159 2 0.194784 0.425759 0.556337
1161 4 0.212281 0.442694 0.55066
1171 2 0.232025 0.471405 0.568357
1173 4 0.211607 0.458977 0.56102
1172 4 0.252443 0.483833 0.575694
882 4 0.330786 0.488587 0.530507
928 2 0.374116 0.418178 0.574119
880 2 0.347864 0.477791 0.515778
881 4 0.364943 0.466995 0.501049
1000 2 0.382132 0.431071 0.517276
1001 4 0.373681 0.449175 0.502244
661 2 0.471228 0.492517 0.555479
662 4 0.484829 0.474858 0.566808
1058 4 0.133961 0.0518918 0.606054
1057 2 0.114243 0.0502769 0.590765
944 4 0.0847747 0.0792506 0.669332
1092 4 0.323584 0.0160512 0.632858
951 4 0.304168 0.0234666 0.636633
949 2 0.290569 0.00425423 0.645067
1090 2 0.343291 0.000665527 0.63314
1218 4 0.419668 0.037452 0.587552
1081 2 0.0451906 0.116142 0.640285
1083 4 0.0640083 0.102285 0.631394
1082 4 0.0263729 0.129999 0.649176
1032 4 0.226747 0.10024 0.601713
1282 2 0.230975 0.102955 0.643983
1283 4 0.2311 0.109437 0.619835
3009 4 0.489981 0.110868 0.587249
809 4 0.466367 0.120028 0.637437
808 2 0.458095 0.107422 0.657383
1244 4 0.0386083 0.246818 0.627528
1243 2 0.039937 0.247882 0.652473
1207 2 0.105342 0.235041 0.655149
1208 4 0.114632 0.211955 0.657574
1212 4 0.202593 0.200801 0.657661
1210 2 0.221691 0.201375 0.641532
796 2 0.218443 0.245209 0.604636
798 4 0.232871 0.238277 0.623844
1211 4 0.240788 0.201949 0.625403
888 4 0.291344 0.188492 0.586972
886 2 0.309322 0.183993 0.603757
887 4 0.3273 0.179494 0.620543
830 4 0.330542 0.174365 0.638599
829 2 0.345703 0.172681 0.65841
1194 4 0.347045 0.177869 0.622486
1193 4 0.380503 0.18222 0.585577
1192 2 0.363774 0.180044 0.604032
1025 4 0.452112 0.17225 0.634142
1024 2 0.453927 0.190536 0.651098
983 4 0.0192761 0.314678 0.591194
1209 4 0.0960514 0.258128 0.652725
947 4 0.165305 0.299815 0.653028
797 4 0.204014 0.25214 0.585428
946 2 0.186366 0.313195 0.654643
948 4 0.207427 0.326574 0.656259
803 4 0.298917 0.309831 0.585811
1239 4 0.296946 0.294433 0.598637
1237 2 0.310444 0.290249 0.619264
1238 4 0.323942 0.286065 0.639891
806 4 0.322483 0.30094 0.653784
952 2 0.473758 0.266049 0.617672
953 4 0.452051 0.278167 0.620345
954 4 0.495465 0.253931 0.614998
1039 2 0.0239403 0.394296 0.605932
1041 4 0.0421629 0.384403 0.59196
993 4 0.0540056 0.371692 0.601266
991 2 0.0660454 0.36094 0.620361
992 4 0.0780852 0.350188 0.639456
1040 4 0.00571773 0.40419 0.619905
895 2 0.151379 0.393773 0.589645
896 4 0.135966 0.394353 0.609324
1191 4 0.236863 0.410044 0.6179
1189 2 0.247378 0.390514 0.606358
1190 4 0.257893 0.370985 0.594816
891 4 0.306205 0.424199 0.618383
1188 4 0.280743 0.449988 0.591788
1186 2 0.274699 0.471074 0.60379
889 2 0.319533 0.438022 0.602368
1187 4 0.268655 0.49216 0.615791
890 4 0.332861 0.451845 0.586353
1953 4 0.344215 0.468472 0.589777
930 4 0.362755 0.423053 0.595852
1951 2 0.337726 0.490363 0.599969
1268 4 0.450774 0.491729 0.597127
1267 2 0.461932 0.480725 0.616609
1269 4 0.47309 0.46972 0.636092
1185 4 0.0615578 0.00361428 0.695131
943 2 0.105576 0.0737418 0.682065
945 4 0.126378 0.0682331 0.694798
1004 4 0.311821 0.0752281 0.673447
1003 2 0.319104 0.0715403 0.69708
1005 4 0.326388 0.0678525 0.720713
43 3 0.425831 0.0695959 0.698514
1163 4 0.496731 0.0312491 0.678814
844 2 0.469221 0.0787062 0.742395
1076 4 0.0293984 0.133826 0.692578
1075 2 0.0397459 0.149284 0.709286
1077 4 0.0500934 0.164742 0.725995
864 4 0.0585943 0.151824 0.740472
909 4 0.113454 0.135164 0.713783
907 2 0.135563 0.126815 0.705618
908 4 0.157672 0.118465 0.697452
1284 4 0.230851 0.0964726 0.668132
1227 4 0.175926 0.117244 0.691793
1225 2 0.187799 0.111379 0.713001
1226 4 0.199672 0.105515 0.73421
1148 4 0.207857 0.0968521 0.750425
44 3 0.402565 0.0994758 0.701719
1141 2 0.391328 0.136144 0.713027
1142 4 0.406458 0.116579 0.709356
1143 4 0.376199 0.155709 0.716698
42 3 0.43136 0.0951782 0.725489
846 4 0.485994 0.0826588 0.724279
41 1 0.424492 0.092163 0.703742
810 4 0.449823 0.0948165 0.677329
45 3 0.437997 0.104166 0.689879
851 4 0.07968 0.167723 0.747667
1107 4 0.0619971 0.171941 0.742596
850 2 0.099752 0.169741 0.732895
852 4 0.119824 0.17176 0.718123
978 4 0.223062 0.2195 0.740701
976 2 0.244695 0.21372 0.729575
1276 2 0.199515 0.249938 0.738532
1130 4 0.179547 0.19091 0.742731
918 4 0.286266 0.214336 0.717812
977 4 0.266328 0.20794 0.718449
916 2 0.305336 0.218348 0.733479
917 4 0.324405 0.22236 0.749145
831 4 0.360864 0.170997 0.678221
1298 4 0.380791 0.168951 0.730115
1263 4 0.416882 0.225931 0.72029
1026 4 0.455743 0.208823 0.668053
1261 2 0.438757 0.237173 0.724792
1262 4 0.460633 0.248414 0.729294
1177 2 0.010849 0.270004 0.696712
1245 4 0.0412657 0.248945 0.677419
1179 4 0.0272092 0.251798 0.691607
894 4 0.0813872 0.321766 0.681885
892 2 0.0944139 0.316203 0.702489
893 4 0.107441 0.31064 0.723093
1074 4 0.114357 0.291593 0.72378
1072 2 0.109015 0.276368 0.74288
821 4 0.184226 0.288522 0.726422
1278 4 0.186994 0.267328 0.725649
820 2 0.182799 0.308947 0.740773
1064 4 0.274483 0.318259 0.715252
805 2 0.330145 0.31584 0.672343
1063 2 0.253863 0.328006 0.705005
1006 2 0.377849 0.327766 0.709695
1007 4 0.400574 0.325466 0.719867
807 4 0.337807 0.33074 0.690903
3372 4 0.496426 0.268543 0.740733
3122 4 0.462312 0.316058 0.709746
3121 2 0.460138 0.294395 0.697451
3123 4 0.457965 0.272731 0.685157
1067 4 0.143278 0.364786 0.698218
940 2 0.128764 0.37976 0.730121
941 4 0.148088 0.372529 0.715997
942 4 0.109439 0.38699 0.744244
1066 2 0.167788 0.363676 0.693402
1065 4 0.233243 0.337753 0.694759
1028 4 0.1906 0.382385 0.688654
1068 4 0.192298 0.362566 0.688586
1027 2 0.213169 0.392998 0.686872
1029 4 0.235738 0.403611 0.685091
1008 4 0.355124 0.330067 0.699523
1099 2 0.45176 0.395439 0.724805
1100 4 0.473109 0.398167 0.737533
1205 4 0.420955 0.407827 0.701722
1101 4 0.430412 0.392711 0.712078
1280 4 0.0250215 0.46187 0.681114
1281 4 0.0690363 0.458263 0.704575
1279 2 0.0470289 0.460067 0.692844
885 4 0.0674545 0.452559 0.723693
883 2 0.0682749 0.446218 0.747865
2015 4 0.112995 0.481153 0.723404
1176 4 0.212429 0.48522 0.710616
1174 2 0.230793 0.483195 0.693769
1175 4 0.249157 0.48117 0.676921
1138 2 0.315266 0.442911 0.740149
1140 4 0.326115 0.420946 0.745148
1139 4 0.304416 0.464877 0.735151
1228 2 0.401027 0.458117 0.743816
1229 4 0.411044 0.472838 0.726262
1206 4 0.426611 0.448956 0.673846
1204 2 0.423783 0.428391 0.687784
1249 2 0.484383 0.486117 0.73652
911 4 0.0772204 0.0371531 0.825743
1202 4 0.116336 0.0633566 0.794841
1197 4 0.145707 0.0129804 0.812507
1201 2 0.100584 0.0812611 0.787325
838 2 0.240304 0.0746435 0.801082
1255 2 0.299312 0.0511709 0.790122
1256 4 0.274483 0.0529027 0.787734
1257 4 0.324141 0.0494391 0.792509
839 4 0.255479 0.0590281 0.788791
975 4 0.329022 0.044476 0.812205
973 2 0.339234 0.0269001 0.826765
2322 4 0.445474 0.00342267 0.759401
1113 4 0.452008 0.00985913 0.777734
1111 2 0.447839 0.00877664 0.802363
1112 4 0.443671 0.00769415 0.826993
845 4 0.452447 0.0747536 0.760511
862 2 0.065901 0.134092 0.756516
834 4 0.0131158 0.13983 0.791012
832 2 0.00558018 0.133786 0.76795
863 4 0.0732077 0.116361 0.772559
1203 4 0.0848317 0.0991656 0.77981
35 3 0.115918 0.15017 0.8111
1131 4 0.15582 0.15088 0.761044
1149 4 0.171194 0.0905434 0.783843
1147 2 0.189526 0.0936978 0.767134
840 4 0.225129 0.090259 0.813373
960 4 0.272525 0.136548 0.807231
958 2 0.296264 0.144206 0.808961
959 4 0.320003 0.151863 0.810692
1086 4 0.360416 0.108102 0.794233
1084 2 0.372528 0.0980452 0.813658
1085 4 0.384641 0.0879886 0.833083
1146 4 0.492211 0.150909 0.788796
3270 4 0.492334 0.140351 0.804632
1105 2 0.049681 0.185971 0.759229
1106 4 0.0373648 0.200001 0.775862
1214 4 0.0191132 0.204423 0.773051
1277 4 0.212036 0.232547 0.751415
1129 2 0.167683 0.170895 0.751888
1297 2 0.387662 0.177976 0.752398
1299 4 0.394534 0.187002 0.77468
47 3 0.404792 0.184265 0.790696
50 3 0.384862 0.180545 0.822031
46 1 0.403446 0.190046 0.81292
1043 4 0.413285 0.22405 0.801226
49 3 0.402156 0.213153 0.814595
1042 2 0.402036 0.246191 0.798325
1144 2 0.480879 0.172973 0.791949
48 3 0.422427 0.18236 0.823832
1145 4 0.469546 0.195037 0.795102
1307 4 0.473241 0.247273 0.824099
1073 4 0.103673 0.261143 0.761981
822 4 0.181373 0.329372 0.755124
1096 2 0.3045 0.31632 0.791849
1098 4 0.317136 0.303014 0.774865
1097 4 0.291864 0.329627 0.808833
801 4 0.274688 0.319866 0.809045
799 2 0.263698 0.308794 0.828585
1044 4 0.390787 0.268332 0.795424
1308 4 0.498667 0.282457 0.799274
1166 4 0.45322 0.257825 0.764341
998 4 0.467685 0.318519 0.782092
1165 2 0.456011 0.282622 0.765916
1167 4 0.458801 0.30742 0.767492
1306 2 0.485954 0.264865 0.811687
997 2 0.492495 0.321553 0.782741
1094 4 0.462307 0.329126 0.81514
778 2 0.0744746 0.334074 0.81431
816 4 0.0535158 0.379609 0.762141
780 4 0.0746045 0.340351 0.790107
814 2 0.0771355 0.387692 0.760739
815 4 0.100755 0.395774 0.759337
1236 4 0.21728 0.339326 0.817698
1234 2 0.221409 0.351749 0.796396
1235 4 0.225539 0.364172 0.775093
1121 4 0.187084 0.399434 0.823734
1120 2 0.202416 0.415574 0.812348
39 3 0.330536 0.410555 0.828921
1017 4 0.375773 0.416399 0.821906
37 3 0.366335 0.399863 0.824822
1019 4 0.440268 0.36106 0.767653
1018 2 0.446791 0.380098 0.782492
1020 4 0.453314 0.399135 0.797331
884 4 0.0690953 0.439876 0.772037
1080 4 0.147501 0.448544 0.756214
1078 2 0.132475 0.467403 0.762829
1079 4 0.11745 0.486262 0.769443
2175 4 0.100032 0.488104 0.826302
2011 2 0.219786 0.492888 0.767867
2378 4 0.241874 0.494159 0.800858