ITEM: TIMESTEP
2500000
ITEM: NUMBER OF ATOMS
4590
ITEM: BOX BOUNDS pp pp pp
-9.9985700000000008e+00 9.9985700000000008e+00
-9.9985700000000008e+00 9.9985700000000008e+00
-9.9985700000000008e+00 9.9985700000000008e+00
ITEM: ATOMS id type xs ys zs
1247 4 0.0454864 0.0601599 0.0125555
996 4 0.172668 0.0067089 0.0135593
490 2 0.274561 0.00342192 0.0296501
492 4 0.287873 0.0147846 0.0117933
665 4 0.337089 0.0764475 0.0614707
1608 4 0.388228 0.996549 0.0107276
2467 2 0.408506 0.0825946 0.0228143
1760 4 0.410798 0.0817503 0.060789
2469 4 0.40262 0.0904432 0.0458129
1759 2 0.429106 0.0663664 0.0680933
1761 4 0.447413 0.0509825 0.0753977
380 4 0.0540658 0.0972719 0.0698254
358 2 0.235701 0.138272 0.030139
359 4 0.232737 0.1205 0.0474753
360 4 0.238666 0.156044 0.0128027
664 2 0.348863 0.0969041 0.0532203
666 4 0.360637 0.117361 0.0449699
866 4 0.372527 0.132252 0.0410311
865 2 0.377742 0.12785 0.0169768
2722 2 0.393442 0.107938 0.0835952
2723 4 0.392462 0.0913734 0.0648914
2624 4 0.0675658 0.223199 0.0136419
2623 2 0.0444166 0.232103 0.0168045
396 4 0.00557994 0.220342 0.0668173
2625 4 0.0212675 0.241008 0.0199671
553 2 0.157257 0.201012 0.0351147
554 4 0.165624 0.221147 0.0228775
555 4 0.148889 0.180878 0.047352
1133 4 0.176475 0.233018 0.0112078
507 4 0.184612 0.2497 0.071822
3285 4 0.0438944 0.314705 0.0160962
483 4 0.103315 0.325067 0.0185285
1232 4 0.0920789 0.32475 0.99132
755 4 0.263245 0.294712 0.013212
754 2 0.282353 0.291907 0.029092
756 4 0.301462 0.289103 0.044972
740 4 0.313093 0.299105 0.0592634
739 2 0.322252 0.311354 0.0790433
1304 4 0.45203 0.264805 0.0279546
1303 2 0.452926 0.287971 0.0373197
1305 4 0.453821 0.311137 0.0466848
1308 4 0.456198 0.274565 0.0101634
1095 4 0.456201 0.332039 0.0180065
2841 4 0.435517 0.32802 0.0189058
1093 2 0.469322 0.323279 0.998609
835 2 0.0553615 0.374656 0.0673822
836 4 0.0342934 0.367626 0.0788665
656 4 0.0240607 0.350633 0.0835858
2807 4 0.0154712 0.364409 0.0709365
655 2 0.0116516 0.35336 0.105121
837 4 0.0764297 0.381686 0.0558978
481 2 0.109747 0.347054 0.0285467
286 2 0.115012 0.414828 0.0474009
482 4 0.11618 0.369042 0.0385649
287 4 0.123443 0.397683 0.0635298
355 2 0.116992 0.368048 0.079989
357 4 0.11716 0.377887 0.0570032
573 4 0.127382 0.378165 0.0202224
571 2 0.133925 0.394849 0.00278634
2840 4 0.397035 0.34504 0.0459275
2839 2 0.416276 0.33653 0.0324167
1046 4 0.465521 0.340936 0.0338185
1045 2 0.472088 0.362671 0.0442887
1047 4 0.478655 0.384407 0.0547588
914 4 0.0927605 0.434243 0.0152764
314 4 0.0858149 0.434916 0.0358213
913 2 0.0725538 0.436381 0.000705941
292 2 0.0732697 0.489375 0.0568115
293 4 0.0513135 0.477825 0.0599261
313 2 0.0679182 0.433529 0.0532272
2786 4 0.0273097 0.452013 0.997083
288 4 0.106581 0.431973 0.031272
294 4 0.0952259 0.500925 0.053697
550 2 0.123118 0.479569 0.0252126
1659 4 0.159516 0.460963 0.0080032
1439 4 0.112841 0.491489 0.0604053
552 4 0.108383 0.493278 0.0400489
1766 4 0.11397 0.509009 0.0479497
551 4 0.137854 0.46586 0.0103762
61 1 0.210804 0.464029 0.0696426
65 3 0.192162 0.461695 0.0567711
1658 4 0.200027 0.466094 0.0368684
1657 2 0.179772 0.463529 0.0224358
62 3 0.224439 0.48008 0.0603898
1803 4 0.217149 0.478502 0.0397015
63 3 0.222387 0.443942 0.0705164
64 3 0.204854 0.47068 0.0910614
903 4 0.275784 0.425274 0.0304519
901 2 0.29858 0.434068 0.035759
902 4 0.321376 0.442863 0.0410661
1289 4 0.332965 0.458754 0.0441662
252 4 0.336914 0.443285 0.056143
1288 2 0.33534 0.481324 0.0336717
250 2 0.339364 0.437672 0.0803848
2481 4 0.04483 0.0567343 0.123965
379 2 0.0535127 0.0813885 0.089128
381 4 0.0529596 0.065505 0.108431
3560 4 0.0404569 0.074255 0.151971
3559 2 0.0172454 0.0727724 0.161147
2479 2 0.0307567 0.0369027 0.118149
2480 4 0.0166834 0.017071 0.112333
579 4 0.172916 0.999042 0.129779
577 2 0.176154 0.0194788 0.115741
578 4 0.179393 0.0399152 0.101704
423 4 0.185045 0.0603489 0.103905
652 2 0.226501 0.0379723 0.142969
654 4 0.205715 0.0469028 0.153618
581 4 0.194851 0.0619835 0.161412
421 2 0.189948 0.0840524 0.110173
653 4 0.247286 0.0290418 0.13232
24 3 0.388528 0.0557221 0.121581
21 1 0.370591 0.0656573 0.132442
25 3 0.36515 0.0536693 0.151025
23 3 0.352345 0.0668319 0.118155
2590 2 0.482726 0.00353765 0.116579
2592 4 0.493091 0.0262286 0.114886
236 4 0.109363 0.116278 0.0994259
235 2 0.109331 0.141274 0.100057
237 4 0.109299 0.166269 0.100688
534 4 0.214154 0.106967 0.109729
422 4 0.194852 0.107756 0.11644
532 2 0.219876 0.131254 0.108115
533 4 0.225599 0.15554 0.106501
461 4 0.326667 0.105158 0.150866
22 3 0.376551 0.0869868 0.138661
297 4 0.386758 0.10333 0.140304
295 2 0.409603 0.112993 0.143447
2724 4 0.394422 0.124503 0.102299
296 4 0.432449 0.122657 0.14659
771 4 0.43596 0.15256 0.0968465
556 2 0.462236 0.155998 0.151642
558 4 0.447658 0.135939 0.148433
629 4 0.4481 0.117707 0.158992
477 4 0.108836 0.185949 0.0947556
476 4 0.153901 0.202483 0.108775
475 2 0.131369 0.194216 0.101766
506 4 0.168629 0.211703 0.100133
738 4 0.154914 0.225533 0.138662
736 2 0.167971 0.246853 0.139084
505 2 0.17662 0.230702 0.0859773
353 4 0.263876 0.204863 0.0967832
352 2 0.25259 0.226948 0.0999587
311 4 0.279038 0.206706 0.111297
310 2 0.302534 0.199905 0.106118
312 4 0.326031 0.193104 0.100938
770 4 0.403573 0.190139 0.103135
769 2 0.419766 0.171349 0.0999908
557 4 0.476813 0.176058 0.154851
363 4 0.0624305 0.311408 0.155673
648 4 0.0724171 0.293686 0.152759
646 2 0.0833299 0.281676 0.133737
705 4 0.0630019 0.321348 0.103773
647 4 0.0942428 0.269667 0.114714
337 2 0.126293 0.292742 0.0935344
339 4 0.108066 0.283019 0.107621
338 4 0.14452 0.302464 0.0794477
737 4 0.181028 0.268172 0.139506
372 4 0.179048 0.287177 0.146199
284 4 0.195173 0.280489 0.133474
283 2 0.216092 0.274525 0.121145
285 4 0.237011 0.268561 0.108816
354 4 0.241304 0.249032 0.103134
370 2 0.181782 0.303445 0.164989
455 4 0.160914 0.325082 0.121121
764 4 0.256258 0.260939 0.109516
763 2 0.273333 0.275968 0.119894
765 4 0.290409 0.290998 0.130273
612 4 0.294855 0.310387 0.131917
741 4 0.331411 0.323603 0.0988231
610 2 0.301294 0.327138 0.149328
624 4 0.419548 0.307719 0.124088
622 2 0.401425 0.324468 0.128109
728 4 0.457267 0.280694 0.147009
727 2 0.466158 0.298265 0.162417
657 4 0.999242 0.356087 0.126656
1756 2 0.0202768 0.406192 0.118477
1758 4 0.00649151 0.397595 0.137484
1757 4 0.0340621 0.414789 0.099471
356 4 0.116824 0.358209 0.102975
703 2 0.0839886 0.333778 0.10927
704 4 0.104975 0.346209 0.114767
456 4 0.122511 0.357111 0.121335
417 4 0.101631 0.365867 0.113858
415 2 0.106662 0.384636 0.129593
454 2 0.141712 0.341096 0.121228
416 4 0.111692 0.403406 0.145328
386 4 0.331523 0.333598 0.11727
301 2 0.296413 0.38597 0.159032
303 4 0.292598 0.40827 0.148387
302 4 0.300227 0.363669 0.169677
387 4 0.36821 0.367412 0.120652
385 2 0.349866 0.350505 0.118961
13 3 0.370694 0.377409 0.137581
11 1 0.388999 0.371595 0.150601
15 3 0.406979 0.384339 0.14486
12 3 0.393959 0.349426 0.146981
623 4 0.383301 0.341218 0.13213
608 4 0.371793 0.38894 0.122089
494 4 0.403386 0.399237 0.160187
607 2 0.358022 0.409689 0.124325
104 3 0.45208 0.347224 0.132696
105 3 0.485081 0.363616 0.12496
101 1 0.464927 0.366384 0.135196
102 3 0.453869 0.38407 0.125497
103 3 0.468053 0.370941 0.157732
315 4 0.0500215 0.432143 0.0706332
1438 2 0.120418 0.472501 0.0747999
1440 4 0.127995 0.453512 0.0891945
243 4 0.146058 0.455431 0.097213
241 2 0.1688 0.463614 0.103618
626 4 0.211234 0.480051 0.111175
242 4 0.191542 0.471798 0.110024
625 2 0.23248 0.49242 0.106616
246 4 0.264064 0.436433 0.117398
1629 4 0.291987 0.480055 0.164455
244 2 0.272757 0.450393 0.136232
245 4 0.28145 0.464353 0.155067
1627 2 0.29895 0.498229 0.148758
251 4 0.341815 0.432059 0.104627
609 4 0.344252 0.430439 0.126561
493 2 0.414749 0.419544 0.151041
495 4 0.426113 0.439852 0.141894
659 4 0.438681 0.441285 0.158134
3781 2 0.0198734 0.0049587 0.210801
3783 4 0.0162141 0.0170641 0.23237
512 4 0.0827198 0.0661165 0.233027
580 2 0.174683 0.0737294 0.170382
675 4 0.201966 0.022747 0.209325
673 2 0.21532 0.0363709 0.225487
674 4 0.228674 0.0499947 0.24165
467 4 0.236197 0.0662347 0.250423
429 4 0.239351 0.0482438 0.258964
1464 4 0.279365 0.0296618 0.218482
1462 2 0.290895 0.00747859 0.218869
758 4 0.368478 0.0480384 0.211739
759 4 0.351292 0.0560312 0.165463
757 2 0.359885 0.0520348 0.188601
3561 4 0.994034 0.0712898 0.170324
530 4 0.00629887 0.10318 0.195916
529 2 0.0218042 0.111709 0.21358
531 4 0.0373096 0.120239 0.231244
511 2 0.0661122 0.0847217 0.231234
513 4 0.0495047 0.103327 0.229441
567 4 0.15283 0.0966749 0.198354
582 4 0.154515 0.0854753 0.179353
565 2 0.168338 0.110948 0.211806
566 4 0.183846 0.125221 0.225258
598 2 0.216395 0.144305 0.202974
600 4 0.194119 0.13697 0.211642
599 4 0.238671 0.15164 0.194305
323 4 0.330309 0.0889335 0.236851
322 2 0.34508 0.101402 0.220991
460 2 0.344151 0.110925 0.167785
324 4 0.359851 0.11387 0.205131
462 4 0.361634 0.116693 0.184703
30 3 0.37904 0.118765 0.197621
26 1 0.392744 0.123169 0.215269
27 3 0.413802 0.128136 0.207455
255 4 0.365035 0.148949 0.225806
29 3 0.384686 0.141364 0.227202
253 2 0.342947 0.157799 0.218127
28 3 0.394066 0.104583 0.229098
628 2 0.451063 0.10731 0.181537
630 4 0.454025 0.096913 0.204083
393 4 0.129006 0.18122 0.233799
254 4 0.320859 0.166649 0.210447
332 4 0.465844 0.218121 0.213399
331 2 0.488052 0.20876 0.220057
333 4 0.510261 0.199398 0.226714
361 2 0.0739585 0.325864 0.172505
748 2 0.11206 0.319916 0.214747
749 4 0.120466 0.303962 0.232066
371 4 0.184517 0.319713 0.183779
498 4 0.479171 0.332798 0.192278
729 4 0.475049 0.315835 0.177825
308 4 0.466787 0.317415 0.195452
307 2 0.449274 0.313212 0.212797
309 4 0.431762 0.30901 0.230141
1320 4 0.0237794 0.412272 0.225829
1318 2 0.0198544 0.406743 0.249895
362 4 0.0854865 0.34032 0.189337
750 4 0.103654 0.335871 0.197427
637 2 0.209517 0.419566 0.232132
611 4 0.307732 0.343889 0.166739
14 3 0.384016 0.374596 0.173064
645 4 0.398382 0.39068 0.177646
643 2 0.41386 0.390371 0.197281
496 2 0.474541 0.357347 0.191239
497 4 0.469911 0.381896 0.1902
644 4 0.429337 0.390062 0.216916
107 3 0.473085 0.411607 0.233546
110 3 0.439139 0.407418 0.218612
109 3 0.469034 0.411982 0.196181
639 4 0.195594 0.432444 0.215838
1575 4 0.285099 0.477082 0.183178
1573 2 0.279663 0.457092 0.197179
1574 4 0.274227 0.437102 0.21118
525 4 0.3513 0.467905 0.172148
523 2 0.374946 0.470032 0.17999
524 4 0.398593 0.472159 0.187833
106 1 0.459203 0.417949 0.216335
658 2 0.447034 0.455234 0.177129
108 3 0.456217 0.440944 0.21719
660 4 0.455388 0.469184 0.196124
1583 4 0.45816 0.461577 0.215362
1488 4 0.442559 0.484799 0.190828
1582 2 0.451536 0.480992 0.229658
1584 4 0.444911 0.500406 0.243953
2477 4 0.99951 0.0881168 0.345405
233 4 0.0977322 0.00602518 0.271705
427 2 0.225258 0.0393761 0.277616
428 4 0.211164 0.0305083 0.296269
440 4 0.228174 0.0134313 0.325851
1516 2 0.345233 0.0416175 0.333611
1496 4 0.352125 0.0156141 0.292349
1517 4 0.354314 0.0374562 0.310689
478 2 0.48462 0.0703391 0.288778
479 4 0.462862 0.0600349 0.295528
2737 2 0.0302456 0.104195 0.339665
2738 4 0.00763726 0.103777 0.350336
466 2 0.239913 0.0897326 0.258118
468 4 0.243628 0.113231 0.265814
683 4 0.270051 0.124525 0.276567
682 2 0.265111 0.14219 0.293559
684 4 0.260172 0.159855 0.310551
453 4 0.425401 0.111637 0.308321
451 2 0.421777 0.129869 0.325044
2483 4 0.0603385 0.201549 0.303242
2482 2 0.0819936 0.208305 0.292726
391 2 0.123645 0.193419 0.254956
392 4 0.118284 0.205619 0.276112
2484 4 0.103649 0.215061 0.28221
249 4 0.121283 0.205094 0.295351
247 2 0.14261 0.202168 0.308069
248 4 0.163938 0.199242 0.320788
279 4 0.21773 0.223757 0.306709
277 2 0.220329 0.247642 0.299784
473 4 0.23041 0.21106 0.314381
472 2 0.249098 0.194479 0.315392
726 4 0.282434 0.168372 0.317636
474 4 0.267786 0.177899 0.316404
633 4 0.278421 0.182207 0.301351
631 2 0.298527 0.187993 0.28766
632 4 0.318634 0.193779 0.273969
305 4 0.393399 0.221707 0.324495
304 2 0.395348 0.240357 0.307955
278 4 0.222928 0.271526 0.292859
536 4 0.239753 0.282607 0.291779
535 2 0.255911 0.300805 0.297517
537 4 0.27207 0.319003 0.303255
345 4 0.285512 0.3227 0.28784
402 4 0.277237 0.31642 0.321564
678 4 0.265884 0.331935 0.317031
419 4 0.376459 0.315893 0.312957
418 2 0.388617 0.297333 0.301429
420 4 0.400775 0.278772 0.289902
306 4 0.397296 0.259007 0.291415
2463 4 0.0322496 0.34094 0.284318
2461 2 0.0202017 0.362799 0.282834
2462 4 0.00815381 0.384658 0.281351
3959 4 0.016191 0.396612 0.293589
1319 4 0.0159294 0.401214 0.273962
3958 2 0.0195238 0.407433 0.315882
299 4 0.141159 0.391052 0.326785
638 4 0.223439 0.406687 0.248426
602 4 0.225813 0.386526 0.24946
290 4 0.239598 0.395714 0.257365
603 4 0.194224 0.350851 0.264629
601 2 0.210019 0.368688 0.257044
289 2 0.259145 0.385906 0.269485
291 4 0.278693 0.376098 0.281605
343 2 0.30041 0.338643 0.300049
344 4 0.315308 0.354586 0.312257
438 4 0.32374 0.40135 0.302984
377 4 0.382082 0.368805 0.320591
3671 4 0.0113906 0.464082 0.326753
500 4 0.0970163 0.4167 0.319537
414 4 0.168855 0.457137 0.308307
436 2 0.325366 0.426013 0.306766
437 4 0.326992 0.450675 0.310548
3990 4 0.341047 0.457079 0.323274
545 4 0.0847388 0.0285587 0.37166
544 2 0.103818 0.0345419 0.386671
546 4 0.122898 0.0405251 0.401683
605 4 0.141797 0.0324836 0.337665
604 2 0.153995 0.0539253 0.341745
606 4 0.166193 0.0753669 0.345826
1670 4 0.277468 0.025603 0.369886
1669 2 0.301916 0.0308415 0.369873
1671 4 0.326365 0.03608 0.36986
744 4 0.326496 0.0610734 0.365368
1518 4 0.336153 0.0457788 0.356533
699 4 0.334044 0.0497153 0.380308
697 2 0.352886 0.0378354 0.391667
698 4 0.371728 0.0259554 0.403025
316 2 0.997755 0.0926245 0.379733
318 4 0.00706687 0.0844798 0.401461
2739 4 0.0528539 0.104612 0.328994
2653 2 0.0316275 0.15075 0.394441
2655 4 0.0192654 0.144239 0.415177
317 4 0.988444 0.100769 0.358004
2654 4 0.0439897 0.157262 0.373706
398 4 0.146434 0.136701 0.345845
397 2 0.159408 0.11546 0.343468
399 4 0.172382 0.094218 0.341092
276 4 0.188554 0.133687 0.405015
274 2 0.206426 0.128016 0.421557
742 2 0.320446 0.0852836 0.366931
743 4 0.314396 0.109494 0.368495
706 2 0.282359 0.110712 0.401073
724 2 0.290275 0.164202 0.341009
430 2 0.309331 0.165517 0.403495
708 4 0.298047 0.114391 0.381954
351 4 0.33251 0.120432 0.37021
725 4 0.298117 0.160032 0.364382
431 4 0.301906 0.172923 0.380797
349 2 0.355857 0.129328 0.369245
350 4 0.379204 0.138225 0.368281
256 2 0.410123 0.13073 0.390912
257 4 0.399052 0.13793 0.369681
258 4 0.421194 0.12353 0.412143
516 4 0.404057 0.151304 0.355587
452 4 0.418153 0.148101 0.341766
510 4 0.253886 0.204877 0.393511
508 2 0.274451 0.209258 0.37998
488 4 0.311804 0.206146 0.375949
509 4 0.295015 0.213639 0.366449
487 2 0.334508 0.19935 0.367981
514 2 0.390983 0.172203 0.359764
489 4 0.357213 0.192554 0.360013
515 4 0.377909 0.193103 0.363941
1581 4 0.434306 0.186451 0.379673
1579 2 0.451162 0.200078 0.392137
1580 4 0.468018 0.213705 0.404601
585 4 0.486593 0.254562 0.360329
584 4 0.480063 0.229752 0.403254
583 2 0.483328 0.242157 0.381792
408 4 0.0624503 0.270537 0.33684
618 4 0.0554322 0.297159 0.384842
407 4 0.0388221 0.296551 0.372417
406 2 0.0506362 0.283544 0.354629
616 2 0.0641936 0.301419 0.40787
400 2 0.283539 0.308422 0.3444
401 4 0.289841 0.300423 0.367236
1260 4 0.286007 0.290103 0.384097
1258 2 0.28242 0.274142 0.403006
872 4 0.499848 0.275759 0.391167
270 4 0.48188 0.276267 0.381113
269 4 0.475846 0.308719 0.343549
268 2 0.478863 0.292493 0.362331
548 4 0.0608716 0.361071 0.340319
547 2 0.0393065 0.358497 0.352708
549 4 0.0177413 0.355924 0.365098
3960 4 0.0228565 0.418253 0.338176
298 2 0.144258 0.380707 0.349336
300 4 0.147357 0.370362 0.371887
734 4 0.151554 0.375011 0.394845
733 2 0.150281 0.398194 0.404125
767 4 0.164291 0.368405 0.381959
677 4 0.234059 0.366567 0.334017
676 2 0.249971 0.349251 0.325524
766 2 0.188868 0.363874 0.381173
768 4 0.213445 0.359342 0.380388
592 2 0.326875 0.379136 0.394229
593 4 0.33558 0.375044 0.371149
378 4 0.351889 0.368893 0.360454
376 2 0.366986 0.368849 0.340522
433 2 0.415356 0.402648 0.352205
434 4 0.39076 0.406498 0.354527
588 4 0.497283 0.403587 0.352437
586 2 0.474449 0.393897 0.35558
435 4 0.439952 0.398798 0.349883
587 4 0.451614 0.384207 0.358724
777 4 0.0235349 0.470707 0.342175
776 4 0.0557237 0.436123 0.358562
775 2 0.0396293 0.453415 0.350369
501 4 0.0670268 0.419657 0.359444
499 2 0.0820216 0.418178 0.339491
502 2 0.149177 0.453913 0.38889
504 4 0.142589 0.437285 0.406363
503 4 0.155764 0.470541 0.371418
412 2 0.18691 0.457134 0.325604
1437 4 0.215695 0.47044 0.41021
1436 4 0.205377 0.456904 0.363188
1435 2 0.210536 0.463672 0.386699
413 4 0.204965 0.457131 0.342901
1557 4 0.223667 0.459343 0.35243
1555 2 0.244086 0.471114 0.344082
669 4 0.273125 0.500203 0.338733
1556 4 0.264505 0.482885 0.335733
1267 2 0.324911 0.472169 0.402145
1268 4 0.340307 0.479418 0.383826
3989 4 0.337809 0.484861 0.364727
3988 2 0.339428 0.47097 0.344001
1058 4 0.0136153 0.0453623 0.464214
937 2 0.000501301 0.0191679 0.452414
938 4 0.0136547 0.0385218 0.443605
1602 4 0.0520799 0.0501369 0.452034
1057 2 0.0204864 0.0685286 0.47064
1600 2 0.0751321 0.0428774 0.458443
731 4 0.135848 0.0333636 0.413842
730 2 0.144851 0.0544206 0.423878
1478 4 0.11268 0.0215523 0.466669
1477 2 0.134321 0.00903136 0.466436
1601 4 0.0981842 0.0356179 0.464852
732 4 0.153854 0.0754776 0.433914
1816 2 0.233344 0.00778198 0.447192
962 4 0.237338 0.0403721 0.4777
1817 4 0.239654 0.0266655 0.462317
1427 4 0.46771 0.0531189 0.472147
1426 2 0.47829 0.0304706 0.471613
1428 4 0.488871 0.0078222 0.471079
348 4 0.00395666 0.150893 0.427185
369 4 0.0214078 0.146151 0.435352
367 2 0.0229047 0.128846 0.453337
1059 4 0.0273576 0.0916949 0.477065
368 4 0.0244016 0.11154 0.471322
275 4 0.224297 0.122345 0.438099
375 4 0.237729 0.138838 0.440965
686 4 0.241175 0.120209 0.450832
687 4 0.225733 0.136375 0.495564
685 2 0.233454 0.128292 0.473198
260 4 0.174002 0.154557 0.504838
373 2 0.247779 0.160587 0.433814
707 4 0.266672 0.107034 0.420193
432 4 0.316756 0.158111 0.426193
425 4 0.315246 0.139633 0.434986
424 2 0.325361 0.118354 0.443355
426 4 0.335477 0.0970741 0.451724
717 4 0.367026 0.172235 0.441876
374 4 0.257829 0.182337 0.426663
711 4 0.299326 0.226634 0.478224
650 4 0.292564 0.209632 0.487166
709 2 0.290488 0.241545 0.460204
649 2 0.313274 0.197145 0.493518
716 4 0.341244 0.17218 0.484725
715 2 0.354135 0.172208 0.463301
267 4 0.481305 0.217096 0.419042
265 2 0.478415 0.202879 0.439407
574 2 0.470183 0.195508 0.497392
575 4 0.476863 0.181021 0.478138
266 4 0.475525 0.188663 0.459771
617 4 0.072955 0.305679 0.430897
1137 4 0.153604 0.308526 0.48432
1041 4 0.151847 0.328049 0.47941
1039 2 0.129888 0.33964 0.48235
1135 2 0.173013 0.295361 0.475652
1136 4 0.192422 0.282195 0.466984
710 4 0.28165 0.256456 0.442184
1259 4 0.278833 0.258181 0.421915
803 4 0.313143 0.287467 0.495421
2812 2 0.073949 0.354783 0.489788
2813 4 0.0511443 0.354411 0.479542
2814 4 0.0967537 0.355154 0.500035
1040 4 0.107929 0.35123 0.485289
594 4 0.31817 0.383227 0.417308
751 2 0.472519 0.409274 0.478157
752 4 0.480862 0.400277 0.499943
383 4 0.998763 0.430509 0.476206
382 2 0.019399 0.439662 0.486956
384 4 0.0400346 0.448816 0.497706
1172 4 0.0788479 0.464166 0.478799
1171 2 0.100142 0.454751 0.487914
1189 2 0.154687 0.436283 0.479015
735 4 0.149009 0.421376 0.413405
1191 4 0.168988 0.42418 0.462457
1751 4 0.184631 0.496591 0.484936
635 4 0.193428 0.482094 0.472187
570 4 0.203895 0.497082 0.479666
634 2 0.198123 0.475387 0.448562
636 4 0.202817 0.46868 0.424936
1269 4 0.309515 0.464919 0.420464
753 4 0.464176 0.418271 0.456372
823 2 0.0771626 0.0515901 0.562616
824 4 0.0939044 0.0613641 0.546825
2429 4 0.0974468 0.0696881 0.529097
1128 4 0.0873754 0.00687697 0.51876
2428 2 0.118933 0.0804893 0.535941
1180 2 0.20815 0.0451772 0.562053
963 4 0.230642 0.0434553 0.527161
1181 4 0.226688 0.0497135 0.5459
961 2 0.23399 0.0419137 0.502431
843 4 0.304076 0.0245693 0.573314
951 4 0.28736 0.0334916 0.568612
949 2 0.268247 0.0180294 0.573171
93 3 0.402644 0.00533173 0.530293
1723 2 0.470146 0.0119639 0.527931
94 3 0.436693 0.00674837 0.513468
1725 4 0.490624 0.0259188 0.53126
879 4 0.0551108 0.159407 0.537117
877 2 0.041081 0.139511 0.531417
470 4 0.0168519 0.104235 0.533367
878 4 0.0270513 0.119615 0.525717
1272 4 0.0655886 0.155473 0.553179
469 2 0.00151586 0.0918492 0.548748
2430 4 0.14042 0.0912905 0.542786
1270 2 0.0847259 0.157506 0.569142
259 2 0.151731 0.163548 0.511792
944 4 0.216019 0.130254 0.58549
943 2 0.219591 0.145132 0.565714
326 4 0.327917 0.145062 0.560495
327 4 0.281617 0.157024 0.575122
325 2 0.304767 0.151043 0.567808
320 4 0.348052 0.172391 0.503149
319 2 0.343123 0.151603 0.516139
900 4 0.352159 0.123558 0.541505
898 2 0.35828 0.120031 0.565489
321 4 0.338193 0.130814 0.529129
3053 4 0.474549 0.138049 0.539479
3052 2 0.450107 0.139807 0.534511
3054 4 0.425665 0.141564 0.529544
3489 4 0.502815 0.118606 0.547464
935 4 0.0086427 0.195173 0.531213
2846 4 0.0508842 0.224442 0.552158
2845 2 0.0338558 0.237988 0.564475
261 4 0.129461 0.17254 0.518746
1033 2 0.13282 0.205167 0.546424
1034 4 0.13471 0.219265 0.566988
1035 4 0.13093 0.191069 0.525861
695 4 0.149646 0.233575 0.572556
945 4 0.223164 0.16001 0.545939
1151 4 0.242685 0.165806 0.542844
1220 4 0.224618 0.178838 0.542342
790 2 0.2436 0.207462 0.554567
791 4 0.238589 0.182971 0.554024
792 4 0.248611 0.231952 0.555109
1221 4 0.184431 0.192371 0.515836
1219 2 0.204525 0.185604 0.529089
1150 2 0.253878 0.1656 0.520486
651 4 0.333985 0.184659 0.49987
1152 4 0.265071 0.165394 0.498129
409 2 0.363036 0.201753 0.517358
410 4 0.374892 0.209838 0.537834
411 4 0.351181 0.193667 0.496882
576 4 0.463503 0.209994 0.516645
3262 2 0.0165815 0.292095 0.565018
2847 4 0.0168274 0.251535 0.576792
3264 4 0.0259749 0.311876 0.55295
3263 4 0.00718811 0.272313 0.577087
813 4 0.227333 0.294255 0.537433
811 2 0.249265 0.282672 0.540597
812 4 0.271196 0.271088 0.543761
804 4 0.284498 0.265487 0.530019
802 2 0.298821 0.276477 0.51272
895 2 0.158609 0.389488 0.556513
897 4 0.134267 0.391471 0.551155
1159 2 0.112198 0.381383 0.519664
1161 4 0.115887 0.391502 0.542228
1160 4 0.10851 0.371263 0.497099
896 4 0.182952 0.387505 0.561871
238 2 0.30638 0.401819 0.536759
240 4 0.283321 0.401449 0.527098
239 4 0.329438 0.402189 0.54642
3603 4 0.423288 0.402059 0.53518
3601 2 0.445955 0.398287 0.525322
561 4 0.487581 0.38712 0.513294
559 2 0.496437 0.374164 0.532759
3602 4 0.468622 0.394515 0.515464
539 4 0.137467 0.469407 0.568855
1173 4 0.121437 0.445336 0.497029
1190 4 0.140385 0.448385 0.495573
1752 4 0.170803 0.495712 0.532985
1188 4 0.243106 0.503397 0.510574
1750 2 0.177717 0.496151 0.50896
663 4 0.428249 0.475468 0.535021
661 2 0.438269 0.476497 0.557906
4084 2 0.46578 0.484668 0.512558
4085 4 0.444264 0.477232 0.522901
662 4 0.448289 0.477527 0.580791
4086 4 0.487295 0.492104 0.502216
825 4 0.0604207 0.0418161 0.578407
10 3 0.0921235 0.0519278 0.63702
9 3 0.119095 0.0319131 0.654039
6 1 0.109889 0.0530259 0.651227
1182 4 0.189612 0.040641 0.578207
1031 4 0.202642 0.0482452 0.626282
1030 2 0.201809 0.0393612 0.649639
950 4 0.249134 0.00256707 0.577729
841 2 0.323106 0.0164399 0.587347
1217 4 0.331612 0.0143876 0.617053
1004 4 0.396066 0.0306191 0.597914
842 4 0.342136 0.00831053 0.601381
1003 2 0.377225 0.0145962 0.601585
1005 4 0.358385 0.998573 0.605257
1216 2 0.334134 0.0155236 0.641903
1218 4 0.336657 0.0166596 0.666753
149 3 0.494794 0.00456806 0.62186
146 1 0.494503 0.0263847 0.629756
150 3 0.473183 0.0324913 0.634933
3400 2 0.476418 0.084887 0.664945
4238 4 0.499358 0.030137 0.597723
4341 4 0.424603 0.995691 0.640435
851 4 0.0104339 0.142347 0.636105
850 2 0.0318685 0.152496 0.628185
1271 4 0.103863 0.159539 0.585104
1278 4 0.130779 0.165418 0.660776
1276 2 0.124399 0.141302 0.662474
8 3 0.125876 0.0675808 0.642803
1193 4 0.320246 0.154695 0.62911
1192 2 0.335281 0.141855 0.613805
887 4 0.326523 0.11236 0.658986
899 4 0.364401 0.116503 0.589474
1194 4 0.350316 0.129014 0.5985
3402 4 0.467767 0.099336 0.646463
908 4 0.0707255 0.175674 0.615284
1208 4 0.0540694 0.182942 0.627028
852 4 0.053303 0.162645 0.620264
1207 2 0.0422075 0.202372 0.63737
1209 4 0.0303455 0.221802 0.647712
907 2 0.0860041 0.194895 0.61056
909 4 0.101283 0.214115 0.605835
1063 2 0.133074 0.194091 0.652426
694 2 0.150827 0.22069 0.593952
696 4 0.152008 0.207806 0.615347
1065 4 0.13783 0.205915 0.630914
798 4 0.148595 0.223576 0.630612
806 4 0.218257 0.205075 0.660995
1024 2 0.40455 0.227041 0.637919
1025 4 0.382709 0.23849 0.633786
953 4 0.47466 0.207883 0.601695
1026 4 0.42639 0.215592 0.642052
954 4 0.429619 0.212885 0.622838
952 2 0.452139 0.210384 0.612267
984 4 0.034126 0.271488 0.586477
3327 4 0.0172588 0.262913 0.593382
3325 2 0.00201437 0.268076 0.612517
982 2 0.0568652 0.275634 0.596012
983 4 0.0796045 0.279781 0.605546
3275 4 0.0972181 0.330873 0.645052
856 2 0.132098 0.305811 0.657444
857 4 0.114784 0.322012 0.64951
796 2 0.151704 0.246347 0.640459
797 4 0.154814 0.269119 0.650307
3122 4 0.491704 0.287501 0.640582
3121 2 0.496886 0.263044 0.640166
3274 2 0.0836697 0.343682 0.661712
1067 4 0.254493 0.41217 0.622341
1006 2 0.392694 0.368266 0.656418
1008 4 0.408079 0.385154 0.646256
538 2 0.157398 0.468381 0.583918
2014 2 0.101342 0.484697 0.663092
2016 4 0.108979 0.503772 0.648845
540 4 0.177329 0.467356 0.598981
1066 2 0.276265 0.420622 0.631268
1068 4 0.298038 0.429074 0.640194
1175 4 0.325601 0.446826 0.648797
1953 4 0.305306 0.446517 0.646698
1951 2 0.291478 0.464317 0.65752
1174 2 0.340031 0.457326 0.631284
1176 4 0.354461 0.467827 0.613771
1001 4 0.400365 0.441768 0.615467
1000 2 0.418337 0.456273 0.605887
1002 4 0.43631 0.470778 0.596306
1910 4 0.45091 0.478786 0.609055
4147 2 0.480716 0.460325 0.593165
4149 4 0.456235 0.465202 0.594598
1154 4 0.131963 0.0396435 0.669115
1153 2 0.156295 0.0368895 0.674168
7 3 0.102773 0.0608176 0.671668
978 4 0.105973 0.0724123 0.688187
976 2 0.109284 0.0612413 0.71031
977 4 0.112595 0.0500702 0.732433
1185 4 0.0900237 0.0140971 0.697551
1032 4 0.200976 0.0304771 0.672996
1282 2 0.197616 0.995901 0.698247
1155 4 0.180628 0.0341354 0.67922
1284 4 0.205062 0.0181198 0.689525
1211 4 0.214186 0.0359022 0.686752
1210 2 0.222302 0.0580646 0.695006
1212 4 0.230419 0.0802269 0.70326
2201 4 0.253618 0.012322 0.686973
1239 4 0.271508 0.0220796 0.688501
1237 2 0.283362 0.0440922 0.688168
1238 4 0.295215 0.0661049 0.687835
2658 4 0.488795 0.0512992 0.686755
3401 4 0.485069 0.070438 0.683427
1164 4 0.487817 0.0634351 0.701919
2656 2 0.476654 0.0295099 0.685023
1162 2 0.492219 0.073722 0.724279
1163 4 0.496621 0.084009 0.74664
2657 4 0.464513 0.00772064 0.683291
2442 4 0.462046 0.995454 0.749407
1073 4 0.994606 0.0875696 0.682047
1072 2 0.0167442 0.0969509 0.688906
1074 4 0.0388828 0.106332 0.695765
947 4 0.0779412 0.116161 0.683537
946 2 0.094327 0.0992376 0.675153
863 4 0.00876732 0.144859 0.738157
992 4 0.132157 0.0783968 0.659645
1277 4 0.118018 0.117186 0.664173
948 4 0.110713 0.082314 0.66677
991 2 0.147254 0.0924178 0.67381
993 4 0.162352 0.106439 0.687976
1149 4 0.217338 0.0903473 0.711163
1147 2 0.201101 0.0925964 0.730044
1148 4 0.184864 0.0948456 0.748924
888 4 0.291581 0.0858716 0.683031
886 2 0.309052 0.099116 0.671009
1076 4 0.00453957 0.225657 0.697174
1064 4 0.128318 0.182268 0.673937
805 2 0.224478 0.218092 0.681416
807 4 0.230699 0.23111 0.701837
1257 4 0.221903 0.235663 0.71904
1255 2 0.199832 0.229606 0.729107
1256 4 0.177761 0.22355 0.739175
43 3 0.240964 0.241618 0.716058
917 4 0.280081 0.175452 0.707097
45 3 0.271891 0.242819 0.694616
918 4 0.269157 0.222419 0.693849
916 2 0.274619 0.198936 0.700473
845 4 0.415935 0.199151 0.746841
844 2 0.412973 0.205062 0.722728
846 4 0.41001 0.210972 0.698614
819 4 0.42124 0.181972 0.753553
858 4 0.149411 0.28961 0.665378
42 3 0.268885 0.265445 0.724144
1142 4 0.254698 0.255858 0.738885
41 1 0.257397 0.255272 0.707007
44 3 0.247676 0.271638 0.693739
830 4 0.361202 0.293776 0.729313
3276 4 0.0701212 0.356491 0.678371
815 4 0.0734457 0.34546 0.695323
814 2 0.0755951 0.34917 0.719956
885 4 0.0639903 0.410792 0.701469
883 2 0.085661 0.40694 0.713332
816 4 0.0777446 0.35288 0.744589
1078 2 0.143391 0.389695 0.739588
1079 4 0.125328 0.406915 0.738048
884 4 0.107332 0.403088 0.725194
2175 4 0.106647 0.400883 0.744791
1080 4 0.161454 0.372476 0.741128
2011 2 0.217724 0.388534 0.733651
2012 4 0.242477 0.390574 0.730769
2013 4 0.19297 0.386494 0.736532
941 4 0.181365 0.375282 0.747284
1027 2 0.30743 0.416112 0.678439
1029 4 0.304144 0.403692 0.699889
1140 4 0.309154 0.414182 0.758606
1007 4 0.37731 0.351377 0.66658
3430 2 0.00134256 0.466597 0.670321
1280 4 0.0732525 0.4686 0.676954
1281 4 0.0549933 0.429672 0.702487
1279 2 0.0641229 0.449136 0.689721
3431 4 0.0174414 0.447736 0.673525
2015 4 0.0937052 0.465621 0.677338
1028 4 0.310716 0.428532 0.656989
1952 4 0.27765 0.482117 0.668343
1230 4 0.325397 0.420227 0.749627
929 4 0.273599 0.459063 0.743832
928 2 0.27092 0.483913 0.744541
1229 4 0.365202 0.449168 0.740756
1228 2 0.345299 0.434697 0.745192
3329 4 0.495099 0.427005 0.727723
1206 4 0.490751 0.498988 0.726396
1204 2 0.469047 0.4904 0.735361
999 4 0.427684 0.486835 0.746637
1205 4 0.447343 0.481812 0.744326
838 2 0.294122 0.0847731 0.825076
840 4 0.281328 0.0901131 0.804268
1227 4 0.146577 0.117464 0.791607
1225 2 0.156423 0.103294 0.773512
1129 2 0.116343 0.154838 0.807819
1226 4 0.16627 0.0891235 0.755417
966 4 0.223238 0.10618 0.776077
964 2 0.246866 0.102095 0.783163
965 4 0.270495 0.0980096 0.790248
959 4 0.310431 0.146219 0.778121
958 2 0.299767 0.124041 0.782547
960 4 0.289103 0.101863 0.786974
1086 4 0.296374 0.158757 0.777881
2400 4 0.399222 0.11481 0.778953
2398 2 0.409474 0.10934 0.801092
1113 4 0.418034 0.100009 0.844147
2399 4 0.419726 0.103869 0.823231
1111 2 0.397325 0.0860572 0.845438
2322 4 0.437691 0.0960274 0.837478
2320 2 0.456299 0.099081 0.82106
2321 4 0.474908 0.102135 0.804641
922 2 0.0642988 0.220336 0.817565
923 4 0.0471251 0.236557 0.809372
924 4 0.0814725 0.204115 0.825758
821 4 0.0299598 0.246277 0.766577
1130 4 0.124592 0.162497 0.785493
1235 4 0.119845 0.212659 0.771961
1234 2 0.105774 0.2333 0.773027
1236 4 0.0917029 0.25394 0.774094