ITEM: TIMESTEP
2400000
ITEM: NUMBER OF ATOMS
4590
ITEM: BOX BOUNDS pp pp pp
-9.9985700000000008e+00 9.9985700000000008e+00
-9.9985700000000008e+00 9.9985700000000008e+00
-9.9985700000000008e+00 9.9985700000000008e+00
ITEM: ATOMS id type xs ys zs
1247 4 0.0114127 0.0668732 0.0251163
1246 2 0.0294168 0.0549464 0.0125153
1248 4 0.0474208 0.0430196 0.999914
996 4 0.150805 0.0119418 0.0324607
491 4 0.243228 0.0135357 0.0418228
490 2 0.261891 0.0218621 0.0274158
484 2 0.308277 0.0443297 0.00381632
486 4 0.283551 0.0477049 0.00226107
492 4 0.280553 0.0301885 0.0130088
485 4 0.333003 0.0409545 0.00537158
1607 4 0.344243 0.0232018 0.0057565
1606 2 0.360125 0.00514116 0.0125948
665 4 0.347394 0.0765815 0.0729765
2469 4 0.423943 0.0705049 0.0410882
2467 2 0.420327 0.069063 0.0163895
1759 2 0.44923 0.0513199 0.0649862
1760 4 0.427079 0.061371 0.0591985
1761 4 0.471381 0.0412688 0.0707739
2723 4 0.417985 0.0785523 0.0589661
358 2 0.236853 0.151287 0.0382636
359 4 0.220012 0.142171 0.0543398
360 4 0.253695 0.160402 0.0221874
664 2 0.360945 0.0945423 0.0620697
666 4 0.374496 0.112503 0.051163
866 4 0.378231 0.127833 0.0369708
865 2 0.387919 0.133844 0.014718
2722 2 0.414869 0.092836 0.0792502
2624 4 0.0251417 0.212474 0.0264703
2623 2 0.0288959 0.235342 0.0358609
396 4 0.00161101 0.240152 0.0614903
554 4 0.145585 0.228898 0.0174287
553 2 0.147036 0.207487 0.0302592
555 4 0.148488 0.186075 0.0430898
1133 4 0.149666 0.247277 0.00929841
507 4 0.182665 0.22171 0.0613265
505 2 0.170066 0.216823 0.0823636
2625 4 0.0326502 0.258209 0.0452515
657 4 0.0209438 0.283913 0.0713897
655 2 0.0156092 0.308117 0.0746884
656 4 0.0102746 0.332322 0.077987
3285 4 0.0264615 0.331812 0.010535
483 4 0.0859775 0.301416 0.0178891
481 2 0.0914431 0.323535 0.0281875
1232 4 0.0948392 0.285674 0.00498716
755 4 0.271768 0.288096 0.033188
754 2 0.294538 0.287027 0.0434627
756 4 0.317308 0.285958 0.0537374
740 4 0.313441 0.301512 0.0661637
739 2 0.323649 0.31976 0.079875
1071 4 0.360375 0.286759 0.0140268
827 4 0.370479 0.268963 0.00953733
1069 2 0.345844 0.301441 0.999937
1304 4 0.457558 0.286003 0.0219238
1303 2 0.469972 0.287866 0.0435476
1305 4 0.482387 0.289729 0.0651714
1308 4 0.461137 0.269875 0.0107315
1094 4 0.464159 0.328944 0.0219094
286 2 0.0773476 0.382198 0.0443692
288 4 0.0600827 0.400123 0.041966
836 4 0.020797 0.349285 0.0834856
2807 4 0.0029893 0.349748 0.0730471
287 4 0.0946126 0.364272 0.0467724
482 4 0.0969086 0.345654 0.0384859
355 2 0.130733 0.352388 0.0642268
357 4 0.112549 0.3529 0.047072
573 4 0.142371 0.372312 0.0317774
571 2 0.147702 0.384998 0.0109009
356 4 0.148916 0.351875 0.0813816
2840 4 0.397077 0.370813 0.0729191
2839 2 0.421419 0.370073 0.0672533
1095 4 0.461674 0.373004 0.0454303
1093 2 0.462917 0.350974 0.0336698
1046 4 0.456152 0.38591 0.0595409
1045 2 0.465806 0.407105 0.0686387
2841 4 0.445761 0.369334 0.0615874
314 4 0.0646958 0.417839 0.0598412
914 4 0.0623312 0.420666 0.0405714
313 2 0.0564878 0.426688 0.0817386
913 2 0.0696749 0.431734 0.0193877
294 4 0.0804086 0.487406 0.0668619
550 2 0.109976 0.478747 0.0354583
1659 4 0.143873 0.468056 0.0323296
551 4 0.126797 0.467238 0.0209744
1439 4 0.101175 0.491164 0.0695085
552 4 0.0931556 0.490256 0.0499421
61 1 0.217054 0.465502 0.0622056
65 3 0.197108 0.457919 0.0542488
1658 4 0.193376 0.46929 0.0393058
1657 2 0.168625 0.468673 0.0358177
62 3 0.223187 0.48436 0.050546
1803 4 0.209244 0.481777 0.0372308
63 3 0.233397 0.449278 0.0593608
1801 2 0.213233 0.493254 0.0153779
903 4 0.26242 0.436449 0.0334782
901 2 0.285098 0.438617 0.0437822
902 4 0.307777 0.440785 0.0540863
1289 4 0.316628 0.45791 0.0428189
1288 2 0.322861 0.474831 0.0254981
1290 4 0.329094 0.491752 0.0081773
252 4 0.325532 0.442005 0.0475332
246 4 0.298655 0.446858 0.0709079
250 2 0.338607 0.442704 0.0688341
1047 4 0.47546 0.428299 0.0777365
2479 2 0.0164756 0.00730273 0.121818
2481 4 0.0270937 0.0290646 0.128051
379 2 0.041988 0.0601776 0.114365
381 4 0.0441568 0.0398989 0.12883
3560 4 0.0292371 0.0429567 0.144083
380 4 0.0398193 0.0804563 0.0998992
3559 2 0.0199585 0.0551703 0.163829
579 4 0.149959 0.0306909 0.143902
577 2 0.153099 0.0431497 0.122452
578 4 0.156238 0.0556085 0.101002
423 4 0.159228 0.0757281 0.0984504
1806 4 0.150607 0.00916235 0.143391
652 2 0.230203 0.0344197 0.146238
654 4 0.211484 0.0419221 0.161019
581 4 0.195553 0.0529565 0.152905
653 4 0.248922 0.0269173 0.131457
24 3 0.362753 0.0576249 0.127943
21 1 0.35739 0.0724115 0.145002
25 3 0.351942 0.0608695 0.163863
236 4 0.119057 0.118916 0.0923459
235 2 0.111229 0.13842 0.105892
237 4 0.103401 0.157925 0.119437
421 2 0.179202 0.0895797 0.10431
534 4 0.214518 0.112868 0.100349
422 4 0.199177 0.103431 0.110169
532 2 0.229194 0.12713 0.114715
533 4 0.243871 0.141392 0.129081
22 3 0.375633 0.085753 0.149288
23 3 0.339618 0.0858557 0.138535
297 4 0.391498 0.0936818 0.157275
770 4 0.417089 0.156113 0.0974756
2724 4 0.411753 0.10712 0.0995342
769 2 0.441164 0.162842 0.0979888
477 4 0.11041 0.173748 0.110448
476 4 0.144635 0.209532 0.117436
475 2 0.127522 0.19164 0.113942
506 4 0.157467 0.211936 0.103401
738 4 0.153451 0.189549 0.16262
736 2 0.1674 0.206974 0.151351
737 4 0.181348 0.224399 0.140082
372 4 0.181005 0.23842 0.15702
284 4 0.195833 0.242457 0.141273
353 4 0.256827 0.212844 0.103982
352 2 0.259691 0.235656 0.0941543
311 4 0.271203 0.201844 0.11134
310 2 0.290389 0.195249 0.125955
312 4 0.309575 0.188654 0.140569
771 4 0.46524 0.169571 0.098502
363 4 0.0609316 0.298905 0.155364
648 4 0.0731118 0.283674 0.150408
646 2 0.0910968 0.279286 0.133602
647 4 0.109082 0.274897 0.116795
337 2 0.143141 0.289677 0.114496
339 4 0.126127 0.279081 0.129444
338 4 0.160154 0.300274 0.0995482
283 2 0.206035 0.265089 0.138292
285 4 0.216236 0.287722 0.135312
354 4 0.262555 0.258468 0.0843265
764 4 0.279654 0.262308 0.0960537
763 2 0.292413 0.275764 0.112826
765 4 0.305173 0.289219 0.129599
612 4 0.306473 0.30418 0.14331
610 2 0.294531 0.323651 0.15348
624 4 0.408233 0.311088 0.133241
835 2 0.0439978 0.350194 0.0927632
837 4 0.0671986 0.351103 0.102041
1756 2 0.0452505 0.395478 0.12316
1758 4 0.0440452 0.374981 0.137429
1757 4 0.0464558 0.415974 0.108891
705 4 0.0824519 0.342145 0.109832
703 2 0.107347 0.343539 0.111699
704 4 0.132241 0.344933 0.113565
456 4 0.153277 0.350787 0.116853
417 4 0.137029 0.364673 0.123237
415 2 0.129611 0.38534 0.135195
416 4 0.122193 0.406008 0.147153
454 2 0.171322 0.35575 0.133435
455 4 0.189366 0.360712 0.150016
611 4 0.282589 0.343123 0.16365
302 4 0.29887 0.353474 0.160928
386 4 0.332002 0.355617 0.104311
741 4 0.333857 0.338008 0.0935862
622 2 0.398309 0.333593 0.13774
387 4 0.373025 0.360921 0.132412
385 2 0.352513 0.358269 0.118362
13 3 0.367214 0.378082 0.140859
11 1 0.387271 0.385154 0.150138
15 3 0.393815 0.404725 0.140506
12 3 0.403299 0.3691 0.146323
623 4 0.388385 0.356098 0.142238
608 4 0.357985 0.395483 0.133815
494 4 0.396163 0.413925 0.157422
607 2 0.350057 0.414159 0.119202
104 3 0.47422 0.357946 0.119831
105 3 0.465244 0.394505 0.119105
101 1 0.464965 0.375569 0.131754
102 3 0.443207 0.370333 0.137077
103 3 0.476874 0.378978 0.151375
292 2 0.0663123 0.483216 0.0870836
293 4 0.0522161 0.479025 0.107305
315 4 0.0482798 0.435538 0.103636
1790 4 0.0252315 0.486989 0.157022
1438 2 0.119371 0.487621 0.0862876
1440 4 0.137567 0.484078 0.103067
243 4 0.155827 0.479555 0.11246
626 4 0.226478 0.482674 0.0967085
64 3 0.215075 0.470896 0.0846866
242 4 0.190808 0.446218 0.0995894
241 2 0.173317 0.462887 0.106025
1575 4 0.286672 0.460553 0.139192
1629 4 0.294013 0.475985 0.129696
244 2 0.294667 0.452721 0.094885
245 4 0.290679 0.458584 0.118862
1573 2 0.274359 0.461548 0.160931
1627 2 0.290025 0.499972 0.123872
251 4 0.351683 0.443404 0.0901349
609 4 0.342129 0.432835 0.10459
493 2 0.400302 0.438407 0.15448
495 4 0.404441 0.46289 0.151539
659 4 0.423628 0.463745 0.157107
3781 2 0.00453833 0.00744241 0.208628
3561 4 0.0106799 0.0673839 0.183576
582 4 0.163016 0.0744409 0.184217
567 4 0.150686 0.0817024 0.200684
580 2 0.179285 0.0636987 0.168561
690 4 0.186851 0.00325911 0.221604
675 4 0.20118 0.0163789 0.229624
673 2 0.213967 0.0369687 0.235765
674 4 0.226755 0.0575585 0.241907
1464 4 0.309132 0.0116567 0.204673
1462 2 0.297689 0.00972802 0.226821
1463 4 0.286246 0.0077993 0.248968
759 4 0.350852 0.0734806 0.180794
757 2 0.35191 0.0741327 0.205767
758 4 0.352968 0.0747848 0.23074
529 2 0.0233423 0.0894901 0.209631
531 4 0.040632 0.0915489 0.227575
511 2 0.0758362 0.0958051 0.223507
513 4 0.054479 0.103755 0.233795
512 4 0.0971933 0.0878549 0.213219
565 2 0.160473 0.104141 0.205772
566 4 0.17026 0.12658 0.210861
598 2 0.211801 0.125814 0.199693
600 4 0.190459 0.125971 0.212719
599 4 0.233143 0.125656 0.186667
461 4 0.270069 0.125435 0.167982
26 1 0.320085 0.137111 0.228919
30 3 0.303699 0.146477 0.216174
462 4 0.287572 0.152393 0.206291
324 4 0.300882 0.165881 0.215643
460 2 0.27882 0.138914 0.187137
27 3 0.318446 0.114197 0.227726
255 4 0.335498 0.159018 0.210515
295 2 0.393749 0.0962491 0.182045
29 3 0.340925 0.143563 0.221014
296 4 0.396001 0.0988165 0.206814
629 4 0.40459 0.100821 0.226783
557 4 0.455226 0.133758 0.18991
556 2 0.436167 0.120712 0.199488
558 4 0.417108 0.107666 0.209066
628 2 0.420912 0.103616 0.245517
404 4 0.0396486 0.226902 0.225471
403 2 0.0295605 0.239983 0.244241
391 2 0.157631 0.191758 0.23822
393 4 0.153764 0.195021 0.213734
322 2 0.286721 0.180266 0.230399
323 4 0.272561 0.194651 0.245155
254 4 0.335794 0.197612 0.178716
253 2 0.335646 0.178315 0.194616
332 4 0.442297 0.190694 0.18899
331 2 0.461432 0.191553 0.205061
333 4 0.480568 0.192413 0.221132
2682 4 0.493434 0.202454 0.235046
2453 4 0.498716 0.192287 0.21746
361 2 0.0704145 0.31417 0.172749
362 4 0.0798974 0.329434 0.190135
371 4 0.16102 0.268542 0.191574
748 2 0.114108 0.326953 0.210334
749 4 0.128588 0.328455 0.230663
750 4 0.0996274 0.32545 0.190006
370 2 0.171012 0.253481 0.174297
728 4 0.450006 0.265799 0.19444
498 4 0.442259 0.319481 0.237279
727 2 0.445081 0.285093 0.209562
729 4 0.440157 0.304387 0.224683
637 2 0.15352 0.400975 0.229324
638 4 0.159478 0.384906 0.24753
301 2 0.296733 0.377956 0.165539
303 4 0.294596 0.402437 0.17015
14 3 0.38483 0.388025 0.173033
645 4 0.396374 0.395411 0.188945
643 2 0.411777 0.400974 0.207839
496 2 0.453291 0.339881 0.227935
497 4 0.464324 0.360281 0.218591
644 4 0.42718 0.406538 0.226733
110 3 0.444112 0.414533 0.234862
109 3 0.463622 0.413928 0.202666
107 3 0.481418 0.413968 0.235771
3716 4 0.0251772 0.493831 0.175775
1320 4 0.0194506 0.444267 0.244179
639 4 0.147563 0.417044 0.211118
1574 4 0.262045 0.462543 0.182669
523 2 0.37186 0.481633 0.17439
525 4 0.366287 0.457373 0.176757
658 2 0.435807 0.482433 0.168402
106 1 0.463004 0.421856 0.224464
108 3 0.463562 0.445053 0.224476
545 4 0.106949 0.0500602 0.335276
467 4 0.227313 0.0609577 0.261498
429 4 0.22376 0.0469626 0.274163
427 2 0.220681 0.0308793 0.293058
428 4 0.217601 0.014796 0.311953
466 2 0.236859 0.0804577 0.273901
744 4 0.329237 0.0560188 0.309884
742 2 0.33253 0.0735919 0.327363
1516 2 0.328336 0.0153193 0.325727
1517 4 0.335158 0.00777687 0.302885
1496 4 0.354635 0.00427291 0.306686
1747 2 0.498014 0.000766669 0.269156
479 4 0.470998 0.0635104 0.298448
478 2 0.494127 0.069471 0.291053
1749 4 0.495956 0.0197047 0.285352
2739 4 0.0363942 0.123738 0.324977
2737 2 0.0186486 0.106422 0.328204
2483 4 0.104835 0.168638 0.291812
683 4 0.249684 0.0937177 0.305706
468 4 0.246404 0.0999577 0.286303
28 3 0.317628 0.143665 0.251042
682 2 0.257036 0.117371 0.309118
684 4 0.264387 0.141025 0.31253
631 2 0.302123 0.157444 0.278713
632 4 0.323818 0.149395 0.26924
633 4 0.280429 0.165494 0.288185
474 4 0.263117 0.156355 0.297213
726 4 0.274564 0.158016 0.315133
451 2 0.41111 0.148853 0.323288
453 4 0.422453 0.137745 0.303971
630 4 0.437234 0.106412 0.26425
405 4 0.0194725 0.253064 0.26301
2484 4 0.144571 0.194062 0.275217
2482 2 0.124703 0.18135 0.283515
392 4 0.161497 0.188496 0.262707
249 4 0.161537 0.19985 0.279179
247 2 0.182219 0.212976 0.284192
248 4 0.202902 0.226101 0.289206
279 4 0.221554 0.225161 0.285813
277 2 0.235363 0.243614 0.27612
473 4 0.226966 0.190822 0.299636
472 2 0.245042 0.173588 0.298425
305 4 0.398022 0.236266 0.310085
2680 2 0.48507 0.209169 0.257632
2681 4 0.476706 0.215884 0.280218
444 4 0.0235544 0.26927 0.273899
442 2 0.0353703 0.264718 0.295459
443 4 0.0471863 0.260167 0.317019
390 4 0.00833446 0.256399 0.278702
299 4 0.111372 0.33481 0.310561
536 4 0.244764 0.280645 0.273057
535 2 0.247996 0.304515 0.279762
278 4 0.249172 0.262067 0.266426
537 4 0.251229 0.328385 0.286467
345 4 0.278444 0.338344 0.320047
678 4 0.257296 0.33342 0.319354
304 2 0.404239 0.260106 0.305821
419 4 0.358415 0.319736 0.28368
418 2 0.37874 0.30519 0.28437
420 4 0.399065 0.290644 0.28506
306 4 0.410456 0.283946 0.301556
309 4 0.415838 0.283665 0.280894
308 4 0.442942 0.318151 0.256876
307 2 0.42939 0.300908 0.268885
681 4 0.00471615 0.372684 0.332916
2463 4 0.0324312 0.342836 0.275575
2461 2 0.0310877 0.367167 0.269977
548 4 0.0654257 0.352658 0.32978
547 2 0.0406195 0.354978 0.331889
2462 4 0.0297442 0.391499 0.264379
3959 4 0.0229413 0.40287 0.28275
1319 4 0.00946221 0.399493 0.264084
603 4 0.119824 0.350754 0.289454
601 2 0.135266 0.360607 0.272435
602 4 0.150708 0.37046 0.255416
290 4 0.172147 0.374605 0.257545
289 2 0.192829 0.368528 0.270214
291 4 0.21351 0.36245 0.282883
344 4 0.321485 0.360227 0.307036
436 2 0.321809 0.397329 0.297388
438 4 0.312559 0.374242 0.294822
343 2 0.299964 0.349285 0.313542
377 4 0.382458 0.336877 0.331207
1318 2 0.0144564 0.42188 0.254131
3958 2 0.0265856 0.414087 0.304797
3671 4 0.0163803 0.470216 0.329091
500 4 0.110535 0.42588 0.321044
414 4 0.179966 0.457089 0.30441
412 2 0.188562 0.451482 0.32721
437 4 0.33106 0.420416 0.299955
1741 2 0.352613 0.455334 0.31064
1743 4 0.353383 0.44692 0.287107
542 4 0.441214 0.48913 0.271672
318 4 0.00422638 0.0839263 0.408378
544 2 0.124023 0.0477094 0.35339
546 4 0.141097 0.0453585 0.371504
691 2 0.153145 0.00864496 0.372301
693 4 0.148097 0.0309471 0.382416
731 4 0.140693 0.0451366 0.394146
730 2 0.130774 0.0621195 0.409585
605 4 0.156402 0.0481437 0.380867
604 2 0.170019 0.0657693 0.369504
1670 4 0.290249 0.0403643 0.404649
1669 2 0.305843 0.0362088 0.385551
1671 4 0.321437 0.0320533 0.366453
1518 4 0.321513 0.0228618 0.348569
699 4 0.338875 0.030527 0.35601
697 2 0.357808 0.0361224 0.371353
698 4 0.376742 0.0417178 0.386695
2653 2 0.0141327 0.143641 0.376204
2654 4 0.00942254 0.158325 0.356521
316 2 0.00264416 0.0898509 0.384138
2655 4 0.0188429 0.128958 0.395886
398 4 0.133293 0.123336 0.337405
397 2 0.150557 0.111094 0.350718
276 4 0.166689 0.0984577 0.38413
399 4 0.167821 0.0988512 0.364031
606 4 0.183635 0.0833949 0.358142
274 2 0.18855 0.110338 0.386605
373 2 0.226719 0.160717 0.405133
275 4 0.210411 0.122219 0.389079
375 4 0.21347 0.140715 0.398094
686 4 0.211801 0.123767 0.408572
707 4 0.288374 0.0969533 0.381592
706 2 0.311733 0.0967626 0.372675
724 2 0.2871 0.155238 0.336588
725 4 0.299635 0.152461 0.358044
431 4 0.307002 0.153611 0.377617
430 2 0.318497 0.143541 0.397407
743 4 0.335823 0.091165 0.344842
708 4 0.335091 0.0965719 0.363758
351 4 0.342838 0.10977 0.348475
452 4 0.399767 0.159962 0.342604
349 2 0.366435 0.117894 0.350025
350 4 0.390031 0.126017 0.351575
256 2 0.394405 0.12166 0.395262
257 4 0.393264 0.130158 0.371774
374 4 0.239968 0.180719 0.412172
508 2 0.26774 0.206221 0.38907
487 2 0.320425 0.209666 0.367412
488 4 0.301197 0.22412 0.374237
509 4 0.283235 0.215817 0.371953
510 4 0.252245 0.196624 0.406187
516 4 0.392092 0.177579 0.344143
1581 4 0.411291 0.172143 0.355068
514 2 0.369365 0.177151 0.354559
489 4 0.339652 0.195212 0.360587
515 4 0.346639 0.176723 0.364976
1579 2 0.429917 0.175356 0.371436
1580 4 0.448544 0.178569 0.387804
3081 4 0.492492 0.18101 0.370654
585 4 0.484343 0.226386 0.364459
584 4 0.464265 0.191142 0.393708
267 4 0.462238 0.175355 0.404479
583 2 0.474304 0.208764 0.379083
408 4 0.0683619 0.271952 0.341889
618 4 0.045258 0.314385 0.384793
407 4 0.0400222 0.301396 0.370709
406 2 0.0541921 0.286674 0.356299
616 2 0.0556301 0.310336 0.40718
1260 4 0.279914 0.278277 0.387407
401 4 0.286777 0.289192 0.366426
400 2 0.279967 0.306558 0.349776
402 4 0.273156 0.323924 0.333126
1258 2 0.276226 0.266758 0.40929
270 4 0.485741 0.276541 0.38932
269 4 0.471974 0.303017 0.349193
268 2 0.478857 0.289779 0.369256
549 4 0.0158132 0.357297 0.333998
298 2 0.115122 0.346986 0.332075
735 4 0.101463 0.412875 0.386941
300 4 0.118872 0.359162 0.353589
767 4 0.136585 0.367739 0.351163
734 4 0.120441 0.379651 0.354743
733 2 0.110952 0.396263 0.370842
676 2 0.240909 0.33871 0.337484
766 2 0.161428 0.367117 0.353918
768 4 0.186272 0.366496 0.356673
677 4 0.224523 0.344 0.355614
592 2 0.324669 0.365845 0.378241
594 4 0.316869 0.358412 0.400804
593 4 0.332469 0.373279 0.355678
378 4 0.345257 0.358187 0.35695
376 2 0.363858 0.347532 0.344078
434 4 0.399347 0.412426 0.3586
586 2 0.491893 0.395567 0.357862
433 2 0.423034 0.404557 0.357117
435 4 0.44672 0.396689 0.355634
587 4 0.4669 0.396241 0.357656
3960 4 0.0302299 0.425304 0.326844
777 4 0.0284575 0.484905 0.335517
776 4 0.0611856 0.45477 0.358353
775 2 0.0448216 0.469838 0.346935
501 4 0.0716864 0.441141 0.348586
499 2 0.0911108 0.43351 0.334815
502 2 0.153259 0.45253 0.38574
504 4 0.148104 0.471487 0.401206
503 4 0.158415 0.433572 0.370273
1437 4 0.219328 0.477059 0.402874
1436 4 0.208188 0.443851 0.367183
1435 2 0.213758 0.460455 0.385028
413 4 0.197158 0.445875 0.350011
1557 4 0.259884 0.423566 0.340517
1555 2 0.267331 0.444871 0.35128
1556 4 0.274777 0.466175 0.362043
669 4 0.279451 0.485156 0.356367
1742 4 0.351843 0.463748 0.334173
3990 4 0.380555 0.422937 0.366067
1714 2 0.395028 0.475675 0.342683
119 3 0.35076 0.479333 0.35066
116 1 0.347775 0.49592 0.366609
117 3 0.348566 0.486361 0.387518
3989 4 0.357675 0.464479 0.381925
3988 2 0.369115 0.443708 0.373996
1268 4 0.362965 0.476772 0.396623
1715 4 0.370414 0.47142 0.341567
1716 4 0.419642 0.47993 0.3438
1058 4 0.0163598 0.0486919 0.470495
937 2 0.01867 0.00678634 0.467682
938 4 0.0257882 0.0303938 0.463535
1602 4 0.0696224 0.0525646 0.439343
1057 2 0.0153218 0.0734924 0.46749
1600 2 0.0807545 0.0305331 0.443327
732 4 0.120855 0.0791023 0.425024
1478 4 0.11098 0.00899596 0.45345
1477 2 0.131615 0.00460235 0.466869
1601 4 0.0918866 0.00850167 0.44731
1479 4 0.15225 0.000208737 0.480287
1816 2 0.22339 0.0156844 0.4454
962 4 0.228721 0.0398935 0.465294
961 2 0.230039 0.0502468 0.488015
1817 4 0.217064 0.0393995 0.450171
1427 4 0.480771 0.0343805 0.446734
1426 2 0.479638 0.0139804 0.461147
369 4 0.0262077 0.121438 0.416051
367 2 0.0204216 0.120263 0.440348
1059 4 0.0142837 0.0982929 0.464484
368 4 0.0146354 0.119088 0.464644
687 4 0.220651 0.111234 0.456167
685 2 0.216226 0.117501 0.43237
1151 4 0.247288 0.164425 0.505758
432 4 0.329992 0.133471 0.417197
425 4 0.319599 0.131824 0.435667
1152 4 0.286595 0.146969 0.480246
1150 2 0.266941 0.155697 0.493002
258 4 0.395546 0.113162 0.418749
424 2 0.334521 0.120284 0.452079
426 4 0.349443 0.108745 0.468491
1221 4 0.200761 0.183025 0.465834
1219 2 0.21578 0.179522 0.485515
1220 4 0.230799 0.176019 0.505196
711 4 0.288086 0.221279 0.474727
650 4 0.301084 0.207956 0.485761
709 2 0.275964 0.23915 0.462121
649 2 0.315612 0.189215 0.493692
717 4 0.38099 0.174034 0.454743
715 2 0.360379 0.174256 0.468896
716 4 0.339767 0.174477 0.483049
411 4 0.376341 0.189367 0.491904
265 2 0.460658 0.182567 0.428368
574 2 0.470528 0.208072 0.477042
575 4 0.478437 0.193459 0.458358
266 4 0.459078 0.189779 0.452257
576 4 0.462619 0.222686 0.495726
617 4 0.0660022 0.306287 0.429568
1135 2 0.149628 0.292962 0.471964
1137 4 0.140575 0.314998 0.479557
1041 4 0.121329 0.319054 0.481554
1136 4 0.158681 0.270927 0.46437
1259 4 0.272539 0.255239 0.431174
710 4 0.263843 0.25702 0.449515
2813 4 0.0369253 0.367731 0.459265
2812 2 0.0530245 0.364773 0.478166
2814 4 0.0691236 0.361814 0.497066
1039 2 0.102764 0.334361 0.488351
1040 4 0.0841984 0.349668 0.495148
1190 4 0.130764 0.406374 0.487134
752 4 0.455459 0.406081 0.485382
383 4 0.00971875 0.446098 0.487346
382 2 0.0336036 0.438708 0.487075
384 4 0.0574884 0.431317 0.486805
1191 4 0.165856 0.43348 0.464014
1172 4 0.0932968 0.466736 0.496411
1171 2 0.104522 0.44448 0.494458
1189 2 0.14831 0.419927 0.475574
1173 4 0.115746 0.422223 0.492505
636 4 0.217795 0.493544 0.418121
336 4 0.321166 0.493679 0.435906
1269 4 0.394274 0.473203 0.435451
1267 2 0.378619 0.474987 0.416037
4085 4 0.445416 0.477609 0.494334
751 2 0.460593 0.430024 0.480331
753 4 0.465727 0.453968 0.475279
823 2 0.0632508 0.0474467 0.544226
825 4 0.0387595 0.0424113 0.54421
824 4 0.0877421 0.052482 0.544241
2429 4 0.0912488 0.0677492 0.531298
2428 2 0.115231 0.067101 0.524254
2430 4 0.139213 0.0664528 0.517211
1128 4 0.0858835 0.0157391 0.506868
1180 2 0.22316 0.0564084 0.552204
1182 4 0.213993 0.0507088 0.574757
963 4 0.231358 0.0606002 0.510737
1181 4 0.232327 0.0621081 0.52965
841 2 0.323983 0.0476172 0.580536
843 4 0.299285 0.0437956 0.579793
1004 4 0.408381 0.0309762 0.545022
95 3 0.40971 0.00361134 0.515336
1003 2 0.388404 0.0375984 0.558522
2333 4 0.352817 0.0305323 0.563741
842 4 0.348682 0.0514388 0.581279
1005 4 0.368427 0.0442206 0.572022
2332 2 0.34765 0.00828208 0.553572
93 3 0.417582 0.0125262 0.55106
1723 2 0.477766 0.0150051 0.542383
94 3 0.444509 0.0148216 0.524338
91 1 0.425769 0.00314994 0.531478
4239 4 0.501197 0.0203537 0.569495
1725 4 0.497517 0.0275999 0.551128
1724 4 0.458015 0.00241039 0.533639
879 4 0.0571621 0.15098 0.549964
877 2 0.0355958 0.138357 0.550817
470 4 0.017627 0.107004 0.555898
878 4 0.0140295 0.125733 0.551669
1272 4 0.0748666 0.159666 0.559666
1270 2 0.0842487 0.142575 0.57532
260 4 0.173058 0.164882 0.510399
944 4 0.222041 0.127496 0.547039
943 2 0.230228 0.147473 0.534428
326 4 0.312139 0.145518 0.561119
327 4 0.266662 0.144669 0.540339
325 2 0.2894 0.145094 0.550729
900 4 0.345463 0.112252 0.558215
898 2 0.35244 0.132237 0.571522
321 4 0.374905 0.126108 0.513657
319 2 0.356643 0.143091 0.515465
320 4 0.33838 0.160073 0.517274
3053 4 0.480515 0.14405 0.510666
3052 2 0.469825 0.136901 0.532109
3054 4 0.459134 0.129753 0.553552
935 4 0.022723 0.1806 0.514785
934 2 0.000316209 0.179618 0.525837
259 2 0.151362 0.171993 0.520592
261 4 0.129666 0.179104 0.530785
1033 2 0.121885 0.204803 0.562961
1034 4 0.123947 0.223604 0.579315
1035 4 0.119823 0.186002 0.546607
945 4 0.238415 0.167451 0.521816
790 2 0.244293 0.204925 0.52402
792 4 0.239003 0.227341 0.533751
791 4 0.249584 0.182509 0.514288
651 4 0.330139 0.170475 0.501624
409 2 0.395229 0.201111 0.503328
410 4 0.414116 0.212855 0.514752
2845 2 0.0609876 0.255683 0.561911
3262 2 0.0326839 0.311381 0.556474
2847 4 0.0373105 0.25878 0.569326
3264 4 0.0302664 0.334267 0.546698
3263 4 0.0351013 0.288495 0.566251
3327 4 0.0269605 0.273984 0.577344
2846 4 0.0846648 0.252586 0.554496
813 4 0.216067 0.290666 0.541811
811 2 0.234397 0.275595 0.549688
812 4 0.252728 0.260524 0.557564
804 4 0.26704 0.268909 0.545871
802 2 0.285636 0.272514 0.52955
803 4 0.304232 0.27612 0.513229
895 2 0.144168 0.391539 0.556013
897 4 0.137186 0.393627 0.532096
1160 4 0.0957616 0.370013 0.525926
1159 2 0.108804 0.388633 0.515516
1161 4 0.121847 0.407253 0.505106
896 4 0.151151 0.389451 0.579931
238 2 0.327596 0.405468 0.513181
239 4 0.342489 0.388939 0.501772
3603 4 0.410519 0.406567 0.53409
561 4 0.469121 0.39788 0.499214
3602 4 0.450259 0.397758 0.505041
559 2 0.491578 0.389158 0.505907
3601 2 0.430389 0.402163 0.519565
1936 2 0.01025 0.48088 0.538794
1938 4 0.0141631 0.459772 0.551611
539 4 0.156329 0.448471 0.542399
538 2 0.165064 0.468514 0.55453
540 4 0.173799 0.488557 0.566661
240 4 0.312702 0.421996 0.52459
1000 2 0.399381 0.493056 0.583389
1002 4 0.400916 0.500394 0.559535
4084 2 0.466589 0.487076 0.503676
4148 4 0.476923 0.489877 0.565552
4086 4 0.487761 0.496543 0.513019
10 3 0.0761519 0.0755384 0.648109
1153 2 0.156588 0.0528932 0.647612
6 1 0.0951754 0.0808101 0.659465
9 3 0.113776 0.0744828 0.647121
1154 4 0.13669 0.0678206 0.645079
1031 4 0.201838 0.044235 0.587212
950 4 0.245601 0.00970941 0.596205
1155 4 0.176486 0.0379658 0.650146
1282 2 0.180292 0.00218318 0.653085
1284 4 0.188884 0.0235601 0.64337
1032 4 0.188079 0.042676 0.635264
1030 2 0.194958 0.0434555 0.611238
1211 4 0.19713 0.038341 0.652704
1210 2 0.206471 0.0587935 0.663641
951 4 0.281855 0.0431019 0.587762
949 2 0.263728 0.0264056 0.591983
1217 4 0.377202 0.0411597 0.591011
1216 2 0.382183 0.0606807 0.60582
1218 4 0.387163 0.0802018 0.620629
149 3 0.484293 0.0362458 0.653409
150 3 0.47591 0.0728786 0.65108
148 3 0.480241 0.0528758 0.619476
146 1 0.487428 0.0558151 0.641342
4237 2 0.498264 0.0296779 0.592509
4238 4 0.49533 0.0390022 0.615523
1200 4 0.00404077 0.0981082 0.663157
851 4 0.00546583 0.158382 0.635413
8 3 0.0958323 0.103624 0.663651
1271 4 0.0936308 0.125484 0.590974
1276 2 0.113205 0.155744 0.656066
1277 4 0.102473 0.134712 0.664291
887 4 0.334662 0.11774 0.659609
899 4 0.359417 0.152222 0.584829
1192 2 0.341921 0.16021 0.622168
1194 4 0.35122 0.148294 0.60225
1162 2 0.483758 0.10754 0.663273
1164 4 0.47843 0.0910886 0.645213
3401 4 0.492302 0.0878422 0.63073
850 2 0.00769813 0.181566 0.644507
908 4 0.0555268 0.213139 0.644011
1208 4 0.0073813 0.217242 0.638165
852 4 0.00993044 0.20475 0.653601
907 2 0.0726584 0.197955 0.633955
695 4 0.130799 0.242913 0.584097
909 4 0.08979 0.18277 0.623899
1063 2 0.159414 0.190831 0.643644
694 2 0.149224 0.243466 0.60099
1064 4 0.141191 0.174095 0.640034
1278 4 0.123936 0.176776 0.64784
798 4 0.16734 0.24339 0.653697
1065 4 0.177637 0.207566 0.647253
696 4 0.167649 0.244019 0.617884
1193 4 0.332623 0.172126 0.642086
1024 2 0.409894 0.23547 0.649161
1025 4 0.38936 0.249735 0.649303
953 4 0.464443 0.231703 0.594183
1026 4 0.430429 0.221206 0.649019
954 4 0.443831 0.214531 0.636385
952 2 0.454137 0.223117 0.615284
3325 2 0.00853826 0.273736 0.594248
984 4 0.0440237 0.28407 0.584209
982 2 0.0570255 0.295249 0.602407
983 4 0.0700274 0.306429 0.620604
3275 4 0.0706321 0.318241 0.634505
856 2 0.111061 0.303508 0.636587
858 4 0.135508 0.299683 0.640176
857 4 0.0866135 0.307334 0.632999
797 4 0.15228 0.290879 0.649382
796 2 0.15981 0.267135 0.651539
3123 4 0.499319 0.267149 0.643649
3121 2 0.480202 0.280442 0.652761
3122 4 0.461084 0.293734 0.661873
1263 4 0.497878 0.254936 0.583953
3274 2 0.0673034 0.333124 0.654319
1006 2 0.402113 0.377417 0.661295
1008 4 0.414837 0.394773 0.648566
1280 4 0.0680288 0.442637 0.66588
2014 2 0.0904016 0.472708 0.653767
2172 4 0.107526 0.49933 0.630903
2016 4 0.109589 0.482798 0.641309
1067 4 0.251345 0.437599 0.599387
1066 2 0.2751 0.440801 0.606503
1068 4 0.298855 0.444003 0.613618
1175 4 0.320202 0.44716 0.615804
1028 4 0.308058 0.438515 0.62995
1953 4 0.307373 0.457898 0.626635
1951 2 0.300922 0.47739 0.640904
1027 2 0.309092 0.426438 0.65182
1174 2 0.342847 0.455239 0.60894
1001 4 0.397846 0.485719 0.607242
1176 4 0.365492 0.463317 0.602075
2167 2 0.497425 0.490528 0.598555
1249 2 0.495116 0.493783 0.658252
1185 4 0.0695605 0.00375005 0.695443
7 3 0.0953866 0.0695592 0.679528
978 4 0.108544 0.0681095 0.694756
992 4 0.121352 0.0822767 0.689035
976 2 0.103169 0.0774056 0.717336
1148 4 0.168315 0.0848875 0.730449
1149 4 0.206224 0.0522931 0.729351
1147 2 0.18727 0.0685903 0.7299
2201 4 0.241579 0.00493394 0.686758
1212 4 0.215812 0.079246 0.674577
1239 4 0.261427 0.0388628 0.669039
1237 2 0.276596 0.0557015 0.679599
1238 4 0.291766 0.0725403 0.690159
2656 2 0.490749 0.0177324 0.681137
2657 4 0.481723 0.00054714 0.696897
1073 4 0.00832751 0.0974458 0.683396
1072 2 0.0296296 0.105267 0.693895
1074 4 0.0509317 0.113088 0.704394
947 4 0.0634865 0.128881 0.706267
946 2 0.082732 0.123616 0.691198
862 2 0.00524441 0.138587 0.745369
993 4 0.162932 0.109333 0.682725
948 4 0.101977 0.118351 0.676129
991 2 0.142142 0.0958046 0.68588
977 4 0.0977946 0.0867017 0.739917
806 4 0.198199 0.146076 0.715962
888 4 0.305624 0.0850197 0.683834
917 4 0.254538 0.158959 0.717184
886 2 0.320143 0.10138 0.671721
2400 4 0.399873 0.132953 0.740181
1163 4 0.489086 0.123991 0.681332
1076 4 0.0089177 0.20337 0.694016
1235 4 0.1286 0.219029 0.718125
1234 2 0.118198 0.226464 0.739611
805 2 0.202595 0.170681 0.71528
45 3 0.247168 0.228841 0.715305
41 1 0.226012 0.231975 0.723131
43 3 0.211915 0.215634 0.714608
807 4 0.206992 0.195286 0.714599
42 3 0.226123 0.230467 0.746085
1257 4 0.204048 0.205349 0.732443
918 4 0.252272 0.208915 0.717
916 2 0.253405 0.183937 0.717092
846 4 0.385088 0.201166 0.705329
844 2 0.403897 0.199831 0.721749
845 4 0.422705 0.198496 0.73817
44 3 0.218351 0.253012 0.717034
830 4 0.379668 0.26593 0.745106
3276 4 0.0639747 0.348007 0.674134
814 2 0.0783028 0.364478 0.713513
815 4 0.0712973 0.358594 0.690243
816 4 0.0853084 0.370361 0.736783
1078 2 0.149284 0.400413 0.745213
1080 4 0.165959 0.381829 0.746555
2011 2 0.220183 0.378964 0.726072
2012 4 0.244725 0.375409 0.722874
2013 4 0.195641 0.382518 0.72927
941 4 0.184194 0.374377 0.743697
1029 4 0.310126 0.414362 0.673689
1007 4 0.389389 0.36006 0.674024
2015 4 0.0712147 0.462617 0.666226
1281 4 0.0638101 0.425312 0.712599
1279 2 0.0659195 0.433975 0.689239
3431 4 0.0287779 0.459214 0.685822
3430 2 0.0147876 0.477271 0.675653
885 4 0.0759516 0.428191 0.727203
883 2 0.0962739 0.426662 0.741689
1079 4 0.13261 0.418996 0.743871
929 4 0.2755 0.441699 0.735332
928 2 0.27062 0.463926 0.745693
1229 4 0.361713 0.44942 0.743917
1228 2 0.352162 0.426918 0.749171
1206 4 0.474906 0.475436 0.741764
3135 4 0.00215549 0.0404335 0.762143
1197 4 0.233101 0.00041077 0.807791
1112 4 0.369762 0.0782454 0.802976
2442 4 0.473502 0.0131645 0.756805
980 4 0.494371 0.0110665 0.831174
863 4 0.0162598 0.119473 0.757138
1129 2 0.0937713 0.155036 0.8287
1130 4 0.10991 0.149879 0.810312
1226 4 0.167855 0.0904644 0.75067
1227 4 0.170925 0.112297 0.795554
966 4 0.210603 0.096497 0.805174
1225 2 0.16939 0.101381 0.773112
964 2 0.235324 0.0970384 0.801468
838 2 0.289883 0.0834901 0.825465
840 4 0.275587 0.0971762 0.810185
965 4 0.260046 0.0975799 0.797762
959 4 0.319714 0.157051 0.793328