ITEM: TIMESTEP
230000
ITEM: NUMBER OF ATOMS
4590
ITEM: BOX BOUNDS pp pp pp
-9.9985700000000008e+00 9.9985700000000008e+00
-9.9985700000000008e+00 9.9985700000000008e+00
-9.9985700000000008e+00 9.9985700000000008e+00
ITEM: ATOMS id type xs ys zs
463 2 0.0676434 0.0422429 0.0182964
465 4 0.0638758 0.0658373 0.0109282
1667 4 0.0708839 0.0238946 0.0456045
1666 2 0.0638835 0.0134626 0.0672227
590 4 0.016328 0.0777119 0.0509735
464 4 0.071411 0.0186486 0.0256647
702 4 0.118751 0.0707474 0.0772533
532 2 0.2127 0.0471167 0.0208537
534 4 0.230522 0.0646399 0.0215672
533 4 0.194879 0.0295936 0.0201403
490 2 0.292963 0.0409637 0.0446014
491 4 0.289609 0.0166002 0.0491122
492 4 0.296317 0.0653273 0.0400906
745 2 0.439537 0.0529934 0.0321337
746 4 0.422375 0.054875 0.05022
747 4 0.456698 0.0511117 0.0140473
2975 4 0.474716 0.0421215 0.0163894
2974 2 0.491144 0.0281725 0.00371255
297 4 0.423188 0.0862662 0.0790624
2468 4 0.498506 0.0501571 0.0526965
589 2 0.0377558 0.0905887 0.0514379
591 4 0.0591836 0.103466 0.0519023
3233 4 0.00334456 0.148159 0.0266714
3232 2 0.0104188 0.136735 0.00558518
700 2 0.10825 0.0923642 0.0703524
701 4 0.0977487 0.113981 0.0634515
422 4 0.122311 0.124467 0.0162798
421 2 0.13411 0.144524 0.00713306
476 4 0.124506 0.168663 0.0594977
566 4 0.212733 0.0869704 0.083686
360 4 0.276695 0.111661 0.0202269
358 2 0.282892 0.110855 0.996017
295 2 0.404998 0.102493 0.0734954
557 4 0.346931 0.149431 0.0287028
296 4 0.386808 0.11872 0.0679284
556 2 0.357365 0.133747 0.045144
558 4 0.3678 0.118063 0.0615852
771 4 0.44979 0.153788 0.0230753
769 2 0.472054 0.161401 0.0315316
555 4 0.0642666 0.216023 0.0074258
553 2 0.0835055 0.214027 0.0232706
554 4 0.102744 0.212031 0.0391154
572 4 0.335684 0.256799 0.038682
665 4 0.34216 0.16928 0.0290759
664 2 0.34176 0.168226 0.00409773
324 4 0.41309 0.241046 0.0778463
770 4 0.494319 0.169014 0.0399878
294 4 0.0947 0.313804 0.0111672
292 2 0.111577 0.295623 0.00803834
293 4 0.128454 0.277442 0.00490945
915 4 0.140121 0.26616 0.991792
483 4 0.228327 0.303118 0.0561603
505 2 0.18792 0.289328 0.0856289
507 4 0.193137 0.296412 0.0622243
481 2 0.251972 0.306286 0.0486733
913 2 0.164759 0.26985 0.993924
571 2 0.312605 0.263456 0.045626
573 4 0.289526 0.270114 0.0525699
355 2 0.27164 0.281748 0.999138
482 4 0.275617 0.309455 0.0411864
357 4 0.293626 0.29068 0.00701273
740 4 0.340727 0.300384 0.0854934
280 2 0.478637 0.328269 0.0142296
281 4 0.501319 0.325976 0.0244978
322 2 0.429374 0.257374 0.0681811
323 4 0.445658 0.273702 0.058516
671 4 0.469576 0.339366 0.050166
282 4 0.455955 0.330563 0.00396138
1070 4 0.415221 0.250951 0.0150145
454 2 0.14264 0.352156 0.0730218
455 4 0.135157 0.351856 0.049166
286 2 0.190565 0.367293 0.00469793
287 4 0.187105 0.347713 0.0198592
252 4 0.248206 0.395366 0.0429731
250 2 0.269562 0.405137 0.0515532
609 4 0.308079 0.405714 0.0632801
607 2 0.331371 0.414277 0.0602184
251 4 0.290918 0.414909 0.0601333
956 4 0.363813 0.36225 0.030967
955 2 0.347496 0.359276 0.0122557
672 4 0.42384 0.350249 0.0672097
670 2 0.446708 0.344807 0.0586878
551 4 0.0748202 0.473321 0.0510221
314 4 0.993396 0.450116 0.0779801
242 4 0.133657 0.48716 0.0602065
552 4 0.0998475 0.440458 0.0228375
550 2 0.0873339 0.45689 0.0369298
241 2 0.153452 0.493021 0.0743131
245 4 0.213021 0.469614 0.018458
272 4 0.302045 0.484021 0.0108068
608 4 0.354662 0.422839 0.0571568
524 4 0.3411 0.484831 0.064617
1673 4 0.439661 0.487761 0.0365397
228 4 0.481219 0.461152 0.0720172
564 4 0.430957 0.477104 0.023342
562 2 0.450449 0.467103 0.0112904
1668 4 0.056883 0.00303066 0.0888409
16 1 0.0833961 0.0687929 0.126888
19 3 0.0685057 0.0804465 0.113439
18 3 0.0738627 0.0487921 0.133779
17 3 0.0881944 0.0815236 0.145436
450 4 0.150697 0.0571966 0.121441
20 3 0.102642 0.0646851 0.115426
448 2 0.174901 0.0524769 0.117307
449 4 0.199105 0.0477571 0.113173
652 2 0.304519 0.0428655 0.169229
653 4 0.322377 0.0310768 0.156294
486 4 0.343266 0.0127786 0.0897852
1784 4 0.399161 0.995061 0.151303
1760 4 0.472601 0.0128183 0.143153
235 2 0.155002 0.125365 0.135373
237 4 0.142875 0.137093 0.116918
475 2 0.132988 0.16104 0.0817489
477 4 0.141471 0.153417 0.104
236 4 0.167128 0.113637 0.153827
565 2 0.222647 0.107338 0.0942717
567 4 0.232561 0.127706 0.104857
582 4 0.288918 0.0905362 0.110043
580 2 0.279751 0.0959628 0.132664
581 4 0.270584 0.10139 0.155284
692 4 0.268722 0.0850718 0.167746
630 4 0.403659 0.157922 0.146244
628 2 0.415569 0.147348 0.126969
629 4 0.427478 0.136774 0.107693
379 2 0.0168619 0.17127 0.158587
380 4 0.0283082 0.169234 0.136451
339 4 0.0704187 0.220356 0.152734
337 2 0.091696 0.229717 0.143523
338 4 0.112973 0.239078 0.134313
736 2 0.187658 0.205712 0.146996
737 4 0.18567 0.216425 0.124491
353 4 0.245034 0.211342 0.11799
738 4 0.189645 0.195 0.169501
352 2 0.252623 0.225196 0.137372
354 4 0.260211 0.23905 0.156754
461 4 0.304329 0.184662 0.141598
460 2 0.324309 0.19533 0.131009
254 4 0.404597 0.22211 0.114933
255 4 0.358404 0.204975 0.106366
462 4 0.34429 0.205999 0.120419
253 2 0.3815 0.213543 0.110649
517 2 0.459095 0.244451 0.117587
518 4 0.45686 0.224807 0.102279
703 2 0.0156286 0.308028 0.153274
705 4 0.0378956 0.315247 0.144485
647 4 0.0744775 0.305176 0.16394
506 4 0.182702 0.282244 0.109034
754 2 0.270304 0.277568 0.137967
755 4 0.26536 0.256325 0.150192
756 4 0.275248 0.298811 0.125741
610 2 0.266741 0.328502 0.164008
741 4 0.370935 0.287015 0.123037
624 4 0.41431 0.264902 0.149137
739 2 0.355831 0.293699 0.104265
12 3 0.414264 0.326572 0.164561
519 4 0.46133 0.264094 0.132894
622 2 0.426096 0.285556 0.15686
623 4 0.437882 0.306211 0.164583
526 2 0.483801 0.269584 0.158494
528 4 0.460411 0.262359 0.153407
620 4 0.0132698 0.364807 0.102549
619 2 0.996062 0.34711 0.0985636
456 4 0.150122 0.352456 0.0968776
625 2 0.225286 0.412848 0.123298
626 4 0.214204 0.398794 0.105838
612 4 0.248601 0.338796 0.150217
387 4 0.381994 0.342144 0.129539
385 2 0.370683 0.359598 0.115661
386 4 0.359372 0.377053 0.101784
11 1 0.408035 0.346966 0.155934
13 3 0.385945 0.345722 0.148942
595 2 0.487324 0.374401 0.150728
15 3 0.421495 0.352074 0.138288
416 4 0.156069 0.429161 0.149286
243 4 0.173247 0.498882 0.0884197
627 4 0.236369 0.426902 0.140757
639 4 0.243039 0.444225 0.145562
637 2 0.256988 0.454994 0.163299
523 2 0.352207 0.490374 0.0863216
525 4 0.363314 0.495917 0.108026
658 2 0.379041 0.480966 0.140182
660 4 0.376051 0.457796 0.14909
495 4 0.435963 0.432689 0.113121
493 2 0.443748 0.428445 0.136499
494 4 0.451532 0.424201 0.159878
1403 4 0.085845 0.0208587 0.248946
2480 4 0.00391423 0.0405885 0.182184
1422 4 0.00270347 0.0207662 0.178897
673 2 0.097504 0.0460733 0.220258
674 4 0.108583 0.0668869 0.211937
675 4 0.0864249 0.0252598 0.228578
689 4 0.1895 0.0320399 0.234161
693 4 0.224059 0.082827 0.190126
723 4 0.203985 0.0744733 0.221838
688 2 0.199478 0.0119743 0.245251
654 4 0.286661 0.0546541 0.182163
1505 4 0.257177 0.0106262 0.172136
21 1 0.374866 0.0530472 0.226113
24 3 0.371494 0.0312779 0.218824
25 3 0.390865 0.0631065 0.213405
759 4 0.397732 0.064727 0.193532
22 3 0.355141 0.0647073 0.224087
23 3 0.381312 0.0530283 0.248403
757 2 0.418917 0.0752566 0.185438
758 4 0.440101 0.0857862 0.177343
744 4 0.439369 0.0538585 0.229862
511 2 0.00529219 0.164116 0.235508
512 4 0.0232371 0.164676 0.218106
577 2 0.129299 0.102818 0.197156
578 4 0.145243 0.121049 0.190944
579 4 0.113355 0.0845868 0.203368
691 2 0.246391 0.0839494 0.178936
721 2 0.191043 0.0929942 0.232546
546 4 0.166042 0.12813 0.236903
722 4 0.178101 0.111515 0.243255
544 2 0.177889 0.145804 0.250035
26 1 0.32237 0.158442 0.246748
29 3 0.328829 0.136754 0.241619
310 2 0.392371 0.130506 0.187553
312 4 0.402447 0.110415 0.176599
311 4 0.382295 0.150598 0.198507
333 4 0.491351 0.144796 0.236157
332 4 0.468186 0.100479 0.236505
331 2 0.479768 0.122638 0.236331
363 4 0.0527778 0.231433 0.1836
392 4 0.109901 0.186344 0.214355
391 2 0.0953606 0.171933 0.228711
370 2 0.133542 0.243523 0.217801
371 4 0.143388 0.227259 0.23404
372 4 0.123695 0.259787 0.201563
279 4 0.260608 0.244394 0.177457
28 3 0.3197 0.170733 0.22725
284 4 0.268425 0.226817 0.172135
283 2 0.27954 0.209619 0.186484
285 4 0.290654 0.192422 0.200833
765 4 0.342467 0.204393 0.20239
764 4 0.388874 0.21289 0.18581
763 2 0.365671 0.208642 0.1941
520 2 0.48939 0.178626 0.21286
521 4 0.489348 0.193098 0.19247
522 4 0.489432 0.164154 0.233249
762 4 0.487792 0.155303 0.254481
361 2 0.0645512 0.250076 0.195389
750 4 0.0762338 0.263292 0.240311
362 4 0.0763245 0.26872 0.207179
646 2 0.0885743 0.317875 0.180225
648 4 0.102671 0.330573 0.19651
343 2 0.224882 0.293804 0.239058
344 4 0.238655 0.274009 0.232452
345 4 0.21111 0.313599 0.245664
277 2 0.258093 0.265696 0.190305
278 4 0.255577 0.286998 0.203153
307 2 0.290127 0.295247 0.230134
309 4 0.271022 0.28922 0.215171
308 4 0.309231 0.301274 0.245097
611 4 0.28488 0.318208 0.177799
262 2 0.0358518 0.411829 0.211626
264 4 0.0283701 0.403191 0.233865
263 4 0.0433336 0.420466 0.189387
537 4 0.164574 0.334042 0.167302
298 2 0.153541 0.340954 0.239413
299 4 0.138528 0.344764 0.219784
535 2 0.188192 0.34128 0.171172
536 4 0.21181 0.348518 0.175043
302 4 0.337646 0.404822 0.210116
14 3 0.41021 0.363089 0.172479
106 1 0.495596 0.410741 0.20021
597 4 0.471739 0.361879 0.165743
643 2 0.443317 0.408106 0.189022
645 4 0.42435 0.394164 0.180594
108 3 0.489649 0.395464 0.183789
109 3 0.497257 0.400057 0.22074
2618 4 0.00377878 0.473938 0.215638
415 2 0.14126 0.422426 0.168274
417 4 0.126452 0.415691 0.187261
1430 4 0.211971 0.503541 0.20943
291 4 0.193122 0.469884 0.182831
289 2 0.202197 0.453351 0.199247
290 4 0.211272 0.436817 0.215663
301 2 0.32286 0.418149 0.194985
638 4 0.270938 0.465763 0.181037
303 4 0.308074 0.431475 0.179853
768 4 0.286122 0.472078 0.191796
767 4 0.277447 0.449065 0.235338
766 2 0.281784 0.460571 0.213567
644 4 0.462284 0.422049 0.19745
110 3 0.480078 0.427372 0.201338
1402 2 0.0922859 0.00375259 0.266007
1464 4 0.164555 0.0217182 0.260781
730 2 0.149966 0.0720313 0.323802
1462 2 0.155571 0.00927605 0.280521
698 4 0.359481 0.0162171 0.316107
479 4 0.489399 0.0519346 0.309711
743 4 0.447119 0.0510055 0.279182
742 2 0.443244 0.052432 0.254522
478 2 0.475559 0.0342241 0.298758
480 4 0.461718 0.0165136 0.287805
351 4 0.436906 0.0691723 0.285812
349 2 0.445095 0.0822954 0.305456
393 4 0.0808203 0.157523 0.243067
529 2 0.0107106 0.144112 0.299783
530 4 0.0302134 0.138089 0.314224
531 4 0.991208 0.150134 0.285342
731 4 0.14115 0.0855652 0.304716
248 4 0.2507 0.087851 0.283534
249 4 0.220518 0.126642 0.292753
247 2 0.235609 0.107247 0.288143
403 2 0.217794 0.159472 0.302252
404 4 0.204379 0.140414 0.293197
30 3 0.30286 0.158167 0.258494
632 4 0.380838 0.132428 0.253453
631 2 0.368298 0.119732 0.270968
633 4 0.355759 0.107037 0.288482
27 3 0.338776 0.168259 0.259539
350 4 0.453284 0.0954186 0.325101
545 4 0.189736 0.163477 0.263167
405 4 0.231209 0.178531 0.311307
707 4 0.334424 0.185796 0.268592
706 2 0.349745 0.185369 0.288347
708 4 0.365066 0.184942 0.308102
420 4 0.426831 0.24011 0.295733
761 4 0.458549 0.18994 0.275596
760 2 0.473171 0.172622 0.265038
418 2 0.44105 0.248204 0.31464
444 4 0.0463462 0.287746 0.311663
442 2 0.0354083 0.280374 0.290421
443 4 0.0244704 0.273003 0.26918
2493 4 0.00519252 0.309922 0.332364
366 4 0.0457309 0.32202 0.270735
748 2 0.0840955 0.282508 0.254244
749 4 0.0919573 0.301724 0.268177
390 4 0.114438 0.263671 0.29472
388 2 0.128849 0.27842 0.30886
389 4 0.143261 0.29317 0.323
400 2 0.236272 0.282185 0.309952
402 4 0.23058 0.29037 0.287022
401 4 0.241963 0.273999 0.332882
300 4 0.168554 0.337144 0.259041
496 2 0.324592 0.31468 0.279675
498 4 0.325377 0.305593 0.256394
497 4 0.323808 0.323767 0.302955
543 4 0.405854 0.333229 0.299605
541 2 0.416896 0.313251 0.289401
542 4 0.427938 0.293272 0.279198
419 4 0.45527 0.256298 0.333547
364 2 0.0225857 0.330719 0.274452
601 2 0.0655001 0.398382 0.305917
603 4 0.0628887 0.378624 0.290817
677 4 0.138828 0.351713 0.329499
734 4 0.156651 0.346881 0.273134
735 4 0.184089 0.376485 0.302655
733 2 0.17037 0.361683 0.287894
729 4 0.315768 0.348041 0.251555
727 2 0.328374 0.369603 0.250392
728 4 0.34098 0.391165 0.249229
615 4 0.35697 0.345408 0.306744
613 2 0.369357 0.353276 0.326988
447 4 0.422588 0.377446 0.258629
445 2 0.432175 0.38456 0.280598
446 4 0.441763 0.391673 0.302568
602 4 0.0681115 0.41814 0.321016
777 4 0.0797047 0.486456 0.310855
414 4 0.135764 0.486023 0.286269
412 2 0.148682 0.479261 0.306581
413 4 0.161599 0.472498 0.326893
436 2 0.277538 0.435877 0.28361
437 4 0.293735 0.43046 0.265348
438 4 0.261342 0.441295 0.301872
1802 4 0.355895 0.498538 0.296272
231 4 0.400207 0.498156 0.255526
713 4 0.417156 0.488547 0.296581
118 3 0.466908 0.427516 0.323596
712 2 0.431243 0.46789 0.296737
714 4 0.44533 0.447233 0.296892
429 4 0.0699541 0.995096 0.352287
316 2 0.0321471 0.0510855 0.356263
317 4 0.0192031 0.070259 0.36575
318 4 0.0450911 0.031912 0.346775
732 4 0.158781 0.0584973 0.342889
427 2 0.0918103 0.00710039 0.354123
428 4 0.113667 0.0191052 0.355958
606 4 0.1612 0.0807835 0.396185
441 4 0.224565 0.0119343 0.393005
1701 4 0.24408 0.0105786 0.352283
439 2 0.238507 0.0321109 0.388136
604 2 0.181202 0.0781511 0.381413
605 4 0.201203 0.0755187 0.366642
440 4 0.252449 0.0522875 0.383267
683 4 0.328808 0.0653421 0.385511
697 2 0.361205 0.0292574 0.337371
699 4 0.362928 0.0422978 0.358635
256 2 0.408492 0.0681649 0.409049
258 4 0.389902 0.0554318 0.419887
257 4 0.427082 0.080898 0.398211
398 4 0.0664001 0.129185 0.343263
397 2 0.0842182 0.115632 0.354399
399 4 0.102036 0.102079 0.365535
685 2 0.161569 0.16274 0.407099
598 2 0.19011 0.155167 0.353772
599 4 0.21314 0.145741 0.351327
600 4 0.167081 0.164593 0.356216
474 4 0.227007 0.161257 0.352215
682 2 0.31695 0.0863351 0.392134
684 4 0.305092 0.107328 0.398757
467 4 0.332332 0.15994 0.401252
466 2 0.349907 0.15204 0.385318
468 4 0.367482 0.144139 0.369385
516 4 0.40731 0.115405 0.414791
452 4 0.483952 0.125526 0.343533
451 2 0.470969 0.125307 0.364901
453 4 0.457986 0.125089 0.386268
514 2 0.424259 0.125014 0.399119
515 4 0.441207 0.134623 0.383448
2654 4 0.0130373 0.176251 0.358394
348 4 0.0629145 0.240264 0.4171
274 2 0.240255 0.22546 0.392089
472 2 0.2492 0.172627 0.354046
686 4 0.182685 0.16346 0.393729
275 4 0.227473 0.246735 0.38906
276 4 0.253036 0.204185 0.395118
473 4 0.271393 0.183998 0.355877
488 4 0.322372 0.237372 0.387001
715 2 0.363119 0.23311 0.379596
716 4 0.384652 0.225908 0.369124
717 4 0.341586 0.240311 0.390067
306 4 0.490077 0.232444 0.394429
304 2 0.481992 0.212757 0.407552
618 4 0.0837656 0.320423 0.3433
616 2 0.104608 0.308026 0.349391
617 4 0.12545 0.295629 0.355481
375 4 0.222504 0.257795 0.405131
509 4 0.25664 0.325387 0.368365
487 2 0.302117 0.251768 0.389773
376 2 0.287429 0.306603 0.360206
377 4 0.311999 0.305984 0.355613
378 4 0.262859 0.307222 0.3648
489 4 0.281863 0.266164 0.392544
266 4 0.358321 0.268938 0.404123
268 2 0.478949 0.290066 0.373366
269 4 0.476072 0.269045 0.386594
270 4 0.481826 0.311088 0.360137
2927 4 0.0117143 0.377634 0.383991
408 4 0.055273 0.385889 0.391171
406 2 0.0784142 0.394873 0.388179
679 2 0.0213207 0.412922 0.406323
681 4 0.0136978 0.39044 0.398473
676 2 0.158533 0.341792 0.341266
407 4 0.101555 0.403857 0.385186
508 2 0.235262 0.333578 0.378419
678 4 0.178238 0.33187 0.353033
510 4 0.213885 0.341769 0.388473
504 4 0.240318 0.403153 0.402745
502 2 0.228061 0.41637 0.385417
435 4 0.304143 0.353774 0.357888
433 2 0.323157 0.369229 0.35291
434 4 0.342172 0.384684 0.347933
614 4 0.381744 0.361145 0.347232
336 4 0.357454 0.392467 0.406697
753 4 0.419157 0.41494 0.40249
561 4 0.464815 0.363922 0.394512
751 2 0.434298 0.395083 0.401207
752 4 0.449439 0.375227 0.399924
559 2 0.475338 0.358692 0.416582
548 4 0.0517609 0.424272 0.349559
547 2 0.0395755 0.443938 0.359042
549 4 0.0273901 0.463605 0.368525
680 4 0.0289436 0.435404 0.414173
775 2 0.0921959 0.482869 0.332216
776 4 0.104687 0.479282 0.353576
499 2 0.119093 0.453458 0.380489
500 4 0.118071 0.434581 0.396854
501 4 0.120114 0.472334 0.364124
503 4 0.215805 0.429586 0.368088
1 1 0.303577 0.469093 0.393778
5 3 0.298343 0.473672 0.372092
4 3 0.284264 0.468493 0.406626
3 3 0.314624 0.448733 0.395128
2 3 0.317392 0.485602 0.401886
588 4 0.38698 0.460027 0.396456
586 2 0.406311 0.446077 0.403998
594 4 0.405655 0.487314 0.351874
117 3 0.466456 0.425961 0.361146
119 3 0.491748 0.447822 0.343968
116 1 0.480075 0.427809 0.342699
587 4 0.425643 0.432127 0.41154
592 2 0.426468 0.478841 0.362837
593 4 0.447281 0.470368 0.373801
2585 4 0.0034704 0.0741109 0.429487
720 4 0.0473468 0.0791162 0.429961
367 2 0.115064 0.0604616 0.462621
369 4 0.115976 0.0360373 0.467893
342 4 0.18617 0.0501433 0.473603
340 2 0.183073 0.0315351 0.490014
1817 4 0.252782 0.00894235 0.442139
424 2 0.376894 0.0348503 0.445885
425 4 0.358791 0.0196338 0.454003
426 4 0.394997 0.0500668 0.437767
3488 4 0.495609 0.0216372 0.487315
718 2 0.0353567 0.0907271 0.448578
719 4 0.0233665 0.102338 0.467195
457 2 0.00842295 0.152203 0.466191
687 4 0.140453 0.162021 0.42047
368 4 0.114151 0.084886 0.457349
1152 4 0.153393 0.11963 0.476887
260 4 0.0918542 0.15961 0.440571
321 4 0.24228 0.130365 0.422312
1150 2 0.176521 0.112939 0.483631
1151 4 0.19965 0.106249 0.490375
319 2 0.257149 0.13405 0.442073
320 4 0.272018 0.137736 0.461834
430 2 0.304828 0.0930807 0.493531
431 4 0.314596 0.11602 0.491647
724 2 0.338513 0.0974166 0.450208
725 4 0.339065 0.0889212 0.473718
726 4 0.337961 0.105912 0.426699
575 4 0.378958 0.15172 0.445517
2880 4 0.489282 0.0920682 0.454205
642 4 0.43895 0.099831 0.479066
640 2 0.452397 0.102966 0.499911
459 4 0.0112896 0.176857 0.463162
261 4 0.115436 0.186429 0.475576
259 2 0.103645 0.173019 0.458073
1035 4 0.110382 0.203987 0.485619
411 4 0.264847 0.207552 0.487145
409 2 0.28976 0.206815 0.489135
410 4 0.314673 0.206079 0.491125
574 2 0.373058 0.175799 0.448772
576 4 0.367157 0.199877 0.452026
305 4 0.473907 0.19307 0.420676
347 4 0.0365466 0.2808 0.429839
346 2 0.0497306 0.260532 0.423469
325 2 0.0775151 0.317162 0.433939
326 4 0.0866205 0.300306 0.417872
694 2 0.110369 0.270619 0.492327
696 4 0.101132 0.275664 0.469646
8 3 0.153113 0.327735 0.47757
373 2 0.213618 0.266514 0.426816
374 4 0.204732 0.275232 0.4485
651 4 0.258398 0.29695 0.460677
649 2 0.263671 0.312974 0.479133
650 4 0.268943 0.328998 0.497589
267 4 0.390124 0.274337 0.442335
265 2 0.374222 0.271638 0.423229
812 4 0.363166 0.28776 0.500746
872 4 0.425337 0.285523 0.483565
583 2 0.480547 0.31329 0.451402
584 4 0.490066 0.294616 0.437769
585 4 0.471028 0.331964 0.465035
327 4 0.0684097 0.334017 0.450006
9 3 0.123123 0.34604 0.463081
6 1 0.144186 0.348541 0.472487
10 3 0.157899 0.359556 0.458021
7 3 0.142264 0.360749 0.491889
709 2 0.195336 0.3577 0.459267
710 4 0.21772 0.359089 0.448211
711 4 0.172953 0.356311 0.470323
772 2 0.261396 0.412577 0.47629
334 2 0.354353 0.399624 0.430453
238 2 0.375759 0.375279 0.4746
240 4 0.358352 0.391367 0.466641
335 4 0.351252 0.40678 0.454209
239 4 0.393167 0.359191 0.482559
560 4 0.485861 0.353462 0.438652
1383 4 0.0416235 0.497425 0.444638
539 4 0.0697771 0.497281 0.488137
935 4 0.00669169 0.426894 0.500071
382 2 0.0998246 0.42794 0.48059
383 4 0.119057 0.422578 0.465539
384 4 0.0805917 0.433302 0.49564
1446 4 0.24662 0.498693 0.462872
634 2 0.219722 0.445798 0.439612
635 4 0.200754 0.461381 0.444362
636 4 0.23869 0.430215 0.434862
568 2 0.166317 0.482503 0.429793
570 4 0.182606 0.464203 0.434786
773 4 0.249568 0.428625 0.4612
669 4 0.252546 0.431319 0.420016
668 4 0.300146 0.43822 0.433703
667 2 0.276346 0.434769 0.426859
1126 2 0.0536094 0.0629099 0.536848
1127 4 0.0490756 0.0400124 0.527886
2236 2 0.0656975 0.00919244 0.523976
1128 4 0.0581432 0.0858074 0.545811
2238 4 0.0538341 0.025151 0.539134
2114 4 0.00203421 0.999995 0.563483
1058 4 0.137933 0.0529146 0.580819
2430 4 0.175564 0.0204378 0.550845
341 4 0.179976 0.0129268 0.506425
2428 2 0.190001 0.000111363 0.548951
1181 4 0.256861 0.062003 0.514115
961 2 0.300128 0.0306838 0.503388
1031 4 0.255917 0.0867434 0.562444
963 4 0.295359 0.054674 0.508575
962 4 0.304896 0.00669361 0.4982
432 4 0.295061 0.0701409 0.495415
841 2 0.369714 0.049786 0.532626
843 4 0.351497 0.0351741 0.541561
842 4 0.38793 0.0643978 0.52369
1216 2 0.395805 0.0173099 0.571468
1218 4 0.372176 0.025386 0.57019
1217 4 0.419434 0.00923388 0.572746
1060 2 0.469262 0.0113032 0.513053
1062 4 0.445777 0.0070652 0.520515
1061 4 0.492747 0.0155412 0.505591
939 4 0.0759205 0.0899557 0.538895
1200 4 0.00434655 0.158818 0.568982
937 2 0.0904634 0.109569 0.533511
938 4 0.105006 0.129183 0.528126
1154 4 0.138563 0.162256 0.585975
1221 4 0.195809 0.164815 0.545087
1030 2 0.246337 0.0972441 0.583015
1182 4 0.252377 0.109411 0.529383
1180 2 0.254619 0.0857069 0.521749
899 4 0.359091 0.123014 0.532025
898 2 0.351628 0.146212 0.526428
641 4 0.465845 0.106102 0.520756
878 4 0.0524281 0.224329 0.527995
877 2 0.0664923 0.215998 0.546915
879 4 0.0805565 0.207667 0.565835
1033 2 0.125827 0.203844 0.505281
1034 4 0.141272 0.2037 0.524943
856 2 0.236024 0.237357 0.549392
858 4 0.215663 0.243053 0.56274
857 4 0.256386 0.231661 0.536045
1219 2 0.19375 0.175675 0.567515
792 4 0.29441 0.234489 0.536561
790 2 0.290617 0.250392 0.555479
900 4 0.344164 0.169409 0.520831
983 4 0.0394771 0.321157 0.562259
982 2 0.0171845 0.329738 0.569647
695 4 0.119606 0.265573 0.515007
1260 4 0.145499 0.252589 0.575033
1258 2 0.16848 0.262358 0.576297
1259 4 0.191462 0.272127 0.577562
791 4 0.286824 0.266295 0.574397
813 4 0.326832 0.290153 0.535022
802 2 0.279517 0.319009 0.54033
803 4 0.273192 0.297833 0.552024
873 4 0.405011 0.278206 0.528665
811 2 0.344999 0.288956 0.517884
871 2 0.415174 0.281864 0.506115
1010 4 0.499904 0.321223 0.562594
897 4 0.167869 0.394546 0.564082
895 2 0.168528 0.377895 0.582723
1160 4 0.184794 0.401165 0.553344
804 4 0.285842 0.340185 0.528636
774 4 0.273223 0.396528 0.491381
929 4 0.363236 0.411313 0.566451
928 2 0.36896 0.396138 0.585481
925 2 0.470558 0.401114 0.534483
926 4 0.465729 0.380544 0.521116
936 4 0.00709832 0.427724 0.55007
934 2 0.00689501 0.427309 0.525071
1159 2 0.18762 0.425941 0.555176
1161 4 0.190447 0.450716 0.557009
1171 2 0.217286 0.478531 0.559606
1173 4 0.193741 0.470125 0.560043
1172 4 0.24083 0.486937 0.559168
882 4 0.319709 0.45355 0.524372
880 2 0.343411 0.447622 0.519055
881 4 0.367113 0.441695 0.513738
1000 2 0.390216 0.439049 0.549723
1002 4 0.37355 0.428347 0.564983
1001 4 0.406882 0.449751 0.534462
927 4 0.475388 0.421685 0.547851
662 4 0.491283 0.481982 0.529345
661 2 0.467343 0.481374 0.522158
663 4 0.443402 0.480766 0.514971
1185 4 0.0355809 0.0248971 0.672531
2319 4 0.046553 0.0152654 0.618606
1057 2 0.115385 0.0498819 0.591189
1059 4 0.092836 0.0468493 0.601559
825 4 0.156848 0.0333168 0.663424
823 2 0.164742 0.0169403 0.646258
949 2 0.280937 0.0155645 0.628801
951 4 0.305545 0.0199191 0.629603
950 4 0.256329 0.0112098 0.627999
1092 4 0.323497 0.0222795 0.621434
1090 2 0.335908 0.0151009 0.641918
1005 4 0.335048 0.0650086 0.668822
1091 4 0.348319 0.00792223 0.662403
1082 4 0.023716 0.126267 0.640732
1076 4 0.0152457 0.120011 0.657557
1081 2 0.0291515 0.122371 0.61664
1083 4 0.0345869 0.118475 0.592547
1153 2 0.139141 0.138184 0.592712
1155 4 0.13972 0.114112 0.59945
909 4 0.129745 0.133854 0.656944
1284 4 0.171899 0.0879289 0.618666
1282 2 0.195628 0.0950779 0.615348
1283 4 0.219357 0.102227 0.61203
1032 4 0.236758 0.107745 0.603585
809 4 0.463168 0.0981488 0.628612
808 2 0.459427 0.094909 0.65312
3009 4 0.488072 0.120666 0.595327
1271 4 0.120932 0.170296 0.592641
1272 4 0.0933111 0.210224 0.580662
1270 2 0.107122 0.19026 0.586652
1209 4 0.0935369 0.242398 0.62737
1207 2 0.0999673 0.243932 0.651484
1212 4 0.220678 0.184526 0.646901
1220 4 0.191692 0.186535 0.589942
797 4 0.222384 0.245732 0.58324
1210 2 0.242834 0.190794 0.656648
796 2 0.233728 0.241485 0.605114
798 4 0.245072 0.237237 0.626987
887 4 0.330577 0.186426 0.667999
1193 4 0.368592 0.173139 0.625408
1192 2 0.360214 0.175641 0.648833
1194 4 0.351836 0.178143 0.672258
1025 4 0.464846 0.203328 0.654416
906 4 0.491539 0.251988 0.602074
1243 2 0.0292278 0.281984 0.633176
1244 4 0.0416064 0.281509 0.611456
1245 4 0.0168493 0.28246 0.654895
947 4 0.168409 0.269347 0.663269
946 2 0.177519 0.289817 0.65217
948 4 0.186629 0.310286 0.641071
1239 4 0.289105 0.313729 0.641189
1237 2 0.313521 0.315821 0.646154
1238 4 0.337937 0.317913 0.65112
806 4 0.348541 0.328432 0.663407
954 4 0.477084 0.265076 0.602873
952 2 0.469349 0.282009 0.619566
953 4 0.461615 0.298941 0.636259
1040 4 0.0337147 0.40128 0.630353
1039 2 0.0562847 0.392274 0.624465
1041 4 0.0788547 0.383268 0.618577
1137 4 0.0884664 0.369846 0.608596
1136 4 0.110416 0.330785 0.586391
1135 2 0.0994415 0.350315 0.597493
993 4 0.10196 0.382489 0.613484
991 2 0.112425 0.399993 0.627951
896 4 0.169188 0.361244 0.601364
1191 4 0.21577 0.356738 0.598492
1189 2 0.228628 0.378114 0.596783
1190 4 0.241486 0.399489 0.595074
930 4 0.374685 0.380964 0.604511
1204 2 0.420071 0.406875 0.65963
992 4 0.12289 0.417497 0.642417
1188 4 0.278613 0.453543 0.623688
1186 2 0.261638 0.471895 0.624177
889 2 0.323453 0.441901 0.610322
891 4 0.317988 0.425639 0.628512
890 4 0.328919 0.458163 0.592133
1187 4 0.244663 0.490246 0.624666
1953 4 0.336874 0.473103 0.602255
1951 2 0.349096 0.492753 0.592783
1206 4 0.424251 0.426862 0.6452
1268 4 0.451486 0.485526 0.629882
1267 2 0.450467 0.490946 0.65427
1183 2 0.021235 0.00455493 0.674892
944 4 0.0657545 0.0426751 0.680975
2990 4 0.00665444 0.0723922 0.738491
943 2 0.0869427 0.0550028 0.685901
945 4 0.108131 0.0673306 0.690827
1147 2 0.205771 0.0733643 0.74723
1003 2 0.313805 0.0768093 0.674708
1050 4 0.362782 0.0153185 0.747076
1163 4 0.472453 0.0308859 0.697158
43 3 0.418784 0.0704584 0.696359
1162 2 0.485194 0.0518777 0.692447
2322 4 0.462273 0.00911953 0.740056
846 4 0.489629 0.051435 0.74041
1164 4 0.497934 0.0728694 0.687736
862 2 0.0552539 0.128357 0.726787
864 4 0.0516582 0.141179 0.705624
1075 2 0.0339738 0.123853 0.673671
1077 4 0.052702 0.127696 0.689786
833 4 0.01479 0.136813 0.744776
851 4 0.0616456 0.156874 0.699979
1107 4 0.0699212 0.16426 0.715658
907 2 0.147394 0.138164 0.674124
908 4 0.165042 0.142475 0.691303
1148 4 0.21408 0.0941961 0.736177
1225 2 0.188932 0.128032 0.720075
1226 4 0.20527 0.11152 0.72933
1227 4 0.172595 0.144543 0.710821
1004 4 0.292562 0.08861 0.680594
831 4 0.356202 0.159687 0.722226
44 3 0.405204 0.10594 0.697377
1141 2 0.392553 0.138156 0.711518
1142 4 0.411349 0.123323 0.704315
1143 4 0.373757 0.152988 0.718721
810 4 0.455686 0.0916692 0.677629
45 3 0.437036 0.0983031 0.678775
41 1 0.42443 0.0929561 0.696973
42 3 0.436576 0.0970565 0.716073
852 4 0.0498963 0.191035 0.665401
850 2 0.0557709 0.173954 0.68269
1105 2 0.074783 0.181466 0.733136
1213 2 0.00952971 0.215367 0.744355
1208 4 0.106398 0.245465 0.675598
978 4 0.236018 0.21185 0.724389
1211 4 0.26499 0.197062 0.666396
886 2 0.306448 0.191059 0.672633
888 4 0.282318 0.195693 0.677267
976 2 0.258885 0.207946 0.733719
977 4 0.281752 0.204043 0.743049
829 2 0.348192 0.174065 0.703403
830 4 0.340183 0.188444 0.684581
1263 4 0.417024 0.203961 0.725271
1024 2 0.452012 0.190514 0.671628
1026 4 0.439178 0.177699 0.68884
1261 2 0.437088 0.218855 0.726137
1262 4 0.457153 0.233749 0.727003
1179 4 0.0266574 0.278368 0.671303
1177 2 0.0248177 0.272976 0.695649
1178 4 0.022978 0.267583 0.719995
822 4 0.158957 0.320563 0.73377
820 2 0.176369 0.302621 0.733517
821 4 0.193782 0.28468 0.733265
1065 4 0.253715 0.294464 0.707714
1063 2 0.264693 0.313289 0.695454
1064 4 0.275671 0.332113 0.683194
807 4 0.361788 0.327551 0.711619
805 2 0.355164 0.327992 0.687513
1006 2 0.373678 0.307615 0.737896
1007 4 0.381453 0.285042 0.745325
1008 4 0.365903 0.330188 0.730467
3121 2 0.493805 0.306509 0.701406
3123 4 0.480203 0.30732 0.680442
892 2 0.075573 0.339315 0.712277
894 4 0.0513434 0.345475 0.712673
893 4 0.0998027 0.333155 0.71188
940 2 0.154615 0.383321 0.732274
1067 4 0.152804 0.361115 0.668226
942 4 0.13157 0.390864 0.738373
815 4 0.117065 0.402386 0.745684
941 4 0.17766 0.375777 0.726175
1028 4 0.206894 0.3965 0.687777
1066 2 0.17 0.376629 0.677648
1068 4 0.187197 0.392143 0.68707
1027 2 0.230758 0.396324 0.695238
1029 4 0.254621 0.396149 0.702699
1205 4 0.415891 0.386888 0.674059
1100 4 0.472786 0.408364 0.73396
1281 4 0.0757157 0.463896 0.72406
1280 4 0.0670837 0.467205 0.674914
1279 2 0.0713997 0.465551 0.699487
1983 4 0.0476556 0.495808 0.742035
885 4 0.0554075 0.434627 0.743966
1176 4 0.215429 0.492096 0.689369
1138 2 0.305942 0.458091 0.738838
1139 4 0.291973 0.474924 0.750951
1140 4 0.31991 0.441259 0.726726
1228 2 0.368933 0.454174 0.706531
1229 4 0.365992 0.472088 0.689337
1230 4 0.371874 0.436261 0.723726
1269 4 0.449449 0.496367 0.678658
1099 2 0.472101 0.430343 0.722058
1101 4 0.471416 0.452321 0.710155
1249 2 0.481434 0.502968 0.745664
1251 4 0.457501 0.502037 0.738484
1295 4 0.00826965 0.0681175 0.776802
1203 4 0.0725683 0.068759 0.770464
1201 2 0.0840593 0.0466472 0.772515
1202 4 0.0955502 0.0245354 0.774565
1149 4 0.197462 0.0525326 0.758284
1255 2 0.276156 0.042034 0.79656
1256 4 0.272285 0.0628979 0.809784
1257 4 0.280027 0.0211701 0.783335
839 4 0.252796 0.0645341 0.808827
1113 4 0.434957 0.0540576 0.771112
1111 2 0.428162 0.0383546 0.789344
844 2 0.493684 0.0533162 0.765011
1112 4 0.421367 0.0226516 0.807577
845 4 0.497739 0.0551975 0.789612
980 4 0.43083 0.0107394 0.820315
863 4 0.0588497 0.115536 0.74795
31 1 0.126013 0.138723 0.810252
35 3 0.113755 0.126786 0.795223
33 3 0.144555 0.147955 0.799794
32 3 0.113068 0.155711 0.818797
34 3 0.132775 0.124959 0.827666
1130 4 0.199964 0.159149 0.764905
840 4 0.252672 0.109706 0.830279
838 2 0.252734 0.0871201 0.819553
1086 4 0.334555 0.117435 0.779923
1084 2 0.348019 0.112833 0.800483
1085 4 0.361482 0.108231 0.821043
1299 4 0.363101 0.165971 0.791453
819 4 0.378835 0.110378 0.830834
1214 4 0.0217762 0.221661 0.765225
1106 4 0.0796448 0.198673 0.750613
1074 4 0.112702 0.249886 0.793486
1277 4 0.19844 0.22987 0.76377
1131 4 0.172293 0.196093 0.784143
1129 2 0.186128 0.177621 0.774524
918 4 0.288557 0.218218 0.755841