ITEM: TIMESTEP
2250000
ITEM: NUMBER OF ATOMS
4590
ITEM: BOX BOUNDS pp pp pp
-9.9985700000000008e+00 9.9985700000000008e+00
-9.9985700000000008e+00 9.9985700000000008e+00
-9.9985700000000008e+00 9.9985700000000008e+00
ITEM: ATOMS id type xs ys zs
1247 4 0.0160965 0.0554126 0.00537183
3232 2 0.0766561 0.0103741 0.00226362
491 4 0.234325 0.0300445 0.0586693
490 2 0.246792 0.0352536 0.0376303
484 2 0.298035 0.0219832 0.0140602
485 4 0.322699 0.017876 0.0140039
486 4 0.273371 0.0260903 0.0141165
492 4 0.259258 0.0404628 0.0165913
1607 4 0.342366 0.0212849 0.0159714
1606 2 0.357149 0.00154713 0.0118411
2724 4 0.406959 0.0720467 0.0415067
665 4 0.37148 0.0812255 0.0719417
2722 2 0.429789 0.0673355 0.0324654
2723 4 0.45262 0.0626243 0.0234242
1759 2 0.485668 0.0433195 0.0238185
1760 4 0.46707 0.0508996 0.00892489
2469 4 0.447658 0.0505599 0.00914297
360 4 0.233377 0.131408 0.00496068
358 2 0.236741 0.117819 0.025678
359 4 0.240105 0.10423 0.0463953
664 2 0.375095 0.0937849 0.0506257
666 4 0.378709 0.106344 0.0293097
866 4 0.382929 0.126859 0.0271659
865 2 0.378989 0.130046 0.00268118
769 2 0.462896 0.157229 0.0716908
2624 4 0.00747105 0.195757 0.0335517
2623 2 0.0085945 0.220608 0.0360718
2625 4 0.00971795 0.245459 0.0385919
1233 4 0.0550602 0.230373 0.0158576
505 2 0.182025 0.214976 0.0656909
507 4 0.195634 0.214625 0.044718
353 4 0.267807 0.21047 0.0672905
352 2 0.260555 0.234392 0.0678458
2519 4 0.491301 0.174894 0.0431934
771 4 0.479251 0.169316 0.0571442
655 2 0.00851769 0.274963 0.0474859
3285 4 0.0182921 0.300475 0.0211638
483 4 0.0714589 0.29371 0.000384454
1231 2 0.0570086 0.254351 0.00904161
656 4 0.0200401 0.296927 0.0443286
836 4 0.0233517 0.32963 0.0822899
2807 4 0.00657657 0.309974 0.0382106
1232 4 0.0589571 0.278328 0.00222564
481 2 0.0921716 0.306615 0.0058275
355 2 0.129098 0.326903 0.0439263
356 4 0.134375 0.32061 0.067543
482 4 0.112884 0.31952 0.0112705
357 4 0.123822 0.333195 0.0203096
354 4 0.253303 0.258315 0.0684011
755 4 0.264508 0.297734 0.0299239
754 2 0.281027 0.297616 0.0486934
756 4 0.297546 0.297498 0.0674628
740 4 0.316547 0.300593 0.0732157
1071 4 0.346596 0.271815 0.00473622
1304 4 0.46225 0.284643 0.0230026
1303 2 0.471269 0.291668 0.0452398
1305 4 0.480287 0.298693 0.067477
1308 4 0.447591 0.283911 0.0116708
1306 2 0.440541 0.260345 0.00718993
621 4 0.0263434 0.386062 0.0038743
2787 4 0.0214023 0.399477 0.019881
2785 2 0.0320727 0.417424 0.0336368
288 4 0.0608809 0.403814 0.0424621
286 2 0.0722342 0.382668 0.0494713
837 4 0.0545782 0.3684 0.0775526
835 2 0.0389649 0.349015 0.0799213
573 4 0.123085 0.352698 0.018154
287 4 0.0835875 0.361522 0.0564805
571 2 0.140696 0.368455 0.00998363
572 4 0.158306 0.384212 0.00181326
2840 4 0.390831 0.399562 0.0478007
2839 2 0.411063 0.394044 0.0614166
1094 4 0.460414 0.363649 0.012312
1095 4 0.445303 0.402463 0.0399857
1093 2 0.452858 0.383056 0.0261488
2841 4 0.431295 0.388526 0.0750324
1046 4 0.438338 0.407601 0.0699836
1045 2 0.460227 0.419406 0.0725706
2786 4 0.042743 0.435371 0.0473925
314 4 0.0574245 0.445917 0.05713
914 4 0.059099 0.441924 0.0380701
913 2 0.0709203 0.452472 0.0187265
313 2 0.0568437 0.434387 0.0793088
915 4 0.0827417 0.46302 0.999383
552 4 0.121109 0.490286 0.0681214
550 2 0.12281 0.472725 0.0504045
1659 4 0.155614 0.460565 0.0266553
551 4 0.124511 0.455164 0.0326877
64 3 0.231008 0.453574 0.0707722
63 3 0.234086 0.428357 0.0425054
61 1 0.226913 0.449657 0.0482714
65 3 0.204659 0.451802 0.0439353
1658 4 0.20458 0.468542 0.0329366
1657 2 0.180097 0.464553 0.0297959
62 3 0.238582 0.465064 0.0357969
1803 4 0.222766 0.477272 0.0346476
1801 2 0.226826 0.499263 0.023463
903 4 0.267756 0.439022 0.0532912
901 2 0.287773 0.453424 0.0574216
902 4 0.307791 0.467826 0.061552
246 4 0.302914 0.486527 0.0716184
1289 4 0.32402 0.492526 0.0418766
252 4 0.318245 0.483787 0.0606516
1288 2 0.317192 0.491388 0.0178504
250 2 0.339859 0.473544 0.0679377
251 4 0.361473 0.463302 0.0752238
609 4 0.355972 0.443409 0.0714461
1047 4 0.482115 0.431212 0.0751577
379 2 0.0170507 0.0678655 0.154162
380 4 0.0408383 0.0752952 0.156194
1806 4 0.122178 0.00796458 0.0973703
579 4 0.11799 0.0246776 0.10707
577 2 0.137053 0.0402573 0.111438
578 4 0.156115 0.055837 0.115806
423 4 0.169325 0.070313 0.111249
652 2 0.215996 0.036244 0.142984
654 4 0.191067 0.0344134 0.142363
581 4 0.176179 0.0405158 0.154019
653 4 0.240924 0.0380747 0.143605
24 3 0.385209 0.0565217 0.125761
21 1 0.37035 0.0708979 0.136294
23 3 0.351406 0.0737028 0.123191
25 3 0.364542 0.062517 0.156657
296 4 0.40643 0.074335 0.129044
629 4 0.399629 0.0855574 0.14749
558 4 0.398285 0.0962902 0.128426
297 4 0.429039 0.0335651 0.110952
295 2 0.417735 0.0539501 0.119998
2895 4 0.498855 0.0399531 0.165882
236 4 0.0928994 0.118033 0.147705
235 2 0.101338 0.13376 0.130194
237 4 0.109776 0.149487 0.112684
477 4 0.118034 0.15206 0.0953743
421 2 0.18846 0.0863818 0.110342
534 4 0.226062 0.0962368 0.1127
422 4 0.207595 0.10245 0.109435
532 2 0.238687 0.113823 0.100189
533 4 0.251313 0.131409 0.0876793
460 2 0.27932 0.160545 0.159028
461 4 0.266999 0.166355 0.138061
22 3 0.380521 0.091334 0.139132
770 4 0.446541 0.145142 0.0862373
557 4 0.443367 0.115876 0.119221
556 2 0.420826 0.106083 0.123824
396 4 0.0256604 0.206605 0.097319
394 2 0.0188937 0.229353 0.105188
476 4 0.120522 0.201938 0.0979636
475 2 0.119278 0.176999 0.0966689
506 4 0.168417 0.215328 0.0866639
311 4 0.273114 0.209081 0.0857809
310 2 0.27095 0.195862 0.106894
312 4 0.268785 0.182643 0.128007
648 4 0.0753589 0.285697 0.14944
646 2 0.0932732 0.282003 0.132393
647 4 0.111188 0.278309 0.115346
337 2 0.15402 0.287661 0.105802
339 4 0.129878 0.281158 0.106081
338 4 0.178161 0.294165 0.105523
285 4 0.213773 0.304717 0.122765
283 2 0.201277 0.287152 0.135435
284 4 0.188781 0.269588 0.148105
737 4 0.181202 0.252629 0.157066
739 2 0.328408 0.319069 0.0851792
764 4 0.256873 0.267411 0.0863131
763 2 0.267862 0.272928 0.108084
765 4 0.27885 0.278445 0.129856
612 4 0.27307 0.296568 0.136128
610 2 0.277396 0.314829 0.152651
624 4 0.40701 0.311278 0.124829
1757 4 0.0643928 0.413043 0.11688
1756 2 0.0675584 0.40087 0.13849
1758 4 0.070724 0.388697 0.1601
705 4 0.0927208 0.329604 0.111112
703 2 0.107743 0.34707 0.120831
704 4 0.122764 0.364536 0.13055
417 4 0.136986 0.36451 0.144504
456 4 0.144109 0.36203 0.126333
455 4 0.193815 0.364834 0.121622
454 2 0.168962 0.363432 0.123977
302 4 0.294019 0.345995 0.160268
741 4 0.34027 0.337545 0.0971427
386 4 0.34729 0.356077 0.0927504
387 4 0.36651 0.356425 0.138915
385 2 0.3569 0.356251 0.115833
13 3 0.369057 0.374308 0.147191
11 1 0.389589 0.383792 0.152377
15 3 0.394754 0.399937 0.137169
12 3 0.405713 0.367396 0.151794
623 4 0.406705 0.360771 0.131976
622 2 0.406858 0.336025 0.128402
494 4 0.406375 0.41353 0.144522
608 4 0.360631 0.410993 0.109238
104 3 0.440598 0.378722 0.0900449
105 3 0.438928 0.390174 0.125874
101 1 0.450183 0.376989 0.111105
102 3 0.448972 0.355091 0.118047
956 4 0.491731 0.386269 0.117459
103 3 0.47248 0.383351 0.110208
955 2 0.494609 0.406692 0.131595
315 4 0.0562629 0.422857 0.101487
1439 4 0.123547 0.493311 0.086942
293 4 0.0859421 0.461041 0.119986
294 4 0.105156 0.488278 0.082708
292 2 0.0955491 0.47466 0.101347
1438 2 0.145581 0.485038 0.09538
626 4 0.222141 0.467295 0.0829135
1440 4 0.167616 0.476765 0.103818
625 2 0.219821 0.492188 0.0825591
243 4 0.184338 0.463082 0.109687
242 4 0.215662 0.425436 0.0995739
241 2 0.2 0.444259 0.10463
1573 2 0.279806 0.483673 0.152883
244 2 0.295944 0.49534 0.0939552
1575 4 0.292463 0.495894 0.135118
525 4 0.351902 0.481227 0.158165
607 2 0.358301 0.427201 0.0903421
659 4 0.411193 0.471156 0.149902
495 4 0.394423 0.461761 0.150153
493 2 0.400399 0.437646 0.147337
658 2 0.419312 0.493152 0.158588
957 4 0.497488 0.427114 0.14573
511 2 0.0488979 0.0743795 0.24304
582 4 0.148043 0.0663352 0.186306
567 4 0.147933 0.0832026 0.197861
580 2 0.162111 0.0534255 0.170163
673 2 0.214838 0.00674409 0.241041
1462 2 0.292759 0.00535706 0.246409
1464 4 0.312318 0.0123421 0.232487
759 4 0.359843 0.062546 0.174872
757 2 0.369896 0.0699837 0.196524
758 4 0.379949 0.0774214 0.218176
628 2 0.414115 0.0765458 0.165769
630 4 0.428601 0.0675343 0.184048
531 4 0.0105693 0.0857718 0.231657
513 4 0.0302113 0.0886852 0.234594
565 2 0.163315 0.102272 0.202853
566 4 0.178697 0.121342 0.207845
598 2 0.206516 0.149684 0.22463
600 4 0.186768 0.135034 0.220095
599 4 0.226264 0.164335 0.229165
462 4 0.291642 0.154735 0.179994
27 3 0.281634 0.149716 0.220096
255 4 0.309644 0.159828 0.183927
29 3 0.317102 0.138673 0.214376
26 1 0.303522 0.153323 0.226182
254 4 0.3545 0.143516 0.169009
253 2 0.332072 0.151672 0.176468
332 4 0.458399 0.165623 0.237688
403 2 0.066476 0.243132 0.228077
404 4 0.0742901 0.229905 0.208349
738 4 0.168553 0.211519 0.182574
393 4 0.165807 0.219854 0.201328
391 2 0.167958 0.201232 0.217875
736 2 0.174878 0.232074 0.16982
392 4 0.170108 0.182611 0.234421
322 2 0.308695 0.197983 0.19083
323 4 0.318682 0.220633 0.194358
324 4 0.298708 0.175334 0.187303
30 3 0.309215 0.17483 0.221314
728 4 0.450271 0.252037 0.174731
331 2 0.464465 0.189851 0.236512
2682 4 0.478478 0.218829 0.255221
333 4 0.470531 0.214079 0.235336
2453 4 0.49102 0.220371 0.238052
388 2 0.0182032 0.268351 0.236912
363 4 0.0608337 0.278578 0.180819
361 2 0.0807357 0.29256 0.186616
362 4 0.100638 0.306542 0.192412
750 4 0.0979735 0.32062 0.205882
748 2 0.104754 0.329859 0.228105
372 4 0.182301 0.269835 0.167664
371 4 0.171336 0.298552 0.207108
370 2 0.176819 0.284194 0.187386
611 4 0.281721 0.33309 0.169174
307 2 0.419224 0.276497 0.248076
498 4 0.422659 0.296387 0.219024
727 2 0.440645 0.266505 0.192709
308 4 0.435344 0.280655 0.229419
496 2 0.427389 0.317667 0.206777
729 4 0.43102 0.280972 0.210688
601 2 0.0987326 0.415101 0.240106
415 2 0.137985 0.371922 0.168363
416 4 0.138984 0.379333 0.192223
301 2 0.294972 0.36102 0.180231
303 4 0.295924 0.376044 0.200195
14 3 0.388939 0.392918 0.173701
645 4 0.388592 0.391848 0.193855
643 2 0.409531 0.400779 0.204198
497 4 0.432118 0.338946 0.194529
644 4 0.43047 0.409711 0.21454
1790 4 0.0130607 0.493557 0.178857
1320 4 0.0192025 0.445433 0.249623
602 4 0.121603 0.419229 0.230883
290 4 0.142099 0.41964 0.233918
638 4 0.130633 0.437038 0.231492
637 2 0.139723 0.45297 0.214501
639 4 0.148814 0.468903 0.19751
1574 4 0.267148 0.471452 0.170648
107 3 0.480098 0.423644 0.217037
109 3 0.452516 0.429317 0.192144
110 3 0.444717 0.416934 0.226835
106 1 0.458284 0.430519 0.214587
108 3 0.456429 0.452401 0.222081
512 4 0.0675845 0.0600739 0.251487
2739 4 0.0288823 0.0746522 0.285532
545 4 0.0726579 0.0764981 0.298235
234 4 0.107603 0.00568603 0.248742
544 2 0.0895929 0.0600537 0.30648
546 4 0.106528 0.0436093 0.314724
691 2 0.130253 0.00409248 0.32425
693 4 0.11974 0.0261275 0.318855
674 4 0.223752 0.0187828 0.261061
467 4 0.220233 0.0295517 0.276546
466 2 0.235941 0.0480149 0.282674
429 4 0.208345 0.0141282 0.277065
427 2 0.207448 0.00172427 0.298757
468 4 0.251649 0.0664782 0.288801
706 2 0.321022 0.0746796 0.33211
1516 2 0.389847 0.0190361 0.332708
1517 4 0.382696 0.00392538 0.314115
479 4 0.461929 0.030013 0.285499
478 2 0.477378 0.0493419 0.281906
480 4 0.492827 0.0686708 0.278313
2737 2 0.0107612 0.0869025 0.297646
2483 4 0.152846 0.140483 0.283721
2482 2 0.16053 0.158791 0.268523
473 4 0.242664 0.153016 0.332188
28 3 0.305696 0.149521 0.248968
683 4 0.258338 0.0852651 0.284827
474 4 0.284306 0.143533 0.306175
682 2 0.271802 0.105175 0.291719
684 4 0.285266 0.125085 0.298611
633 4 0.30186 0.136072 0.286198
726 4 0.302527 0.133196 0.308662
743 4 0.323767 0.0849146 0.302431
708 4 0.323458 0.0957346 0.318846
472 2 0.263485 0.148275 0.319182
631 2 0.295838 0.158579 0.277123
742 2 0.33794 0.0913661 0.282869
744 4 0.352113 0.0978175 0.263306
351 4 0.339427 0.103443 0.326014
349 2 0.362438 0.113088 0.327638
452 4 0.401298 0.132522 0.335376
350 4 0.385449 0.122734 0.329261
451 2 0.420473 0.127476 0.320144
453 4 0.439649 0.12243 0.304911
2484 4 0.168214 0.177099 0.253326
249 4 0.183876 0.18825 0.250256
247 2 0.201169 0.19797 0.265477
248 4 0.218461 0.20769 0.280697
279 4 0.232325 0.223083 0.286571
277 2 0.246786 0.240742 0.276363
632 4 0.289815 0.181086 0.268048
305 4 0.439796 0.243702 0.310064
2680 2 0.476774 0.23939 0.269346
405 4 0.0586619 0.256358 0.247804
390 4 0.0399609 0.263564 0.248264
444 4 0.0511924 0.26714 0.264226
442 2 0.0639017 0.25963 0.284406
443 4 0.076611 0.252119 0.304586
299 4 0.0951458 0.314711 0.309884
536 4 0.246436 0.270839 0.260783
535 2 0.256923 0.292653 0.254509
278 4 0.261246 0.258401 0.266154
537 4 0.26741 0.314466 0.248234
419 4 0.354312 0.306567 0.281941
418 2 0.371683 0.289442 0.287433
420 4 0.389054 0.272317 0.292925
309 4 0.403105 0.27234 0.266732
306 4 0.407714 0.2744 0.287062
377 4 0.369609 0.335209 0.324317
304 2 0.423755 0.259051 0.298563
2681 4 0.475069 0.259951 0.283471
603 4 0.0758618 0.410974 0.24933
548 4 0.0583773 0.368772 0.30448
547 2 0.0396917 0.365519 0.320773
2461 2 0.00347233 0.382781 0.285522
681 4 0.00946691 0.348949 0.327506
2462 4 0.0109178 0.400776 0.301203
749 4 0.111535 0.339098 0.250327
289 2 0.152152 0.407136 0.253096
298 2 0.107993 0.335332 0.315791
291 4 0.162204 0.394633 0.272274
300 4 0.120841 0.355953 0.321698
344 4 0.2748 0.377999 0.307142
436 2 0.302823 0.41027 0.317925
438 4 0.283308 0.394751 0.316049
343 2 0.263238 0.374846 0.329086
1318 2 0.0178817 0.432129 0.270751
3958 2 0.0260291 0.437012 0.325343
3959 4 0.020137 0.416312 0.312615
1319 4 0.0165608 0.418824 0.29188
499 2 0.0964438 0.436089 0.32132
500 4 0.106196 0.415731 0.310568
501 4 0.0866916 0.456448 0.332072
437 4 0.322338 0.425789 0.3198
1557 4 0.258373 0.454786 0.312122
1555 2 0.269719 0.464138 0.332346
542 4 0.496966 0.502039 0.293814
732 4 0.100709 0.0552617 0.378509
731 4 0.116559 0.0415052 0.333119
730 2 0.108634 0.0483834 0.355814
605 4 0.164192 0.0618742 0.370057
439 2 0.237418 0.00177532 0.349813
441 4 0.257265 0.00701561 0.36409
707 4 0.318586 0.0536245 0.345374
1670 4 0.334215 0.0469922 0.380939
1669 2 0.357352 0.0408329 0.373734
697 2 0.416041 0.0526567 0.379075
699 4 0.399584 0.0362218 0.369897
1671 4 0.380489 0.0346736 0.366529
1518 4 0.396998 0.0341467 0.351302
698 4 0.432498 0.0690917 0.388253
317 4 0.0024765 0.095568 0.338838
398 4 0.155469 0.159818 0.330479
397 2 0.167626 0.14248 0.343775
604 2 0.17078 0.0859788 0.369189
606 4 0.177367 0.110083 0.368322
399 4 0.179783 0.125142 0.357071
276 4 0.171176 0.123705 0.379953
274 2 0.189384 0.130202 0.395811
375 4 0.210165 0.157354 0.410079
275 4 0.207591 0.1367 0.411668
724 2 0.311961 0.133864 0.331808
725 4 0.321395 0.134532 0.354954
430 2 0.314924 0.124658 0.399363
431 4 0.313526 0.131742 0.375425
256 2 0.397045 0.135647 0.400906
257 4 0.397112 0.16024 0.396389
258 4 0.396979 0.111055 0.405422
3079 2 0.498298 0.124626 0.413229
3081 4 0.47584 0.119793 0.403357
373 2 0.220073 0.180288 0.409053
510 4 0.249958 0.201933 0.409858
374 4 0.229981 0.203221 0.408027
508 2 0.273303 0.204403 0.401251
487 2 0.31551 0.214609 0.362102
488 4 0.312604 0.219572 0.386435
509 4 0.296648 0.206874 0.392644
489 4 0.318416 0.209645 0.337769
1581 4 0.407334 0.177291 0.397687
516 4 0.387281 0.178646 0.392651
514 2 0.36514 0.172569 0.382751
717 4 0.370899 0.213194 0.416955
515 4 0.342999 0.166493 0.372851
585 4 0.481439 0.243769 0.386302
1579 2 0.431845 0.179057 0.393075
1580 4 0.456355 0.180822 0.388462
584 4 0.469486 0.195369 0.390211
267 4 0.480732 0.184609 0.403768
583 2 0.475463 0.219569 0.388257
618 4 0.0493634 0.295012 0.38461
407 4 0.0487689 0.287304 0.365381
406 2 0.0700463 0.287739 0.352256
616 2 0.0519673 0.302704 0.408258
408 4 0.0913237 0.288174 0.339131
400 2 0.247602 0.3262 0.352824
401 4 0.244409 0.301602 0.355974
1260 4 0.23918 0.274072 0.387978
1258 2 0.25395 0.271465 0.407984
593 4 0.312168 0.329243 0.359968
376 2 0.350563 0.33511 0.340516
268 2 0.499687 0.278922 0.376473
270 4 0.495609 0.256132 0.385917
549 4 0.0210061 0.362267 0.337065
735 4 0.078308 0.380844 0.367544
733 2 0.0974027 0.373809 0.353016
766 2 0.154464 0.371386 0.347992
767 4 0.135112 0.362066 0.335194
734 4 0.116497 0.366773 0.338487
768 4 0.173817 0.380706 0.360791
678 4 0.236417 0.362918 0.340889
677 4 0.193232 0.37496 0.363042
676 2 0.214824 0.368939 0.351965
402 4 0.250795 0.350798 0.349674
378 4 0.331516 0.335012 0.356715
345 4 0.251676 0.371692 0.351031
592 2 0.307147 0.344317 0.379274
594 4 0.302126 0.359392 0.39858
434 4 0.41961 0.384729 0.346371
3990 4 0.405209 0.416487 0.386499
433 2 0.443966 0.383142 0.340944
435 4 0.468322 0.381554 0.335518
587 4 0.478485 0.37858 0.352615
3960 4 0.0319213 0.457711 0.338071
776 4 0.067511 0.459118 0.33786
3671 4 0.0187918 0.490065 0.381467
3670 2 0.00306424 0.492721 0.362212
775 2 0.0689406 0.483376 0.343748
414 4 0.166538 0.419056 0.331829
503 4 0.165827 0.443953 0.388103
502 2 0.166876 0.455133 0.410443
1437 4 0.23146 0.490575 0.378189
1436 4 0.207838 0.457936 0.348568
412 2 0.187435 0.428632 0.341668
1435 2 0.219649 0.474255 0.363378
413 4 0.208332 0.438207 0.351508
1556 4 0.281065 0.47349 0.352569
669 4 0.294209 0.488778 0.357151
116 1 0.403849 0.496653 0.372154
336 4 0.373251 0.49706 0.40706
117 3 0.388381 0.479649 0.371274
3989 4 0.401527 0.465965 0.380244
3988 2 0.403368 0.441226 0.383371
1268 4 0.406443 0.468793 0.400029
1743 4 0.483195 0.474582 0.336387
1715 4 0.436735 0.498443 0.379319
119 3 0.423995 0.488914 0.363631
1742 4 0.443429 0.488595 0.363276
1741 2 0.463312 0.481588 0.349831
1714 2 0.449628 0.497021 0.400696
1600 2 0.0779999 0.00394844 0.436027
938 4 0.00561672 0.0477875 0.473234
1602 4 0.0542724 0.00894244 0.44213
1128 4 0.0815631 0.0261143 0.474598
1058 4 0.0222527 0.0584928 0.472324
1126 2 0.0878656 0.00683322 0.489216
1816 2 0.235244 0.00364003 0.465099
962 4 0.241594 0.0396246 0.477499
961 2 0.240393 0.0642675 0.481557
1817 4 0.250428 0.0230974 0.469104
86 1 0.458348 0.00407268 0.468388
90 3 0.439981 0.00280122 0.454984
88 3 0.463936 0.0262895 0.472075
1059 4 0.00896147 0.106199 0.465379
368 4 0.000227566 0.145875 0.458447
1057 2 0.0156071 0.0823457 0.468852
963 4 0.239193 0.0889103 0.485615
687 4 0.199154 0.114026 0.476793
685 2 0.19994 0.123987 0.453873
686 4 0.200727 0.133949 0.430953
432 4 0.316322 0.117573 0.423301
425 4 0.330682 0.123139 0.435645
424 2 0.332463 0.11411 0.458893
426 4 0.334244 0.105082 0.482141
321 4 0.412581 0.152904 0.465279
1221 4 0.217727 0.20462 0.489014
711 4 0.309458 0.236824 0.475838
650 4 0.32574 0.22273 0.485512
709 2 0.294923 0.249407 0.45985
715 2 0.37699 0.206081 0.440138
716 4 0.383081 0.198968 0.463322
649 2 0.347583 0.210903 0.482651
651 4 0.369426 0.199075 0.479791
409 2 0.405385 0.222865 0.482365
411 4 0.388763 0.204213 0.483365
319 2 0.392754 0.165791 0.473401
320 4 0.372926 0.178678 0.481523
410 4 0.422007 0.241517 0.481366
265 2 0.474313 0.183026 0.427882
576 4 0.440448 0.237191 0.472434
574 2 0.455844 0.218992 0.464888
575 4 0.471239 0.200792 0.457342
266 4 0.467895 0.181444 0.451996
617 4 0.0545713 0.310397 0.431905
1135 2 0.145482 0.296688 0.483374
1136 4 0.166485 0.285148 0.47624
1137 4 0.124479 0.308229 0.490508
1259 4 0.268719 0.268857 0.42799
710 4 0.280389 0.26199 0.443863
2813 4 0.0403008 0.347143 0.457181
2812 2 0.0562341 0.350169 0.476211
2814 4 0.0721675 0.353195 0.495242
561 4 0.490052 0.414706 0.49222
383 4 0.0575637 0.455951 0.46604
382 2 0.0456498 0.444321 0.484694
1189 2 0.153976 0.433679 0.473178
1161 4 0.11378 0.455654 0.481507
1190 4 0.133564 0.447227 0.478174
1173 4 0.127156 0.463807 0.470539
1171 2 0.138907 0.48475 0.463577
1191 4 0.174388 0.42013 0.468182
504 4 0.167926 0.466313 0.432783
1269 4 0.40344 0.482914 0.447907
1267 2 0.404941 0.475853 0.423968
1716 4 0.46252 0.495598 0.422072
753 4 0.483822 0.4596 0.444495
4084 2 0.475341 0.489792 0.495689
3601 2 0.450604 0.422454 0.49594
752 4 0.492146 0.432752 0.485854
751 2 0.487984 0.446176 0.465174
4085 4 0.460146 0.480025 0.4784
3602 4 0.47379 0.425959 0.487262
823 2 0.0471017 0.0701253 0.534758
824 4 0.0681835 0.0580446 0.52886
2429 4 0.0783195 0.0668996 0.512978
2428 2 0.102649 0.0710462 0.508974
2430 4 0.126979 0.0751927 0.504969
1180 2 0.227422 0.0651826 0.561235
1181 4 0.230063 0.070623 0.536974
2333 4 0.343003 0.00706688 0.573919
1003 2 0.382714 0.00424597 0.579272
1005 4 0.359519 0.0130373 0.582412
4466 4 0.491697 0.0238025 0.559913
825 4 0.0260199 0.0822059 0.540657
879 4 0.0764614 0.148077 0.54638
877 2 0.0537388 0.137758 0.544832
470 4 0.0233719 0.125588 0.561238
878 4 0.0310162 0.12744 0.543283
469 2 0.00150442 0.114582 0.556152
1272 4 0.0903258 0.141482 0.55884
259 2 0.130059 0.157543 0.529208
1270 2 0.102163 0.141723 0.580863
260 4 0.149665 0.150313 0.515477
261 4 0.110453 0.164772 0.542938
944 4 0.217813 0.140297 0.548227
943 2 0.22799 0.162543 0.543057
1152 4 0.29466 0.162991 0.505419
1151 4 0.250455 0.1743 0.525882
1150 2 0.272557 0.168646 0.515651
900 4 0.347083 0.119332 0.562161
898 2 0.357354 0.136882 0.57671
3053 4 0.46047 0.152308 0.540159
3052 2 0.464079 0.128302 0.546146
3054 4 0.467688 0.104296 0.552133
1033 2 0.123977 0.204014 0.558836
1034 4 0.129111 0.225193 0.571093
1035 4 0.118844 0.182834 0.546578
695 4 0.140921 0.231944 0.584876
945 4 0.238167 0.184789 0.537887
1220 4 0.242064 0.204579 0.5327
1219 2 0.229895 0.204599 0.510857
327 4 0.257635 0.19261 0.534158
791 4 0.262756 0.21906 0.518253
325 2 0.259985 0.199921 0.557953
326 4 0.262334 0.207233 0.581748
790 2 0.26592 0.243796 0.520071
2847 4 0.0338464 0.309509 0.572481
2846 4 0.0489877 0.315106 0.525151
2845 2 0.041417 0.312308 0.548816
3327 4 0.0149759 0.307817 0.571746
3325 2 0.00466993 0.290106 0.586074
1041 4 0.119751 0.316993 0.508441
813 4 0.230495 0.323799 0.53512
811 2 0.246675 0.30505 0.531674
792 4 0.269085 0.268532 0.521889
804 4 0.280732 0.288918 0.520231
812 4 0.262855 0.286301 0.528228
802 2 0.304536 0.286197 0.527381
803 4 0.328341 0.283476 0.53453
3263 4 0.0180478 0.326379 0.575606
1039 2 0.104877 0.336831 0.505221
1040 4 0.0900018 0.356669 0.502
896 4 0.116074 0.370171 0.545469
895 2 0.111205 0.394327 0.541231
239 4 0.305562 0.408312 0.524337
238 2 0.328841 0.41382 0.517061
559 2 0.499614 0.395304 0.504762
1936 2 0.0030103 0.49288 0.547253
384 4 0.0337358 0.432692 0.503349
897 4 0.106336 0.418483 0.536993
1160 4 0.0984776 0.430736 0.522073
538 2 0.147227 0.480376 0.530827
539 4 0.131394 0.462425 0.538058
1159 2 0.106129 0.443195 0.50179
540 4 0.163059 0.498326 0.523597
1187 4 0.225726 0.486027 0.506172
240 4 0.352119 0.419327 0.509785
1000 2 0.383042 0.500408 0.585124
1001 4 0.364995 0.483719 0.589701
4148 4 0.45686 0.496201 0.546425
4086 4 0.490535 0.499559 0.512978
2169 4 0.462182 0.492957 0.578095
3603 4 0.427418 0.418948 0.504617
2318 4 0.0448489 0.0133927 0.59776
1283 4 0.162913 0.0343227 0.663378
1282 2 0.175024 0.0558575 0.659537
1032 4 0.174325 0.054818 0.619429
1182 4 0.224782 0.0597422 0.585496
1031 4 0.214338 0.0721951 0.59498
1030 2 0.194331 0.0635066 0.607205
950 4 0.243112 0.00794449 0.594351
1284 4 0.187135 0.0773923 0.655695
949 2 0.266081 0.0177751 0.59533
951 4 0.28905 0.0276057 0.596308
843 4 0.299238 0.0403852 0.60773
841 2 0.320203 0.0302441 0.59863
1217 4 0.357725 0.0304605 0.591919
1216 2 0.370136 0.0506637 0.599856
842 4 0.341169 0.0201031 0.589531
1218 4 0.382546 0.0708668 0.607793
1198 2 0.0163148 0.120122 0.646767
1200 4 0.0224088 0.100428 0.660916
1199 4 0.0102207 0.139816 0.632619
1271 4 0.113999 0.141964 0.602886
1154 4 0.145096 0.1218 0.631395
1153 2 0.164722 0.108244 0.638893
1155 4 0.184348 0.0946878 0.646391
1211 4 0.203241 0.08838 0.648579
1210 2 0.218576 0.103087 0.635398
1212 4 0.23391 0.117794 0.622218
886 2 0.308068 0.0976259 0.657804
887 4 0.313107 0.109824 0.636568
899 4 0.367625 0.154433 0.591258
1194 4 0.361312 0.150037 0.609642
3401 4 0.489275 0.114375 0.609267
908 4 0.078225 0.242433 0.610145
909 4 0.0848902 0.196868 0.629642
907 2 0.0815576 0.219651 0.619894
1065 4 0.144489 0.215996 0.640951
1063 2 0.144955 0.191746 0.647028
694 2 0.158665 0.234528 0.602302
1064 4 0.14542 0.167497 0.653105
798 4 0.172848 0.242944 0.665282
696 4 0.176409 0.237111 0.619727
1192 2 0.359998 0.173998 0.616663
1193 4 0.358684 0.19796 0.623685
1024 2 0.405213 0.222328 0.652769
953 4 0.476351 0.198186 0.595324
1026 4 0.422084 0.2124 0.637213
954 4 0.437416 0.206324 0.625631
952 2 0.456884 0.202255 0.610478
984 4 0.0289879 0.318936 0.588544
982 2 0.041206 0.329256 0.607763
3326 4 0.994364 0.272395 0.600401
856 2 0.13119 0.313656 0.643728
858 4 0.152081 0.301709 0.636943
796 2 0.166095 0.266028 0.658449
797 4 0.159342 0.289112 0.651616
857 4 0.1103 0.325603 0.650512
3123 4 0.483214 0.281135 0.629215
3121 2 0.474117 0.287242 0.651691
3356 4 0.493172 0.26594 0.620913
1262 4 0.49228 0.284054 0.611105
3275 4 0.0492041 0.339267 0.646536
983 4 0.0534241 0.339577 0.626983
1007 4 0.398003 0.369242 0.642098
1006 2 0.414275 0.387606 0.637282
1008 4 0.430546 0.40597 0.632466
2014 2 0.0920244 0.479029 0.660281
2016 4 0.0856507 0.499 0.646652
1067 4 0.247806 0.456413 0.594392
1174 2 0.325105 0.475032 0.603948
1066 2 0.265413 0.469047 0.606864
1027 2 0.296982 0.460207 0.65537
1068 4 0.283021 0.48168 0.619336
1175 4 0.304873 0.473779 0.618586
1028 4 0.290415 0.474685 0.636071
1953 4 0.278499 0.489899 0.640017
1176 4 0.345337 0.476285 0.58931
1250 4 0.491621 0.481829 0.638624
2167 2 0.474271 0.490434 0.599836
2168 4 0.48636 0.487912 0.621577
1249 2 0.488464 0.477159 0.662984
1148 4 0.168343 0.0631244 0.744603
2201 4 0.227806 0.0105114 0.678377
1149 4 0.192151 0.039023 0.70782
1147 2 0.180247 0.0510737 0.726212
1239 4 0.249075 0.0447205 0.695353
1237 2 0.270681 0.0564046 0.690678
1238 4 0.292287 0.0680888 0.686003
806 4 0.299621 0.0825071 0.697146
1113 4 0.389968 0.0861729 0.746254
862 2 0.00716342 0.143909 0.744726
1073 4 0.034399 0.106482 0.675965
1072 2 0.0525054 0.120297 0.686285
1074 4 0.0706118 0.134112 0.696604
947 4 0.0719908 0.153371 0.691407
9 3 0.13843 0.100574 0.663489
10 3 0.117803 0.0941248 0.69432
6 1 0.133549 0.1077 0.685025
946 2 0.0965601 0.151494 0.687164
8 3 0.125863 0.129589 0.684575
948 4 0.121129 0.149617 0.682921
7 3 0.152739 0.106816 0.697679
1277 4 0.149337 0.128686 0.702976
978 4 0.160775 0.117976 0.715174
1276 2 0.145064 0.153041 0.706681
993 4 0.206673 0.138702 0.672454
916 2 0.238927 0.126068 0.705752
917 4 0.23251 0.109891 0.6878
992 4 0.168662 0.120505 0.699376
976 2 0.172757 0.12263 0.73662
991 2 0.187668 0.129604 0.685915
45 3 0.243247 0.151581 0.741237
918 4 0.245344 0.142246 0.723704
888 4 0.303028 0.0854279 0.679041
805 2 0.296279 0.101969 0.712483
807 4 0.292937 0.121432 0.72782
1257 4 0.290033 0.125299 0.748706
2398 2 0.38492 0.11763 0.728598
2400 4 0.371969 0.131709 0.712498
2399 4 0.397871 0.10355 0.744699
1076 4 0.0136506 0.179497 0.675976
1278 4 0.140791 0.177397 0.710387
1025 4 0.388342 0.232256 0.668324
830 4 0.382587 0.247463 0.680834
846 4 0.401816 0.165619 0.715851
844 2 0.411261 0.186241 0.726373
845 4 0.420706 0.206864 0.736894
821 4 0.0489888 0.277213 0.725758
820 2 0.0672811 0.274486 0.742584
1236 4 0.105013 0.266067 0.757267
829 2 0.382361 0.26529 0.698365
831 4 0.382135 0.283116 0.715897
809 4 0.370485 0.277171 0.729839
3204 4 0.383962 0.28589 0.740623
3202 2 0.408478 0.290779 0.741107
808 2 0.351931 0.267643 0.743627
3122 4 0.46502 0.29335 0.674166
3203 4 0.432994 0.295668 0.74159
3274 2 0.059601 0.344389 0.668691
3276 4 0.0699978 0.34951 0.690846
814 2 0.0735572 0.368279 0.717544
815 4 0.0733047 0.36924 0.69256
816 4 0.0738096 0.367319 0.742528
885 4 0.0636665 0.411814 0.733027
1080 4 0.157553 0.394915 0.73999
1078 2 0.139007 0.405093 0.726662
1079 4 0.120461 0.415271 0.713335
883 2 0.0857007 0.415369 0.744298
941 4 0.1513 0.373545 0.745122
2013 4 0.168635 0.378992 0.737018
2011 2 0.190131 0.370882 0.727152
2012 4 0.211627 0.362772 0.717286
1230 4 0.334896 0.402076 0.745773
3329 4 0.497491 0.364698 0.6946
1281 4 0.0639102 0.423571 0.716796
1280 4 0.0610034 0.452871 0.676376
1279 2 0.0624568 0.438221 0.696586
3431 4 0.000989151 0.456509 0.696542
2015 4 0.098398 0.459059 0.673909
1029 4 0.303549 0.44573 0.674669
929 4 0.282618 0.462976 0.717968
928 2 0.275336 0.486125 0.723991
1229 4 0.345094 0.45102 0.744674
1228 2 0.339995 0.426548 0.745223
1206 4 0.45766 0.45663 0.736157
1251 4 0.485307 0.472489 0.687344
3135 4 0.0110046 0.0249345 0.7922
1226 4 0.174277 0.0799325 0.753764
966 4 0.23412 0.071207 0.812744
1111 2 0.376394 0.0665801 0.753807
1112 4 0.36282 0.0469873 0.761361
2321 4 0.446874 0.0864176 0.785026
1202 4 0.00701983 0.0890084 0.800952
863 4 0.0244184 0.139277 0.762218
1203 4 0.0246987 0.130268 0.778911
1201 2 0.0158593 0.109638 0.789932
892 2 0.99903 0.161155 0.830019
1227 4 0.161948 0.0919432 0.800716
964 2 0.24488 0.0854292 0.830269
1225 2 0.168113 0.0859378 0.77724
44 3 0.243346 0.142686 0.777823
977 4 0.184739 0.127284 0.758067
41 1 0.255998 0.150668 0.760085
43 3 0.274324 0.136873 0.756586
1255 2 0.308524 0.135995 0.761699
1256 4 0.327016 0.146691 0.774693
840 4 0.288982 0.110292 0.825619
838 2 0.304469 0.0931646 0.83521
960 4 0.355329 0.0921861 0.802754
2322 4 0.406386 0.0853577 0.755694
958 2 0.345891 0.113654 0.794081
1086 4 0.33687 0.156036 0.790077
959 4 0.336453 0.135122 0.785408
1084 2 0.337471 0.164424 0.813624
2320 2 0.42663 0.0858876 0.77036
819 4 0.422873 0.128406 0.771978
817 2 0.419859 0.153086 0.774625
1110 4 0.462879 0.106727 0.800637
1108 2 0.463727 0.0996066 0.82459
894 4 0.996331 0.185924 0.83211
1235 4 0.136759 0.229569 0.769949
1234 2 0.120886 0.247818 0.763608
42 3 0.263475 0.171811 0.765206
1143 4 0.301914 0.213449 0.804505
1142 4 0.276897 0.177726 0.780036
1141 2 0.289405 0.195588 0.792271
1298 4 0.315623 0.226657 0.804388
1297 2 0.31684 0.227677 0.829341
48 3 0.409259 0.213961 0.799104
818 4 0.416846 0.177766 0.777272
46 1 0.418854 0.218809 0.819666
49 3 0.429744 0.239275 0.818698
50 3 0.433595 0.202429 0.825418
1102 2 0.0169624 0.261391 0.812898
970 2 0.0447145 0.320786 0.798726
971 4 0.0405197 0.296583 0.803394
1103 4 0.0348567 0.278569 0.809757
822 4 0.0855733 0.271759 0.759411
1121 4 0.100963 0.284578 0.753261
1120 2 0.115632 0.302073 0.763457
1122 4 0.1303 0.319567 0.773652
1096 2 0.295596 0.295739 0.814471
1098 4 0.284736 0.291994 0.792262