ITEM: TIMESTEP
2960000
ITEM: NUMBER OF ATOMS
4590
ITEM: BOX BOUNDS pp pp pp
-9.9985700000000008e+00 9.9985700000000008e+00
-9.9985700000000008e+00 9.9985700000000008e+00
-9.9985700000000008e+00 9.9985700000000008e+00
ITEM: ATOMS id type xs ys zs
1247 4 0.0665646 0.0779132 0.0417886
379 2 0.0577789 0.0498431 0.068611
380 4 0.0559728 0.0627086 0.0472476
1246 2 0.0619049 0.0803126 0.0173405
577 2 0.212946 0.0465117 0.0773553
578 4 0.221685 0.0667266 0.0891945
579 4 0.204207 0.0262969 0.065516
654 4 0.236067 0.0715701 0.0758579
423 4 0.222544 0.0840577 0.0758908
490 2 0.287744 0.0385909 0.0519763
492 4 0.309516 0.0380555 0.0396932
486 4 0.310337 0.0392209 0.0196438
491 4 0.265972 0.0391264 0.0642594
484 2 0.321018 0.0210663 0.00617074
665 4 0.315532 0.0736936 0.0562316
2161 2 0.267776 0.00196309 0.999357
2722 2 0.372283 0.0144748 0.0692986
2724 4 0.348193 0.0104049 0.0639799
2469 4 0.409443 0.0214254 0.0615601
1760 4 0.409167 0.0335667 0.0797086
2467 2 0.418925 0.0189069 0.0385617
2468 4 0.428407 0.0163885 0.0155633
421 2 0.217252 0.094275 0.0536921
422 4 0.21196 0.104492 0.0314934
359 4 0.262683 0.136233 0.019288
664 2 0.335715 0.0884313 0.0554274
666 4 0.355897 0.103169 0.0546232
866 4 0.352926 0.120945 0.0446464
865 2 0.370988 0.135026 0.0346134
867 4 0.389051 0.149106 0.0245805
555 4 0.188505 0.167556 0.0311228
553 2 0.194335 0.185919 0.0151854
505 2 0.180525 0.240521 0.016076
507 4 0.186644 0.220743 0.00205596
554 4 0.200166 0.204281 0.999248
311 4 0.30721 0.187822 0.0446402
310 2 0.314076 0.183618 0.068312
353 4 0.267361 0.233704 0.0505904
352 2 0.264643 0.215994 0.0680306
755 4 0.279246 0.247816 0.0411287
770 4 0.460226 0.182874 0.0554005
1306 2 0.445126 0.249644 0.00914089
769 2 0.451354 0.174865 0.0773625
2624 4 0.0655182 0.289316 0.0456986
2623 2 0.0736004 0.281745 0.0232811
2514 4 0.00414569 0.295779 0.00347922
338 4 0.122546 0.322913 0.0563414
506 4 0.174406 0.260299 0.030096
356 4 0.118542 0.32693 0.0367507
38 3 0.214239 0.2754 0.0102081
36 1 0.228048 0.274677 0.0288417
37 3 0.215154 0.270879 0.0475093
40 3 0.243201 0.25782 0.0266349
1512 4 0.218202 0.285808 0.0604786
39 3 0.239061 0.294948 0.03133
1710 4 0.231738 0.297168 0.050468
1708 2 0.241087 0.31732 0.0619427
1510 2 0.205767 0.274568 0.0790316
754 2 0.283313 0.27059 0.0506155
756 4 0.28738 0.293363 0.0601023
740 4 0.301612 0.305341 0.0664346
739 2 0.320296 0.321481 0.0703839
1308 4 0.431167 0.256636 0.0286715
837 4 0.065064 0.350836 0.0178004
835 2 0.0404651 0.34669 0.0161024
836 4 0.0158661 0.342544 0.0144044
286 2 0.0503306 0.402913 0.0670369
287 4 0.0595358 0.387884 0.0493007
357 4 0.084084 0.354921 0.0137318
288 4 0.0411254 0.417942 0.0847732
337 2 0.125412 0.3339 0.0786183
355 2 0.101313 0.340926 0.0252413
1709 4 0.250435 0.337472 0.0734174
251 4 0.311543 0.406753 0.0364677
250 2 0.329126 0.407269 0.0186983
741 4 0.33898 0.337621 0.0743332
387 4 0.388224 0.377154 0.0597477
386 4 0.35515 0.339671 0.0610794
385 2 0.371687 0.358413 0.0604136
13 3 0.389612 0.39636 0.0584183
252 4 0.346709 0.407785 0.000928961
2840 4 0.463546 0.348637 0.0261008
2839 2 0.483727 0.351013 0.0115314
914 4 0.0373865 0.436946 0.0835782
913 2 0.0308354 0.452357 0.0650106
915 4 0.0242843 0.467768 0.046443
2786 4 0.010483 0.465892 0.0308136
1438 2 0.136726 0.493979 0.0616027
1440 4 0.122717 0.473336 0.0632732
551 4 0.207795 0.503028 0.0307195
246 4 0.310098 0.466898 0.0640538
11 1 0.401604 0.415685 0.063016
15 3 0.397521 0.431358 0.0470054
14 3 0.395646 0.423932 0.08387
12 3 0.42405 0.410655 0.0631444
672 4 0.477773 0.451588 0.0497203
670 2 0.474136 0.448777 0.0742978
381 4 0.059585 0.0369776 0.0899744
2481 4 0.0415571 0.0287618 0.090691
2479 2 0.0387371 0.0257157 0.115348
2480 4 0.035917 0.0226695 0.140004
3783 4 0.0321895 0.00289161 0.144027
581 4 0.229729 0.0863921 0.0964823
652 2 0.257585 0.0719398 0.0885868
653 4 0.279103 0.0723095 0.101316
21 1 0.357222 0.0605991 0.14407
25 3 0.34744 0.0703445 0.162181
23 3 0.347721 0.0688162 0.124561
22 3 0.379695 0.0655099 0.144039
297 4 0.383271 0.0818877 0.163114
24 3 0.354578 0.0375688 0.145079
295 2 0.403775 0.0824659 0.148816
1759 2 0.421204 0.017844 0.0949758
1761 4 0.433241 0.00212127 0.110243
296 4 0.424279 0.0830442 0.134518
629 4 0.439122 0.0840594 0.148354
2590 2 0.452331 0.996508 0.151219
580 2 0.207851 0.0936166 0.106196
582 4 0.185973 0.100841 0.115909
284 4 0.233977 0.137353 0.0946702
534 4 0.235843 0.124585 0.110904
283 2 0.244445 0.160034 0.095758
532 2 0.254714 0.113351 0.122857
533 4 0.273584 0.102118 0.13481
558 4 0.443547 0.0792174 0.128799
556 2 0.464868 0.0817819 0.115991
557 4 0.486189 0.0843465 0.103184
771 4 0.442483 0.166856 0.0993246
396 4 0.00718027 0.208041 0.0833985
236 4 0.112341 0.167381 0.139351
235 2 0.127081 0.187381 0.136537
237 4 0.14182 0.207381 0.133723
477 4 0.145148 0.223827 0.12279
475 2 0.127653 0.241298 0.119068
647 4 0.0984456 0.24706 0.127877
763 2 0.248464 0.219324 0.11957
765 4 0.238011 0.236989 0.133848
354 4 0.261924 0.198285 0.0854707
764 4 0.258918 0.201658 0.105293
285 4 0.254912 0.182715 0.0968457
312 4 0.320942 0.179413 0.0919839
2519 4 0.456593 0.205251 0.139086
2518 2 0.472101 0.198976 0.157669
363 4 0.0486985 0.27892 0.159709
648 4 0.0564251 0.264294 0.148805
646 2 0.0774353 0.255677 0.138341
476 4 0.110158 0.25877 0.115347
736 2 0.152589 0.330706 0.130598
737 4 0.168157 0.315422 0.142813
1511 4 0.193331 0.263328 0.0975845
372 4 0.183661 0.30483 0.152679
612 4 0.262683 0.288882 0.123974
610 2 0.281628 0.304668 0.128108
611 4 0.300573 0.320453 0.132242
624 4 0.406697 0.300562 0.116144
622 2 0.422646 0.317025 0.126134
623 4 0.438595 0.333487 0.136124
1304 4 0.472821 0.302186 0.0903518
518 4 0.485442 0.258936 0.143596
517 2 0.491768 0.262754 0.167483
1303 2 0.494885 0.311841 0.0970701
705 4 0.03099 0.357424 0.137791
703 2 0.0482445 0.371739 0.126721
1757 4 0.0180322 0.411179 0.144807
1756 2 0.00613549 0.402276 0.164917
704 4 0.0654989 0.386053 0.11565
417 4 0.0748816 0.407603 0.117361
339 4 0.128277 0.344887 0.100895
738 4 0.137021 0.34599 0.118383
455 4 0.118928 0.357027 0.114276
454 2 0.100615 0.373283 0.119331
456 4 0.082302 0.38954 0.124385
415 2 0.0904312 0.425249 0.125845
303 4 0.296259 0.381418 0.162384
301 2 0.299439 0.361141 0.148105
302 4 0.302619 0.340863 0.133827
308 4 0.357935 0.362564 0.15437
497 4 0.481507 0.362975 0.116683
498 4 0.445991 0.346715 0.147907
728 4 0.42439 0.341684 0.149684
103 3 0.4999 0.370207 0.111047
496 2 0.463749 0.354845 0.132295
314 4 0.0270904 0.428647 0.0983345
315 4 0.0278923 0.428478 0.148335
313 2 0.0274914 0.428562 0.123335
416 4 0.105981 0.442895 0.13433
244 2 0.319518 0.478824 0.0839088
1629 4 0.341075 0.492903 0.121797
245 4 0.328938 0.49075 0.103764
1575 4 0.322418 0.486499 0.122223
1573 2 0.307253 0.474043 0.137717
1574 4 0.292088 0.461587 0.153211
955 2 0.4652 0.45981 0.137693
956 4 0.47653 0.453733 0.116248
957 4 0.453871 0.465887 0.159139
671 4 0.4705 0.445966 0.0988753
567 4 0.153411 0.0748321 0.173876
690 4 0.193388 0.999508 0.215276
673 2 0.211819 0.0152149 0.23672
466 2 0.211125 0.0727976 0.231245
565 2 0.17144 0.0829301 0.189191
467 4 0.217276 0.0547848 0.247459
674 4 0.211881 0.036617 0.249648
1463 4 0.317863 0.0191279 0.21431
2895 4 0.401347 0.998702 0.211962
759 4 0.363327 0.0821408 0.167998
480 4 0.487069 0.0708472 0.235888
2591 4 0.459353 0.993754 0.175058
512 4 0.0806321 0.109616 0.195274
511 2 0.0933823 0.131023 0.19736
513 4 0.106132 0.15243 0.199446
468 4 0.204973 0.0908105 0.215031
566 4 0.18947 0.0910282 0.204505
598 2 0.201239 0.130905 0.211778
600 4 0.192629 0.10786 0.216245
599 4 0.209849 0.153951 0.20731
757 2 0.355168 0.0870114 0.191126
758 4 0.347009 0.091882 0.214253
628 2 0.453806 0.0907973 0.167437
630 4 0.46849 0.0975352 0.18652
391 2 0.0783818 0.199582 0.242453
393 4 0.093472 0.189041 0.225531
473 4 0.23794 0.196895 0.246629
632 4 0.3215 0.210631 0.225317
631 2 0.311191 0.197375 0.243842
2520 4 0.487609 0.192701 0.176251
3335 4 0.480384 0.177343 0.186658
3334 2 0.487954 0.181009 0.210205
3336 4 0.495524 0.184675 0.233751
361 2 0.051886 0.295873 0.177809
750 4 0.0741335 0.318336 0.199968
362 4 0.0550735 0.312826 0.195909
370 2 0.194223 0.31501 0.172927
371 4 0.204785 0.325189 0.193176
519 4 0.498094 0.266572 0.19137
521 4 0.488925 0.282871 0.197565
520 2 0.494879 0.3054 0.206631
522 4 0.500833 0.327928 0.215697
2463 4 0.0538723 0.373865 0.217758
2461 2 0.0526805 0.392808 0.234034
748 2 0.0732155 0.342486 0.206379
749 4 0.0722976 0.366637 0.21279
2462 4 0.0514887 0.411751 0.250311
603 4 0.21253 0.341036 0.237544
637 2 0.230292 0.416434 0.240509
601 2 0.219919 0.361266 0.250245
309 4 0.365197 0.33135 0.192758
644 4 0.37854 0.349189 0.237338
607 2 0.393579 0.400635 0.1803
307 2 0.361566 0.346957 0.173564
643 2 0.395361 0.359765 0.222159
645 4 0.412182 0.370341 0.206981
608 4 0.41249 0.389072 0.191869
729 4 0.409275 0.370475 0.187675
494 4 0.430273 0.369596 0.192566
727 2 0.416832 0.356079 0.16868
493 2 0.43821 0.389185 0.205925
495 4 0.446147 0.408774 0.219284
1320 4 0.0251828 0.464319 0.22669
1318 2 0.0338331 0.446617 0.242084
3716 4 0.0134324 0.487195 0.187584
3715 2 0.0363111 0.494053 0.194981
1790 4 0.00269955 0.499629 0.175511
639 4 0.225922 0.43417 0.223435
524 4 0.331511 0.464807 0.214793
609 4 0.374667 0.412197 0.16873
525 4 0.34107 0.429209 0.180998
523 2 0.336291 0.447008 0.197895
659 4 0.457454 0.458984 0.178096
658 2 0.457663 0.452155 0.202148
660 4 0.457872 0.445326 0.2262
108 3 0.47657 0.437609 0.231893
1488 4 0.489467 0.498216 0.18309
106 1 0.486321 0.425133 0.248854
232 2 0.0672881 0.00143619 0.280675
233 4 0.0751878 0.024808 0.276609
605 4 0.106356 0.0499799 0.301896
604 2 0.124853 0.0594425 0.315806
606 4 0.143349 0.0689052 0.329717
429 4 0.227402 0.0367971 0.262065
427 2 0.234231 0.0515625 0.281053
428 4 0.241061 0.0663279 0.30004
440 4 0.246505 0.058628 0.317567
1516 2 0.382068 0.0272109 0.327655
1517 4 0.379921 0.020177 0.303757
478 2 0.476033 0.0749364 0.257948
479 4 0.464996 0.0790255 0.280009
2739 4 0.0285898 0.0963949 0.333327
683 4 0.27633 0.120506 0.264126
682 2 0.287144 0.142943 0.266324
453 4 0.380712 0.0913494 0.292966
451 2 0.3878 0.114709 0.298379
452 4 0.394887 0.138068 0.303792
254 4 0.451834 0.122452 0.318687
2484 4 0.0472266 0.199812 0.252932
392 4 0.0632916 0.210122 0.259375
2482 2 0.0279552 0.189625 0.26518
2483 4 0.00868375 0.179438 0.277428
249 4 0.066822 0.212516 0.279571
247 2 0.0684945 0.225514 0.300865
248 4 0.070167 0.238512 0.322159
279 4 0.157256 0.204203 0.283364
277 2 0.170576 0.222748 0.273174
278 4 0.183896 0.241293 0.262984
472 2 0.260014 0.18652 0.25213
633 4 0.300882 0.184119 0.262367
474 4 0.282087 0.176144 0.257631
684 4 0.297958 0.16538 0.268521
726 4 0.286724 0.177454 0.277835
724 2 0.282024 0.1859 0.300895
725 4 0.277323 0.194346 0.323955
304 2 0.390835 0.222518 0.324341
305 4 0.371917 0.21046 0.335382
515 4 0.354869 0.196958 0.338754
306 4 0.409753 0.234576 0.3133
536 4 0.185986 0.248132 0.280427
535 2 0.19889 0.269215 0.284192
537 4 0.211795 0.290298 0.287956
402 4 0.224272 0.288792 0.302353
678 4 0.207603 0.303013 0.301091
676 2 0.192617 0.322124 0.307037
400 2 0.248075 0.292691 0.30894
343 2 0.285327 0.322655 0.286747
401 4 0.271879 0.29659 0.315526
344 4 0.270689 0.310384 0.302882
420 4 0.405413 0.251027 0.325092
418 2 0.401808 0.274491 0.332942
2955 4 0.0146227 0.383358 0.297901
2953 2 0.00658602 0.399473 0.280554
298 2 0.142116 0.407527 0.320162
299 4 0.131681 0.401629 0.298218
638 4 0.234661 0.398698 0.257582
602 4 0.227308 0.381496 0.262946
677 4 0.17763 0.341235 0.312983
290 4 0.240888 0.389375 0.273839
345 4 0.299965 0.334926 0.270612
289 2 0.259279 0.399712 0.28726
291 4 0.277669 0.410049 0.300681
436 2 0.353595 0.413911 0.296618
438 4 0.35752 0.389238 0.297631
110 3 0.473072 0.407342 0.254015
3959 4 0.0584681 0.420466 0.266178
1319 4 0.0424833 0.428915 0.257479
3958 2 0.083141 0.423772 0.268523
3960 4 0.107814 0.427077 0.270867
437 4 0.349671 0.438584 0.295605
542 4 0.396406 0.503107 0.263594
1689 4 0.457453 0.487021 0.239852
541 2 0.417777 0.491516 0.257754
1583 4 0.485936 0.453498 0.283065
107 3 0.488704 0.438453 0.267456
1582 2 0.471268 0.469841 0.27111
543 4 0.439148 0.479925 0.251915
1584 4 0.456601 0.486184 0.259154
1698 4 0.49156 0.469483 0.329982
2477 4 0.00849395 0.0708772 0.38823
2476 2 0.015101 0.0471064 0.38417
2478 4 0.021708 0.0233356 0.380111
545 4 0.119053 0.0169563 0.387899
544 2 0.143392 0.0146397 0.393133
399 4 0.138187 0.0780502 0.344745
397 2 0.142675 0.0724856 0.368704
398 4 0.147163 0.066921 0.392664
546 4 0.167732 0.0123232 0.398367
441 4 0.252863 0.0523132 0.366765
731 4 0.180647 0.00807091 0.416387
439 2 0.249684 0.0554706 0.342166
1670 4 0.334399 0.00247133 0.362675
351 4 0.32431 0.0826911 0.34953
743 4 0.327361 0.066306 0.357733
1518 4 0.384214 0.0342448 0.351552
744 4 0.372945 0.0462282 0.362176
1669 2 0.341467 0.00828629 0.385943
699 4 0.388371 0.0386908 0.372844
697 2 0.412306 0.0333916 0.377767
742 2 0.350153 0.0562671 0.359954
1671 4 0.348535 0.0141012 0.409211
698 4 0.436241 0.0280924 0.382689
317 4 0.0117186 0.0906269 0.394111
2738 4 0.00374152 0.0857979 0.37541
2737 2 0.0161657 0.0910964 0.354368
316 2 0.0123833 0.0909569 0.419104
350 4 0.332692 0.131944 0.351683
706 2 0.269917 0.109196 0.408493
708 4 0.278637 0.129425 0.396664
349 2 0.328501 0.107317 0.350606
426 4 0.284112 0.143968 0.407792
424 2 0.284216 0.165438 0.394977
257 4 0.34822 0.13639 0.365909
516 4 0.341783 0.15063 0.352286
28 3 0.404756 0.113591 0.386009
256 2 0.362667 0.137707 0.386274
258 4 0.377113 0.139023 0.406639
30 3 0.415221 0.143121 0.406892
26 1 0.421058 0.12975 0.389405
253 2 0.447249 0.128984 0.342383
27 3 0.422925 0.142544 0.370379
255 4 0.442665 0.135516 0.366079
324 4 0.453965 0.132757 0.382909
29 3 0.441492 0.119615 0.393664
322 2 0.472658 0.149014 0.386295
323 4 0.49135 0.165272 0.389682
462 4 0.423427 0.161272 0.379754
1581 4 0.426002 0.159294 0.399471
2654 4 0.0470105 0.191526 0.401767
431 4 0.264397 0.210696 0.323037
425 4 0.284319 0.186908 0.382163
432 4 0.276957 0.201702 0.370598
717 4 0.296647 0.202241 0.378879
430 2 0.270677 0.206199 0.346817
508 2 0.274697 0.230302 0.415492
509 4 0.279021 0.238816 0.392384
488 4 0.31634 0.246318 0.343032
715 2 0.318363 0.206645 0.390463
489 4 0.356613 0.216825 0.346025
514 2 0.348326 0.173794 0.34552
487 2 0.336476 0.231572 0.344529
716 4 0.340079 0.211049 0.402048
461 4 0.413875 0.188077 0.338632
460 2 0.418651 0.174674 0.359193
1579 2 0.433518 0.178937 0.412993
267 4 0.455007 0.207858 0.41645
679 2 0.0346279 0.304302 0.410507
680 4 0.0200812 0.319241 0.396708
1260 4 0.247259 0.330735 0.349073
1259 4 0.250526 0.296983 0.385827
710 4 0.254145 0.293728 0.405096
1258 2 0.248893 0.313859 0.36745
419 4 0.398202 0.297955 0.340792
377 4 0.392943 0.315935 0.336757
499 2 0.0681135 0.412479 0.367781
500 4 0.0724423 0.393553 0.383537
768 4 0.16927 0.352415 0.367074
767 4 0.162945 0.399328 0.350954
766 2 0.166108 0.375871 0.359014
300 4 0.15255 0.413424 0.342105
734 4 0.14407 0.404656 0.359498
592 2 0.349647 0.371171 0.388542
593 4 0.353032 0.36239 0.365377
378 4 0.357 0.348431 0.349119
376 2 0.374971 0.332183 0.342938
434 4 0.405854 0.391627 0.402968
594 4 0.346262 0.379951 0.411707
433 2 0.423971 0.395989 0.386297
435 4 0.442088 0.400352 0.369627
586 2 0.4816 0.382657 0.365735
587 4 0.460092 0.392733 0.373549
584 4 0.496849 0.334446 0.40947
501 4 0.0637847 0.431404 0.352024
776 4 0.0538746 0.445161 0.3421
777 4 0.0318963 0.489968 0.345258
775 2 0.0428855 0.467564 0.343679
3671 4 0.0130726 0.494011 0.339492
733 2 0.130016 0.415079 0.377359
414 4 0.15862 0.42054 0.358226
735 4 0.115962 0.425501 0.39522
504 4 0.120123 0.439733 0.408777
412 2 0.181511 0.430481 0.356687
413 4 0.204402 0.440423 0.355148
1557 4 0.206576 0.451533 0.372116
1436 4 0.211872 0.432545 0.372688
1435 2 0.23608 0.427391 0.36914
1555 2 0.213323 0.475282 0.368157
1437 4 0.260288 0.422236 0.365592
1696 2 0.500488 0.490583 0.339996
937 2 0.00418746 0.0510414 0.44939
1600 2 0.0490475 0.0767292 0.463415
938 4 0.013268 0.0736128 0.455157
720 4 0.00276246 0.0101193 0.450885
1602 4 0.0268237 0.0881869 0.463422
1601 4 0.0712713 0.0652714 0.463407
1478 4 0.089881 0.0497517 0.463325
1479 4 0.118324 0.00868155 0.465556
1477 2 0.104102 0.0292166 0.464441
962 4 0.23181 0.00435732 0.477884
730 2 0.186996 0.027949 0.430162
732 4 0.193344 0.0478271 0.443937
1816 2 0.247589 0.0199938 0.441987
1817 4 0.244496 0.00914428 0.464301
961 2 0.216315 0.022096 0.486276
1818 4 0.250682 0.0308434 0.419673
92 3 0.39545 0.00186452 0.453221
93 3 0.408216 0.0364509 0.445909
91 1 0.401601 0.0163323 0.436428
95 3 0.383845 0.0197348 0.42258
1427 4 0.470352 0.0521039 0.448138
1426 2 0.489903 0.0369747 0.451884
94 3 0.41922 0.00699512 0.424563
1723 2 0.440215 0.0168183 0.483121
1725 4 0.453825 0.0301749 0.499293
1059 4 0.00281183 0.138786 0.478118
1058 4 0.00530483 0.0908811 0.463988
318 4 0.0130479 0.0912869 0.444096
1057 2 0.00405833 0.114833 0.471053
367 2 0.0678613 0.16077 0.471342
368 4 0.0897014 0.148771 0.473395
260 4 0.103311 0.162337 0.469908
275 4 0.24759 0.163077 0.449278
707 4 0.261196 0.0889672 0.420323
274 2 0.25683 0.140114 0.452811
276 4 0.266071 0.11715 0.456344
2653 2 0.0446569 0.185721 0.425973
369 4 0.0460211 0.172769 0.469289
2655 4 0.0423033 0.179917 0.450179
348 4 0.0278605 0.183353 0.466253
346 2 0.00604814 0.193927 0.460122
408 4 0.135143 0.206742 0.42486
406 2 0.129012 0.224119 0.44176
259 2 0.119937 0.177125 0.481314
407 4 0.122881 0.241496 0.45866
548 4 0.0918709 0.24273 0.447498
618 4 0.102926 0.242584 0.463628
261 4 0.136564 0.191912 0.492719
510 4 0.270373 0.221788 0.438601
374 4 0.26471 0.202622 0.445602
375 4 0.285707 0.188368 0.488691
373 2 0.275209 0.195495 0.467146
1152 4 0.330992 0.2057 0.502371
686 4 0.280209 0.174338 0.502246
650 4 0.336646 0.213396 0.484506
649 2 0.352175 0.221748 0.466778
411 4 0.386567 0.228561 0.454676
409 2 0.407345 0.220227 0.44354
651 4 0.367704 0.230101 0.449051
1580 4 0.441034 0.19858 0.426515
410 4 0.428123 0.211894 0.432405
265 2 0.476043 0.212749 0.429051
266 4 0.497078 0.21764 0.441651
575 4 0.446595 0.185496 0.479874
574 2 0.469041 0.188796 0.490385
576 4 0.491487 0.192095 0.500895
681 4 0.0491746 0.289363 0.424306
549 4 0.0671097 0.279223 0.423921
547 2 0.0794903 0.260976 0.43571
616 2 0.111832 0.260099 0.47909
617 4 0.120738 0.277614 0.494553
711 4 0.246626 0.27947 0.452434
709 2 0.250386 0.286599 0.428765
803 4 0.319476 0.292095 0.506921
2549 4 0.00372017 0.393587 0.429356
2812 2 0.0656432 0.346728 0.483052
2813 4 0.0437754 0.351991 0.47213
3602 4 0.478042 0.431567 0.498179
753 4 0.437015 0.410432 0.451774
752 4 0.471517 0.416281 0.487497
751 2 0.454266 0.413356 0.469636
561 4 0.490499 0.413735 0.497979
384 4 0.0351212 0.469247 0.453745
382 2 0.025259 0.469774 0.476715
502 2 0.128463 0.454672 0.42701
503 4 0.136802 0.469612 0.445243
1191 4 0.167004 0.418178 0.466719
1189 2 0.171013 0.423174 0.490888
825 4 0.0595741 0.0343119 0.579844
2319 4 0.0406286 0.0397775 0.577033
823 2 0.0750459 0.0415389 0.56158
824 4 0.0905176 0.0487659 0.543316
2429 4 0.0864465 0.0670633 0.537464
1180 2 0.220838 0.0541027 0.530319
1181 4 0.203957 0.0490454 0.512581
1182 4 0.23772 0.0591599 0.548057
98 3 0.22706 0.019075 0.55083
963 4 0.20082 0.0398348 0.494668
951 4 0.295591 0.0639085 0.553027
949 2 0.290123 0.0540627 0.575351
2332 2 0.39511 0.0161523 0.545019
2334 4 0.380372 0.00358475 0.529207
842 4 0.411257 0.0497836 0.562473
841 2 0.402607 0.0711015 0.552681
2333 4 0.409848 0.0287199 0.560831
1005 4 0.421694 0.0504823 0.581984
4239 4 0.473044 0.0253387 0.576115
4466 4 0.460394 0.0288352 0.560655
4465 2 0.462219 0.0409655 0.538867
4467 4 0.464045 0.0530957 0.517079
877 2 0.0411992 0.111471 0.547327
878 4 0.0201336 0.112272 0.533882
1272 4 0.0597836 0.116751 0.578917
879 4 0.0622649 0.11067 0.560772
470 4 0.0161997 0.0931329 0.528235
1200 4 0.0072218 0.161399 0.567706
935 4 0.00411198 0.155572 0.549327
1270 2 0.0808152 0.130226 0.580045
2428 2 0.0950863 0.0895954 0.530919
1271 4 0.101847 0.143702 0.581173
2430 4 0.103726 0.112128 0.524374
944 4 0.281149 0.163584 0.563813
943 2 0.259508 0.162944 0.57632
843 4 0.393956 0.0924193 0.542888
3052 2 0.41678 0.157977 0.538707
898 2 0.375917 0.150561 0.577958
3053 4 0.431954 0.138138 0.537543
1198 2 0.0170586 0.182844 0.575984
1033 2 0.138279 0.195042 0.535312
1034 4 0.132289 0.20098 0.55885
1035 4 0.144268 0.189104 0.511774
909 4 0.102971 0.211927 0.58076
1221 4 0.183066 0.200925 0.579527
1219 2 0.206079 0.191438 0.581893
1220 4 0.229091 0.181951 0.584259
813 4 0.253513 0.234144 0.533851
811 2 0.276477 0.240222 0.541654
687 4 0.279009 0.18008 0.551908
685 2 0.279609 0.177209 0.527077
1150 2 0.321345 0.219033 0.521195
1151 4 0.311698 0.232365 0.540019
812 4 0.299441 0.246301 0.549456
792 4 0.319378 0.244748 0.555748
790 2 0.321392 0.252083 0.579566
900 4 0.376123 0.166963 0.559087
3054 4 0.401606 0.177815 0.539872
321 4 0.381081 0.175816 0.539669
319 2 0.363025 0.177303 0.522436
953 4 0.408883 0.192981 0.572229
320 4 0.34497 0.178789 0.505203
325 2 0.34764 0.197553 0.573313
326 4 0.362435 0.177726 0.569682
327 4 0.332846 0.21738 0.576944
2846 4 0.0372461 0.256087 0.544877
3263 4 0.0529643 0.296062 0.501013
3262 2 0.0365848 0.305337 0.517471
2845 2 0.0423618 0.270409 0.564724
2847 4 0.0474775 0.284731 0.58457
3264 4 0.0202054 0.314612 0.533929
1137 4 0.159845 0.307096 0.522786
1041 4 0.139435 0.306916 0.52759
1039 2 0.122789 0.320725 0.515045
1135 2 0.18024 0.293193 0.52678
1136 4 0.200634 0.27929 0.530775
804 4 0.315689 0.253785 0.538839
802 2 0.317582 0.27294 0.52288
3326 4 0.0223748 0.350223 0.577654
2802 4 0.00654848 0.376112 0.524249
1161 4 0.0771412 0.354973 0.562975
1159 2 0.0833217 0.348225 0.539706
1160 4 0.0895023 0.341477 0.516437
897 4 0.10127 0.353436 0.507737
1040 4 0.106144 0.334535 0.5025
2814 4 0.087511 0.341466 0.493973
895 2 0.110803 0.376531 0.508705
896 4 0.120335 0.399626 0.509673
238 2 0.309618 0.353541 0.549847
240 4 0.30861 0.373922 0.535398
239 4 0.310627 0.33316 0.564296
1000 2 0.462768 0.401429 0.569405
1938 4 0.0157762 0.481133 0.514251
383 4 0.0153969 0.470301 0.499685
1172 4 0.111913 0.451083 0.523315
1171 2 0.135702 0.443407 0.52391
1173 4 0.159491 0.435732 0.524505
539 4 0.176652 0.435174 0.53472
1190 4 0.175022 0.42817 0.515057
538 2 0.180792 0.447055 0.556327
540 4 0.184931 0.458936 0.577935
1067 4 0.280851 0.416139 0.579667
1002 4 0.464912 0.416841 0.549832
3601 2 0.466117 0.431565 0.520155
3603 4 0.454191 0.431562 0.542132
4084 2 0.457932 0.478329 0.541525
4085 4 0.460315 0.453439 0.541495
4086 4 0.45555 0.503219 0.541556
2317 2 0.0344703 0.0296135 0.599032
2318 4 0.0283121 0.0194494 0.621031
946 2 0.144499 0.0583039 0.655294
947 4 0.121128 0.0598224 0.646537
948 4 0.167869 0.0567853 0.664052
1031 4 0.22442 0.0436216 0.608794
1212 4 0.239119 0.0298955 0.641246
1210 2 0.219457 0.0148389 0.644692
1030 2 0.247969 0.0356562 0.606116
1211 4 0.199795 0.999782 0.648137
1032 4 0.271518 0.0276907 0.603438
950 4 0.284655 0.0442169 0.597674
2200 2 0.30134 0.0446723 0.632646
2202 4 0.288752 0.0345087 0.613583
2201 4 0.313929 0.0548358 0.651709
1217 4 0.401487 0.0159156 0.651377
1216 2 0.385043 0.01688 0.632566
1218 4 0.368599 0.0178445 0.613756
150 3 0.478873 0.0118499 0.631749
1003 2 0.422559 0.064352 0.60277
4237 2 0.478679 0.0118147 0.596376
2343 4 0.456411 0.0557582 0.658356
1004 4 0.423423 0.0782217 0.623556
4238 4 0.484315 0.998291 0.616637
1296 4 0.00162544 0.152649 0.584839
1072 2 0.0431291 0.158943 0.618666
1073 4 0.0321073 0.14897 0.59856
34 3 0.073644 0.10283 0.627161
32 3 0.0614898 0.132556 0.646687
31 1 0.068286 0.110642 0.648342
33 3 0.0509509 0.0980664 0.657273
851 4 0.117135 0.154243 0.646606
35 3 0.0865387 0.109454 0.66191
850 2 0.0936753 0.162667 0.648572
945 4 0.237866 0.162304 0.588826
1192 2 0.386689 0.104374 0.625489
1194 4 0.367004 0.119496 0.628492
899 4 0.375712 0.134159 0.596829
1193 4 0.406373 0.0892516 0.622486
3402 4 0.477948 0.139406 0.612552
1199 4 0.0268954 0.204289 0.584261
1074 4 0.0541508 0.168917 0.638771
1124 4 0.0577376 0.188207 0.646837
852 4 0.0702156 0.171091 0.650538
1056 4 0.0425078 0.17515 0.653381
907 2 0.099522 0.212461 0.605519
1208 4 0.091402 0.232206 0.635157
908 4 0.0960731 0.212994 0.630278
695 4 0.214099 0.179568 0.61941
694 2 0.205132 0.181531 0.642667
696 4 0.196164 0.183494 0.665925
954 4 0.440322 0.197225 0.610885
1024 2 0.435608 0.226238 0.636863
1026 4 0.430351 0.213955 0.615728
952 2 0.424603 0.195103 0.591557
1025 4 0.440865 0.23852 0.657998
3325 2 0.0330826 0.328068 0.582093
1207 2 0.0856629 0.255194 0.643144
3327 4 0.0437904 0.305914 0.586531
984 4 0.0618288 0.295853 0.591677
1209 4 0.0799237 0.278182 0.651132
982 2 0.086431 0.291559 0.592892
983 4 0.111033 0.287265 0.594107
3275 4 0.123263 0.3313 0.646998
856 2 0.133786 0.292818 0.648435
858 4 0.133661 0.268517 0.64255
857 4 0.133911 0.317119 0.65432
791 4 0.323405 0.259417 0.603385
1029 4 0.315488 0.328034 0.642717
3044 4 0.00525594 0.340329 0.662178
3274 2 0.107443 0.342224 0.662984
1066 2 0.285678 0.397325 0.595412
1068 4 0.290505 0.37851 0.611156
1028 4 0.296973 0.372292 0.628605
1027 2 0.30623 0.350163 0.635661
1953 4 0.281038 0.384083 0.631202
1951 2 0.282693 0.395409 0.653431
1006 2 0.398152 0.374577 0.66172
1008 4 0.385642 0.353163 0.664898
1007 4 0.410662 0.395992 0.658542
1001 4 0.460624 0.386018 0.588977
1280 4 0.0635143 0.461293 0.660768
1176 4 0.366896 0.453192 0.628099
1174 2 0.357177 0.454578 0.651094
3297 4 0.00772201 0.0197842 0.701659
919 2 0.0616719 0.0751844 0.691119
921 4 0.0717606 0.0573801 0.705485
1183 2 0.192662 0.00781579 0.694664
1185 4 0.168201 0.0106493 0.699002
1239 4 0.318107 0.0468064 0.670773
1237 2 0.321573 0.0586972 0.692493
1238 4 0.325039 0.070588 0.714213
2441 4 0.490956 0.022717 0.704359
2342 4 0.472409 0.0332217 0.700032
2341 2 0.46441 0.0444899 0.679194
2034 4 0.475556 0.0124782 0.704672
2440 2 0.502219 0.0359684 0.722323
920 4 0.0515832 0.0929886 0.676752
1287 4 0.0169432 0.127178 0.695352
1054 2 0.0312999 0.160959 0.670648
1285 2 0.00982536 0.110633 0.712695
1055 4 0.0200919 0.146767 0.687916
1286 4 0.00270756 0.0940877 0.730038
1131 4 0.0351864 0.13562 0.69838
1129 2 0.0586933 0.12988 0.704677
1064 4 0.154722 0.144796 0.688553
1278 4 0.16162 0.125848 0.686456
1277 4 0.142463 0.0831359 0.704046
1276 2 0.152041 0.104492 0.695251
1130 4 0.0822001 0.124139 0.710974
1227 4 0.114193 0.123176 0.737034
1063 2 0.173314 0.16149 0.687644
888 4 0.320429 0.0895396 0.704861
886 2 0.326001 0.113307 0.699454
887 4 0.331573 0.137074 0.694046
3425 4 0.495015 0.136099 0.741383
1123 2 0.0598282 0.204968 0.665273
1125 4 0.0619188 0.221729 0.683709
1065 4 0.191906 0.178184 0.686735
798 4 0.189487 0.196159 0.678842
796 2 0.196756 0.219956 0.6813
797 4 0.204025 0.243753 0.683759
845 4 0.415166 0.202164 0.742943
818 4 0.462586 0.210724 0.715137
817 2 0.445969 0.198805 0.729524
819 4 0.429351 0.186886 0.74391
816 4 0.0962329 0.328916 0.737869
815 4 0.0861866 0.356246 0.697214
822 4 0.0150772 0.406027 0.746533
814 2 0.0912097 0.342581 0.717541
3276 4 0.0916225 0.353148 0.67897
883 2 0.106273 0.415266 0.713492
884 4 0.113712 0.420567 0.736767
885 4 0.0988333 0.409966 0.690217
2012 4 0.216561 0.369852 0.734147
1952 4 0.284349 0.406736 0.675661
805 2 0.320371 0.403585 0.737599
806 4 0.31202 0.413407 0.716175
830 4 0.340323 0.345973 0.736373
1281 4 0.0837658 0.421612 0.683484
1279 2 0.0736401 0.441453 0.672126
929 4 0.252134 0.480795 0.725763
928 2 0.255398 0.494491 0.746426
1175 4 0.347457 0.455963 0.67409
998 4 0.368666 0.492546 0.710189
1148 4 0.166196 0.0857841 0.762483
993 4 0.218088 0.000801962 0.761382
1147 2 0.187597 0.0780118 0.772818
1149 4 0.208997 0.0702396 0.783152
1197 4 0.209874 0.0101758 0.816534
965 4 0.295494 0.085922 0.803865
840 4 0.315158 0.0892191 0.80837
964 2 0.281136 0.0654521 0.803843
966 4 0.266777 0.0449822 0.803821
838 2 0.327204 0.072168 0.822129
2322 4 0.4802 0.0617838 0.827948
2399 4 0.469185 0.0749915 0.818049
1113 4 0.46149 0.0588236 0.825587
1225 2 0.131414 0.109162 0.748533
1226 4 0.148634 0.0951478 0.760032
960 4 0.303869 0.107107 0.804388
958 2 0.297364 0.112572 0.780872
959 4 0.290859 0.118037 0.757356
1084 2 0.323203 0.142035 0.816385
1086 4 0.313315 0.124623 0.83136
1085 4 0.333091 0.159446 0.801411
747 4 0.392536 0.132494 0.836941
2398 2 0.466649 0.0964109 0.805401
2400 4 0.464114 0.11783 0.792754
3424 2 0.493092 0.143774 0.765101
3426 4 0.491169 0.15145 0.78882
3362 4 0.49497 0.160342 0.806217
1676 4 0.0184783 0.206438 0.790964
922 2 0.0210672 0.238485 0.781294
924 4 0.00504005 0.221011 0.789228
1675 2 0.0227708 0.191082 0.810224
1677 4 0.0270633 0.175726 0.829484
1235 4 0.128836 0.220016 0.755805
1234 2 0.140421 0.237781 0.769048
846 4 0.382808 0.229867 0.769138
844 2 0.398987 0.216015 0.75604
1051 2 0.402893 0.204546 0.831058
1053 4 0.421754 0.212995 0.816985
46 1 0.424737 0.248855 0.798658
47 3 0.426061 0.226043 0.801306
3361 2 0.487443 0.176824 0.823446
923 4 0.0370943 0.255959 0.773359
970 2 0.0372501 0.300282 0.817122
971 4 0.0147834 0.299589 0.828074
972 4 0.0597168 0.300975 0.80617
779 4 0.0732815 0.305943 0.791917
778 2 0.0840022 0.32062 0.774747
1236 4 0.152006 0.255546 0.782291
1121 4 0.138569 0.264563 0.795252
1120 2 0.129637 0.287913 0.794846
1122 4 0.120705 0.311263 0.79444
1299 4 0.282185 0.253291 0.754803
1298 4 0.261229 0.298695 0.754984
1143 4 0.26942 0.313659 0.764944
1141 2 0.282279 0.333225 0.773718
1297 2 0.271707 0.275993 0.754894
808 2 0.288809 0.280931 0.822009
809 4 0.286311 0.304445 0.813884
3204 4 0.304157 0.315721 0.816236
3202 2 0.326625 0.318869 0.805726
1257 4 0.285238 0.323887 0.823801
48 3 0.403496 0.255898 0.804791
3203 4 0.349093 0.322016 0.795216
3486 4 0.409439 0.263979 0.821996
3484 2 0.387382 0.270321 0.831917
50 3 0.428674 0.254116 0.776853
49 3 0.440644 0.258917 0.812227
1043 4 0.429436 0.26369 0.826947
1107 4 0.0420398 0.34285 0.80732
1105 2 0.0219391 0.356096 0.800561
2173 2 0.0829032 0.414811 0.764696
1079 4 0.118278 0.403932 0.75
2175 4 0.0982055 0.410834 0.745326
1078 2 0.137172 0.389858 0.758372
780 4 0.0947228 0.335298 0.757576
1080 4 0.156066 0.375783 0.766744
941 4 0.177058 0.35556 0.785086
2013 4 0.181171 0.353016 0.76521