ITEM: TIMESTEP
2990000
ITEM: NUMBER OF ATOMS
4590
ITEM: BOX BOUNDS pp pp pp
-9.9985700000000008e+00 9.9985700000000008e+00
-9.9985700000000008e+00 9.9985700000000008e+00
-9.9985700000000008e+00 9.9985700000000008e+00
ITEM: ATOMS id type xs ys zs
1247 4 0.0537759 0.0808501 0.0202359
379 2 0.0611605 0.059318 0.0592726
380 4 0.0551965 0.0716811 0.0383738
381 4 0.0671245 0.0469549 0.0801715
2271 4 0.126803 0.0110378 0.0317091
995 4 0.124819 0.0028378 0.0117794
577 2 0.23772 0.0523313 0.0611193
579 4 0.231816 0.0286252 0.0664436
578 4 0.243624 0.0760373 0.055795
490 2 0.283787 0.0291075 0.0533351
492 4 0.30638 0.020925 0.0464239
486 4 0.307852 0.033676 0.0309559
491 4 0.261193 0.03729 0.0602463
484 2 0.3213 0.0244943 0.0119811
2724 4 0.330203 0.0172498 0.0743915
2722 2 0.354927 0.018266 0.0708089
2723 4 0.379652 0.0192823 0.0672262
2469 4 0.39588 0.0192921 0.0550794
1760 4 0.397253 0.0221385 0.0753452
2467 2 0.41737 0.019953 0.0423148
2468 4 0.43886 0.0206139 0.0295502
423 4 0.242389 0.0955391 0.0553778
421 2 0.224393 0.0987394 0.0383159
422 4 0.206398 0.10194 0.021254
555 4 0.181748 0.158976 0.00617355
581 4 0.235143 0.0887593 0.0707519
654 4 0.254542 0.0889118 0.071961
665 4 0.310515 0.0909546 0.0622283
652 2 0.279192 0.0873876 0.0758623
359 4 0.24862 0.139443 0.020278
664 2 0.334557 0.0948465 0.0565715
285 4 0.251946 0.151979 0.0563171
653 4 0.303842 0.0858633 0.0797635
283 2 0.251694 0.135091 0.0747545
312 4 0.318994 0.165177 0.0819882
666 4 0.358599 0.0987385 0.0509148
866 4 0.359442 0.118113 0.0522518
865 2 0.375755 0.13369 0.0414605
867 4 0.392067 0.149267 0.0306692
396 4 0.0174412 0.226854 0.0780542
553 2 0.188391 0.183059 0.00514611
505 2 0.173252 0.240732 0.0168667
554 4 0.195034 0.207142 0.00411868
507 4 0.183166 0.22268 0.00268873
311 4 0.308441 0.207793 0.0580464
310 2 0.313717 0.186485 0.0700173
353 4 0.277572 0.214041 0.0317067
352 2 0.268712 0.192302 0.0403145
755 4 0.275967 0.232482 0.0430642
354 4 0.259852 0.170563 0.0489223
764 4 0.252155 0.169284 0.0687758
770 4 0.455429 0.198115 0.0628066
769 2 0.452743 0.181735 0.0815058
1306 2 0.439941 0.244851 0.012989
1308 4 0.428178 0.247581 0.034883
2624 4 0.0634515 0.301739 0.0306509
2623 2 0.0730422 0.285677 0.0140613
338 4 0.127894 0.325964 0.0490623
356 4 0.115553 0.326671 0.0330298
506 4 0.163339 0.258785 0.0310446
38 3 0.226128 0.270345 0.00492481
36 1 0.234035 0.271409 0.0267136
37 3 0.217112 0.265355 0.0410698
1512 4 0.224784 0.276306 0.0579605
39 3 0.240689 0.293077 0.031676
1710 4 0.235823 0.293394 0.0505312
1510 2 0.210283 0.2708 0.0775707
40 3 0.251564 0.257107 0.0293262
1708 2 0.249889 0.310654 0.0619086
754 2 0.285491 0.254969 0.0484319
756 4 0.295016 0.277456 0.0537995
740 4 0.307784 0.292584 0.0573707
739 2 0.320595 0.313875 0.060151
1709 4 0.263954 0.327914 0.0732859
1304 4 0.485735 0.298776 0.0747275
835 2 0.0383855 0.350583 0.00889728
836 4 0.0159237 0.349492 0.0198268
286 2 0.0560993 0.396297 0.0629339
287 4 0.0590188 0.37831 0.0458127
357 4 0.0749101 0.344337 0.00986182
2807 4 0.0117089 0.363779 0.0324931
655 2 0.999108 0.339125 0.0587031
2806 2 0.0090672 0.388633 0.0331913
656 4 0.00191787 0.345704 0.0347447
3285 4 0.0715629 0.415802 0.00484328
337 2 0.12744 0.340176 0.0696289
355 2 0.0952317 0.335504 0.0214458
251 4 0.318109 0.406666 0.0518573
250 2 0.326667 0.417023 0.0307696
741 4 0.333407 0.335167 0.0629314
387 4 0.385703 0.372075 0.0587172
386 4 0.350667 0.336591 0.0549688
385 2 0.368185 0.354333 0.056843
13 3 0.390267 0.3912 0.0650395
11 1 0.399596 0.410448 0.0560469
15 3 0.397271 0.410358 0.0333923
2840 4 0.468981 0.34843 0.0289794
2839 2 0.478273 0.345854 0.00590983
12 3 0.421968 0.411053 0.0613646
288 4 0.0531798 0.414284 0.080055
914 4 0.0504634 0.432225 0.0712024
913 2 0.0368446 0.450652 0.0611953
915 4 0.0232258 0.469079 0.0511883
2786 4 0.00540184 0.459676 0.0548243
1438 2 0.139646 0.483797 0.0724109
1439 4 0.15538 0.499322 0.0607233
246 4 0.317689 0.467899 0.0808319
252 4 0.335224 0.427379 0.00968192
14 3 0.38925 0.429191 0.0649934
4304 4 0.392368 0.482017 0.0555904
1289 4 0.336018 0.446076 0.00237867
902 4 0.340838 0.430497 0.990097
672 4 0.489824 0.443159 0.0576008
670 2 0.487144 0.45364 0.0801428
2481 4 0.0508178 0.0387452 0.0878353
2479 2 0.0446324 0.0306819 0.11068
2480 4 0.0384471 0.0226186 0.133526
3783 4 0.0516445 0.011421 0.145439
21 1 0.354017 0.0563685 0.142368
25 3 0.342699 0.0645089 0.160376
23 3 0.345722 0.0658219 0.122869
22 3 0.376293 0.0617547 0.144352
297 4 0.374159 0.0804787 0.155031
24 3 0.351934 0.0332756 0.141485
1759 2 0.411458 0.0174591 0.0953829
759 4 0.357312 0.0778414 0.165688
1761 4 0.425662 0.0127797 0.115421
557 4 0.447206 0.0765397 0.10597
2592 4 0.441922 0.0070704 0.130911
2590 2 0.449191 0.99602 0.152129
236 4 0.123165 0.162748 0.133773
580 2 0.224231 0.0940976 0.0926064
582 4 0.21332 0.0994359 0.114461
284 4 0.251442 0.118204 0.0931919
534 4 0.248702 0.125695 0.112309
532 2 0.259155 0.115565 0.132639
533 4 0.269609 0.105435 0.152968
295 2 0.395002 0.093749 0.151204
296 4 0.415845 0.107019 0.147376
556 2 0.440911 0.0944377 0.122255
629 4 0.431292 0.11169 0.158343
558 4 0.434617 0.112336 0.138541
235 2 0.129656 0.186849 0.132295
237 4 0.136146 0.21095 0.130817
477 4 0.149813 0.224877 0.124692
475 2 0.134592 0.244481 0.127715
763 2 0.251014 0.185603 0.0876848
765 4 0.249872 0.201923 0.106594
771 4 0.450056 0.165355 0.100205
2519 4 0.451459 0.198294 0.12894
2518 2 0.473317 0.201744 0.14058
2520 4 0.495175 0.205194 0.15222
363 4 0.0510753 0.269426 0.157324
648 4 0.0557863 0.262343 0.138913
646 2 0.0789354 0.268356 0.131623
647 4 0.102085 0.274369 0.124334
476 4 0.11937 0.264086 0.130738
737 4 0.169094 0.32349 0.133547
1511 4 0.195781 0.265293 0.097181
372 4 0.18319 0.329163 0.147474
612 4 0.252866 0.295668 0.125708
610 2 0.274667 0.307279 0.129592
611 4 0.296467 0.318891 0.133477
624 4 0.417511 0.298053 0.130365
622 2 0.424929 0.321928 0.13075
518 4 0.493437 0.25493 0.149104
1303 2 0.493278 0.306317 0.0973423
623 4 0.432346 0.345803 0.131135
705 4 0.036523 0.355398 0.134268
703 2 0.0472065 0.377335 0.128808
1757 4 0.013242 0.420176 0.139117
1756 2 0.00453239 0.406737 0.158319
704 4 0.05789 0.399272 0.123347
456 4 0.0766324 0.391761 0.115918
736 2 0.151119 0.335506 0.120989
339 4 0.126987 0.354388 0.0901955
738 4 0.133145 0.347522 0.10843
455 4 0.114176 0.371197 0.0900659
454 2 0.0954042 0.381479 0.102992
303 4 0.287008 0.377162 0.1626
301 2 0.291256 0.358027 0.147076
302 4 0.295504 0.338892 0.131552
308 4 0.344336 0.361508 0.143501
307 2 0.351535 0.341504 0.156661
728 4 0.432488 0.364681 0.139113
497 4 0.484906 0.371514 0.119647
498 4 0.435921 0.361457 0.119341
103 3 0.491853 0.389033 0.118134
496 2 0.460413 0.366486 0.119494
727 2 0.42263 0.365886 0.16206
417 4 0.0741083 0.410437 0.121354
314 4 0.0455675 0.43006 0.0905326
315 4 0.0242477 0.435466 0.135443
313 2 0.0349076 0.432763 0.112988
1440 4 0.123913 0.468272 0.0840985
415 2 0.0901493 0.429203 0.125318
416 4 0.10619 0.447969 0.129281
244 2 0.316883 0.453168 0.101019
245 4 0.316077 0.438437 0.121206
1575 4 0.313712 0.45371 0.133784
1573 2 0.300122 0.453281 0.154768
1629 4 0.327959 0.467355 0.139223
1627 2 0.332268 0.491951 0.137948
609 4 0.369049 0.420263 0.15063
955 2 0.466827 0.458182 0.137987
956 4 0.480995 0.451355 0.118549
957 4 0.452659 0.465009 0.157425
671 4 0.484465 0.464121 0.102685
567 4 0.170092 0.0750795 0.161413
675 4 0.1932 0.00155825 0.225351
673 2 0.205968 0.0150331 0.242101
467 4 0.212045 0.0689319 0.251044
1463 4 0.297136 0.0143913 0.214773
2591 4 0.456461 0.984969 0.173347
480 4 0.496291 0.0755234 0.239238
512 4 0.0802138 0.115083 0.1987
511 2 0.0934054 0.135723 0.193685
513 4 0.106597 0.156363 0.18867
466 2 0.197639 0.0796002 0.233613
468 4 0.183234 0.0902686 0.216182
565 2 0.171339 0.0888204 0.182265
566 4 0.172587 0.102561 0.203117
598 2 0.196667 0.132161 0.206176
600 4 0.189704 0.109177 0.213138
599 4 0.203629 0.155144 0.199213
758 4 0.33043 0.107107 0.196046
682 2 0.286053 0.162949 0.23973
757 2 0.343871 0.092474 0.180867
628 2 0.446816 0.1051 0.176802
630 4 0.462341 0.0985101 0.195261
391 2 0.0696588 0.211048 0.234764
393 4 0.084317 0.202175 0.216554
473 4 0.228264 0.20421 0.204387
472 2 0.251629 0.201265 0.212788
631 2 0.315742 0.209912 0.226392
633 4 0.290871 0.207831 0.22488
474 4 0.274994 0.19832 0.221189
684 4 0.285634 0.18666 0.231805
726 4 0.275166 0.194263 0.249109
632 4 0.340613 0.211993 0.227905
3335 4 0.497495 0.19654 0.171193
3334 2 0.495098 0.188033 0.194582
3336 4 0.492701 0.179525 0.217971
361 2 0.0517104 0.286929 0.175168
750 4 0.0704376 0.314152 0.196172
362 4 0.0523455 0.304432 0.193013
748 2 0.0760088 0.334967 0.208856
370 2 0.19731 0.325944 0.167856
371 4 0.21143 0.322724 0.188239
309 4 0.358734 0.3215 0.169821
517 2 0.488591 0.265849 0.171069
519 4 0.483745 0.276768 0.193034
521 4 0.494076 0.293105 0.195338
2463 4 0.0666441 0.369399 0.217138
2461 2 0.0618436 0.385832 0.235362
749 4 0.08158 0.355781 0.22154
2462 4 0.057043 0.402264 0.253586
603 4 0.203437 0.33152 0.246479
644 4 0.374647 0.378813 0.226668
607 2 0.38974 0.416907 0.164262
643 2 0.389766 0.390429 0.210492
645 4 0.404886 0.402044 0.194316
608 4 0.41043 0.413552 0.177893
729 4 0.412771 0.367091 0.185006
494 4 0.424153 0.407857 0.192394
493 2 0.440471 0.410623 0.211135
495 4 0.456789 0.413389 0.229877
110 3 0.467952 0.406633 0.244464
1320 4 0.0395578 0.460974 0.244063
1318 2 0.0515285 0.440307 0.251461
3716 4 0.0110391 0.490721 0.186995
3715 2 0.0321844 0.494823 0.199693
639 4 0.221088 0.424037 0.245798
1574 4 0.286532 0.452852 0.175752
524 4 0.316725 0.451396 0.216636
523 2 0.3325 0.442334 0.199484
525 4 0.348276 0.433272 0.182332
659 4 0.465047 0.468533 0.172957
658 2 0.467391 0.456622 0.194817
660 4 0.469735 0.444712 0.216676
108 3 0.484347 0.43607 0.227661
106 1 0.48335 0.423226 0.24696
233 4 0.073066 0.0199122 0.267154
232 2 0.0659168 0.00147848 0.282459
605 4 0.108 0.0471204 0.294408
604 2 0.124604 0.0592061 0.30867
606 4 0.141208 0.0712918 0.322932
674 4 0.218736 0.0285079 0.258852
429 4 0.207705 0.0393651 0.272091
427 2 0.225256 0.0429304 0.28954
428 4 0.242806 0.0464957 0.306988
440 4 0.244739 0.0611959 0.319855
1496 4 0.381903 0.00445437 0.312382
1517 4 0.388944 0.0184735 0.325079
478 2 0.483775 0.0760853 0.260877
479 4 0.47126 0.0766471 0.282515
683 4 0.286471 0.139238 0.247654
453 4 0.371944 0.100896 0.293573
451 2 0.386788 0.119558 0.301094
452 4 0.401632 0.13822 0.308615
254 4 0.462246 0.124418 0.31918
2484 4 0.0371165 0.214739 0.257688
392 4 0.0550006 0.21992 0.252974
2482 2 0.0235615 0.193886 0.260261
2483 4 0.0100064 0.173034 0.262835
249 4 0.0661456 0.224807 0.269526
247 2 0.0691054 0.220998 0.29406
248 4 0.0720651 0.21719 0.318594
279 4 0.154516 0.204694 0.261344
277 2 0.164108 0.227782 0.261025
724 2 0.270604 0.201527 0.272595
725 4 0.266042 0.208791 0.296082
431 4 0.266354 0.219009 0.313173
304 2 0.390894 0.225852 0.32248
305 4 0.368301 0.215172 0.321656
306 4 0.413487 0.236531 0.323305
489 4 0.350221 0.210602 0.33168
278 4 0.173701 0.25087 0.260707
536 4 0.192565 0.252468 0.263498
535 2 0.201569 0.272657 0.275181
537 4 0.210574 0.292847 0.286863
402 4 0.226196 0.294687 0.299898
678 4 0.215761 0.310945 0.294855
676 2 0.201968 0.324944 0.310313
400 2 0.250265 0.296025 0.306538
343 2 0.29229 0.325408 0.282145
401 4 0.274333 0.297364 0.313179
344 4 0.286802 0.307807 0.299035
420 4 0.408727 0.256634 0.319238
418 2 0.403735 0.27962 0.327719
2955 4 0.0207764 0.374516 0.298937
2953 2 0.0120976 0.393868 0.285695
3959 4 0.0752447 0.405866 0.267418
298 2 0.147713 0.409162 0.333281
637 2 0.227927 0.401614 0.254492
677 4 0.188176 0.338944 0.325771
601 2 0.220924 0.345676 0.257387
638 4 0.234765 0.37919 0.263186
602 4 0.238411 0.359832 0.268295
290 4 0.244348 0.374311 0.280687
345 4 0.297778 0.343009 0.265255
289 2 0.256492 0.385658 0.299368
291 4 0.268636 0.397004 0.318049
438 4 0.351288 0.394919 0.288811
2954 4 0.00341889 0.41322 0.272453
1319 4 0.0634991 0.419639 0.258859
299 4 0.146832 0.421426 0.31151
3958 2 0.0954754 0.416135 0.277928
3960 4 0.115706 0.426404 0.288437
436 2 0.343987 0.418804 0.287654
437 4 0.336685 0.44269 0.286497
1583 4 0.481319 0.455949 0.262776
107 3 0.477181 0.436704 0.264552
1582 2 0.465165 0.473316 0.254862
1584 4 0.449012 0.490683 0.246948
1698 4 0.468602 0.468523 0.335462
317 4 0.998764 0.0912627 0.384494
2476 2 0.99804 0.0394378 0.373653
2478 4 0.011003 0.018278 0.376721
545 4 0.126403 0.00738412 0.378504
544 2 0.147994 0.00943113 0.390947
399 4 0.143024 0.068985 0.342728
397 2 0.150286 0.0720388 0.366458
398 4 0.157548 0.0750926 0.390188
546 4 0.169584 0.0114781 0.40339
731 4 0.191907 0.01496 0.408416
439 2 0.251735 0.0510811 0.341625
441 4 0.258732 0.0409663 0.363395
743 4 0.340265 0.084191 0.370348
1516 2 0.379764 0.0196134 0.348309
1518 4 0.370584 0.0207532 0.371538
744 4 0.362436 0.0395991 0.374904
1669 2 0.341171 0.00229483 0.39122
699 4 0.380576 0.0353319 0.381237
697 2 0.401998 0.0447362 0.390059
742 2 0.351351 0.0618951 0.372626
95 3 0.375215 0.00266868 0.407525
698 4 0.42342 0.0541406 0.398881
316 2 0.0053205 0.0959139 0.408171
2739 4 0.0223589 0.0976881 0.338749
2737 2 0.00434983 0.0889168 0.353713
351 4 0.335264 0.0959711 0.356346
706 2 0.274923 0.121802 0.39882
708 4 0.271865 0.14458 0.38897
426 4 0.276476 0.167428 0.383141
707 4 0.27798 0.0990253 0.408671
349 2 0.337402 0.120009 0.362885
350 4 0.33954 0.144048 0.369424
257 4 0.34661 0.152686 0.387805
516 4 0.353243 0.160889 0.368078
28 3 0.412287 0.107788 0.38193
256 2 0.35965 0.147888 0.408592
30 3 0.416574 0.13667 0.405703
26 1 0.424947 0.126532 0.387109
253 2 0.453093 0.130301 0.341692
27 3 0.424067 0.141218 0.369425
255 4 0.443939 0.136184 0.364204
324 4 0.455095 0.137279 0.381011
29 3 0.447043 0.120422 0.390693
322 2 0.471765 0.153316 0.390503
462 4 0.416793 0.157297 0.377376
1581 4 0.419278 0.155531 0.397598
2654 4 0.0433062 0.195297 0.412707
424 2 0.282152 0.190727 0.376061
425 4 0.287828 0.214025 0.36898
432 4 0.287094 0.230469 0.35721
717 4 0.303671 0.229487 0.370679
430 2 0.276724 0.224739 0.335191
509 4 0.279816 0.247255 0.399603
715 2 0.32082 0.224677 0.388227
515 4 0.364229 0.200125 0.339085
514 2 0.358736 0.180507 0.353582
487 2 0.335872 0.231068 0.332348
716 4 0.33797 0.219867 0.405776
323 4 0.488435 0.169353 0.399996
461 4 0.420883 0.189556 0.339385
460 2 0.418838 0.173426 0.358381
1579 2 0.427647 0.173228 0.413152
679 2 0.0405823 0.301915 0.406115
680 4 0.0273024 0.307916 0.385797
1259 4 0.237096 0.303132 0.378699
1258 2 0.243778 0.315581 0.35807
1260 4 0.25046 0.328031 0.337442
710 4 0.242239 0.30389 0.398331
488 4 0.321524 0.251534 0.333016
377 4 0.387451 0.318904 0.335283
419 4 0.398744 0.302606 0.336199
499 2 0.0690946 0.411749 0.366492
500 4 0.0685073 0.393522 0.383598
767 4 0.151284 0.393234 0.377845
766 2 0.166299 0.374072 0.372139
300 4 0.148594 0.396897 0.355053
768 4 0.181314 0.354911 0.366433
376 2 0.374047 0.334897 0.349057
592 2 0.356311 0.376543 0.390879
593 4 0.347799 0.361815 0.372554
378 4 0.360642 0.35089 0.36283
434 4 0.403711 0.395333 0.411711
594 4 0.364823 0.391272 0.409203
588 4 0.50061 0.370872 0.361135
433 2 0.422478 0.394725 0.3952
435 4 0.441245 0.394117 0.378689
586 2 0.481075 0.383811 0.369864
587 4 0.461541 0.39675 0.378592
3671 4 0.0205448 0.49783 0.344244
501 4 0.0696819 0.429976 0.349386
776 4 0.0595119 0.448268 0.345868
777 4 0.0346304 0.489428 0.332177
775 2 0.0470711 0.468848 0.339022
734 4 0.142439 0.407979 0.369059
733 2 0.130999 0.424099 0.38437
735 4 0.119559 0.440219 0.399682
504 4 0.120925 0.457608 0.41306
414 4 0.186459 0.425998 0.373489
412 2 0.207542 0.439203 0.370976
413 4 0.228625 0.452408 0.368463
1557 4 0.23875 0.47102 0.37108
1436 4 0.248592 0.45573 0.361274
1555 2 0.226026 0.492525 0.370166
1437 4 0.277852 0.416148 0.370099
1435 2 0.263222 0.435939 0.365686
1696 2 0.486194 0.485703 0.330928
939 4 0.00251526 0.0518824 0.46852
720 4 0.0032533 0.00948966 0.465935
937 2 0.00866419 0.0752529 0.462102
341 4 0.129297 0.00584538 0.476529
1478 4 0.100071 0.0589751 0.460744
1479 4 0.109664 0.010593 0.468982
1477 2 0.104868 0.0347841 0.464863
962 4 0.233609 0.0149112 0.479433
730 2 0.189537 0.0307092 0.427691
732 4 0.187168 0.0464584 0.446966
961 2 0.216911 0.0301487 0.490118
963 4 0.200213 0.0453862 0.500804
1816 2 0.254046 0.0165449 0.449072
1818 4 0.265795 0.0294008 0.431131
1671 4 0.340657 0.00650869 0.41586
93 3 0.392154 0.0278262 0.429838
91 1 0.38753 0.005335 0.426496
1723 2 0.402227 0.0138872 0.476496
1724 4 0.387149 0.99964 0.462537
89 3 0.498039 0.0109845 0.458719
1427 4 0.468505 0.0600819 0.442513
1426 2 0.487086 0.045452 0.450629
1725 4 0.417304 0.0281349 0.490455
938 4 0.0148131 0.0986234 0.455684
1601 4 0.0803622 0.0923544 0.469094
318 4 0.0118765 0.100565 0.431847
1600 2 0.0581497 0.10181 0.462584
1602 4 0.0359373 0.111266 0.456075
1058 4 0.00502882 0.11212 0.44679
367 2 0.0643264 0.16065 0.472858
368 4 0.0876198 0.152597 0.468646
260 4 0.103458 0.160841 0.460514
275 4 0.242778 0.155981 0.444067
274 2 0.260648 0.139162 0.448858
276 4 0.278518 0.122342 0.45365
258 4 0.37269 0.143089 0.429379
2653 2 0.0387033 0.18725 0.435928
369 4 0.041033 0.168703 0.477071
2655 4 0.0341003 0.179204 0.45915
348 4 0.0246722 0.177824 0.483816
346 2 0.00401096 0.188063 0.474149
408 4 0.130476 0.217883 0.418799
406 2 0.122398 0.231727 0.437989
259 2 0.11776 0.173206 0.476878
407 4 0.114321 0.245572 0.457179
548 4 0.0979042 0.253921 0.450842
261 4 0.132061 0.185571 0.493241
508 2 0.270494 0.233806 0.418509
510 4 0.261172 0.220358 0.437414
374 4 0.264071 0.205454 0.451222
375 4 0.282261 0.179156 0.489669
373 2 0.273166 0.192305 0.470446
650 4 0.345619 0.206004 0.472445
649 2 0.364927 0.210597 0.457237
411 4 0.395572 0.231411 0.443855
651 4 0.384235 0.21519 0.442028
320 4 0.368693 0.17326 0.502613
1152 4 0.346586 0.218878 0.487588
409 2 0.417388 0.22057 0.438221
266 4 0.496633 0.232204 0.417755
267 4 0.455503 0.204191 0.422689
1580 4 0.436015 0.190926 0.428707
410 4 0.439203 0.209729 0.432587
265 2 0.476068 0.218197 0.420222
575 4 0.455001 0.195581 0.496571
681 4 0.0538623 0.295914 0.426432
549 4 0.0644254 0.2786 0.423078
547 2 0.0811648 0.266261 0.43696
2813 4 0.0546258 0.33262 0.473807
618 4 0.102764 0.265016 0.466531
616 2 0.121821 0.268974 0.482227
617 4 0.140878 0.272931 0.497923
1041 4 0.155447 0.303721 0.498351
1039 2 0.138389 0.321199 0.492989
1040 4 0.121332 0.338677 0.487627
709 2 0.248593 0.299516 0.422115
711 4 0.254947 0.295142 0.445899
803 4 0.330983 0.312457 0.497146
2549 4 0.00782343 0.403719 0.427363
2812 2 0.0784658 0.336881 0.480025
896 4 0.121332 0.405722 0.494023
897 4 0.116195 0.355982 0.494467
895 2 0.118764 0.380852 0.494245
560 4 0.488269 0.404647 0.474664
559 2 0.466816 0.415684 0.481232
382 2 0.029826 0.463817 0.475895
384 4 0.0384626 0.455628 0.453906
383 4 0.0211894 0.472006 0.497885
502 2 0.134758 0.456061 0.433831
503 4 0.148591 0.454514 0.454602
1191 4 0.154277 0.427981 0.501025
751 2 0.419826 0.432611 0.458747
753 4 0.412558 0.429005 0.435097
3602 4 0.426055 0.443586 0.502019
561 4 0.445363 0.426721 0.487799
752 4 0.427095 0.436216 0.482398
825 4 0.0773546 0.027888 0.578688
2319 4 0.0579901 0.0303404 0.5778
823 2 0.0858361 0.0382548 0.557575
824 4 0.0943176 0.0486216 0.536462
2429 4 0.0958743 0.067629 0.53672
1180 2 0.217324 0.065115 0.532776
1181 4 0.207528 0.0462074 0.519672
1182 4 0.22712 0.0840225 0.54588
98 3 0.223891 0.0146207 0.562948
951 4 0.304593 0.0421766 0.553928
949 2 0.288656 0.0403504 0.573108
2332 2 0.38865 0.0228223 0.5524
842 4 0.40738 0.0563386 0.560664
841 2 0.405988 0.0761746 0.545505
2333 4 0.402275 0.0372946 0.567569
1005 4 0.413791 0.0505761 0.57832
2334 4 0.375024 0.00834992 0.537232
4239 4 0.463443 0.0200078 0.572161
4466 4 0.465549 0.0375515 0.561373
4465 2 0.462321 0.0379187 0.536581
4467 4 0.459093 0.0382859 0.51179
877 2 0.0357793 0.107502 0.546515
878 4 0.0112269 0.108054 0.541819
1272 4 0.0681431 0.11751 0.566958
879 4 0.0603316 0.10695 0.551212
470 4 0.00840549 0.0890626 0.534564
1270 2 0.0854747 0.135351 0.569505
2428 2 0.0998273 0.0909526 0.528623
1271 4 0.102806 0.153192 0.572052
2430 4 0.10378 0.114276 0.520526
944 4 0.280959 0.158348 0.562085
843 4 0.404596 0.0960105 0.530347
3052 2 0.409928 0.1636 0.541403
898 2 0.346921 0.134645 0.577888
3054 4 0.385388 0.167793 0.539077
900 4 0.344241 0.154002 0.562291
321 4 0.345256 0.165624 0.546123
3053 4 0.434467 0.159408 0.54373
1200 4 0.00667186 0.177713 0.551632
1198 2 0.0114882 0.198579 0.56454
2846 4 0.028844 0.243464 0.542908
1199 4 0.0163046 0.219445 0.577447
1033 2 0.131152 0.202124 0.532052
1034 4 0.12917 0.205203 0.556786
1035 4 0.133134 0.199046 0.507318
909 4 0.0879517 0.201186 0.586911
943 2 0.262773 0.167922 0.576325
687 4 0.287308 0.170918 0.546855
685 2 0.290295 0.180988 0.524164
686 4 0.293282 0.191057 0.501474
813 4 0.262561 0.247995 0.54457
1150 2 0.332946 0.234644 0.501393
319 2 0.356975 0.169442 0.524368
953 4 0.421672 0.185393 0.563752
325 2 0.334664 0.193092 0.569617
326 4 0.331891 0.169617 0.561468
327 4 0.337438 0.216568 0.577766
952 2 0.428912 0.196152 0.58513
574 2 0.478364 0.187583 0.500494
3262 2 0.0355768 0.307606 0.51911
2845 2 0.0399017 0.2594 0.558687
3264 4 0.0259369 0.322046 0.537103
3325 2 0.034642 0.309686 0.580908
2847 4 0.0509594 0.275335 0.574465
3327 4 0.0530969 0.292936 0.582921
3263 4 0.0452167 0.293166 0.501118
3326 4 0.0161871 0.326435 0.578895
984 4 0.0695607 0.28328 0.575427
1137 4 0.158209 0.31527 0.515514
1135 2 0.178203 0.301693 0.521922
1136 4 0.198198 0.288117 0.52833
811 2 0.281504 0.253951 0.529375
812 4 0.300447 0.259907 0.514181
802 2 0.325117 0.290906 0.508385
239 4 0.304256 0.333307 0.552214
804 4 0.31925 0.269355 0.519624
1151 4 0.319306 0.250409 0.515197
792 4 0.328922 0.253388 0.53059
790 2 0.341828 0.256246 0.551814
791 4 0.354735 0.259105 0.573037
1161 4 0.0918431 0.342019 0.55224
1159 2 0.100801 0.340558 0.528942
1160 4 0.10976 0.339098 0.505644
2814 4 0.102306 0.341142 0.486244
238 2 0.310912 0.357035 0.547989
240 4 0.317568 0.380764 0.543764
1067 4 0.298818 0.408504 0.579593
1000 2 0.460425 0.408156 0.561834
1001 4 0.461427 0.389877 0.578865
1938 4 0.0187129 0.486797 0.512421
1172 4 0.0784868 0.468032 0.531922
1171 2 0.100615 0.464831 0.543114
1173 4 0.122744 0.46163 0.554306
539 4 0.140439 0.45466 0.559948
1190 4 0.134305 0.448995 0.541771
1189 2 0.144291 0.438488 0.521398
538 2 0.163957 0.453653 0.568379
540 4 0.187474 0.452645 0.57681
1002 4 0.459423 0.426435 0.544804
3601 2 0.44187 0.44441 0.521368
3603 4 0.457686 0.445234 0.540717
4084 2 0.465972 0.485256 0.553247
4085 4 0.467959 0.462107 0.544008
2317 2 0.0408094 0.0198082 0.592601
2318 4 0.0236287 0.00927607 0.607402
946 2 0.151773 0.0624353 0.654687
947 4 0.129407 0.0622894 0.643511
35 3 0.0868272 0.0703463 0.652406
948 4 0.17414 0.0625811 0.665863
1031 4 0.206548 0.0470613 0.610421
1212 4 0.198605 0.0410122 0.627509
1210 2 0.187494 0.0196725 0.634317
1030 2 0.230168 0.040324 0.605743
6 1 0.235872 0.0232864 0.655843
9 3 0.241951 0.0229219 0.633453
10 3 0.213999 0.0293004 0.657859
1032 4 0.253788 0.0335866 0.601065
950 4 0.27272 0.0385242 0.592288
2200 2 0.283967 0.0409096 0.629727
2202 4 0.271377 0.0322779 0.609924
2201 4 0.296556 0.0495412 0.64953
1239 4 0.311823 0.0548923 0.662316
1218 4 0.361139 0.00385041 0.622501
1217 4 0.398345 0.0189179 0.652324
1216 2 0.379742 0.0113841 0.637413
150 3 0.474298 0.014558 0.629551
1003 2 0.42002 0.066731 0.596358
4237 2 0.472442 0.0109852 0.593674
1004 4 0.426249 0.0828859 0.614397
4238 4 0.481441 0.00196251 0.615186
146 1 0.488254 0.00725317 0.645999
2343 4 0.448662 0.0476769 0.663538
34 3 0.0745682 0.091439 0.623727
31 1 0.0811909 0.0914509 0.645965
33 3 0.0640184 0.0994896 0.65934
1056 4 0.056962 0.142583 0.650123
1072 2 0.0797539 0.139596 0.627764
1124 4 0.0663067 0.161024 0.649155
1054 2 0.0337158 0.136377 0.656926
1073 4 0.064541 0.155688 0.616154
32 3 0.0994776 0.105214 0.648271
1074 4 0.0949668 0.123504 0.639375
852 4 0.113951 0.120601 0.648853
850 2 0.127523 0.141508 0.646893
1192 2 0.389927 0.0984053 0.629408
1194 4 0.36685 0.107756 0.631683
899 4 0.349602 0.115288 0.593486
1193 4 0.413005 0.0890545 0.627134
3402 4 0.473194 0.130206 0.636965
3400 2 0.495298 0.12118 0.644389
1123 2 0.0688096 0.178176 0.667174
851 4 0.141096 0.162415 0.644932
907 2 0.092212 0.209626 0.610058
1208 4 0.101163 0.236891 0.634756
908 4 0.0964723 0.218066 0.633206
1219 2 0.205092 0.197462 0.592443
1220 4 0.225955 0.18371 0.593326
1221 4 0.184228 0.211213 0.59156
945 4 0.244586 0.177495 0.590565
695 4 0.207899 0.186076 0.634928
694 2 0.196686 0.181321 0.656764
954 4 0.436152 0.206911 0.606508
1024 2 0.432139 0.228893 0.629868
1026 4 0.422106 0.208015 0.620454
1025 4 0.442172 0.249771 0.639281
1209 4 0.0791359 0.275718 0.657294
1207 2 0.0901493 0.256304 0.646025
982 2 0.0903257 0.285547 0.58917
983 4 0.111091 0.287814 0.602912
3275 4 0.127657 0.33053 0.645758
856 2 0.133 0.294298 0.640003
858 4 0.124782 0.270832 0.642652
857 4 0.141219 0.317763 0.637353
1029 4 0.306599 0.305154 0.632637
1027 2 0.298563 0.32589 0.621209
3274 2 0.1118 0.341533 0.661654
1066 2 0.291686 0.386983 0.590138
1068 4 0.284554 0.365463 0.600682
1028 4 0.290527 0.346627 0.609781
1953 4 0.288994 0.362994 0.621321
1951 2 0.290579 0.373027 0.644168
1952 4 0.292163 0.383061 0.667016
1006 2 0.403396 0.381609 0.66164
1008 4 0.394099 0.358616 0.664806
1007 4 0.412694 0.404603 0.658474
1280 4 0.0655975 0.464181 0.649243
1279 2 0.075979 0.443243 0.658132
1176 4 0.356428 0.464497 0.627267
1174 2 0.351021 0.459662 0.651195
919 2 0.0613304 0.0777656 0.694577
921 4 0.0661311 0.0594677 0.710927
7 3 0.238792 0.00225199 0.664684
1184 4 0.215073 0.0252676 0.678207
1183 2 0.196229 0.0183436 0.693111
1185 4 0.177384 0.0114196 0.708014
991 2 0.23996 0.0447914 0.711914
992 4 0.246836 0.0431922 0.687927
993 4 0.233084 0.0463906 0.7359
976 2 0.265674 0.00408733 0.692602
8 3 0.249295 0.0382336 0.667453
1237 2 0.323737 0.0618845 0.683156
978 4 0.256153 0.0252624 0.68332
1238 4 0.335652 0.0688766 0.703997
2032 2 0.487854 0.010992 0.703627
2441 4 0.506147 0.0485235 0.702362
2342 4 0.492256 0.0524779 0.687563
2341 2 0.470459 0.0500774 0.67555
2034 4 0.492733 0.0345794 0.696917
920 4 0.0565297 0.0960636 0.678228
1287 4 0.00890502 0.118654 0.717607
1285 2 0.00372091 0.10097 0.734507
1055 4 0.0104695 0.130172 0.663729
1131 4 0.0260499 0.126535 0.709686
1129 2 0.0491239 0.130309 0.718547
1130 4 0.0721978 0.134083 0.727409
1277 4 0.145454 0.084713 0.694989
1064 4 0.146558 0.141707 0.695459
1278 4 0.157376 0.1311 0.680607
1276 2 0.151415 0.107907 0.687798
1063 2 0.165411 0.157992 0.697587
887 4 0.332803 0.138094 0.707478
888 4 0.331389 0.0881557 0.705268
886 2 0.332096 0.113125 0.706373
1125 4 0.0713124 0.195329 0.685194
696 4 0.185472 0.176566 0.678601
1065 4 0.184265 0.174277 0.699715
798 4 0.1841 0.194478 0.691454
796 2 0.183478 0.219451 0.692525
845 4 0.408282 0.195531 0.745616
844 2 0.393244 0.21501 0.750044
818 4 0.47048 0.214624 0.719903
817 2 0.448694 0.210368 0.731411
819 4 0.426909 0.206112 0.742919
797 4 0.182855 0.244423 0.693596
816 4 0.0980404 0.332828 0.74278
815 4 0.0891564 0.347396 0.695774
814 2 0.0935984 0.340112 0.719277
3276 4 0.0959442 0.352537 0.67755
885 4 0.0772418 0.419572 0.686451
2012 4 0.20922 0.371735 0.736387
805 2 0.332766 0.410143 0.739368
830 4 0.330991 0.357729 0.75143
883 2 0.0796505 0.416343 0.711128
884 4 0.0820592 0.413115 0.735805
1281 4 0.0863605 0.422306 0.667021
806 4 0.323468 0.417447 0.717337
1175 4 0.345615 0.454827 0.675124
998 4 0.371995 0.489316 0.706394
1147 2 0.188614 0.078157 0.774015
1149 4 0.209791 0.0762166 0.787164
1197 4 0.203428 0.00327587 0.828187
964 2 0.299867 0.0796039 0.800062
966 4 0.277502 0.068424 0.800151
2320 2 0.494507 0.0682388 0.824467
2399 4 0.457248 0.0804533 0.827742
2322 4 0.474722 0.0776144 0.836544
1148 4 0.167436 0.0800973 0.760865
1227 4 0.119179 0.129123 0.757173
1225 2 0.135174 0.109923 0.756333
1226 4 0.151168 0.0907232 0.755492
840 4 0.342187 0.0891353 0.796347
965 4 0.322232 0.0907837 0.799972
958 2 0.31926 0.118438 0.771392
959 4 0.306837 0.131865 0.754346
1084 2 0.322903 0.141915 0.823185
838 2 0.350642 0.0851359 0.819536
960 4 0.331683 0.105011 0.788438
1085 4 0.333955 0.155029 0.80499
747 4 0.404052 0.12721 0.827807
3425 4 0.490319 0.150351 0.752113
2398 2 0.454808 0.101252 0.81408
2400 4 0.452368 0.12205 0.800419
3424 2 0.488482 0.146056 0.776676
3426 4 0.486645 0.141761 0.80124
3270 4 0.488113 0.134269 0.818051
3362 4 0.487825 0.153247 0.821539
1676 4 0.00295934 0.214374 0.801268
922 2 0.0278246 0.245906 0.788788
924 4 0.00929167 0.23391 0.800527
1675 2 0.0054185 0.192768 0.81361
1677 4 0.00787766 0.171163 0.825952
1235 4 0.118657 0.225864 0.753479
1234 2 0.13334 0.241505 0.766323
846 4 0.378206 0.23449 0.754472
1051 2 0.404375 0.202384 0.828314
48 3 0.403464 0.245131 0.806106
3486 4 0.406445 0.249895 0.825289
1053 4 0.418798 0.214116 0.811596
46 1 0.425724 0.243859 0.799681
47 3 0.431515 0.221728 0.79727
3361 2 0.471842 0.172112 0.825256
923 4 0.0463575 0.257903 0.77705
970 2 0.040166 0.300927 0.812579
971 4 0.0191462 0.302674 0.826006
972 4 0.0611858 0.29918 0.799151
779 4 0.0687533 0.309183 0.784444
778 2 0.0797134 0.32712 0.770906
1236 4 0.148022 0.257146 0.779166
1121 4 0.137687 0.262017 0.795606
1120 2 0.138797 0.286519 0.800467
1122 4 0.139906 0.31102 0.805328
1299 4 0.288327 0.272796 0.762718
1298 4 0.265335 0.315248 0.775754
1143 4 0.258424 0.338599 0.776163
1297 2 0.276831 0.294022 0.769236
808 2 0.286795 0.294687 0.824725
809 4 0.295586 0.315996 0.815039
3204 4 0.312768 0.313483 0.825667
3202 2 0.335374 0.320619 0.817714
810 4 0.278004 0.273377 0.83441
3203 4 0.357979 0.327755 0.809761
50 3 0.428704 0.254599 0.779821
49 3 0.439224 0.253416 0.815954
1043 4 0.42433 0.257715 0.828979
822 4 0.00479858 0.396575 0.752234
1107 4 0.0437071 0.340551 0.815307
1105 2 0.022514 0.353817 0.815073
2173 2 0.0615633 0.412573 0.774589
2174 4 0.049666 0.41683 0.796164
1106 4 0.00132085 0.367083 0.814839
820 2 0.0019489 0.38649 0.774935
780 4 0.0906735 0.345058 0.757367
1078 2 0.115705 0.403037 0.752032
1080 4 0.137611 0.391002 0.752701
941 4 0.168371 0.352499 0.786434
2013 4 0.177718 0.350555 0.76894