ITEM: TIMESTEP
2390000
ITEM: NUMBER OF ATOMS
4590
ITEM: BOX BOUNDS pp pp pp
-9.9985700000000008e+00 9.9985700000000008e+00
-9.9985700000000008e+00 9.9985700000000008e+00
-9.9985700000000008e+00 9.9985700000000008e+00
ITEM: ATOMS id type xs ys zs
1247 4 0.0273028 0.0652829 0.0167308
996 4 0.143967 0.00516859 0.0438657
491 4 0.251836 0.0186625 0.0504296
490 2 0.259516 0.0271559 0.0282021
484 2 0.308847 0.0440023 0.00909795
486 4 0.284125 0.0469106 0.00673896
492 4 0.267196 0.0356493 0.00597465
485 4 0.333568 0.041094 0.0114569
1607 4 0.343625 0.0250111 0.0173061
1606 2 0.360861 0.00693458 0.0184632
665 4 0.350806 0.0723206 0.0686795
2469 4 0.417684 0.0759432 0.0493689
2467 2 0.418578 0.0706202 0.0249548
1759 2 0.446307 0.0550603 0.0698509
1760 4 0.429321 0.0730486 0.0662333
1761 4 0.463293 0.037072 0.0734685
358 2 0.236605 0.146381 0.0334142
359 4 0.219061 0.133615 0.0458404
360 4 0.254149 0.159147 0.020988
2723 4 0.412063 0.0842971 0.0658897
664 2 0.359646 0.0935943 0.0589611
666 4 0.368487 0.114868 0.0492426
866 4 0.378528 0.124179 0.0353053
865 2 0.384311 0.132489 0.012443
2624 4 0.0277787 0.203151 0.0263802
2623 2 0.0288891 0.227305 0.032746
2625 4 0.0299994 0.251459 0.0391118
554 4 0.156762 0.231429 0.0142584
553 2 0.150804 0.208327 0.0217397
555 4 0.144847 0.185224 0.0292211
505 2 0.170594 0.216364 0.0869956
507 4 0.183004 0.220322 0.0656531
657 4 0.0261009 0.267995 0.0529676
655 2 0.0193106 0.289316 0.0641246
656 4 0.0125203 0.310637 0.0752816
2807 4 0.0045482 0.330069 0.0737022
483 4 0.0845933 0.302237 0.0136207
481 2 0.085489 0.323195 0.0272272
3285 4 0.0177532 0.330767 0.00903262
836 4 0.0162791 0.326001 0.08947
835 2 0.0409475 0.330078 0.0896179
1133 4 0.146982 0.246347 0.00653565
1232 4 0.0952666 0.284931 0.00820494
755 4 0.276286 0.28838 0.0345928
754 2 0.298437 0.287899 0.0461813
756 4 0.320588 0.287417 0.0577698
740 4 0.315091 0.294633 0.075711
1071 4 0.361972 0.286868 0.0165836
827 4 0.372078 0.274031 0.00508149
1304 4 0.454434 0.290053 0.0245264
1303 2 0.464071 0.285182 0.047078
1305 4 0.473708 0.28031 0.0696295
1308 4 0.461832 0.27287 0.01571
1094 4 0.466058 0.332911 0.023955
1306 2 0.447076 0.255758 0.00500347
286 2 0.064874 0.379627 0.0332757
287 4 0.0745047 0.359437 0.0444454
288 4 0.0552434 0.399818 0.022106
837 4 0.065616 0.334155 0.0897657
482 4 0.0863848 0.344153 0.0408336
355 2 0.113892 0.353708 0.0686597
357 4 0.0930382 0.360302 0.0565425
573 4 0.138985 0.37795 0.0324458
571 2 0.149214 0.385825 0.0110326
1095 4 0.460109 0.37389 0.0519918
1093 2 0.463084 0.3534 0.0379734
1046 4 0.459276 0.380896 0.0711669
1045 2 0.466285 0.404879 0.0721176
2841 4 0.44405 0.370265 0.0625723
2839 2 0.420577 0.371701 0.0710652
314 4 0.0548505 0.416625 0.0347994
914 4 0.0575195 0.4186 0.014022
313 2 0.0554277 0.421609 0.0592943
913 2 0.0735647 0.43738 0.0101405
294 4 0.0898092 0.49982 0.0889216
552 4 0.0969073 0.491336 0.0695374
550 2 0.109815 0.479865 0.0514544
1659 4 0.143584 0.465833 0.0343104
551 4 0.122722 0.468395 0.0333715
1439 4 0.109641 0.49685 0.0829837
61 1 0.220498 0.460039 0.0613678
65 3 0.201312 0.450317 0.0538835
1658 4 0.192995 0.46456 0.0419015
1657 2 0.168289 0.465197 0.0381059
62 3 0.224866 0.478822 0.0488266
1803 4 0.207081 0.478641 0.0375235
63 3 0.238246 0.445255 0.0591658
1801 2 0.215394 0.496782 0.0224583
626 4 0.228872 0.482601 0.0898875
903 4 0.263185 0.435703 0.0499453
901 2 0.288172 0.435045 0.0493226
902 4 0.313159 0.434387 0.0486998
1289 4 0.32767 0.446656 0.0454633
1288 2 0.32857 0.463563 0.0270641
252 4 0.330885 0.425855 0.0514329
250 2 0.33835 0.436407 0.0728367
1290 4 0.32947 0.48047 0.00866492
1047 4 0.473294 0.428861 0.0730682
2479 2 0.0144993 0.00760418 0.12008
2481 4 0.0290318 0.0264563 0.127734
379 2 0.043779 0.0547248 0.119558
381 4 0.0486845 0.0308645 0.125198
3560 4 0.0208236 0.0359985 0.146011
3559 2 0.0113358 0.0487953 0.165283
579 4 0.147859 0.018961 0.134147
577 2 0.154293 0.0374081 0.118543
578 4 0.160727 0.0558552 0.102939
423 4 0.162524 0.0755319 0.10487
1806 4 0.151059 0.00508853 0.147551
652 2 0.22666 0.0343135 0.144454
654 4 0.207265 0.0388403 0.159572
581 4 0.193495 0.0505773 0.154688
653 4 0.246054 0.0297866 0.129337
24 3 0.352746 0.0578766 0.133223
21 1 0.356396 0.0757569 0.147553
22 3 0.375667 0.0865815 0.14118
380 4 0.0388736 0.0785851 0.113919
236 4 0.116199 0.118498 0.106332
235 2 0.107301 0.141727 0.108864
237 4 0.0984022 0.164956 0.111396
421 2 0.18098 0.091898 0.10896
534 4 0.215628 0.112473 0.10168
422 4 0.199435 0.108264 0.11305
532 2 0.231793 0.125682 0.115442
533 4 0.247958 0.138892 0.129203
461 4 0.263606 0.133339 0.166748
2722 2 0.41338 0.103115 0.0823013
23 3 0.338656 0.0906611 0.146302
297 4 0.392049 0.0907433 0.152249
770 4 0.414225 0.164453 0.101076
2724 4 0.414696 0.121933 0.0987128
769 2 0.439223 0.16391 0.101177
557 4 0.456814 0.155873 0.171026
771 4 0.46422 0.163368 0.101279
477 4 0.114625 0.174682 0.105978
476 4 0.141191 0.214903 0.119289
475 2 0.127908 0.194792 0.112633
506 4 0.158184 0.212407 0.108338
737 4 0.169755 0.230856 0.150134
353 4 0.254922 0.214602 0.101411
352 2 0.256493 0.238223 0.0933627
311 4 0.272149 0.214096 0.113288
310 2 0.288269 0.198738 0.124666
312 4 0.304389 0.183379 0.136043
363 4 0.061465 0.291418 0.158936
648 4 0.0760292 0.283184 0.146513
646 2 0.0960138 0.279889 0.131852
647 4 0.115998 0.276594 0.117191
337 2 0.148334 0.285374 0.114002
339 4 0.131373 0.275652 0.12959
283 2 0.196855 0.264914 0.142094
338 4 0.165295 0.295096 0.0984137
285 4 0.215229 0.281857 0.14139
284 4 0.17848 0.247971 0.142797
354 4 0.258065 0.261843 0.0853145
739 2 0.325236 0.315559 0.084897
764 4 0.273762 0.264168 0.098623
763 2 0.291462 0.276844 0.110921
765 4 0.309162 0.28952 0.123218
612 4 0.298083 0.301681 0.136547
610 2 0.295836 0.324184 0.147211
624 4 0.408707 0.313178 0.138839
1756 2 0.0545895 0.398509 0.118191
1758 4 0.049793 0.379449 0.133648
356 4 0.134745 0.347113 0.080777
705 4 0.0955901 0.347722 0.113711
703 2 0.115079 0.361304 0.121514
704 4 0.134568 0.374886 0.129318
456 4 0.156752 0.372403 0.135002
417 4 0.143037 0.384921 0.143103
415 2 0.134431 0.399021 0.161872
454 2 0.178167 0.365178 0.145697
455 4 0.199582 0.357953 0.156391
611 4 0.293589 0.346687 0.157876
302 4 0.309275 0.354861 0.166906
386 4 0.3277 0.347936 0.108847
741 4 0.335382 0.336484 0.094083
622 2 0.395128 0.334067 0.136737
2840 4 0.397104 0.373136 0.0795582
387 4 0.364412 0.363821 0.138857
385 2 0.346056 0.355879 0.123852
13 3 0.362109 0.383333 0.143131
11 1 0.383565 0.384794 0.151843
15 3 0.395582 0.400345 0.140337
12 3 0.393815 0.364298 0.149843
623 4 0.381549 0.354957 0.134635
608 4 0.360629 0.395193 0.126345
494 4 0.393999 0.415105 0.153182
104 3 0.478828 0.355141 0.122731
105 3 0.463619 0.389571 0.123663
101 1 0.465705 0.369888 0.134926
102 3 0.444868 0.360603 0.137881
103 3 0.475261 0.373647 0.155734
292 2 0.06815 0.488033 0.0930586
1757 4 0.0593859 0.417568 0.102735
293 4 0.0464908 0.476245 0.0971957
315 4 0.0560048 0.426594 0.0837892
1790 4 0.0228617 0.490665 0.15731
1438 2 0.126203 0.492821 0.101277
1440 4 0.142765 0.488793 0.119571
243 4 0.153576 0.476735 0.108646
64 3 0.218077 0.466254 0.0835919
242 4 0.189731 0.443512 0.0991665
241 2 0.171654 0.460124 0.103906
1575 4 0.276864 0.461619 0.146903
1629 4 0.281869 0.482982 0.136945
246 4 0.294092 0.449866 0.0863176
244 2 0.29265 0.457744 0.110004
245 4 0.291207 0.465621 0.13369
607 2 0.353274 0.418255 0.120084
251 4 0.345814 0.446959 0.0942406
609 4 0.345918 0.441317 0.113824
493 2 0.404011 0.437926 0.155215
495 4 0.414023 0.460747 0.157247
658 2 0.425581 0.491819 0.159098
659 4 0.432234 0.469352 0.150372
957 4 0.499886 0.432441 0.135938
529 2 0.0176559 0.0805165 0.211847
3781 2 0.00487517 0.0139979 0.209086
3561 4 0.00184798 0.0615922 0.184554
530 4 0.995853 0.0725223 0.20258
582 4 0.163851 0.0737442 0.187631
580 2 0.178673 0.0621607 0.17116
690 4 0.185842 0.00843303 0.232523
675 4 0.202953 0.0185598 0.229085
673 2 0.213156 0.040542 0.235238
674 4 0.223359 0.0625242 0.241391
1464 4 0.312674 0.0066983 0.214201
1462 2 0.294772 0.00645486 0.231654
1463 4 0.276869 0.00621141 0.249107
25 3 0.358734 0.0682366 0.168922
759 4 0.348248 0.0798649 0.181677
757 2 0.349589 0.0771391 0.206495
758 4 0.350931 0.0744133 0.231314
531 4 0.0394592 0.0885107 0.221115
511 2 0.0752166 0.0880141 0.22715
513 4 0.0523942 0.093687 0.235643
567 4 0.147407 0.0836863 0.194907
512 4 0.0980391 0.0823412 0.218657
565 2 0.160508 0.100901 0.207445
566 4 0.173609 0.118115 0.219984
598 2 0.213483 0.125693 0.203783
600 4 0.18932 0.1265 0.21016
599 4 0.237647 0.124885 0.197405
26 1 0.319948 0.134329 0.231504
30 3 0.30096 0.14316 0.222554
462 4 0.285478 0.144186 0.21039
324 4 0.285465 0.154077 0.228364
460 2 0.274542 0.138762 0.188569
322 2 0.276674 0.17697 0.233244
27 3 0.318443 0.111376 0.231327
255 4 0.336365 0.154602 0.203382
295 2 0.403367 0.0985717 0.173125
29 3 0.338357 0.140737 0.218917
556 2 0.444463 0.13665 0.18118
296 4 0.414684 0.1064 0.194001
558 4 0.432111 0.117427 0.191334
629 4 0.426867 0.110065 0.210172
628 2 0.432015 0.113491 0.234399
404 4 0.0364623 0.223327 0.211906
403 2 0.0254106 0.226014 0.234173
405 4 0.0143589 0.2287 0.25644
736 2 0.166456 0.20878 0.161401
391 2 0.163653 0.195346 0.238105
738 4 0.163157 0.186704 0.172668
393 4 0.163408 0.196478 0.213128
372 4 0.166846 0.249095 0.159721
323 4 0.267882 0.199863 0.238124
254 4 0.341169 0.198965 0.180809
253 2 0.338767 0.176784 0.192095
332 4 0.438023 0.18961 0.191117
331 2 0.460974 0.194186 0.199921
333 4 0.483925 0.198763 0.208724
2682 4 0.496016 0.204027 0.223711
361 2 0.0723527 0.309303 0.172602
362 4 0.0832404 0.327188 0.186269
371 4 0.158433 0.268713 0.204943
370 2 0.162639 0.258904 0.182332
748 2 0.111589 0.324952 0.211191
749 4 0.121141 0.320132 0.23379
750 4 0.102036 0.329772 0.188593
728 4 0.446764 0.264667 0.197928
498 4 0.442966 0.31775 0.239368
727 2 0.449276 0.285557 0.211435
729 4 0.451788 0.306448 0.224942
416 4 0.125825 0.413122 0.180642
637 2 0.157898 0.386713 0.238466
639 4 0.155098 0.404575 0.221195
301 2 0.300411 0.377209 0.173774
303 4 0.291547 0.399557 0.180642
14 3 0.38262 0.390548 0.174302
645 4 0.389622 0.400427 0.191301
643 2 0.40916 0.399252 0.20686
496 2 0.45453 0.338278 0.230999
497 4 0.466094 0.358806 0.22263
644 4 0.428698 0.398077 0.222418
110 3 0.438363 0.415146 0.228474
109 3 0.467897 0.412138 0.205313
3716 4 0.0295397 0.492049 0.175399
1320 4 0.0204472 0.431637 0.242039
1574 4 0.250556 0.467361 0.189042
1573 2 0.26371 0.46449 0.167973
523 2 0.367094 0.481452 0.173171
525 4 0.363759 0.457137 0.177949
107 3 0.472989 0.4183 0.242039
106 1 0.459354 0.422802 0.224067
108 3 0.458849 0.445739 0.220595
233 4 0.0869269 0.00368017 0.295903
545 4 0.109027 0.0597859 0.317267
467 4 0.226715 0.0652982 0.260855
429 4 0.225995 0.0509317 0.276126
427 2 0.224773 0.0317666 0.292138
428 4 0.223552 0.0126014 0.30815
742 2 0.330515 0.0732125 0.324806
744 4 0.327373 0.0571158 0.305932
1517 4 0.333476 0.00477273 0.310117
1496 4 0.353304 0.0032791 0.299321
1516 2 0.331207 0.0142021 0.333163
479 4 0.466599 0.0585908 0.294843
478 2 0.487509 0.0674097 0.284347
1749 4 0.501319 0.0239266 0.277068
2739 4 0.0268704 0.109216 0.328593
466 2 0.237553 0.0819332 0.276054
683 4 0.240835 0.100464 0.310118
468 4 0.24839 0.0985682 0.291253
28 3 0.322452 0.141513 0.253425
682 2 0.258452 0.118185 0.309231
684 4 0.276068 0.135907 0.308343
631 2 0.298506 0.153831 0.279654
632 4 0.317356 0.157225 0.263581
633 4 0.279657 0.150436 0.295727
474 4 0.261723 0.151775 0.306837
451 2 0.402676 0.138533 0.319114
453 4 0.41711 0.132436 0.299629
630 4 0.437163 0.116916 0.258625
444 4 0.0230106 0.2447 0.262016
2483 4 0.113403 0.164373 0.287338
2484 4 0.151929 0.195425 0.280108
2482 2 0.132666 0.179899 0.283723
392 4 0.163898 0.194214 0.263082
249 4 0.172261 0.200592 0.280366
247 2 0.192892 0.214684 0.279407
248 4 0.213523 0.228777 0.278449
279 4 0.23224 0.222942 0.27855
277 2 0.244121 0.243718 0.271314
473 4 0.242657 0.197656 0.301173
726 4 0.282576 0.153552 0.314575
472 2 0.25219 0.174715 0.304005
305 4 0.401888 0.240133 0.316245
2680 2 0.485472 0.202987 0.246359
2681 4 0.474928 0.201947 0.269007
442 2 0.0302098 0.253328 0.284352
443 4 0.0374091 0.261957 0.306688
408 4 0.0606824 0.266765 0.342897
299 4 0.110051 0.33279 0.322624
278 4 0.256003 0.264494 0.264078
536 4 0.251382 0.283095 0.268507
535 2 0.253835 0.306641 0.276553
537 4 0.256289 0.330187 0.284599
345 4 0.298676 0.328379 0.338214
304 2 0.407586 0.257289 0.298971
419 4 0.363955 0.315256 0.288782
418 2 0.384878 0.303624 0.281563
420 4 0.4058 0.291991 0.274343
306 4 0.413283 0.274445 0.281697
309 4 0.417881 0.278579 0.263037
377 4 0.376668 0.329505 0.328606
308 4 0.449598 0.316993 0.258656
307 2 0.433739 0.297786 0.260847
2463 4 0.0304808 0.337397 0.273643
2461 2 0.0327218 0.361605 0.279485
548 4 0.0651072 0.351763 0.328327
547 2 0.0410607 0.357011 0.332732
2462 4 0.0349627 0.385813 0.285327
3959 4 0.0340788 0.396789 0.301288
1319 4 0.0258553 0.401776 0.281785
638 4 0.160697 0.368851 0.255737
603 4 0.104112 0.356486 0.281739
601 2 0.128091 0.3556 0.274709
602 4 0.152069 0.354713 0.267679
298 2 0.121459 0.348857 0.338016
290 4 0.17337 0.352145 0.265006
289 2 0.196053 0.359186 0.272823
291 4 0.218736 0.366226 0.28064
344 4 0.312979 0.366451 0.309116
436 2 0.319514 0.406019 0.295983
438 4 0.306091 0.385204 0.299411
343 2 0.305828 0.347415 0.323665
1318 2 0.0231512 0.416706 0.261912
3958 2 0.0295883 0.413816 0.319039
500 4 0.110266 0.419523 0.323186
414 4 0.180575 0.459743 0.307001
412 2 0.1883 0.448372 0.327886
437 4 0.332937 0.426834 0.292555
1741 2 0.371283 0.455839 0.31639
1743 4 0.379271 0.442997 0.296478
1742 4 0.363295 0.468681 0.336301
542 4 0.43892 0.500111 0.279976
544 2 0.123618 0.0567404 0.337341
546 4 0.13821 0.053695 0.357416
691 2 0.152683 0.0158191 0.363204
693 4 0.152126 0.039638 0.355619
731 4 0.148248 0.0500172 0.374217
730 2 0.135904 0.0605506 0.39324
732 4 0.12356 0.071084 0.412262
605 4 0.167349 0.0493787 0.364811
604 2 0.175152 0.0726569 0.360076
707 4 0.290971 0.0873973 0.380833
1670 4 0.286417 0.0458356 0.405894
1669 2 0.302991 0.037107 0.389332
1671 4 0.319565 0.0283785 0.37277
1518 4 0.328937 0.0236314 0.356209
699 4 0.33778 0.0373266 0.368311
697 2 0.361383 0.0343991 0.376024
698 4 0.384986 0.0314717 0.383738
369 4 0.99739 0.138399 0.417371
2653 2 0.00571204 0.154555 0.376519
2737 2 0.00508913 0.10324 0.339319
318 4 0.0137193 0.0797369 0.404525
316 2 0.996731 0.0845203 0.386814
2655 4 0.996646 0.144701 0.397635
398 4 0.126502 0.130593 0.35147
397 2 0.147041 0.117743 0.357652
399 4 0.167581 0.104894 0.363833
606 4 0.182955 0.095935 0.355341
276 4 0.174091 0.099679 0.383103
274 2 0.190177 0.11183 0.397894
373 2 0.228887 0.156099 0.41561
708 4 0.334416 0.100739 0.359972
706 2 0.312693 0.0940681 0.370403
743 4 0.333657 0.0893091 0.343679
724 2 0.29392 0.152442 0.33683
725 4 0.305263 0.151332 0.359085
431 4 0.307292 0.154798 0.378834
430 2 0.317043 0.139481 0.396023
432 4 0.326795 0.124163 0.413212
351 4 0.35039 0.0979177 0.342356
452 4 0.388242 0.144631 0.338599
349 2 0.363063 0.11878 0.34777
350 4 0.375736 0.139643 0.353184
256 2 0.392832 0.124332 0.388639
257 4 0.390051 0.141835 0.371001
516 4 0.386872 0.157369 0.354431
1581 4 0.405868 0.157027 0.368853
514 2 0.368711 0.173081 0.361395
374 4 0.240913 0.176257 0.406996
508 2 0.270623 0.202692 0.391177
487 2 0.321488 0.206214 0.363464
488 4 0.306069 0.223252 0.373319
509 4 0.290089 0.212067 0.378592
510 4 0.251157 0.193317 0.403761
489 4 0.336908 0.189176 0.35361
515 4 0.35055 0.188792 0.368359
1579 2 0.424547 0.167294 0.381924
3081 4 0.494089 0.176777 0.388979
585 4 0.472869 0.217425 0.355564
1580 4 0.443227 0.17756 0.394995
584 4 0.454407 0.193332 0.395306
267 4 0.458272 0.177751 0.408961
583 2 0.463638 0.205379 0.375435
618 4 0.0502429 0.312605 0.386835
407 4 0.0538263 0.309597 0.367779
406 2 0.0572544 0.288181 0.355338
616 2 0.0551735 0.3097 0.411175
1260 4 0.272953 0.282591 0.385496
401 4 0.293591 0.285888 0.385775
400 2 0.295856 0.296993 0.363488
402 4 0.29812 0.308097 0.3412
678 4 0.279399 0.318474 0.347412
1258 2 0.275202 0.271832 0.407954
872 4 0.498686 0.280155 0.389804
270 4 0.478625 0.286565 0.392013
269 4 0.476433 0.299175 0.343671
268 2 0.477529 0.29287 0.367842
549 4 0.0170141 0.362258 0.337138
735 4 0.0989452 0.405939 0.382977
300 4 0.132867 0.364923 0.353408
767 4 0.152126 0.364172 0.355197
734 4 0.136714 0.376602 0.368363
733 2 0.11783 0.39127 0.37567
766 2 0.176775 0.363348 0.359309
768 4 0.201424 0.362524 0.36342
677 4 0.242006 0.349493 0.335569
676 2 0.260702 0.333983 0.34149
593 4 0.332805 0.371837 0.357395
592 2 0.324156 0.36644 0.380226
594 4 0.315508 0.361042 0.403057
378 4 0.347277 0.358306 0.357021
376 2 0.361972 0.343905 0.342814
434 4 0.401482 0.413761 0.356299
3990 4 0.384288 0.425243 0.36623
586 2 0.494979 0.397196 0.355082
433 2 0.425795 0.407988 0.355463
435 4 0.450109 0.402215 0.354626
587 4 0.470005 0.398065 0.35424
3960 4 0.0250978 0.430843 0.33679
777 4 0.0398856 0.485015 0.333347
3671 4 0.0112277 0.470727 0.336341
776 4 0.0649039 0.450878 0.359982
775 2 0.0523948 0.467947 0.346664
501 4 0.0711903 0.443601 0.343035
499 2 0.0907283 0.431562 0.333111
502 2 0.157575 0.454192 0.384962
504 4 0.157725 0.471678 0.402833
503 4 0.157426 0.436706 0.36709
1437 4 0.223563 0.477092 0.392386
1436 4 0.206358 0.438908 0.365061
1435 2 0.21496 0.458 0.378723
413 4 0.196026 0.437002 0.348772
636 4 0.20935 0.487056 0.402267
1557 4 0.255863 0.425841 0.340493
1555 2 0.266072 0.446823 0.349478
1556 4 0.27628 0.467805 0.358463
669 4 0.285197 0.486535 0.357204
120 3 0.328644 0.497156 0.362506
1714 2 0.401132 0.481869 0.348658
119 3 0.357631 0.474137 0.355615
116 1 0.35061 0.49312 0.366962
117 3 0.353252 0.489684 0.389553
3989 4 0.364041 0.466883 0.385121
3988 2 0.374165 0.446063 0.375676
1268 4 0.370898 0.480196 0.402618
1715 4 0.376307 0.479 0.347845
1267 2 0.386664 0.469264 0.418652
1716 4 0.425957 0.484738 0.349471
1058 4 0.0197674 0.0513396 0.462462
937 2 0.0155793 0.0174949 0.460505
938 4 0.0320115 0.0357405 0.465222
1602 4 0.0706126 0.0526764 0.434176
1057 2 0.0177605 0.0762191 0.460992
1600 2 0.0800025 0.0315614 0.443724
1478 4 0.109422 0.0149543 0.458049
1477 2 0.131203 0.00573314 0.466157
1601 4 0.0893924 0.0104464 0.453272
1128 4 0.0925803 0.021855 0.496445
1816 2 0.224901 0.016329 0.442081
962 4 0.218713 0.0473512 0.464836
961 2 0.227973 0.0529543 0.487376
1817 4 0.223366 0.0409829 0.445955
1427 4 0.477052 0.0330427 0.439292
1426 2 0.477362 0.0169906 0.45846
367 2 0.00584483 0.129721 0.439243
1059 4 0.0157537 0.101099 0.459523
368 4 0.0142997 0.121044 0.461116
275 4 0.206263 0.123981 0.412685
375 4 0.21686 0.135941 0.424224
686 4 0.204136 0.123511 0.433968
687 4 0.22991 0.111459 0.475092
685 2 0.217023 0.117485 0.45453
425 4 0.328774 0.132691 0.431081
1152 4 0.286914 0.142766 0.48736
1150 2 0.268774 0.159629 0.490788
424 2 0.338128 0.12085 0.451018
258 4 0.395613 0.106829 0.406276
426 4 0.347482 0.109008 0.470954
319 2 0.353946 0.140269 0.513893
1221 4 0.194396 0.191459 0.468851
1219 2 0.213094 0.187522 0.484978
711 4 0.293178 0.22288 0.473593
650 4 0.299824 0.207005 0.483291
709 2 0.281435 0.241133 0.461179
649 2 0.313181 0.188467 0.493444
320 4 0.335805 0.157021 0.517824
717 4 0.373441 0.177158 0.452331
715 2 0.358097 0.17484 0.471937
716 4 0.342754 0.172523 0.491543
651 4 0.326539 0.169929 0.503597
409 2 0.394805 0.205052 0.502855
411 4 0.375863 0.192208 0.492786
265 2 0.459736 0.178073 0.43392
574 2 0.474338 0.202097 0.479444
575 4 0.478831 0.191129 0.457428
266 4 0.461199 0.178396 0.458878
617 4 0.0601041 0.306795 0.435514
1135 2 0.148656 0.292148 0.479006
1137 4 0.149394 0.316569 0.484319
1041 4 0.129318 0.318396 0.485729
1136 4 0.147918 0.267727 0.473693
1039 2 0.106898 0.329014 0.488855
1259 4 0.277451 0.261073 0.430412
710 4 0.269692 0.259386 0.448765
2813 4 0.0364849 0.368459 0.459711
2812 2 0.0548974 0.362865 0.475676
2814 4 0.0733098 0.357272 0.49164
1040 4 0.0844773 0.339632 0.49198
1161 4 0.109168 0.423777 0.510408
1159 2 0.109584 0.398905 0.507887
383 4 0.00923131 0.431887 0.483704
382 2 0.0337187 0.435923 0.486747
384 4 0.0582061 0.439959 0.489789
1189 2 0.137223 0.426474 0.477164
1190 4 0.121751 0.432657 0.495808
1173 4 0.110778 0.445863 0.50816
1171 2 0.0997603 0.462456 0.493045
1172 4 0.0887422 0.479048 0.47793
634 2 0.209609 0.494988 0.425978
1191 4 0.152694 0.420291 0.45852
336 4 0.33135 0.492304 0.435059
1269 4 0.40243 0.458331 0.434686
751 2 0.466135 0.431397 0.483601
753 4 0.473127 0.446406 0.464866
823 2 0.0587713 0.0519407 0.548236
824 4 0.0830128 0.0557764 0.553013
825 4 0.0345299 0.0481049 0.543459
2429 4 0.0920465 0.061705 0.536524
2428 2 0.112351 0.0588072 0.522223
2430 4 0.132655 0.0559093 0.507922
1180 2 0.227049 0.0525955 0.548344
1182 4 0.211869 0.0542387 0.568144
963 4 0.237233 0.0585574 0.509915
1031 4 0.199888 0.0478216 0.580463
1181 4 0.242229 0.0509523 0.528544
841 2 0.321954 0.0247807 0.567409
951 4 0.286427 0.0366029 0.58435
843 4 0.298125 0.0236598 0.574899
1004 4 0.399338 0.0135624 0.540824
93 3 0.418132 0.0142848 0.550872
1723 2 0.477932 0.0123927 0.541213
94 3 0.447741 0.0127024 0.527097
91 1 0.427479 0.00298923 0.532887
4239 4 0.496184 0.0234868 0.564823
1725 4 0.496669 0.0282222 0.546066
879 4 0.055347 0.150116 0.55226
877 2 0.0339563 0.137342 0.550151
470 4 0.0192748 0.108825 0.558607
878 4 0.0125656 0.124569 0.548043
1272 4 0.0742308 0.154783 0.559217
1270 2 0.0834805 0.140081 0.577203
260 4 0.169425 0.161293 0.519771
944 4 0.217812 0.140284 0.53935
943 2 0.231674 0.155247 0.524889
945 4 0.245535 0.17021 0.510427
1151 4 0.250634 0.176492 0.494217
326 4 0.309073 0.140445 0.570766
327 4 0.273157 0.149469 0.537161
325 2 0.291115 0.144957 0.553963
900 4 0.350418 0.10584 0.564944
898 2 0.356098 0.127865 0.575328
899 4 0.361778 0.14989 0.585712
321 4 0.372087 0.123517 0.509962
3053 4 0.478295 0.147251 0.516773
3052 2 0.470937 0.13706 0.538388
3054 4 0.46358 0.126869 0.560002
935 4 0.0274241 0.182495 0.511357
934 2 0.00379236 0.181686 0.519485
259 2 0.147353 0.170371 0.527225
261 4 0.12528 0.17945 0.53468
1033 2 0.121393 0.20514 0.56351
1034 4 0.124904 0.227227 0.57469
1035 4 0.117882 0.183052 0.552331
1220 4 0.231792 0.183584 0.501104
791 4 0.260127 0.188055 0.509699
790 2 0.250809 0.206496 0.52378
792 4 0.241492 0.224937 0.537862
410 4 0.413748 0.217896 0.512924
576 4 0.469846 0.213065 0.50146
2845 2 0.0532058 0.274641 0.573897
3262 2 0.0186561 0.3202 0.572869
3263 4 0.013407 0.315032 0.596763
2846 4 0.0731202 0.260135 0.569633
813 4 0.214814 0.295085 0.551454
811 2 0.232449 0.277365 0.55189
812 4 0.250083 0.259645 0.552325
804 4 0.266548 0.270607 0.547977
802 2 0.285126 0.277308 0.532642
803 4 0.303703 0.284009 0.517307
1263 4 0.500657 0.252796 0.577955
3264 4 0.0239051 0.325367 0.548975
896 4 0.149077 0.385398 0.580835
895 2 0.144052 0.392328 0.557343
897 4 0.139026 0.399258 0.53385
1160 4 0.109999 0.374032 0.505366
238 2 0.331229 0.40999 0.512316
239 4 0.35107 0.394808 0.513313
561 4 0.470147 0.400435 0.50824
3602 4 0.450728 0.396634 0.509376
559 2 0.492287 0.388828 0.507676
3601 2 0.428085 0.404844 0.516088
752 4 0.459142 0.416387 0.502336
1936 2 0.013056 0.480543 0.542825
1938 4 0.020635 0.460781 0.556138
1937 4 0.00547696 0.500304 0.529513
539 4 0.1616 0.453857 0.537642
538 2 0.173501 0.470902 0.551533
540 4 0.185403 0.487948 0.565424
240 4 0.311387 0.425172 0.51132
3603 4 0.405442 0.413055 0.522801
4084 2 0.462463 0.4901 0.50755
4148 4 0.474085 0.487377 0.560684
4085 4 0.441974 0.477298 0.501111
2169 4 0.477963 0.497615 0.577766
10 3 0.0734147 0.0767551 0.651673
1153 2 0.150881 0.0666295 0.636846
6 1 0.0940901 0.0822189 0.659504
9 3 0.10975 0.0803567 0.642483
1154 4 0.126677 0.0690554 0.631064
950 4 0.248014 0.00701077 0.596579
1155 4 0.175086 0.0642037 0.642628
1282 2 0.177667 0.0249277 0.649688
1284 4 0.186722 0.0474553 0.643713
1032 4 0.187348 0.0602958 0.627237
1030 2 0.193618 0.0540587 0.60385
1211 4 0.195758 0.0662458 0.646274
1210 2 0.210827 0.077021 0.663066
1283 4 0.168613 0.00240002 0.655663
949 2 0.267221 0.0218068 0.590465
1239 4 0.271548 0.0358066 0.663262
1217 4 0.379244 0.0306077 0.596211
1216 2 0.379552 0.053175 0.606972
1218 4 0.37986 0.0757424 0.617733
149 3 0.484203 0.043881 0.655654
150 3 0.487765 0.0778541 0.639817
148 3 0.480114 0.0480627 0.618101
146 1 0.4914 0.0555573 0.636938
4237 2 0.497094 0.0315122 0.588486
4341 4 0.436771 0.99819 0.643994
1198 2 0.000302811 0.117022 0.652692
1199 4 0.996253 0.136627 0.637712
8 3 0.0939431 0.10389 0.667796
1271 4 0.0927302 0.125378 0.595188
1276 2 0.115589 0.157091 0.660766
993 4 0.161257 0.109762 0.672179
1212 4 0.225897 0.0877961 0.679858
887 4 0.332626 0.116248 0.662138
1192 2 0.3337 0.158472 0.617452
1194 4 0.347123 0.145862 0.600542
1162 2 0.483469 0.109247 0.65585
1164 4 0.492205 0.0987217 0.63492
850 2 0.0053825 0.18051 0.636059
1207 2 0.999999 0.238328 0.633554
908 4 0.054902 0.214851 0.643264
1208 4 0.0186589 0.222239 0.629299
852 4 0.00871416 0.205183 0.633748
907 2 0.0734644 0.200386 0.634815
695 4 0.127538 0.240426 0.588772
909 4 0.0920268 0.185921 0.626367
1063 2 0.156534 0.18848 0.640165
694 2 0.150075 0.240395 0.5996
1064 4 0.136454 0.176188 0.631747
1278 4 0.128093 0.175135 0.648798
1065 4 0.176614 0.200773 0.648582
696 4 0.172612 0.240364 0.610428
798 4 0.165156 0.244839 0.656227
1193 4 0.320276 0.171082 0.634363
1024 2 0.408951 0.235989 0.646951
1025 4 0.388314 0.250071 0.645959
953 4 0.470948 0.218988 0.594449
1026 4 0.429588 0.221907 0.647943
954 4 0.444789 0.216027 0.636966
952 2 0.457869 0.217507 0.615707
2847 4 0.0332914 0.289147 0.578161
3327 4 0.00284835 0.310862 0.611072
3325 2 0.990815 0.289829 0.617238
984 4 0.0221087 0.307071 0.612588
982 2 0.0436868 0.312864 0.623812
983 4 0.065265 0.318658 0.635037
3275 4 0.0663434 0.317411 0.655198
856 2 0.108783 0.309527 0.643218
858 4 0.132492 0.301585 0.643124
857 4 0.0850746 0.317468 0.643312
797 4 0.150967 0.290205 0.640691
796 2 0.158061 0.267522 0.648459
3121 2 0.485291 0.283779 0.643368
3122 4 0.462916 0.291629 0.651299
3274 2 0.0670405 0.340838 0.663908
1006 2 0.402171 0.373974 0.660319
1008 4 0.415957 0.386726 0.643812
2015 4 0.072491 0.458458 0.668991
1280 4 0.0611482 0.442045 0.667778
2014 2 0.089828 0.468076 0.653756
2172 4 0.103608 0.492762 0.625549
2016 4 0.107165 0.477695 0.638522
1067 4 0.260308 0.449423 0.599926
1066 2 0.280362 0.448424 0.614826
1068 4 0.300416 0.447424 0.629726
1175 4 0.317496 0.447598 0.620151
1028 4 0.31809 0.442805 0.640186
1953 4 0.313496 0.46301 0.634398
1951 2 0.302027 0.482139 0.6457
1174 2 0.338724 0.460483 0.617232
1001 4 0.394359 0.49682 0.607096
1176 4 0.359952 0.473368 0.614313
2167 2 0.491997 0.488906 0.596538
1249 2 0.494596 0.49351 0.654581
1185 4 0.0641311 0.997638 0.695923
7 3 0.0998149 0.067797 0.676486
978 4 0.109008 0.0710611 0.694727
1149 4 0.209956 0.0635217 0.723069
1147 2 0.187266 0.072073 0.729171
2201 4 0.240802 0.00288861 0.685103
1148 4 0.164577 0.0806244 0.735273
1237 2 0.281741 0.0518271 0.679529
1238 4 0.291935 0.0678475 0.695796
888 4 0.303715 0.0836618 0.686693
2656 2 0.495767 0.0283027 0.684969
2658 4 0.501248 0.0389527 0.663021
2342 4 0.480796 0.99936 0.702651
2657 4 0.490285 0.0176528 0.706916
1200 4 0.00435292 0.0974169 0.667673
1073 4 0.0094631 0.0915871 0.685761
1072 2 0.0288715 0.10196 0.697631
1074 4 0.04828 0.112333 0.709501
947 4 0.0584493 0.129099 0.706507
946 2 0.0786332 0.124879 0.692366
862 2 0.00685221 0.138387 0.742487
1077 4 0.995505 0.164331 0.710452
1277 4 0.103085 0.139047 0.672735
948 4 0.0988171 0.120659 0.678224
991 2 0.144568 0.0935636 0.681357
992 4 0.127878 0.0773652 0.690536
976 2 0.106613 0.082507 0.716828
977 4 0.104217 0.0939529 0.738928
806 4 0.196258 0.138013 0.726094
805 2 0.196496 0.162169 0.732543
1226 4 0.168847 0.0968548 0.746355
917 4 0.25599 0.155178 0.722751
886 2 0.318171 0.0999551 0.674415
2398 2 0.404465 0.124606 0.745168
2400 4 0.396884 0.140231 0.72718
1163 4 0.474734 0.119773 0.676781
1076 4 0.00664871 0.211267 0.697279
1075 2 0.00107661 0.187799 0.703865
1235 4 0.134409 0.212562 0.725139
1234 2 0.122203 0.227949 0.740613
1236 4 0.109997 0.243336 0.756086
918 4 0.251277 0.203658 0.711427
45 3 0.23502 0.215078 0.716519
44 3 0.205667 0.237016 0.725167
41 1 0.220438 0.220928 0.733005
43 3 0.208712 0.202243 0.7402
807 4 0.196733 0.186326 0.738993
916 2 0.253633 0.179418 0.717089
846 4 0.388153 0.197085 0.706338
844 2 0.403744 0.200216 0.725633
845 4 0.419334 0.203346 0.744929
819 4 0.435125 0.170845 0.75236
821 4 0.0483073 0.238835 0.751698
830 4 0.374954 0.265507 0.74605
3276 4 0.0677376 0.364265 0.672619
814 2 0.0773971 0.369627 0.71456
815 4 0.0760746 0.361421 0.690978
816 4 0.0787196 0.377832 0.738142
1078 2 0.146456 0.404436 0.747863
2011 2 0.21958 0.372405 0.722599
2012 4 0.242459 0.371163 0.71259
1080 4 0.161955 0.388007 0.737138
2013 4 0.196701 0.373647 0.732608
941 4 0.178323 0.376942 0.742152
1029 4 0.306348 0.422329 0.684272
1007 4 0.388384 0.361221 0.676826
3432 4 0.00439532 0.496392 0.668815
1281 4 0.0649545 0.426496 0.715154
1279 2 0.0630513 0.43427 0.691466
3431 4 0.0303061 0.457441 0.686483
3430 2 0.0173507 0.476917 0.677649
885 4 0.0824639 0.431059 0.724849
883 2 0.0984767 0.430951 0.744052
1027 2 0.312219 0.432567 0.662229
929 4 0.283276 0.441308 0.732313
1229 4 0.355727 0.447784 0.746283
1228 2 0.347682 0.424782 0.751886
1206 4 0.49406 0.474604 0.737847
1251 4 0.481426 0.498745 0.67518
3135 4 0.00391826 0.0433978 0.762527
1197 4 0.2224 0.00560575 0.809892
839 4 0.304569 0.0730827 0.839264
863 4 0.0144214 0.118418 0.755492
1203 4 0.997211 0.117874 0.793112
1129 2 0.094864 0.154071 0.831562
1130 4 0.108889 0.149998 0.811268
1227 4 0.166192 0.103476 0.79585
966 4 0.214892 0.0876745 0.803131
1225 2 0.16752 0.100165 0.771103
964 2 0.238325 0.0958972 0.800226
838 2 0.29058 0.0879906 0.824868
840 4 0.276591 0.102898 0.810472
965 4 0.261759 0.10412 0.797322
959 4 0.321855 0.158936 0.788723
958 2 0.322582 0.134136 0.791822
1112 4 0.36365 0.0847346 0.789524
2399 4 0.412047 0.108981 0.763156
1111 2 0.387637 0.0913935 0.787182
1113 4 0.411623 0.0980525 0.784841
960 4 0.32331 0.109335 0.79492
2322 4 0.425252 0.111251 0.777463