ITEM: TIMESTEP
960000
ITEM: NUMBER OF ATOMS
4590
ITEM: BOX BOUNDS pp pp pp
-9.9985700000000008e+00 9.9985700000000008e+00
-9.9985700000000008e+00 9.9985700000000008e+00
-9.9985700000000008e+00 9.9985700000000008e+00
ITEM: ATOMS id type xs ys zs
463 2 0.0415901 0.0238172 0.037014
464 4 0.0632588 0.0351844 0.0421552
1667 4 0.0565276 0.0515773 0.0321363
465 4 0.0199214 0.01245 0.0318728
1666 2 0.0722637 0.0709471 0.0336731
579 4 0.12925 0.00938978 0.0619508
577 2 0.109237 0.019412 0.0730955
1253 4 0.161591 0.03143 0.023699
995 4 0.147812 0.0302661 0.00954929
533 4 0.229213 0.0631549 0.0815373
1254 4 0.20137 0.0605466 0.0152975
1252 2 0.18148 0.0459883 0.0194982
532 2 0.216999 0.0828952 0.0722464
491 4 0.255162 0.0459344 0.0148256
490 2 0.27869 0.04427 0.023123
492 4 0.302218 0.0426056 0.0314205
486 4 0.305948 0.0366076 0.0502967
484 2 0.322526 0.0203888 0.0596393
297 4 0.369886 0.0590649 0.0657881
746 4 0.378887 0.0407675 0.0502209
485 4 0.339105 0.00416998 0.0689819
745 2 0.401173 0.032215 0.0427821
747 4 0.42346 0.0236624 0.0353434
2975 4 0.438324 0.0404487 0.0347985
1826 4 0.443529 0.0241654 0.0402063
1825 2 0.462183 0.0103634 0.0308951
2974 2 0.445795 0.062754 0.0263227
1246 2 0.0229321 0.109547 0.0148692
1247 4 0.0410889 0.101598 0.0301111
1248 4 0.0047753 0.117497 0.999627
1668 4 0.0879999 0.090317 0.0352098
423 4 0.174709 0.15806 0.0355796
534 4 0.204785 0.102635 0.0629555
421 2 0.189197 0.138889 0.0424918
422 4 0.203685 0.119719 0.0494041
665 4 0.295836 0.148277 0.0292075
557 4 0.299144 0.120769 0.0811526
664 2 0.319865 0.142745 0.0250641
556 2 0.323021 0.117044 0.0747329
295 2 0.366015 0.0834336 0.0617433
666 4 0.343894 0.137212 0.0209208
558 4 0.346897 0.113319 0.0683132
296 4 0.362144 0.107802 0.0576985
866 4 0.352288 0.146192 0.00553465
2976 4 0.453266 0.0850592 0.0178469
2624 4 0.00692743 0.187095 0.077976
554 4 0.140819 0.229622 0.015976
1133 4 0.149137 0.220098 0.000605122
572 4 0.329891 0.245429 0.024323
323 4 0.38804 0.223397 0.0400344
322 2 0.404227 0.242451 0.0397093
771 4 0.478088 0.200365 0.040515
769 2 0.460802 0.182547 0.043494
770 4 0.443516 0.164729 0.0464731
836 4 0.0715411 0.320454 0.014158
553 2 0.132345 0.252508 0.021419
555 4 0.123872 0.275393 0.0268619
455 4 0.140111 0.335865 0.0832818
483 4 0.233874 0.257926 0.0401454
481 2 0.252872 0.267327 0.0268839
482 4 0.271871 0.276728 0.0136225
571 2 0.312418 0.262027 0.0176614
573 4 0.294945 0.278625 0.0109998
357 4 0.282252 0.293226 0.0121512
355 2 0.279994 0.316065 0.00222957
324 4 0.420415 0.261504 0.0393842
518 4 0.438102 0.264676 0.0763317
294 4 0.073545 0.41015 0.0634764
621 4 0.0010893 0.386846 0.0277811
552 4 0.0457721 0.413798 0.0150992
2787 4 0.981507 0.387129 0.034507
619 2 0.0230874 0.381419 0.0172073
620 4 0.0450856 0.375991 0.00663352
835 2 0.0827974 0.336666 0.0295082
292 2 0.0845745 0.390596 0.0524683
293 4 0.095604 0.371042 0.0414603
837 4 0.0940537 0.352879 0.0448585
915 4 0.110512 0.356978 0.0333713
913 2 0.13056 0.370573 0.0271696
914 4 0.150607 0.384167 0.0209678
288 4 0.163672 0.368015 0.0180218
286 2 0.184231 0.369418 0.00386048
250 2 0.273706 0.388541 0.0624485
252 4 0.261668 0.367644 0.069048
251 4 0.285744 0.409439 0.0558491
609 4 0.298856 0.424814 0.0550352
957 4 0.357463 0.398093 0.00438563
672 4 0.413436 0.386491 0.0438209
670 2 0.423343 0.378278 0.0223831
550 2 0.0597262 0.434533 0.0158263
551 4 0.0736802 0.455268 0.0165533
1786 2 0.00438881 0.469253 0.0818598
245 4 0.184477 0.46251 0.00820884
607 2 0.320315 0.432642 0.065204
608 4 0.341775 0.44047 0.0753727
525 4 0.343053 0.484738 0.0709891
562 2 0.475834 0.422433 0.0836225
564 4 0.499004 0.425613 0.0924664
578 4 0.089224 0.0294342 0.0842401
566 4 0.18331 0.0743615 0.115795
1806 4 0.164793 0.996283 0.142534
22 3 0.347364 0.0752207 0.163059
2468 4 0.478004 0.0757703 0.120065
1760 4 0.477998 0.0118598 0.1198
235 2 0.0762247 0.155345 0.15693
589 2 0.0118371 0.14745 0.120618
591 4 0.0258027 0.157436 0.138796
237 4 0.0997884 0.154915 0.148579
477 4 0.105111 0.141171 0.133946
475 2 0.128534 0.132461 0.133118
476 4 0.151957 0.123751 0.13229
567 4 0.16175 0.11948 0.11537
565 2 0.17253 0.096921 0.115582
311 4 0.310659 0.163099 0.156976
629 4 0.364595 0.120434 0.0704371
628 2 0.371682 0.134928 0.0895393
630 4 0.37877 0.149421 0.108642
339 4 0.121223 0.202037 0.106483
337 2 0.130905 0.222343 0.117395
338 4 0.140588 0.242649 0.128308
506 4 0.156518 0.249301 0.118923
371 4 0.165498 0.208651 0.151983
352 2 0.310049 0.235647 0.148487
461 4 0.342172 0.221682 0.159324
737 4 0.274815 0.192706 0.163225
310 2 0.324828 0.182855 0.162819
255 4 0.403874 0.234306 0.135217
253 2 0.404154 0.243475 0.111957
462 4 0.385539 0.23308 0.137186
460 2 0.363856 0.227381 0.148255
526 2 0.487482 0.222399 0.133314
527 4 0.499294 0.214384 0.153842
528 4 0.47567 0.230414 0.112786
519 4 0.467399 0.247779 0.113168
448 2 0.030007 0.251192 0.148166
449 4 0.0438582 0.259811 0.129218
703 2 0.0588811 0.319433 0.146451
704 4 0.0698365 0.309277 0.1264
705 4 0.0479258 0.32959 0.166501
505 2 0.167781 0.269971 0.110491
507 4 0.179044 0.29064 0.10206
353 4 0.296409 0.25196 0.135333
755 4 0.29291 0.271503 0.130388
754 2 0.310626 0.282543 0.116625
756 4 0.328342 0.293583 0.102861
612 4 0.274157 0.303646 0.142465
610 2 0.268589 0.324546 0.15501
254 4 0.404434 0.252643 0.0886974
740 4 0.343388 0.297239 0.0896116
739 2 0.356722 0.314433 0.10193
517 2 0.45275 0.256227 0.0947497
417 4 0.0923835 0.375673 0.114977
416 4 0.0953038 0.358038 0.16168
456 4 0.104518 0.36347 0.105003
454 2 0.122315 0.349667 0.0941425
415 2 0.0938437 0.366855 0.138328
741 4 0.370057 0.331627 0.114248
387 4 0.387882 0.390984 0.131355
385 2 0.376568 0.370351 0.122904
386 4 0.365253 0.349718 0.114452
13 3 0.399587 0.396316 0.146632
11 1 0.413721 0.386823 0.162396
623 4 0.393285 0.355385 0.157258
12 3 0.411835 0.363926 0.161245
563 4 0.452664 0.419252 0.0747786
15 3 0.435275 0.392799 0.158106
494 4 0.435101 0.41105 0.150118
1787 4 0.0241345 0.483324 0.0879675
1440 4 0.156817 0.498685 0.098518
1438 2 0.176463 0.493402 0.113054
1439 4 0.196109 0.488118 0.12759
627 4 0.245043 0.443978 0.146756
625 2 0.24642 0.463869 0.131668
639 4 0.229004 0.449627 0.157577
626 4 0.247796 0.48376 0.116581
660 4 0.383205 0.497278 0.155838
658 2 0.401875 0.483932 0.145912
659 4 0.420545 0.470587 0.135986
495 4 0.427211 0.454541 0.12673
493 2 0.431156 0.432795 0.138424
1672 2 0.496013 0.427903 0.135223
1674 4 0.489125 0.43159 0.158974
232 2 0.00202622 0.0160594 0.237048
653 4 0.196452 0.0657926 0.190043
652 2 0.199285 0.0859635 0.204544
24 3 0.359028 0.043576 0.179649
23 3 0.346349 0.0726797 0.200545
21 1 0.358162 0.06669 0.181493
25 3 0.379263 0.0752061 0.182434
759 4 0.396648 0.0795476 0.192489
757 2 0.400237 0.080825 0.2172
236 4 0.052661 0.155775 0.165282
393 4 0.0801646 0.13031 0.239636
391 2 0.0951333 0.146734 0.251097
545 4 0.106171 0.094047 0.250544
654 4 0.202119 0.106134 0.219045
692 4 0.192906 0.113263 0.236247
581 4 0.19425 0.124781 0.219275
580 2 0.20596 0.144611 0.209537
582 4 0.217671 0.164441 0.1998
744 4 0.404253 0.100941 0.24893
758 4 0.403827 0.0821025 0.241912
450 4 0.0161558 0.242573 0.167114
17 3 0.020307 0.195744 0.160482
361 2 0.0852545 0.241489 0.232053
702 4 0.0175934 0.23736 0.186576
363 4 0.0639496 0.233477 0.221705
700 2 0.0335849 0.242879 0.204987
381 4 0.00474934 0.183283 0.196294
701 4 0.0495764 0.248399 0.223399
370 2 0.174344 0.224684 0.169008
372 4 0.183191 0.240718 0.186033
738 4 0.25243 0.170453 0.202013
736 2 0.263622 0.18158 0.182619
284 4 0.283859 0.221301 0.214075
283 2 0.301986 0.218913 0.197019
285 4 0.320113 0.216525 0.179964
354 4 0.323689 0.219333 0.16164
312 4 0.338996 0.202611 0.168661
764 4 0.339602 0.221684 0.178855
763 2 0.353559 0.21704 0.199074
765 4 0.367516 0.212396 0.219293
648 4 0.0653578 0.325843 0.218042
646 2 0.0493458 0.32772 0.19893
647 4 0.0333338 0.329597 0.179818
362 4 0.106559 0.249501 0.242401
748 2 0.104028 0.292839 0.24355
749 4 0.105361 0.317734 0.241646
750 4 0.102695 0.267943 0.245455
309 4 0.327315 0.270874 0.248968
622 2 0.396084 0.332749 0.167503
624 4 0.398883 0.310113 0.177748
299 4 0.147292 0.337044 0.226865
611 4 0.26302 0.345445 0.167555
302 4 0.28078 0.399985 0.176463
301 2 0.29557 0.418908 0.183416
14 3 0.407662 0.393789 0.183684
645 4 0.403694 0.39166 0.20352
728 4 0.360041 0.36151 0.247331
107 3 0.496146 0.399475 0.207776
643 2 0.424274 0.399963 0.21504
110 3 0.46509 0.408504 0.226401
644 4 0.444854 0.408266 0.22656
106 1 0.477911 0.413488 0.20825
109 3 0.465619 0.410465 0.188804
1757 4 0.0664047 0.456122 0.211512
3715 2 0.0191437 0.481043 0.234822
1756 2 0.0881002 0.468312 0.209087
291 4 0.13923 0.451122 0.198815
1758 4 0.109796 0.480502 0.206661
289 2 0.163881 0.449885 0.202811
603 4 0.0851868 0.425248 0.249807
637 2 0.2175 0.451816 0.179669
290 4 0.188533 0.448649 0.206808
638 4 0.205996 0.454005 0.201761
768 4 0.204909 0.436462 0.210496
766 2 0.209518 0.429864 0.234169
303 4 0.31036 0.437831 0.190369
1568 4 0.490533 0.450441 0.220057
108 3 0.485344 0.435428 0.209593
234 4 0.0177884 0.999378 0.246971
529 2 0.0109936 0.0777228 0.294397
511 2 0.0588063 0.0847287 0.273589
512 4 0.0800232 0.0767462 0.284139
513 4 0.0375895 0.0927112 0.263039
675 4 0.0932566 0.0177248 0.252062
674 4 0.0890554 0.0602734 0.277998
673 2 0.091156 0.0389991 0.26503
722 4 0.155063 0.0577181 0.273022
721 2 0.147092 0.0343267 0.269216
723 4 0.139121 0.0109352 0.265411
427 2 0.0994002 0.00752248 0.322059
546 4 0.148938 0.0760778 0.269221
731 4 0.113539 0.0386918 0.331197
732 4 0.151656 0.071057 0.331743
730 2 0.132597 0.0548744 0.33147
1464 4 0.207459 0.0435324 0.274379
1462 2 0.19705 0.0237191 0.285527
683 4 0.252627 0.0484233 0.303003
682 2 0.250134 0.0720437 0.310816
1517 4 0.387647 0.0486989 0.301707
1516 2 0.36883 0.0577944 0.315432
479 4 0.439388 0.0607873 0.270897
480 4 0.487149 0.0463527 0.274259
478 2 0.463268 0.05357 0.272578
531 4 0.020517 0.0904836 0.275119
2483 4 0.0186144 0.101968 0.258841
2482 2 0.00320327 0.120889 0.253392
605 4 0.160625 0.0857225 0.321879
544 2 0.127555 0.0850624 0.259883
392 4 0.110102 0.163158 0.262559
598 2 0.145321 0.119235 0.300441
599 4 0.16506 0.133114 0.293889
600 4 0.125583 0.105356 0.306994
693 4 0.167705 0.08616 0.269879
248 4 0.204749 0.173281 0.254448
247 2 0.189956 0.156588 0.265748
691 2 0.180305 0.0997113 0.253063
466 2 0.245608 0.138874 0.330859
468 4 0.253302 0.115198 0.328531
29 3 0.328172 0.163353 0.255047
684 4 0.24764 0.095664 0.318629
30 3 0.299993 0.144289 0.271177
631 2 0.276775 0.116304 0.294758
632 4 0.290954 0.125451 0.276307
633 4 0.262595 0.107157 0.313209
26 1 0.315317 0.160862 0.274203
27 3 0.329118 0.155309 0.291749
726 4 0.267944 0.0973861 0.328603
742 2 0.401426 0.116831 0.268028
743 4 0.3986 0.132721 0.287125
351 4 0.406489 0.136291 0.305113
707 4 0.346993 0.161761 0.284546
698 4 0.338027 0.123914 0.333272
349 2 0.423182 0.153196 0.31291
350 4 0.439874 0.1701 0.320706
452 4 0.455562 0.167388 0.334352
389 4 0.0549782 0.233496 0.292786
249 4 0.175164 0.139895 0.277048
404 4 0.157577 0.149233 0.283097
405 4 0.127068 0.188846 0.282255
403 2 0.142323 0.169039 0.282676
474 4 0.18135 0.177711 0.313614
279 4 0.215756 0.217916 0.256488
277 2 0.227452 0.236736 0.268073
28 3 0.304538 0.180803 0.279158
708 4 0.392932 0.180215 0.291597
706 2 0.369963 0.170988 0.288071
418 2 0.436395 0.233057 0.33133
419 4 0.440928 0.247511 0.311438
442 2 0.0705584 0.319109 0.29342
388 2 0.06651 0.255124 0.287846
444 4 0.0790057 0.296352 0.287426
390 4 0.0780418 0.276752 0.282905
278 4 0.239148 0.255556 0.279657
536 4 0.22837 0.27494 0.282324
344 4 0.231288 0.284085 0.300127
535 2 0.245471 0.289682 0.271581
343 2 0.22203 0.280878 0.323131
537 4 0.262572 0.304423 0.260839
307 2 0.330044 0.289491 0.265434
497 4 0.313843 0.338909 0.336342
496 2 0.321409 0.33326 0.31319
308 4 0.332773 0.308108 0.2819
498 4 0.328974 0.327611 0.290038
729 4 0.344265 0.322725 0.274672
443 4 0.0621112 0.341867 0.299414
2463 4 0.0024045 0.409728 0.293659
298 2 0.161406 0.345255 0.2458
602 4 0.102829 0.411179 0.294434
300 4 0.17552 0.353465 0.264736
734 4 0.170023 0.35125 0.28347
735 4 0.201933 0.358738 0.321238
733 2 0.185978 0.354994 0.302354
436 2 0.238668 0.408393 0.285314
437 4 0.231038 0.412948 0.261943
438 4 0.246299 0.403837 0.308685
727 2 0.352153 0.342117 0.261001
542 4 0.407277 0.371652 0.267829
541 2 0.407614 0.376101 0.292431
543 4 0.40795 0.380551 0.317033
615 4 0.397023 0.395443 0.323135
447 4 0.417382 0.396717 0.325336
445 2 0.43128 0.417221 0.321928
3717 4 0.0156191 0.461285 0.249735
2462 4 0.00514181 0.445949 0.25929
2461 2 0.00377315 0.427838 0.276474
3959 4 0.0124481 0.462646 0.269127
3958 2 0.0162689 0.480138 0.28658
601 2 0.094008 0.418214 0.272121
414 4 0.130041 0.454627 0.254487
412 2 0.152004 0.460306 0.265001
1435 2 0.204614 0.484172 0.255222
1436 4 0.192397 0.468233 0.270118
767 4 0.214127 0.423266 0.257841
413 4 0.173968 0.465985 0.275514
1557 4 0.190057 0.463872 0.28884
1555 2 0.202836 0.451721 0.306567
1556 4 0.215616 0.439571 0.324293
712 2 0.389635 0.486328 0.288544
713 4 0.377827 0.466701 0.298572
118 3 0.504255 0.439209 0.325506
446 4 0.445178 0.437725 0.318521
2756 4 0.00960995 0.0804077 0.35827
1600 2 0.0856286 0.00687955 0.388014
317 4 0.0481582 0.0530932 0.331284
316 2 0.0497765 0.0431555 0.354171
318 4 0.0513947 0.0332179 0.377058
1602 4 0.0705195 0.0247935 0.379297
429 4 0.113337 0.0198752 0.338743
1699 2 0.179644 0.999231 0.374518
1701 4 0.185104 0.0211387 0.385262
441 4 0.240553 0.0839299 0.380022
439 2 0.234153 0.0665899 0.363183
440 4 0.227753 0.04925 0.346344
1670 4 0.321025 0.0363574 0.376461
1669 2 0.338732 0.0479682 0.363163
1671 4 0.356438 0.0595789 0.349865
1427 4 0.373273 0.075448 0.346415
699 4 0.354737 0.0782382 0.344902
1426 2 0.387116 0.0743656 0.367208
1518 4 0.350013 0.0668899 0.329157
1428 4 0.400959 0.0732832 0.388002
1580 4 0.452276 0.0176033 0.407109
1579 2 0.44568 0.041544 0.410026
1581 4 0.439083 0.0654848 0.412943
399 4 0.13572 0.123366 0.368473
398 4 0.104868 0.152593 0.394829
397 2 0.120294 0.13798 0.381651
687 4 0.158037 0.143592 0.407714
604 2 0.174771 0.0968688 0.339223
467 4 0.237913 0.16255 0.333187
606 4 0.188917 0.108015 0.356567
725 4 0.305987 0.0989393 0.361024
724 2 0.286966 0.0981627 0.344813
697 2 0.346382 0.101076 0.339087
257 4 0.404769 0.100078 0.401906
516 4 0.420987 0.10873 0.40768
514 2 0.439917 0.114866 0.392541
515 4 0.458847 0.121003 0.377403
451 2 0.46307 0.151274 0.351934
453 4 0.470579 0.13516 0.369517
472 2 0.19808 0.183601 0.331237
473 4 0.21481 0.189491 0.348861
276 4 0.233514 0.182004 0.344223
274 2 0.239677 0.196021 0.36399
275 4 0.245841 0.210038 0.383756
375 4 0.252117 0.228915 0.385859
268 2 0.500479 0.246291 0.366636
306 4 0.442231 0.202514 0.356948
304 2 0.462718 0.205581 0.370951
305 4 0.483205 0.208647 0.384953
420 4 0.431863 0.218604 0.351223
270 4 0.493012 0.22609 0.37934
2850 4 0.00370363 0.317096 0.371522
2926 2 0.996809 0.323059 0.333587
617 4 0.0495269 0.313768 0.416565
616 2 0.0672054 0.319 0.399675
2927 4 0.00955581 0.32837 0.354432
407 4 0.080766 0.329251 0.3646
348 4 0.00033521 0.286442 0.417591
677 4 0.148838 0.295936 0.339764
618 4 0.0848839 0.324231 0.382784
345 4 0.212772 0.277672 0.346135
676 2 0.173579 0.293359 0.342298
401 4 0.214817 0.299234 0.407965
678 4 0.19832 0.290783 0.344832
400 2 0.213689 0.29745 0.383051
402 4 0.212562 0.295666 0.358137
377 4 0.300269 0.340303 0.350195
373 2 0.263731 0.240773 0.404559
488 4 0.334386 0.248821 0.409766
508 2 0.268148 0.295443 0.407904
489 4 0.300688 0.275152 0.383846
487 2 0.317537 0.261987 0.396806
509 4 0.263643 0.317742 0.397529
376 2 0.28126 0.334181 0.36524
433 2 0.337072 0.33172 0.368349
378 4 0.262251 0.328059 0.380285
434 4 0.353139 0.318846 0.382537
548 4 0.0483678 0.38145 0.338905
547 2 0.0317348 0.365083 0.347885
549 4 0.0151018 0.348716 0.356864
681 4 0.0130117 0.335626 0.374094
679 2 0.0194326 0.345884 0.395974
408 4 0.0974213 0.370557 0.34186
406 2 0.0890936 0.349904 0.35323
636 4 0.225755 0.406517 0.411715
435 4 0.321005 0.344594 0.354161
667 2 0.260573 0.397781 0.398122
668 4 0.279602 0.381774 0.395506
613 2 0.378271 0.397483 0.339548
614 4 0.359518 0.399522 0.35596
588 4 0.404702 0.410251 0.38709
586 2 0.423846 0.395965 0.394478
587 4 0.442989 0.381678 0.401865
777 4 0.0623734 0.483414 0.342876
776 4 0.112133 0.483484 0.337904
775 2 0.0872531 0.483449 0.34039
499 2 0.14214 0.468772 0.355007
500 4 0.156081 0.448993 0.361301
501 4 0.128199 0.488551 0.348714
669 4 0.241544 0.413788 0.400739
1716 4 0.350299 0.440243 0.410892
1714 2 0.37154 0.432734 0.400046
1715 4 0.39278 0.425225 0.389199
593 4 0.406681 0.429821 0.375566
117 3 0.499127 0.4584 0.357413
594 4 0.445802 0.458974 0.364597
592 2 0.426242 0.444397 0.370082
120 3 0.472589 0.435046 0.345447
116 1 0.495075 0.438398 0.346801
2586 4 0.00364286 0.0753565 0.469965
368 4 0.0774742 0.055529 0.447419
369 4 0.122855 0.075401 0.454231
367 2 0.100165 0.065465 0.450825
1817 4 0.276618 0.00664728 0.50033
961 2 0.29152 0.0776142 0.471694
962 4 0.278479 0.0689204 0.491175
424 2 0.365641 0.0786378 0.473057
425 4 0.357933 0.0596598 0.487396
88 3 0.409371 0.00902145 0.469995
3488 4 0.483236 0.0353148 0.484032
1061 4 0.463186 0.0400457 0.485021
1060 2 0.441353 0.0326896 0.475306
1062 4 0.41952 0.0253335 0.465591
1218 4 0.488492 0.00455792 0.444636
720 4 0.0092988 0.0853165 0.454022
458 4 0.0266505 0.142127 0.466133
718 2 0.0229388 0.10622 0.455502
719 4 0.0365787 0.127123 0.456982
457 2 0.0402229 0.161473 0.457966
260 4 0.107717 0.170743 0.479669
685 2 0.168054 0.140054 0.430349
686 4 0.178071 0.136516 0.452983
1152 4 0.196556 0.143848 0.456795
1150 2 0.190313 0.143102 0.480996
963 4 0.304562 0.0863079 0.452213
432 4 0.316331 0.0991011 0.440922
321 4 0.260936 0.127282 0.445295
319 2 0.265547 0.146925 0.460062
320 4 0.270157 0.166568 0.474828
256 2 0.396625 0.102456 0.425426
426 4 0.373349 0.0976158 0.458718
430 2 0.336064 0.10879 0.42901
258 4 0.388482 0.104834 0.448947
431 4 0.355797 0.11848 0.417098
459 4 0.0537954 0.180819 0.449798
259 2 0.12169 0.185076 0.464686
261 4 0.135664 0.199408 0.449702
1035 4 0.150601 0.202252 0.461992
1033 2 0.167393 0.213721 0.47654
1034 4 0.184186 0.22519 0.491088
695 4 0.177671 0.243525 0.497227
411 4 0.288073 0.170461 0.48361
715 2 0.325851 0.226516 0.448243
716 4 0.326007 0.21408 0.469934
717 4 0.325694 0.238952 0.426552
575 4 0.392187 0.227142 0.475439
574 2 0.374191 0.209788 0.47588
576 4 0.356196 0.192435 0.47632
266 4 0.394603 0.238276 0.458188
347 4 0.0410543 0.281971 0.446273
346 2 0.0206947 0.284206 0.431932
327 4 0.124715 0.317542 0.500394
510 4 0.272653 0.273144 0.418278
374 4 0.275344 0.252631 0.423259
650 4 0.290862 0.25754 0.434053
651 4 0.299913 0.292176 0.468969
649 2 0.295388 0.274858 0.451511
265 2 0.413144 0.249107 0.470999
560 4 0.462262 0.310647 0.49549
267 4 0.431685 0.259939 0.483809
585 4 0.468013 0.258457 0.477833
872 4 0.422708 0.274483 0.49277
584 4 0.453156 0.306205 0.477395
583 2 0.460585 0.282331 0.477614
680 4 0.0258535 0.356142 0.417853
635 4 0.181463 0.420792 0.430022
634 2 0.203609 0.413655 0.420868
503 4 0.211051 0.337216 0.419103
502 2 0.221685 0.356546 0.43087
504 4 0.232319 0.375876 0.442636
773 4 0.226274 0.384992 0.458782
772 2 0.226372 0.377987 0.482784
336 4 0.332873 0.374808 0.426317
334 2 0.338355 0.38071 0.449987
335 4 0.343837 0.386613 0.473657
240 4 0.353307 0.404689 0.472967
238 2 0.355615 0.406629 0.497789
925 2 0.464133 0.401794 0.496306
561 4 0.467713 0.358703 0.482777
752 4 0.460501 0.372657 0.470279
559 2 0.464988 0.334675 0.489133
926 4 0.459969 0.378197 0.489163
753 4 0.452745 0.382264 0.42182
751 2 0.456623 0.377461 0.44605
383 4 0.0798084 0.458185 0.495295
382 2 0.0760199 0.433474 0.495724
570 4 0.206185 0.501247 0.448311
4 3 0.316975 0.469249 0.430835
3 3 0.35195 0.462207 0.443933
1 1 0.337789 0.47846 0.435347
5 3 0.346686 0.487251 0.416316
1126 2 0.0866616 0.00771509 0.535177
1128 4 0.094296 0.0302065 0.527365
937 2 0.103146 0.0598816 0.527827
939 4 0.100146 0.0410127 0.543956
2428 2 0.149495 0.0295084 0.577312
2430 4 0.169342 0.0355596 0.563359
640 2 0.464189 0.0630647 0.518533
641 4 0.444101 0.0701038 0.505415
642 4 0.484277 0.0560257 0.531652
938 4 0.106146 0.0787505 0.511698
1154 4 0.102035 0.150054 0.58074
1031 4 0.214911 0.0960641 0.564908
1182 4 0.227179 0.0973114 0.549216
1180 2 0.245632 0.0898951 0.534061
1151 4 0.18407 0.142356 0.505196
1181 4 0.264085 0.0824787 0.518906
877 2 0.0342724 0.188322 0.543387
1272 4 0.0677544 0.200237 0.568028
879 4 0.0531579 0.201478 0.553155
878 4 0.0153868 0.175165 0.533618
470 4 0.995644 0.180661 0.534908
1271 4 0.104766 0.166655 0.569793
1270 2 0.0862601 0.183446 0.568911
1220 4 0.196543 0.196564 0.554336
1219 2 0.216834 0.20939 0.547337
1221 4 0.237124 0.222216 0.540339
410 4 0.315579 0.191356 0.51977
409 2 0.301826 0.180909 0.50169
1136 4 0.0433278 0.31532 0.542276
325 2 0.145686 0.309501 0.511381
326 4 0.166658 0.30146 0.522368
9 3 0.17853 0.317345 0.52833
6 1 0.189516 0.306297 0.545525
8 3 0.18589 0.28344 0.543843
10 3 0.211837 0.310713 0.544587
7 3 0.181167 0.313689 0.565644
696 4 0.172355 0.282266 0.528397
694 2 0.175013 0.262895 0.512812
711 4 0.211134 0.330934 0.543773
791 4 0.299244 0.245974 0.527396
790 2 0.320586 0.256455 0.535129
792 4 0.341929 0.266936 0.542862
812 4 0.343328 0.284783 0.551728
811 2 0.366957 0.292735 0.549819
813 4 0.390585 0.300687 0.54791
873 4 0.405129 0.291936 0.536211
871 2 0.413918 0.28321 0.514491
1135 2 0.0497313 0.333154 0.55859
935 4 0.0118867 0.373672 0.577463
1137 4 0.0561349 0.350988 0.574903
384 4 0.0722315 0.408763 0.496153
897 4 0.162576 0.398759 0.558268
895 2 0.147837 0.399659 0.578446
1160 4 0.173946 0.391196 0.543586
709 2 0.223077 0.350851 0.534508
774 4 0.22647 0.370981 0.506786
710 4 0.23502 0.370768 0.525242
1159 2 0.189542 0.410703 0.544778
1259 4 0.174345 0.32691 0.576829
239 4 0.357923 0.40857 0.52261
1161 4 0.205138 0.43021 0.545969
1171 2 0.239856 0.44387 0.553592
1173 4 0.218017 0.4334 0.559805
1188 4 0.236935 0.489879 0.547018
1172 4 0.261696 0.454339 0.54738
1187 4 0.270529 0.50013 0.511421
1186 2 0.253732 0.495005 0.529219
882 4 0.349699 0.454788 0.500605
929 4 0.351838 0.460127 0.571907
880 2 0.363628 0.468337 0.516339
1000 2 0.407055 0.459249 0.551945
1001 4 0.389951 0.465402 0.534776
881 4 0.377557 0.481887 0.532074
928 2 0.338983 0.481511 0.573533
1002 4 0.42416 0.453095 0.569113
661 2 0.453386 0.486765 0.521128
663 4 0.43568 0.495511 0.536464
662 4 0.471091 0.478019 0.505792
1267 2 0.45328 0.483917 0.574335
1269 4 0.440297 0.46303 0.569824
4085 4 0.490302 0.474976 0.51005
927 4 0.468297 0.425391 0.503449
2317 2 0.0408046 0.0036719 0.628656
2319 4 0.021758 0.0185684 0.63502
2115 4 0.0052534 0.995087 0.597502
2429 4 0.129649 0.0234573 0.591265
1059 4 0.0759481 0.0345423 0.585487
1058 4 0.105263 0.0259606 0.625081
1057 2 0.0906057 0.0302515 0.605284
944 4 0.106417 0.0353771 0.644785
824 4 0.11548 0.0185127 0.639483
943 2 0.118563 0.0522198 0.658713
951 4 0.301804 0.0281158 0.663828
1092 4 0.313942 0.0169124 0.650329
949 2 0.278415 0.0357537 0.668276
1090 2 0.33797 0.0238309 0.650335
1091 4 0.361997 0.0307494 0.650342
2283 4 0.381537 0.0273499 0.64727
2281 2 0.395567 0.00877377 0.638145
2196 4 0.372868 0.00454535 0.58075
3007 2 0.483173 0.0669403 0.604848
3008 4 0.496144 0.045592 0.605937
1082 4 0.0585868 0.143756 0.657112
1081 2 0.0827912 0.137565 0.658107
1153 2 0.121291 0.141278 0.594059
1155 4 0.140547 0.132502 0.607377
1083 4 0.106996 0.131374 0.659102
1032 4 0.231484 0.0915747 0.611875
1030 2 0.223197 0.0938194 0.588392
1282 2 0.237278 0.123187 0.633691
1283 4 0.229586 0.0997267 0.629736
1284 4 0.24497 0.146646 0.637647
1211 4 0.259405 0.159312 0.635734
900 4 0.337043 0.152083 0.605762
3009 4 0.470203 0.0882886 0.60376
809 4 0.464513 0.0899115 0.622487
808 2 0.450485 0.0903198 0.643181
1210 2 0.257564 0.181157 0.647759
1212 4 0.255723 0.203002 0.659783
888 4 0.344009 0.248341 0.604542
898 2 0.351655 0.17 0.615282
886 2 0.354176 0.232389 0.620893
887 4 0.364343 0.216437 0.637244
899 4 0.366268 0.187917 0.624802
1194 4 0.378643 0.203966 0.628765
1192 2 0.397933 0.200068 0.613341
830 4 0.366561 0.19885 0.642192
829 2 0.379761 0.206244 0.662098
1193 4 0.417222 0.19617 0.597917
1025 4 0.440249 0.212105 0.638695
1024 2 0.456704 0.23092 0.638084
1026 4 0.47316 0.249736 0.637474
906 4 0.49292 0.24896 0.631021
1207 2 0.102863 0.248455 0.661243
1208 4 0.122359 0.259022 0.649692
857 4 0.202394 0.251733 0.651816
856 2 0.204167 0.272571 0.638111
1258 2 0.18593 0.319722 0.597788
1260 4 0.197516 0.312534 0.618748
796 2 0.225993 0.321699 0.648582
858 4 0.20594 0.293409 0.624406
797 4 0.213489 0.310756 0.629898
804 4 0.319126 0.315383 0.578766
802 2 0.304626 0.297395 0.588325
803 4 0.290127 0.279407 0.597884
1239 4 0.290329 0.269137 0.615732
1237 2 0.295007 0.276703 0.639099
1238 4 0.299684 0.28427 0.662467
1065 4 0.257564 0.332684 0.660315
954 4 0.483427 0.266493 0.631013
952 2 0.48027 0.28889 0.620355
953 4 0.477113 0.311287 0.609697
1041 4 0.0581395 0.354064 0.593098
1039 2 0.0409529 0.358836 0.61062
1040 4 0.0237662 0.363608 0.628142
3275 4 0.00905373 0.376559 0.635262
993 4 0.0692723 0.338243 0.59189
983 4 0.00606583 0.357055 0.631637
991 2 0.0927822 0.346313 0.594599
896 4 0.133098 0.400558 0.598623
992 4 0.116292 0.354382 0.597309
1190 4 0.185416 0.412717 0.594506
1029 4 0.257467 0.379415 0.665998
1189 2 0.201122 0.421211 0.612009
1191 4 0.216828 0.429704 0.629512
1176 4 0.238076 0.471 0.659967
891 4 0.312518 0.505025 0.642574
889 2 0.313213 0.506472 0.617622
945 4 0.130709 0.0690624 0.67264
950 4 0.255026 0.0433917 0.672723
1004 4 0.302589 0.0745222 0.703601
1003 2 0.32285 0.0614198 0.697041
1005 4 0.34311 0.0483173 0.690481
43 3 0.408527 0.0699921 0.696682
846 4 0.43923 0.0644084 0.736545
42 3 0.439732 0.0723347 0.717499
2321 4 0.488827 0.0275338 0.720936
2320 2 0.480146 0.011514 0.738058
1163 4 0.500119 0.0365779 0.707121
41 1 0.427756 0.0823677 0.700616
1077 4 0.0262021 0.116678 0.742244
850 2 0.052252 0.123629 0.715284
851 4 0.0387532 0.131757 0.734698
1107 4 0.0203907 0.134741 0.745292
852 4 0.0657507 0.115501 0.69587
1105 2 0.00853451 0.156668 0.743343
1075 2 0.00623325 0.102067 0.738647
909 4 0.108853 0.135179 0.67873
907 2 0.132708 0.132859 0.68585
908 4 0.156564 0.130538 0.69297
1227 4 0.164965 0.125468 0.71101
1225 2 0.186436 0.123212 0.723623
1226 4 0.207907 0.120956 0.736236
1142 4 0.419008 0.114798 0.722231
1141 2 0.407925 0.131787 0.73685
1143 4 0.396842 0.148777 0.751468
44 3 0.422116 0.103894 0.707188
1298 4 0.380752 0.158735 0.746431
45 3 0.440522 0.083091 0.68177
810 4 0.436457 0.0907281 0.663874
1106 4 0.996678 0.178596 0.741393
1209 4 0.0833674 0.237887 0.672793
976 2 0.222061 0.243289 0.740074
977 4 0.243469 0.233314 0.731865
918 4 0.263043 0.228607 0.73067
916 2 0.283385 0.231893 0.716508
917 4 0.303727 0.23518 0.702345
831 4 0.392961 0.213639 0.682005
3355 2 0.499986 0.227452 0.706506
1263 4 0.422263 0.19575 0.70041
1261 2 0.43377 0.216749 0.693212
1262 4 0.445277 0.237748 0.686015
3356 4 0.481428 0.236721 0.692546
3123 4 0.464689 0.243642 0.681313
1243 2 0.999641 0.255352 0.663452
1245 4 0.00681123 0.270235 0.68222
1179 4 0.0127516 0.270657 0.702655
892 2 0.0859827 0.304561 0.720867
894 4 0.0747077 0.315665 0.701508
1177 2 0.00580589 0.294671 0.703153
893 4 0.0972577 0.293457 0.740225
1074 4 0.0970931 0.275073 0.748553
947 4 0.106818 0.288201 0.758953
1072 2 0.0934442 0.250368 0.749774
798 4 0.238497 0.332642 0.667265
978 4 0.200653 0.253263 0.748284
806 4 0.311543 0.287861 0.67734
805 2 0.333912 0.297479 0.683023
1008 4 0.373075 0.313283 0.67967
807 4 0.356281 0.307097 0.688707
1006 2 0.384681 0.335332 0.677591
1166 4 0.451789 0.317664 0.724359
3122 4 0.467847 0.293204 0.687167
3121 2 0.466268 0.268423 0.68424
815 4 0.0964371 0.366022 0.745394
1067 4 0.162428 0.371873 0.711055
940 2 0.125503 0.368645 0.719434
941 4 0.145802 0.360632 0.707232
942 4 0.105203 0.376658 0.731637
1028 4 0.213723 0.395146 0.684429
1066 2 0.184774 0.374572 0.700167
1068 4 0.20712 0.37727 0.68928
1027 2 0.235595 0.38728 0.675214
1063 2 0.277274 0.344353 0.67034
1064 4 0.296984 0.356023 0.680366
1007 4 0.396287 0.357381 0.675512
1206 4 0.441622 0.364452 0.692932
1099 2 0.500366 0.386057 0.734068
1205 4 0.460302 0.365392 0.73931
1204 2 0.450962 0.364922 0.716121
1101 4 0.478941 0.373849 0.738205
1280 4 0.0520586 0.443272 0.702672
1281 4 0.0813128 0.470661 0.732584
1279 2 0.0666857 0.456966 0.717628
885 4 0.0771739 0.45917 0.749148
2015 4 0.132988 0.482122 0.74252
1079 4 0.145965 0.466882 0.746071
2014 2 0.117669 0.495312 0.727805
1175 4 0.216871 0.440784 0.693702
1174 2 0.227474 0.455892 0.676835
2028 4 0.199201 0.498968 0.744252
1228 2 0.38458 0.455395 0.723707
1230 4 0.377802 0.43771 0.707383
1229 4 0.391359 0.47308 0.740031
1249 2 0.47557 0.488977 0.726746
1250 4 0.475344 0.500533 0.704574
2991 4 0.0246886 0.0587733 0.76613
1203 4 0.0605156 0.0737977 0.78801
1201 2 0.078923 0.0650834 0.802515
1202 4 0.0973303 0.0563691 0.817021
839 4 0.250697 0.0735406 0.810847
975 4 0.29941 0.0118777 0.827147
1255 2 0.28221 0.0433106 0.807694
1256 4 0.268794 0.0642071 0.80477
1257 4 0.295625 0.0224142 0.810618
844 2 0.460267 0.0619923 0.74984
1112 4 0.435194 0.012223 0.810569
845 4 0.481305 0.0595762 0.763135
148 3 0.495535 0.0663798 0.774792
1111 2 0.449192 0.00397374 0.791564
3480 4 0.497607 0.0720257 0.793694
863 4 0.0579655 0.0941735 0.783128
864 4 0.0384364 0.129957 0.754165
862 2 0.048201 0.112065 0.768646
35 3 0.107871 0.148831 0.831114
1148 4 0.197002 0.120076 0.753032
1149 4 0.208159 0.121515 0.801757
1147 2 0.202581 0.120796 0.777395
838 2 0.248774 0.09197 0.827635
960 4 0.318718 0.115319 0.785487
958 2 0.296634 0.126238 0.789758
959 4 0.27455 0.137156 0.79403
1086 4 0.352987 0.118197 0.795239
1084 2 0.367595 0.112638 0.814756
1297 2 0.378301 0.168848 0.769167
3269 4 0.488441 0.118051 0.783037
3270 4 0.480666 0.160069 0.757061
3268 2 0.484554 0.13906 0.770049
3479 4 0.486523 0.119881 0.80306
1146 4 0.462531 0.16447 0.761687
3478 2 0.492065 0.0959535 0.798377
2639 4 0.440581 0.109097 0.827108
1073 4 0.0897953 0.225662 0.750994
1130 4 0.124955 0.207989 0.816269
1129 2 0.143941 0.200298 0.801932