ITEM: TIMESTEP
910000
ITEM: NUMBER OF ATOMS
4590
ITEM: BOX BOUNDS pp pp pp
-9.9985700000000008e+00 9.9985700000000008e+00
-9.9985700000000008e+00 9.9985700000000008e+00
-9.9985700000000008e+00 9.9985700000000008e+00
ITEM: ATOMS id type xs ys zs
463 2 0.0330022 0.0276009 0.0369002
464 4 0.0557848 0.0373477 0.0402371
1667 4 0.0699751 0.0451167 0.028317
465 4 0.0102197 0.0178541 0.0335633
1666 2 0.0755151 0.0692573 0.0317405
579 4 0.110406 0.00708822 0.0786729
994 2 0.146678 0.995478 0.997971
533 4 0.230208 0.0641971 0.0629824
1254 4 0.188495 0.0615964 0.0126521
1252 2 0.178286 0.0448913 0.997099
359 4 0.207739 0.0714485 0.0163307
491 4 0.255078 0.0413276 0.0220874
490 2 0.272864 0.0394207 0.0395571
492 4 0.290651 0.0375139 0.0570268
486 4 0.309817 0.0421101 0.063242
484 2 0.323795 0.0213795 0.0633719
297 4 0.371032 0.0624204 0.0628797
746 4 0.387382 0.0497243 0.0527772
485 4 0.337774 0.000648936 0.0635018
745 2 0.41057 0.0469124 0.0438546
747 4 0.433757 0.0441004 0.034932
2975 4 0.449271 0.0575216 0.0299865
1826 4 0.450799 0.0375596 0.0261345
1825 2 0.466012 0.0183847 0.0210274
2974 2 0.461265 0.0794371 0.0289768
1827 4 0.481224 0.99921 0.0159204
1246 2 0.0282294 0.104368 0.00926657
1247 4 0.0499466 0.095307 0.0177186
1668 4 0.081055 0.0933979 0.0351639
423 4 0.169472 0.155174 0.035598
532 2 0.22291 0.0876521 0.0583141
534 4 0.215613 0.111107 0.0536458
421 2 0.183724 0.135171 0.0402797
422 4 0.197977 0.115168 0.0449614
358 2 0.218214 0.0901246 0.0034216
665 4 0.303658 0.150766 0.0262721
557 4 0.280057 0.101353 0.0716779
664 2 0.32293 0.142447 0.0126865
556 2 0.303757 0.106059 0.0781062
295 2 0.358508 0.0817113 0.0726875
296 4 0.345984 0.101002 0.0824952
558 4 0.327458 0.110764 0.0845344
666 4 0.342202 0.134129 0.999101
2976 4 0.47326 0.101353 0.027967
2624 4 0.997361 0.200378 0.0703341
554 4 0.140414 0.231392 0.00570726
1133 4 0.152693 0.216198 0.00932345
553 2 0.124103 0.248113 0.0146263
572 4 0.297733 0.238747 0.0415712
323 4 0.382869 0.228228 0.0477806
322 2 0.397514 0.245607 0.0373547
771 4 0.484399 0.178475 0.0298018
769 2 0.460356 0.182071 0.0356473
770 4 0.436313 0.185668 0.0414928
836 4 0.089141 0.314036 0.0259795
555 4 0.107792 0.264833 0.0235453
483 4 0.216208 0.276122 0.039366
481 2 0.239501 0.281917 0.0323657
482 4 0.262795 0.287713 0.0253654
571 2 0.289692 0.260398 0.0319923
573 4 0.281651 0.282049 0.0224134
357 4 0.275309 0.299773 0.0139552
324 4 0.412158 0.262986 0.0269287
518 4 0.435371 0.268631 0.0848442
835 2 0.0870362 0.338924 0.0248415
294 4 0.0572855 0.401183 0.0633925
292 2 0.0752104 0.389421 0.0505263
293 4 0.0931352 0.377659 0.03766
621 4 0.00605295 0.397865 0.0126778
837 4 0.0849314 0.363813 0.0237035
915 4 0.103331 0.372436 0.0222171
913 2 0.127164 0.37339 0.014717
914 4 0.150997 0.374344 0.00721694
288 4 0.161187 0.357499 0.00913842
286 2 0.184737 0.358643 0.000814238
250 2 0.276062 0.389032 0.0721808
252 4 0.267231 0.3666 0.0788143
251 4 0.284893 0.411464 0.0655472
957 4 0.337622 0.393481 0.0235437
955 2 0.359139 0.398171 0.0117039
672 4 0.427805 0.385852 0.0395543
670 2 0.429575 0.381401 0.0150139
552 4 0.0557671 0.41983 0.0226801
550 2 0.0571117 0.444734 0.020909
551 4 0.0584562 0.469639 0.0191378
245 4 0.19468 0.463589 0.992813
609 4 0.299081 0.424327 0.0647322
607 2 0.323488 0.42009 0.0681239
523 2 0.324272 0.495696 0.073937
608 4 0.347896 0.415853 0.0715156
525 4 0.33714 0.475916 0.0656682
563 4 0.437999 0.429756 0.0709211
562 2 0.462083 0.426327 0.0767002
564 4 0.486166 0.422899 0.0824792
578 4 0.0815658 0.045474 0.0926552
577 2 0.0959858 0.0262811 0.0856641
1806 4 0.143355 0.00268037 0.142106
566 4 0.189471 0.0755595 0.0984814
235 2 0.0734299 0.164426 0.152183
589 2 0.00170224 0.151625 0.126502
237 4 0.0906826 0.147422 0.145985
477 4 0.103293 0.132205 0.146953
475 2 0.122859 0.128407 0.131854
476 4 0.142424 0.124609 0.116756
565 2 0.179421 0.0904729 0.115853
567 4 0.169371 0.105386 0.133224
629 4 0.344718 0.122854 0.0836818
628 2 0.364106 0.131675 0.0967765
630 4 0.383494 0.140496 0.109871
2468 4 0.502209 0.0858615 0.0953437
591 4 0.00910249 0.17265 0.137833
19 3 0.00442138 0.214652 0.141267
449 4 0.0529212 0.255443 0.114942
236 4 0.0561773 0.181429 0.15838
16 1 0.00819503 0.220102 0.163504
339 4 0.126199 0.20467 0.114606
337 2 0.137155 0.223711 0.126547
338 4 0.148111 0.242752 0.138488
371 4 0.172948 0.213405 0.158208
255 4 0.372358 0.23884 0.137722
462 4 0.38128 0.240642 0.156161
253 2 0.386146 0.23296 0.11771
254 4 0.399935 0.22708 0.0976987
526 2 0.480172 0.224462 0.133549
527 4 0.471476 0.205775 0.147703
528 4 0.488869 0.243149 0.119394
448 2 0.0382487 0.253793 0.135121
18 3 0.00789167 0.24315 0.166172
450 4 0.0235762 0.252144 0.155299
703 2 0.0535372 0.320987 0.138805
704 4 0.0562732 0.303256 0.12139
455 4 0.127435 0.318606 0.0949178
506 4 0.165942 0.250678 0.134732
505 2 0.169208 0.269641 0.118765
507 4 0.172474 0.288604 0.102799
353 4 0.299382 0.254376 0.162818
755 4 0.309207 0.252895 0.145469
754 2 0.310484 0.267258 0.125042
756 4 0.311762 0.28162 0.104615
612 4 0.257455 0.299121 0.130195
610 2 0.262259 0.314723 0.149134
740 4 0.330045 0.291623 0.106913
739 2 0.341677 0.312548 0.114128
622 2 0.401085 0.328622 0.161966
741 4 0.353309 0.333472 0.121343
624 4 0.402534 0.304446 0.16818
519 4 0.475863 0.24876 0.106438
517 2 0.455617 0.258696 0.0956412
597 4 0.502674 0.328273 0.161643
705 4 0.0508012 0.338718 0.156221
417 4 0.091812 0.369584 0.11845
416 4 0.105084 0.38852 0.16279
456 4 0.096815 0.356938 0.104606
454 2 0.112125 0.337772 0.0997621
415 2 0.0984482 0.379052 0.14062
387 4 0.389281 0.388194 0.140969
385 2 0.375619 0.370161 0.130321
386 4 0.361957 0.352129 0.119674
13 3 0.399113 0.395962 0.155394
11 1 0.416275 0.38501 0.166525
623 4 0.399635 0.352797 0.155751
12 3 0.415762 0.362715 0.160883
15 3 0.436366 0.39383 0.160424
494 4 0.429312 0.407684 0.148019
1787 4 0.0228171 0.48199 0.09693
1786 2 0.00253169 0.469803 0.0888585
1440 4 0.163271 0.484554 0.109034
1438 2 0.187 0.480966 0.11605
1439 4 0.210729 0.477378 0.123066
627 4 0.240699 0.441307 0.15439
626 4 0.278974 0.472167 0.145259
625 2 0.259837 0.456737 0.149825
658 2 0.400283 0.48374 0.134338
660 4 0.38379 0.499737 0.1442
659 4 0.416775 0.467742 0.124477
495 4 0.428803 0.456601 0.137647
493 2 0.429057 0.432143 0.142833
1672 2 0.498798 0.450466 0.112963
1674 4 0.496021 0.463778 0.133945
1403 4 0.0918832 0.00750682 0.233872
653 4 0.203977 0.0519852 0.173633
24 3 0.377057 0.0479379 0.181211
23 3 0.359453 0.0700199 0.206645
21 1 0.368817 0.0692147 0.18543
22 3 0.352538 0.0740944 0.169927
479 4 0.464287 0.0662474 0.247101
2484 4 0.0023532 0.143797 0.249127
391 2 0.0879293 0.163084 0.235541
545 4 0.100093 0.105284 0.233987
544 2 0.120976 0.0938978 0.241695
392 4 0.111628 0.157799 0.241508
546 4 0.14186 0.0825116 0.249403
693 4 0.1623 0.0828174 0.245981
691 2 0.170738 0.0929184 0.224722
652 2 0.192954 0.0737223 0.179215
654 4 0.18193 0.0954594 0.184798
692 4 0.179177 0.103019 0.203463
581 4 0.187696 0.115887 0.187682
580 2 0.203083 0.129568 0.201869
582 4 0.218469 0.143249 0.216056
311 4 0.330528 0.16044 0.186716
759 4 0.403986 0.0816493 0.193829
25 3 0.385598 0.0845197 0.183758
757 2 0.411155 0.0884344 0.216802
744 4 0.401026 0.103702 0.246258
29 3 0.33289 0.165251 0.248766
758 4 0.418325 0.0952196 0.239774
393 4 0.0642302 0.168369 0.229574
17 3 0.0288804 0.212171 0.169697
20 3 0.99225 0.210546 0.17666
363 4 0.047082 0.250523 0.221213
361 2 0.0712268 0.250053 0.227693
372 4 0.159967 0.231936 0.202804
370 2 0.166458 0.222671 0.180506
738 4 0.255312 0.185676 0.173692
352 2 0.318445 0.242659 0.173976
737 4 0.300235 0.202969 0.187244
354 4 0.337508 0.230942 0.185134
736 2 0.277774 0.194322 0.180468
310 2 0.331835 0.185351 0.185006
284 4 0.286491 0.218585 0.234313
283 2 0.306601 0.221585 0.219761
285 4 0.326711 0.224586 0.205209
312 4 0.333143 0.210262 0.183296
764 4 0.348581 0.226654 0.203574
460 2 0.366577 0.227697 0.171698
461 4 0.351873 0.214751 0.187235
763 2 0.359386 0.220125 0.225156
765 4 0.370191 0.213596 0.246739
702 4 0.016788 0.260079 0.173462
701 4 0.048045 0.268774 0.211516
700 2 0.0324165 0.264427 0.192489
648 4 0.0570435 0.322694 0.216587
646 2 0.0474551 0.328336 0.194194
362 4 0.0953716 0.249582 0.234173
750 4 0.104299 0.267483 0.241329
748 2 0.101184 0.292144 0.244029
299 4 0.154758 0.337382 0.224534
647 4 0.0378667 0.333978 0.171802
365 4 0.000955834 0.336387 0.224271
611 4 0.267064 0.330324 0.168074
302 4 0.289847 0.401616 0.168262
301 2 0.298399 0.418869 0.184211
14 3 0.413387 0.387012 0.189461
645 4 0.407294 0.386864 0.208474
643 2 0.426905 0.397882 0.219392
110 3 0.460028 0.408566 0.216928
644 4 0.446516 0.408901 0.230309
109 3 0.47209 0.405801 0.181368
106 1 0.476132 0.415131 0.202225
107 3 0.496646 0.407932 0.209743
1757 4 0.0672967 0.479593 0.215236
1756 2 0.0921589 0.47705 0.215999
291 4 0.150682 0.418034 0.207097
1758 4 0.117021 0.474507 0.216762
289 2 0.167234 0.436693 0.205346
639 4 0.234377 0.449475 0.170874
637 2 0.218628 0.45223 0.190098
290 4 0.183786 0.455351 0.203596
638 4 0.202879 0.454985 0.209322
768 4 0.211564 0.440761 0.222422
1437 4 0.224593 0.499019 0.246406
766 2 0.213717 0.421391 0.238085
1435 2 0.203864 0.485041 0.246715
1436 4 0.183135 0.471063 0.247024
303 4 0.30695 0.436122 0.200161
1568 4 0.474464 0.452756 0.214091
108 3 0.47643 0.438278 0.200625
1567 2 0.490923 0.469226 0.223204
529 2 0.00776338 0.0759453 0.292027
511 2 0.0600642 0.0796948 0.278511
512 4 0.0800371 0.069346 0.289428
317 4 0.0607999 0.0417869 0.320545
674 4 0.0830699 0.0528042 0.279816
673 2 0.0868732 0.0322734 0.266061
675 4 0.0906766 0.0117426 0.252306
722 4 0.152932 0.0685487 0.257933
721 2 0.140285 0.049158 0.26738
723 4 0.127638 0.0297673 0.276826
427 2 0.0938459 0.00974624 0.315507
730 2 0.130376 0.0501909 0.332527
732 4 0.147416 0.0666254 0.32448
1464 4 0.185985 0.0488259 0.277387
1462 2 0.185852 0.0250154 0.285017
682 2 0.250824 0.0964206 0.316681
683 4 0.239368 0.0742549 0.315064
1517 4 0.388564 0.012207 0.311756
480 4 0.49121 0.0321104 0.27181
478 2 0.477749 0.0491789 0.259455
513 4 0.0400913 0.0900435 0.267595
531 4 0.0250879 0.0874807 0.278172
2483 4 0.0256792 0.102247 0.2643
2482 2 0.0140162 0.123022 0.256714
605 4 0.156812 0.0845027 0.322953
404 4 0.167891 0.166587 0.259736
598 2 0.157937 0.130334 0.279926
599 4 0.169333 0.146232 0.264352
600 4 0.146541 0.114435 0.295499
249 4 0.177761 0.154247 0.247133
247 2 0.200709 0.162825 0.252133
248 4 0.223656 0.171403 0.257133
474 4 0.19016 0.163234 0.314876
466 2 0.231809 0.14247 0.327395
684 4 0.26228 0.118586 0.318298
468 4 0.256421 0.139288 0.324347
30 3 0.304954 0.144999 0.263836
631 2 0.284762 0.125911 0.286959
632 4 0.295743 0.118646 0.265703
633 4 0.27378 0.133175 0.308215
26 1 0.317921 0.163543 0.266413
27 3 0.329756 0.161841 0.286065
726 4 0.274345 0.131658 0.329738
742 2 0.402965 0.109374 0.270532
743 4 0.404904 0.115045 0.294806
351 4 0.404667 0.131193 0.307794
707 4 0.348433 0.160884 0.293056
349 2 0.423104 0.142663 0.320192
350 4 0.441541 0.154132 0.332589
452 4 0.462435 0.152894 0.331587
389 4 0.0716157 0.236701 0.291272
405 4 0.127352 0.195057 0.266568
403 2 0.147622 0.180822 0.263152
472 2 0.200612 0.184504 0.322846
279 4 0.217574 0.22215 0.286376
277 2 0.221509 0.246643 0.283253
28 3 0.304553 0.182487 0.267323
708 4 0.395186 0.178628 0.292839
706 2 0.37181 0.169756 0.292948
418 2 0.425095 0.225945 0.325924
419 4 0.429006 0.242433 0.307538
442 2 0.0665329 0.321757 0.29057
388 2 0.075311 0.261389 0.292689
444 4 0.0688869 0.299916 0.302511
390 4 0.0790062 0.286078 0.294107
749 4 0.0980682 0.316806 0.246729
278 4 0.225443 0.271137 0.280131
536 4 0.214892 0.287351 0.27138
344 4 0.213843 0.285148 0.293256
535 2 0.233001 0.304325 0.268355
298 2 0.164532 0.33535 0.247457
343 2 0.204793 0.29148 0.315688
537 4 0.251109 0.321299 0.265329
309 4 0.320848 0.278426 0.264659
307 2 0.327668 0.30054 0.274127
308 4 0.334488 0.322654 0.283595
496 2 0.335237 0.329115 0.322048
498 4 0.343276 0.331704 0.298514
729 4 0.345648 0.338413 0.27814
443 4 0.064179 0.343599 0.27863
547 2 0.0395985 0.376717 0.323559
548 4 0.0476623 0.396118 0.310003
602 4 0.0991854 0.41193 0.288977
300 4 0.174307 0.333317 0.270381
734 4 0.178564 0.34792 0.283889
735 4 0.197065 0.342996 0.330086
733 2 0.187814 0.345458 0.306987
436 2 0.230117 0.406513 0.294323
437 4 0.216877 0.405455 0.273139
438 4 0.243358 0.407571 0.315506
767 4 0.21587 0.402021 0.253749
728 4 0.36319 0.365203 0.23973
727 2 0.354419 0.351808 0.258935
542 4 0.41399 0.35627 0.276798
541 2 0.40078 0.373432 0.289294
543 4 0.38757 0.390594 0.301789
615 4 0.373075 0.39878 0.313636
447 4 0.390971 0.407877 0.312738
613 2 0.364129 0.405239 0.336074
603 4 0.0761936 0.426498 0.247026
3717 4 0.0200352 0.489356 0.279757
2462 4 0.0170184 0.471061 0.28545
2463 4 0.0108454 0.421436 0.285436
2461 2 0.0139319 0.446249 0.285443
3959 4 0.0164579 0.485802 0.299347
601 2 0.0876895 0.419214 0.268001
414 4 0.127907 0.45538 0.281816
412 2 0.150172 0.457895 0.27072
776 4 0.110779 0.491315 0.327505
413 4 0.172437 0.46041 0.259624
1557 4 0.18674 0.457243 0.274127
1555 2 0.201362 0.45563 0.294345
1556 4 0.215985 0.454016 0.314563
712 2 0.393484 0.482683 0.294534
713 4 0.395973 0.460824 0.306416
445 2 0.413522 0.417745 0.317125
118 3 0.493659 0.450209 0.325761
446 4 0.436074 0.427612 0.321513
316 2 0.0499571 0.040448 0.343035
318 4 0.0391142 0.0391091 0.365525
429 4 0.0997764 0.0182854 0.338247
1600 2 0.103905 0.00563421 0.38426
731 4 0.113337 0.0337565 0.340573
1602 4 0.103017 0.0295344 0.391552
1700 4 0.165652 0.992545 0.374101
1701 4 0.19433 0.0262816 0.397341
441 4 0.227287 0.0514698 0.394911
439 2 0.220902 0.056229 0.37121
440 4 0.214518 0.0609882 0.347508
1699 2 0.179991 0.00941331 0.385721
1406 4 0.173741 0.993363 0.35615
1516 2 0.377127 0.0257509 0.329389
1427 4 0.374157 0.0553185 0.371744
1669 2 0.341785 0.0245168 0.368869
699 4 0.359363 0.0646149 0.364742
697 2 0.354971 0.0861591 0.352837
1426 2 0.391452 0.0403943 0.381909
1518 4 0.365691 0.0392948 0.347023
1428 4 0.408747 0.0254701 0.392074
1671 4 0.355398 0.0451102 0.364898
1580 4 0.455348 0.0270695 0.40995
399 4 0.110503 0.109629 0.368084
398 4 0.106818 0.154135 0.390585
397 2 0.10866 0.131882 0.379335
467 4 0.207197 0.145653 0.330442
687 4 0.171091 0.154584 0.403647
606 4 0.186489 0.109468 0.354525
604 2 0.171651 0.0969855 0.338739
725 4 0.297024 0.106594 0.366591
724 2 0.285685 0.119126 0.348165
698 4 0.35058 0.107703 0.340932
257 4 0.406074 0.0971657 0.399618
256 2 0.387146 0.0916268 0.414986
516 4 0.414274 0.115612 0.400764
514 2 0.437875 0.119591 0.393527
515 4 0.461475 0.12357 0.386289
451 2 0.465255 0.146828 0.355679
453 4 0.468076 0.140763 0.379771
473 4 0.211064 0.205775 0.330815
276 4 0.228343 0.202553 0.340446
274 2 0.241474 0.21575 0.357137
275 4 0.254606 0.228947 0.373828
375 4 0.250532 0.248039 0.377477
306 4 0.432561 0.202082 0.359678
304 2 0.455101 0.206409 0.369599
305 4 0.47764 0.210736 0.37952
420 4 0.421183 0.209458 0.34431
270 4 0.494135 0.223937 0.381386
268 2 0.491043 0.248044 0.375514
2655 4 0.00226226 0.264328 0.391153
617 4 0.0318381 0.310794 0.38724
616 2 0.0545557 0.319159 0.380985
618 4 0.0772733 0.327523 0.374729
2849 4 0.00431571 0.283823 0.391585
677 4 0.131848 0.313726 0.359507
676 2 0.155904 0.307791 0.356151
401 4 0.201597 0.286079 0.407943
345 4 0.195744 0.297811 0.33812
678 4 0.17996 0.301857 0.352795
400 2 0.200633 0.293207 0.383996
402 4 0.199668 0.300335 0.36005
510 4 0.253175 0.297623 0.413558
508 2 0.255029 0.315287 0.395959
373 2 0.248116 0.263028 0.397343
497 4 0.327198 0.326526 0.345582
489 4 0.309774 0.292009 0.397987
487 2 0.3209 0.270804 0.405179
509 4 0.256884 0.332951 0.37836
488 4 0.332025 0.249598 0.412371
435 4 0.338167 0.324986 0.362818
269 4 0.48795 0.272151 0.369643
549 4 0.0315347 0.357316 0.337115
2927 4 0.0177599 0.346337 0.345425
681 4 0.0248558 0.36122 0.356868
679 2 0.018428 0.360726 0.381026
680 4 0.0120002 0.360233 0.405184
408 4 0.0886249 0.383327 0.346443
407 4 0.0930389 0.341178 0.372989
406 2 0.0908319 0.362252 0.359716
669 4 0.242539 0.412836 0.411664
667 2 0.248001 0.393309 0.397034
377 4 0.307337 0.331727 0.34182
376 2 0.285546 0.338527 0.352023
378 4 0.263755 0.345327 0.362227
668 4 0.253464 0.373781 0.382405
433 2 0.351699 0.340448 0.377065
434 4 0.365232 0.355911 0.391311
614 4 0.355184 0.411698 0.358511
751 2 0.450041 0.395595 0.419959
753 4 0.436901 0.398535 0.398891
587 4 0.42708 0.401037 0.381757
777 4 0.0653744 0.493279 0.348369
499 2 0.143921 0.477201 0.349393
500 4 0.16296 0.463479 0.358021
501 4 0.124883 0.490922 0.340766
775 2 0.0880767 0.492297 0.337937
636 4 0.223798 0.413567 0.417967
5 3 0.338377 0.488755 0.412492
592 2 0.40384 0.472168 0.355818
1716 4 0.350881 0.49315 0.395765
1714 2 0.365208 0.472913 0.392543
1715 4 0.379536 0.452677 0.38932
593 4 0.394416 0.457657 0.373868
588 4 0.395505 0.439783 0.383323
586 2 0.411292 0.42041 0.38254
3989 4 0.499397 0.431681 0.381964
117 3 0.493187 0.474405 0.354518
120 3 0.465671 0.449447 0.350936
116 1 0.487997 0.452935 0.348097
3602 4 0.493243 0.498947 0.382884
368 4 0.0743679 0.0584291 0.458434
369 4 0.114361 0.0760917 0.434158
367 2 0.0943645 0.0672604 0.446296
938 4 0.127747 0.0744879 0.505589
1817 4 0.271368 0.018588 0.486493
1816 2 0.254737 0.00741595 0.471534
961 2 0.303567 0.0728169 0.484373
424 2 0.367579 0.0672704 0.464475
425 4 0.359795 0.0492978 0.480018
426 4 0.375363 0.0852429 0.448932
258 4 0.368217 0.0860878 0.430355
3488 4 0.486966 0.023638 0.484405
1061 4 0.472342 0.0353224 0.475547
1579 2 0.438454 0.0437005 0.417898
1581 4 0.421559 0.0603316 0.425846
1060 2 0.455967 0.0190583 0.465928
1062 4 0.439592 0.00279409 0.45631
720 4 0.00328601 0.0949283 0.430447
458 4 0.0349964 0.141293 0.465841
718 2 0.0173573 0.109237 0.445361
719 4 0.0314286 0.123546 0.460276
457 2 0.0413272 0.164973 0.460905
685 2 0.171287 0.145924 0.427102
686 4 0.171483 0.137263 0.450557
1152 4 0.187307 0.12918 0.460403
1150 2 0.191585 0.132716 0.484783
963 4 0.295961 0.0901188 0.468003
432 4 0.307356 0.102987 0.458683
321 4 0.264493 0.132028 0.440683
319 2 0.272532 0.145011 0.460482
320 4 0.28057 0.157994 0.480281
430 2 0.328004 0.107634 0.44537
431 4 0.348652 0.112281 0.432056
459 4 0.0476581 0.188653 0.455969
259 2 0.11951 0.184839 0.463719
261 4 0.139577 0.19723 0.472023
1035 4 0.152816 0.210654 0.465551
260 4 0.099442 0.172449 0.455415
1033 2 0.168924 0.220244 0.482096
1034 4 0.185032 0.229833 0.498641
411 4 0.279904 0.176759 0.486782
715 2 0.326447 0.22309 0.444519
716 4 0.331689 0.204504 0.460402
717 4 0.321205 0.241676 0.428637
575 4 0.38962 0.227163 0.474044
574 2 0.373184 0.208497 0.471478
576 4 0.356747 0.18983 0.468913
266 4 0.387363 0.243552 0.46349
348 4 0.0143681 0.272832 0.405747
347 4 0.0321269 0.266655 0.452085
346 2 0.0232475 0.269743 0.428916
327 4 0.132054 0.323871 0.496531
374 4 0.245699 0.278017 0.417209
650 4 0.256789 0.288521 0.431447
651 4 0.301394 0.302716 0.449044
649 2 0.279091 0.295619 0.440245
265 2 0.408417 0.253818 0.472238
560 4 0.445606 0.329077 0.456095
267 4 0.429471 0.264083 0.480986
585 4 0.478603 0.288472 0.490862
872 4 0.427138 0.271515 0.499119
584 4 0.443929 0.310904 0.462662
583 2 0.461266 0.299688 0.476762
503 4 0.206928 0.342306 0.418226
502 2 0.218536 0.357964 0.433887
504 4 0.230143 0.373621 0.449549
773 4 0.233192 0.390124 0.460065
772 2 0.233799 0.385934 0.484708
335 4 0.326518 0.410172 0.464818
336 4 0.323429 0.382715 0.423138
334 2 0.324973 0.396443 0.443978
238 2 0.351572 0.411427 0.499524
240 4 0.34268 0.413455 0.476242
925 2 0.460145 0.407908 0.473861
926 4 0.471177 0.391914 0.458124
559 2 0.454631 0.35232 0.454228
752 4 0.463182 0.392655 0.441027
561 4 0.463656 0.375563 0.45236
635 4 0.181614 0.427872 0.440696
570 4 0.188421 0.48532 0.431281
634 2 0.202706 0.42072 0.429331
1 1 0.332493 0.490572 0.434418
3 3 0.337257 0.470784 0.445559
927 4 0.449112 0.423903 0.489597
1126 2 0.0781241 0.012878 0.523292
1128 4 0.0819576 0.03743 0.526064
937 2 0.110468 0.063495 0.519934
939 4 0.0931891 0.0525021 0.534279
2428 2 0.16284 0.0174994 0.570164
2429 4 0.140178 0.0115659 0.561425
1059 4 0.0907456 0.0273467 0.582006
2430 4 0.185503 0.0234329 0.578904
1182 4 0.225136 0.0821247 0.554774
1031 4 0.21181 0.0850893 0.569456
962 4 0.311172 0.055515 0.500743
640 2 0.458038 0.0709366 0.509401
641 4 0.43437 0.0789599 0.508621
642 4 0.481707 0.0629133 0.510181
1154 4 0.123015 0.154674 0.579599
1271 4 0.114677 0.163192 0.563496
1180 2 0.236845 0.0879841 0.533472
1151 4 0.195863 0.136252 0.509162
1181 4 0.248553 0.0938434 0.512171
877 2 0.0301456 0.179558 0.538601
1272 4 0.0727339 0.186737 0.549817
879 4 0.0530977 0.184863 0.546982
878 4 0.00719347 0.174253 0.53022
1270 2 0.0937055 0.174965 0.556657
1220 4 0.206487 0.197466 0.54338
1219 2 0.225183 0.213562 0.547449
1221 4 0.243879 0.229658 0.551518
695 4 0.176481 0.240157 0.513658
410 4 0.312615 0.181573 0.524298
409 2 0.296259 0.179166 0.50554
1136 4 0.0821561 0.309233 0.531375
1135 2 0.0778822 0.321324 0.552839
325 2 0.150383 0.314251 0.510556
326 4 0.168712 0.304632 0.524581
9 3 0.177262 0.32062 0.53329
6 1 0.191613 0.309808 0.547972
8 3 0.191855 0.287043 0.543488
10 3 0.212634 0.318342 0.545991
7 3 0.184104 0.313073 0.569469
696 4 0.177851 0.287374 0.530074
694 2 0.177166 0.263766 0.521866
1259 4 0.202704 0.319662 0.576586
711 4 0.224902 0.31943 0.529912
791 4 0.29832 0.253454 0.522244
790 2 0.320051 0.261491 0.531643
804 4 0.319228 0.306761 0.568139
802 2 0.303253 0.298895 0.585692
792 4 0.341783 0.269527 0.541041
812 4 0.346799 0.289326 0.545964
811 2 0.370503 0.29715 0.544522
813 4 0.394207 0.304974 0.54308
873 4 0.411493 0.303999 0.53377
871 2 0.419316 0.287757 0.516445
935 4 0.013972 0.36528 0.579962
897 4 0.150393 0.392634 0.54579
895 2 0.133143 0.393599 0.563864
896 4 0.115893 0.394563 0.581939
384 4 0.0765018 0.403335 0.503744
1160 4 0.166262 0.404786 0.54621
709 2 0.228053 0.341036 0.517729
1159 2 0.190021 0.411028 0.541549
774 4 0.234406 0.381745 0.509351
710 4 0.231204 0.362642 0.505546
239 4 0.360463 0.409399 0.522805
383 4 0.071973 0.452967 0.507847
382 2 0.0742374 0.428151 0.505795
1161 4 0.21378 0.417271 0.536888
1171 2 0.240621 0.438641 0.559762
1173 4 0.225225 0.419887 0.553728
1172 4 0.256017 0.457396 0.565796
882 4 0.338608 0.451328 0.50856
1951 2 0.338479 0.495019 0.5678
1187 4 0.259473 0.499765 0.510432
929 4 0.343556 0.41871 0.558436
880 2 0.358695 0.462611 0.518275
1000 2 0.402008 0.453958 0.552313
1001 4 0.382701 0.456016 0.536559
881 4 0.378782 0.473894 0.527991
928 2 0.347133 0.439443 0.571945
1953 4 0.349173 0.479073 0.583817
1002 4 0.421315 0.451901 0.568067
661 2 0.456851 0.478535 0.519417
663 4 0.433203 0.479549 0.527473
662 4 0.4805 0.477521 0.511361
4085 4 0.495705 0.482947 0.498196
1267 2 0.455741 0.462726 0.577693
1268 4 0.459154 0.487449 0.579216
2318 4 0.0702614 0.00344066 0.614414
2317 2 0.0484655 0.0109961 0.62406
2319 4 0.0266697 0.0185514 0.633705
1058 4 0.105953 0.0277308 0.629643
1057 2 0.0983492 0.0275388 0.605824
944 4 0.0971496 0.041599 0.63998
824 4 0.133562 0.0291334 0.656461
823 2 0.142246 0.00568749 0.656238
943 2 0.105758 0.0519192 0.661065
951 4 0.292219 0.0175467 0.651642
949 2 0.279477 0.0355473 0.663423
1092 4 0.310861 0.0168616 0.64336
1090 2 0.335842 0.015805 0.643397
1091 4 0.360824 0.0147483 0.643434
2283 4 0.377951 0.0158925 0.65314
2281 2 0.396639 0.00953035 0.637796
3007 2 0.494428 0.0732643 0.615268
1082 4 0.0649169 0.158712 0.658053
1153 2 0.126596 0.13931 0.598998
1155 4 0.130177 0.123947 0.618396
1081 2 0.0811953 0.140341 0.662818
1083 4 0.0974736 0.12197 0.667582
1032 4 0.220276 0.0903511 0.618459
1030 2 0.216043 0.0877202 0.593958
1282 2 0.236476 0.123132 0.632347
1283 4 0.227806 0.108862 0.613736
1211 4 0.25363 0.15349 0.64129
1284 4 0.245147 0.137401 0.650958
900 4 0.325146 0.135924 0.619496
898 2 0.328811 0.160599 0.617794
3009 4 0.485344 0.0908802 0.63051
809 4 0.466552 0.0948894 0.629355
808 2 0.458814 0.0975846 0.652978
1244 4 0.000933732 0.235213 0.655463
1209 4 0.0661645 0.235607 0.664564
1210 2 0.256837 0.178168 0.643725
1212 4 0.260045 0.202845 0.646159
888 4 0.312686 0.239714 0.621915
886 2 0.333074 0.225356 0.62375
899 4 0.332476 0.185273 0.616092
1193 4 0.39495 0.186258 0.591995
1194 4 0.353188 0.192282 0.618834
1192 2 0.374069 0.18927 0.605414
830 4 0.351787 0.192508 0.63724
887 4 0.353462 0.210999 0.625585
829 2 0.36018 0.184818 0.659502
1025 4 0.444696 0.20057 0.625886
1024 2 0.465892 0.212957 0.621144
1026 4 0.487088 0.225344 0.616402
906 4 0.497552 0.241172 0.609534
983 4 0.0034028 0.318016 0.640853
1137 4 0.0736084 0.333416 0.574304
1041 4 0.059653 0.335172 0.603665
857 4 0.220501 0.258797 0.650246
856 2 0.209456 0.280454 0.6444
1258 2 0.196985 0.317557 0.600836
858 4 0.198412 0.30211 0.638553
1260 4 0.191267 0.315452 0.625086
797 4 0.20708 0.319901 0.636484
796 2 0.225688 0.33172 0.648284
803 4 0.287278 0.291029 0.603245
1239 4 0.282138 0.275411 0.614621
1237 2 0.293111 0.279446 0.636722
1238 4 0.304084 0.283482 0.658824
952 2 0.485551 0.283736 0.606949
953 4 0.478192 0.307632 0.606839
954 4 0.492909 0.25984 0.60706
1039 2 0.0385802 0.333223 0.616981
1040 4 0.0175074 0.331274 0.630297
3274 2 0.00901559 0.362294 0.649593
3275 4 0.00210962 0.338673 0.645173
3276 4 0.0159216 0.385915 0.654014
993 4 0.0837459 0.336119 0.592725
991 2 0.104288 0.342435 0.605505
992 4 0.124829 0.348751 0.618285
1190 4 0.193933 0.405788 0.587651
1065 4 0.265592 0.345884 0.666489
1189 2 0.203182 0.42039 0.605718
1191 4 0.21243 0.434992 0.623785
891 4 0.312518 0.454187 0.632831
889 2 0.331724 0.461123 0.618403
890 4 0.350931 0.46806 0.603974
930 4 0.350711 0.460177 0.585455
1269 4 0.452328 0.438004 0.57617
4149 4 0.457659 0.50263 0.591359
1185 4 0.059523 0.00846932 0.673653
945 4 0.114367 0.0622394 0.68215
950 4 0.266735 0.0535479 0.675204
1004 4 0.307188 0.0732925 0.697313
1003 2 0.32971 0.0624427 0.696856
1005 4 0.352233 0.0515929 0.696398
43 3 0.411107 0.068795 0.699578
846 4 0.444008 0.0720585 0.734304
42 3 0.445737 0.0696471 0.714163
2321 4 0.483135 0.0174371 0.719773
2320 2 0.472646 0.00667787 0.739758
844 2 0.462215 0.0597215 0.746198
1163 4 0.478904 0.0318597 0.705107
1162 2 0.49407 0.0512991 0.700953
41 1 0.428431 0.0826515 0.706383
850 2 0.0593257 0.111102 0.717126
1075 2 0.995998 0.0922111 0.721431
851 4 0.0392135 0.102003 0.728868
1107 4 0.0278042 0.122228 0.747542
852 4 0.0794378 0.120202 0.705384
909 4 0.115809 0.121134 0.677414
907 2 0.138699 0.118713 0.687179
908 4 0.161589 0.116291 0.696945
1227 4 0.172007 0.130875 0.706587
1225 2 0.188771 0.123303 0.723523
1226 4 0.205534 0.115732 0.740459
1142 4 0.409634 0.112381 0.724122
1141 2 0.410547 0.135493 0.733621
1143 4 0.411459 0.158604 0.743119
44 3 0.421203 0.0965449 0.723504
810 4 0.451077 0.10028 0.676601
45 3 0.43575 0.0951442 0.688804
1243 2 0.00636553 0.251677 0.67348
1207 2 0.0886589 0.246491 0.663719
1073 4 0.107912 0.241617 0.749284
976 2 0.223966 0.239026 0.743666
977 4 0.243595 0.231112 0.730353
918 4 0.263616 0.227276 0.726304
916 2 0.287701 0.233485 0.723748
917 4 0.311786 0.239694 0.721192
1298 4 0.39111 0.160928 0.744403
831 4 0.368573 0.177128 0.681764
1263 4 0.44801 0.19716 0.689248
1261 2 0.452128 0.217272 0.703521
1262 4 0.456247 0.237384 0.717794
1177 2 0.00130585 0.306915 0.691302
1245 4 0.0117973 0.268141 0.691496
1179 4 0.0110713 0.285937 0.700775
892 2 0.0782613 0.305895 0.707477
894 4 0.0559722 0.313855 0.699414
1208 4 0.111153 0.257376 0.662875
893 4 0.10055 0.297935 0.71554
1074 4 0.092831 0.286202 0.732388
1072 2 0.100371 0.263909 0.740836
947 4 0.13057 0.30943 0.714438
946 2 0.141573 0.319192 0.734657
798 4 0.244296 0.343538 0.660084
806 4 0.314032 0.288892 0.675721
805 2 0.338281 0.292667 0.680506
1006 2 0.383986 0.330231 0.680806
1008 4 0.370045 0.313523 0.693122
807 4 0.36253 0.296443 0.685292
1166 4 0.447561 0.309253 0.737185
3123 4 0.483433 0.253138 0.701534
3122 4 0.457624 0.293995 0.688677
3121 2 0.470529 0.273567 0.695105
815 4 0.0978439 0.376673 0.742024
1067 4 0.163269 0.376185 0.714422
940 2 0.132764 0.371373 0.71794
941 4 0.150463 0.368226 0.700561
942 4 0.115065 0.374519 0.735319
1028 4 0.203065 0.393185 0.678685
1066 2 0.182434 0.374055 0.698506
1068 4 0.2016 0.371924 0.68259
1027 2 0.22778 0.396973 0.678737
1029 4 0.252495 0.400761 0.678789
1063 2 0.287926 0.34882 0.67734
1064 4 0.31026 0.351755 0.688192
1007 4 0.397926 0.346939 0.66849
1206 4 0.430581 0.373657 0.672021
1099 2 0.485973 0.391401 0.737954
1205 4 0.459172 0.376173 0.712972
1101 4 0.471286 0.373841 0.727898
1204 2 0.444876 0.374915 0.692497
1019 4 0.440524 0.361931 0.743651
1280 4 0.0539967 0.44183 0.700812
1281 4 0.0804558 0.457262 0.74034
1279 2 0.0672263 0.449546 0.720576
1078 2 0.15396 0.466864 0.745548
1080 4 0.17235 0.453003 0.735808
1175 4 0.231065 0.434836 0.681682
1174 2 0.226806 0.459115 0.677493
1176 4 0.222547 0.483395 0.673305
2028 4 0.207255 0.479936 0.737297
1228 2 0.374467 0.456323 0.725976
1230 4 0.356091 0.441427 0.717877
1229 4 0.392844 0.471219 0.734075
1249 2 0.471598 0.478179 0.740556
1250 4 0.464029 0.493962 0.722702
2991 4 0.00639831 0.0596548 0.760758
1202 4 0.122346 0.0793173 0.819113
911 4 0.105659 0.0132518 0.829063
838 2 0.251445 0.0845827 0.820403
839 4 0.257463 0.0633448 0.808659
1255 2 0.285038 0.0400997 0.807255
1256 4 0.276874 0.0636933 0.808621
1257 4 0.293202 0.0165062 0.805888
975 4 0.293149 0.00809149 0.82429
1112 4 0.4622 0.0168973 0.825596
845 4 0.480422 0.0473845 0.758093
1111 2 0.464019 0.00776395 0.802391
1077 4 0.018967 0.0946041 0.731017
864 4 0.0313568 0.100777 0.747139
1105 2 0.0229715 0.142555 0.761276
862 2 0.0466832 0.0939727 0.765685
863 4 0.0620096 0.0871681 0.784232
1106 4 0.0181388 0.162883 0.77501
1201 2 0.101549 0.0818006 0.805456
1203 4 0.0807529 0.0842839 0.791798
35 3 0.111934 0.141015 0.831827
840 4 0.245427 0.105821 0.832147
1148 4 0.205604 0.101456 0.754996
1149 4 0.210369 0.133675 0.792943
1147 2 0.207987 0.117565 0.773969
960 4 0.321516 0.131892 0.777656
958 2 0.296968 0.136308 0.779415
959 4 0.272421 0.140724 0.781173
1086 4 0.37067 0.119923 0.802255
1084 2 0.380977 0.106189 0.82043
3270 4 0.476304 0.159142 0.75478
3268 2 0.49073 0.140514 0.76315
3479 4 0.493694 0.115368 0.785796