ITEM: TIMESTEP
2070000
ITEM: NUMBER OF ATOMS
4590
ITEM: BOX BOUNDS pp pp pp
-9.9985700000000008e+00 9.9985700000000008e+00
-9.9985700000000008e+00 9.9985700000000008e+00
-9.9985700000000008e+00 9.9985700000000008e+00
ITEM: ATOMS id type xs ys zs
463 2 0.0082269 0.0339918 0.0651383
464 4 0.0207671 0.0549294 0.0597033
1248 4 0.0252186 0.0744612 0.000304111
3233 4 0.0663513 0.0199425 0.00356512
1246 2 0.00196528 0.072609 0.00930595
486 4 0.289473 0.00833843 0.0078958
484 2 0.312459 0.0119059 0.0170658
492 4 0.270803 0.00381358 0.00403773
485 4 0.335445 0.0154733 0.0262359
1607 4 0.354601 0.0138105 0.0241105
2724 4 0.408885 0.0480256 0.0536109
2722 2 0.426592 0.0382461 0.0389137
2723 4 0.444299 0.0284666 0.0242165
2469 4 0.451698 0.0229693 0.00643635
1759 2 0.473535 0.0122778 0.0458954
1760 4 0.462246 0.0195043 0.0247885
1761 4 0.484825 0.00505131 0.0670024
360 4 0.233485 0.108896 0.0210106
358 2 0.249294 0.12698 0.027954
359 4 0.265103 0.145064 0.0348975
664 2 0.364561 0.11869 0.0489508
666 4 0.372135 0.128775 0.0273607
866 4 0.362828 0.14246 0.0172433
665 4 0.356988 0.108606 0.0705409
770 4 0.456078 0.145701 0.0692485
769 2 0.468382 0.16278 0.0827424
1827 4 0.438909 0.0873221 0.003435
1233 4 0.0607522 0.242796 0.00334512
2624 4 0.00249012 0.168655 0.0244571
555 4 0.101601 0.230385 0.00735732
507 4 0.170487 0.212336 0.0422067
505 2 0.169852 0.231665 0.0580542
1232 4 0.0429294 0.285111 0.0231583
1231 2 0.0518408 0.263953 0.0132517
287 4 0.132875 0.32798 0.0101641
355 2 0.153436 0.30626 0.00103493
506 4 0.169217 0.250995 0.0739017
356 4 0.173572 0.295246 0.0109537
755 4 0.263113 0.318782 0.0256123
754 2 0.275342 0.3095 0.0453473
756 4 0.287572 0.300219 0.0650823
740 4 0.296636 0.314641 0.0759556
1070 4 0.32683 0.322106 0.00896703
739 2 0.31527 0.329715 0.0830786
1304 4 0.45722 0.309053 0.0241755
1303 2 0.450329 0.304745 0.0478215
1306 2 0.43741 0.262796 0.00306079
1308 4 0.438588 0.272193 0.0262014
1305 4 0.443439 0.300436 0.0714675
621 4 0.0271987 0.393123 0.0212722
2787 4 0.0121381 0.397782 0.0326186
2785 2 0.0230841 0.391693 0.0542585
2786 4 0.0340301 0.385603 0.0758983
835 2 0.0717573 0.361724 0.0772031
836 4 0.0818055 0.345149 0.0614085
286 2 0.125505 0.345546 0.0263593
288 4 0.118136 0.363113 0.0425545
913 2 0.116094 0.40542 0.0364711
914 4 0.127161 0.383165 0.0391895
1094 4 0.438213 0.354346 0.0462754
1095 4 0.464313 0.394953 0.033214
2841 4 0.467246 0.414344 0.0367727
1093 2 0.451263 0.37465 0.0397447
102 3 0.460209 0.392004 0.0811433
101 1 0.478015 0.405435 0.0755106
104 3 0.496825 0.39215 0.072662
915 4 0.105028 0.427676 0.0337526
293 4 0.0991258 0.452365 0.0466292
292 2 0.103815 0.476843 0.0446278
1440 4 0.163555 0.488017 0.0796277
64 3 0.246529 0.483217 0.0458895
626 4 0.237788 0.492874 0.063149
242 4 0.212522 0.438819 0.0830417
903 4 0.272771 0.432435 0.0331813
901 2 0.287911 0.451917 0.0291278
902 4 0.303051 0.471398 0.0250743
1289 4 0.321545 0.475853 0.0197858
62 3 0.277325 0.498183 0.0303876
1288 2 0.320083 0.496998 0.00652164
252 4 0.335451 0.470499 0.0330062
609 4 0.352832 0.420452 0.0756505
251 4 0.353143 0.432581 0.0603903
250 2 0.344297 0.45154 0.0466983
105 3 0.473274 0.416446 0.0561479
2839 2 0.447863 0.429619 0.0327549
2840 4 0.42848 0.444895 0.0287371
1046 4 0.4918 0.421265 0.0517448
2480 4 0.0116029 0.0201188 0.13074
379 2 0.0132464 0.0669337 0.147994
380 4 0.0224274 0.0495412 0.163434
579 4 0.154162 0.00446544 0.121618
577 2 0.163088 0.0259233 0.112396
1806 4 0.138979 0.999189 0.134157
578 4 0.172015 0.0473811 0.103173
423 4 0.167339 0.0664904 0.0975101
421 2 0.188629 0.0794292 0.0953925
652 2 0.220521 0.0454201 0.164087
653 4 0.24079 0.0590786 0.158815
24 3 0.381583 0.0357279 0.137491
21 1 0.374033 0.0561619 0.145482
22 3 0.371472 0.0705931 0.127753
23 3 0.35352 0.0534696 0.155987
25 3 0.389171 0.0648588 0.160107
297 4 0.476505 0.0598429 0.123615
295 2 0.464679 0.0801026 0.132267
381 4 0.0040654 0.0843263 0.132555
236 4 0.102896 0.110436 0.136998
235 2 0.105744 0.133303 0.127294
237 4 0.108592 0.15617 0.11759
477 4 0.127499 0.166379 0.116107
422 4 0.20992 0.0923679 0.0932749
532 2 0.231347 0.108759 0.11247
534 4 0.226959 0.086933 0.101087
533 4 0.235734 0.130585 0.123852
557 4 0.399456 0.123936 0.107985
296 4 0.452853 0.100362 0.14092
629 4 0.439306 0.108836 0.152429
556 2 0.420805 0.120404 0.120511
558 4 0.442155 0.116873 0.133037
476 4 0.109085 0.212634 0.120816
475 2 0.118292 0.189506 0.118462
738 4 0.157215 0.229835 0.165934
353 4 0.267781 0.222726 0.0928759
311 4 0.26499 0.202006 0.0898299
310 2 0.26545 0.19805 0.114514
312 4 0.265911 0.194094 0.139199
461 4 0.273441 0.212735 0.146598
460 2 0.285386 0.234694 0.14715
352 2 0.268638 0.24771 0.092362
2519 4 0.4983 0.187658 0.0990475
519 4 0.487114 0.23238 0.108395
528 4 0.494652 0.232885 0.126425
517 2 0.463193 0.229519 0.115087
518 4 0.439272 0.226658 0.121779
771 4 0.480686 0.17986 0.0962362
648 4 0.0637008 0.293341 0.134462
646 2 0.0848929 0.305723 0.129691
338 4 0.153572 0.296303 0.0963512
647 4 0.106085 0.318105 0.12492
337 2 0.14054 0.294814 0.117638
339 4 0.127508 0.293325 0.138925
705 4 0.114119 0.331896 0.137844
284 4 0.187562 0.287403 0.164075
283 2 0.20085 0.280628 0.144008
285 4 0.214139 0.273852 0.123941
255 4 0.316679 0.253086 0.153953
462 4 0.297331 0.256652 0.147701
354 4 0.269495 0.272693 0.0918482
764 4 0.262247 0.280583 0.109226
763 2 0.274564 0.294316 0.126105
765 4 0.286882 0.308049 0.142983
612 4 0.307621 0.309364 0.145991
610 2 0.309696 0.327369 0.163216
324 4 0.313411 0.26658 0.138653
322 2 0.328515 0.281243 0.12516
323 4 0.343619 0.295906 0.111667
624 4 0.396436 0.312744 0.132945
596 4 0.491945 0.286094 0.142972
837 4 0.061709 0.3783 0.0929976
314 4 0.044981 0.390385 0.0913342
313 2 0.0329799 0.386983 0.113004
315 4 0.0209789 0.383581 0.134674
1757 4 0.0329385 0.395251 0.148472
1756 2 0.0539922 0.403103 0.159438
703 2 0.131704 0.33761 0.154676
456 4 0.15994 0.357538 0.160093
454 2 0.184712 0.359794 0.157561
455 4 0.209485 0.36205 0.155029
622 2 0.405496 0.333575 0.143392
741 4 0.333904 0.344789 0.0902016
386 4 0.352313 0.353795 0.0879347
387 4 0.370159 0.374786 0.129667
385 2 0.361236 0.36429 0.108801
13 3 0.363318 0.373666 0.147647
11 1 0.383062 0.380128 0.157983
15 3 0.392772 0.39708 0.146278
12 3 0.397388 0.36214 0.158558
623 4 0.414557 0.354407 0.153839
494 4 0.400829 0.414905 0.138862
956 4 0.499397 0.411038 0.0981168
243 4 0.179269 0.475879 0.0876821
241 2 0.195895 0.457349 0.0853619
627 4 0.239869 0.498679 0.112774
625 2 0.238828 0.495777 0.0879617
608 4 0.32264 0.433406 0.113351
525 4 0.335089 0.459451 0.145773
523 2 0.334494 0.484267 0.148777
607 2 0.337736 0.426929 0.0945009
659 4 0.380852 0.472062 0.152145
495 4 0.380649 0.460612 0.13677
493 2 0.390739 0.437758 0.137816
658 2 0.392648 0.491192 0.163103
103 3 0.48161 0.420692 0.0926191
513 4 0.0359627 0.0708046 0.228799
511 2 0.0462669 0.0532631 0.243335
582 4 0.151639 0.0718005 0.16779
567 4 0.136449 0.0841043 0.166269
675 4 0.24334 0.00252142 0.205208
654 4 0.200253 0.0317616 0.16936
581 4 0.182749 0.0340216 0.178069
580 2 0.167194 0.0529111 0.172929
673 2 0.246368 0.00526517 0.229876
759 4 0.389875 0.056244 0.178902
757 2 0.393639 0.071877 0.198049
529 2 0.00212808 0.0835258 0.225413
531 4 0.0250075 0.0877269 0.234582
566 4 0.161426 0.121971 0.187315
565 2 0.148938 0.103038 0.176792
391 2 0.165286 0.163114 0.243497
599 4 0.198213 0.134579 0.230239
598 2 0.189031 0.125784 0.208709
600 4 0.179848 0.116989 0.18718
29 3 0.266835 0.163058 0.219701
758 4 0.397403 0.08751 0.217196
744 4 0.381113 0.0942173 0.225962
742 2 0.373399 0.0913387 0.249571
630 4 0.418788 0.114011 0.197738
2895 4 0.474547 0.114079 0.182014
628 2 0.429047 0.111423 0.175083
2893 2 0.497245 0.109301 0.172679
393 4 0.146986 0.175398 0.231692
26 1 0.282268 0.178415 0.227726
30 3 0.275108 0.199601 0.223419
28 3 0.302911 0.174853 0.217748
253 2 0.332073 0.243798 0.17133
309 4 0.379746 0.187616 0.21412
307 2 0.390149 0.209198 0.221275
254 4 0.347467 0.23451 0.188706
729 4 0.412667 0.239105 0.213759
308 4 0.400552 0.230779 0.228429
728 4 0.430117 0.236495 0.166967
727 2 0.421392 0.2378 0.190363
332 4 0.479562 0.185719 0.24166
331 2 0.491827 0.207294 0.244702
363 4 0.0463957 0.271478 0.218483
361 2 0.0643189 0.284296 0.206666
362 4 0.0822422 0.297114 0.194849
748 2 0.110623 0.322804 0.216815
750 4 0.0928625 0.309918 0.204828
371 4 0.167746 0.307839 0.227505
736 2 0.164964 0.253253 0.170025
737 4 0.172713 0.276671 0.174116
372 4 0.177195 0.297361 0.17953
370 2 0.172471 0.3026 0.203517
496 2 0.411173 0.279692 0.222369
497 4 0.405417 0.30376 0.218796
498 4 0.416928 0.255623 0.225943
595 2 0.48921 0.293114 0.166813
597 4 0.486475 0.300133 0.190655
1758 4 0.0750459 0.410954 0.170405
749 4 0.128383 0.33569 0.228803
704 4 0.149288 0.343325 0.171508
417 4 0.150838 0.364415 0.178892
415 2 0.150585 0.38117 0.19745
299 4 0.138204 0.333823 0.246928
416 4 0.150333 0.397925 0.216007
602 4 0.139874 0.415789 0.224576
290 4 0.152149 0.402402 0.238565
611 4 0.311771 0.345375 0.180441
302 4 0.295554 0.354134 0.186886
301 2 0.310915 0.369328 0.199471
303 4 0.326275 0.384521 0.212056
14 3 0.378746 0.386979 0.179728
645 4 0.389727 0.404678 0.184224
643 2 0.411903 0.408456 0.19514
107 3 0.459232 0.414737 0.235054
644 4 0.434078 0.412234 0.206056
3715 2 0.010478 0.488579 0.207913
3716 4 0.0100231 0.473331 0.188103
603 4 0.0925242 0.43058 0.21826
601 2 0.116199 0.423184 0.221418
638 4 0.157448 0.419539 0.23133
637 2 0.165731 0.439915 0.219439
639 4 0.174014 0.460291 0.207548
109 3 0.483661 0.429397 0.210539
110 3 0.447201 0.426293 0.201668
106 1 0.461908 0.430521 0.218535
108 3 0.457841 0.45153 0.227505
2478 4 0.0181621 0.0104178 0.315029
2477 4 0.053474 0.0433275 0.301962
512 4 0.0565711 0.0357217 0.257871
2738 4 0.0578672 0.0630469 0.29847
2676 4 0.0358665 0.061776 0.300116
2476 2 0.035818 0.0268727 0.308495
2674 2 0.0167028 0.0778051 0.299116
544 2 0.10973 0.0503825 0.312535
545 4 0.100892 0.0673007 0.296384
234 4 0.107325 0.0214751 0.271944
546 4 0.118569 0.0334643 0.328685
674 4 0.249396 0.00800891 0.254543
468 4 0.23411 0.0562897 0.288688
683 4 0.247049 0.0737165 0.293305
466 2 0.245938 0.0393777 0.274572
429 4 0.257251 0.00758659 0.272758
1464 4 0.316671 0.01734 0.25747
1463 4 0.268296 0.00481819 0.255526
467 4 0.257766 0.0224658 0.260456
707 4 0.319809 0.0545582 0.292468
1462 2 0.292484 0.0110791 0.256498
706 2 0.341153 0.0675615 0.291742
708 4 0.362497 0.0805648 0.291016
479 4 0.4399 0.0158217 0.254851
478 2 0.451091 0.0371232 0.261648
480 4 0.462282 0.0584248 0.268444
2737 2 0.0678642 0.0859265 0.297142
2739 4 0.0778612 0.108806 0.295814
2483 4 0.167392 0.0877725 0.257429
398 4 0.163447 0.1601 0.324336
392 4 0.183587 0.15083 0.255302
2482 2 0.174452 0.110779 0.264213
249 4 0.196721 0.14532 0.268113
2484 4 0.181512 0.133786 0.270997
247 2 0.214309 0.162906 0.270678
474 4 0.226588 0.117594 0.282278
472 2 0.220149 0.118091 0.306433
473 4 0.213709 0.118589 0.330588
682 2 0.264103 0.0908412 0.286896
684 4 0.281157 0.107966 0.280487
633 4 0.274655 0.112824 0.262572
631 2 0.282754 0.136477 0.262895
726 4 0.293114 0.121792 0.289903
632 4 0.290853 0.16013 0.263217
724 2 0.303612 0.125769 0.312244
743 4 0.365685 0.0884601 0.27318
349 2 0.388395 0.111825 0.302069
351 4 0.379629 0.0951435 0.285635
350 4 0.397161 0.128506 0.318503
451 2 0.448474 0.148805 0.300872
452 4 0.427942 0.134701 0.298707
453 4 0.469006 0.162909 0.303036
403 2 0.11817 0.223599 0.284563
404 4 0.130129 0.208807 0.268335
405 4 0.106211 0.23839 0.300792
444 4 0.116443 0.247133 0.314933
248 4 0.231897 0.180492 0.273243
279 4 0.220869 0.197788 0.278459
277 2 0.214036 0.221834 0.277927
278 4 0.207202 0.245879 0.277395
27 3 0.284413 0.175617 0.250457
389 4 0.0447828 0.254823 0.27769
388 2 0.0675709 0.252876 0.287794
390 4 0.090359 0.250929 0.297898
735 4 0.0835339 0.305486 0.318827
733 2 0.104053 0.317107 0.310515
734 4 0.124572 0.328728 0.302202
300 4 0.14442 0.325927 0.295915
298 2 0.141312 0.329875 0.271422
442 2 0.106931 0.261984 0.332657
535 2 0.239879 0.275763 0.278721
536 4 0.221962 0.258852 0.282982
402 4 0.245556 0.327674 0.329982
537 4 0.257797 0.292674 0.274459
419 4 0.378551 0.273444 0.264082
418 2 0.400918 0.26876 0.274229
306 4 0.438145 0.268197 0.297638
304 2 0.432933 0.255419 0.318489
420 4 0.423285 0.264076 0.284376
2681 4 0.497103 0.26687 0.29809
3958 2 0.0105752 0.414304 0.287395
548 4 0.0531218 0.337356 0.302848
547 2 0.041953 0.347647 0.322711
3960 4 0.0274509 0.41745 0.305575
766 2 0.141904 0.367334 0.311184
767 4 0.13559 0.344245 0.303958
768 4 0.148218 0.390422 0.318411
414 4 0.159242 0.407409 0.319258
291 4 0.138832 0.410824 0.286025
289 2 0.14549 0.406613 0.262295
344 4 0.27188 0.391834 0.323023
436 2 0.294681 0.408295 0.308135
437 4 0.316494 0.406622 0.296028
343 2 0.262394 0.368728 0.324161
438 4 0.272868 0.409968 0.320242
345 4 0.252907 0.345622 0.325298
434 4 0.420393 0.344853 0.309415
433 2 0.437212 0.35792 0.322513
775 2 0.107923 0.491046 0.329456
499 2 0.112746 0.433545 0.313847
500 4 0.123331 0.420387 0.295408
501 4 0.102161 0.446703 0.332286
412 2 0.165787 0.430324 0.326827
776 4 0.106256 0.466436 0.333548
542 4 0.48529 0.473205 0.281217
541 2 0.480128 0.479563 0.304841
543 4 0.474967 0.485922 0.328465
318 4 0.010781 0.0613136 0.350811
693 4 0.122032 0.015103 0.332091
731 4 0.11308 0.0360137 0.347846
730 2 0.117229 0.0391714 0.3723
732 4 0.121379 0.0423292 0.396754
605 4 0.179415 0.0618204 0.338089
440 4 0.216309 0.0129966 0.336206
439 2 0.214844 0.0309509 0.353546
441 4 0.213379 0.0489053 0.370886
1670 4 0.292942 0.00594209 0.399997
1669 2 0.31511 0.0136235 0.39135
1517 4 0.389476 0.016001 0.336348
697 2 0.358791 0.0610177 0.386081
699 4 0.35067 0.037577 0.382954
1671 4 0.337277 0.0213049 0.382702
1518 4 0.354271 0.0207813 0.37154
1516 2 0.371874 0.0183911 0.353944
3081 4 0.490055 0.0746382 0.37415
317 4 0.00575931 0.109514 0.363148
316 2 0.00827013 0.085414 0.35698
276 4 0.168153 0.117297 0.375842
604 2 0.176536 0.0834895 0.350227
397 2 0.169023 0.143926 0.34257
399 4 0.1746 0.127752 0.360804
606 4 0.173658 0.105159 0.362366
274 2 0.182657 0.123549 0.395226
375 4 0.202716 0.147679 0.407523
275 4 0.197162 0.129801 0.414609
725 4 0.31411 0.129747 0.334586
430 2 0.331888 0.135685 0.397274
698 4 0.366911 0.0844583 0.389207
431 4 0.339268 0.136664 0.373404
514 2 0.410111 0.165944 0.370712
516 4 0.427375 0.148212 0.374275
257 4 0.436698 0.144184 0.392043
256 2 0.434644 0.119775 0.397061
1581 4 0.447078 0.147573 0.375383
1579 2 0.466821 0.144757 0.360301
1580 4 0.486563 0.141941 0.345218
258 4 0.43259 0.0953666 0.402079
508 2 0.245575 0.216043 0.409993
373 2 0.212677 0.169628 0.414169
489 4 0.314854 0.19728 0.361327
487 2 0.299759 0.211811 0.374971
488 4 0.284664 0.226342 0.388616
717 4 0.281355 0.230197 0.407405
509 4 0.266381 0.220938 0.397018
515 4 0.392846 0.183676 0.367149
585 4 0.490014 0.220853 0.370871
270 4 0.494394 0.236086 0.383074
305 4 0.42772 0.242642 0.339339
584 4 0.487921 0.170898 0.371769
267 4 0.440861 0.193458 0.390416
583 2 0.488967 0.195876 0.37132
265 2 0.43858 0.199315 0.414617
618 4 0.079328 0.321571 0.406437
616 2 0.0648633 0.303351 0.4156
407 4 0.0906973 0.315229 0.390249
443 4 0.0974178 0.276835 0.350381
408 4 0.102835 0.295562 0.345902
406 2 0.0967661 0.305396 0.368075
400 2 0.246412 0.312863 0.350108
1260 4 0.242732 0.286972 0.386614
1258 2 0.240918 0.27277 0.407112
401 4 0.247268 0.298052 0.370235
593 4 0.324218 0.313371 0.363971
592 2 0.308515 0.323435 0.380623
378 4 0.329565 0.330044 0.351981
377 4 0.374179 0.312942 0.337222
376 2 0.351872 0.321493 0.344601
268 2 0.487908 0.254512 0.398683
269 4 0.481423 0.272937 0.414291
549 4 0.0307841 0.357938 0.342573
681 4 0.0140694 0.349248 0.33527
503 4 0.167773 0.41711 0.402035
678 4 0.235712 0.344361 0.336394
677 4 0.196027 0.364277 0.359397
676 2 0.21587 0.354319 0.347896
594 4 0.292812 0.3335 0.397275
435 4 0.454031 0.370987 0.335611
586 2 0.486015 0.37829 0.366356
587 4 0.468934 0.371299 0.349488
3670 2 0.0041993 0.496316 0.334598
504 4 0.173867 0.465706 0.391936
502 2 0.17082 0.441408 0.396986
1435 2 0.199026 0.479779 0.348747
1436 4 0.180833 0.472131 0.333394
413 4 0.172332 0.453238 0.334395
1437 4 0.217219 0.487427 0.364099
1557 4 0.265603 0.443718 0.355701
1555 2 0.279502 0.462445 0.364719
1556 4 0.2934 0.481172 0.373737
669 4 0.298464 0.488716 0.35488
336 4 0.378912 0.492012 0.397647
1742 4 0.488837 0.449149 0.404576
120 3 0.471265 0.437967 0.407693
1602 4 0.0409971 0.00057715 0.419403
938 4 0.00272874 0.0371743 0.475011
1817 4 0.247982 0.0440873 0.477305
962 4 0.238492 0.0525909 0.461199
961 2 0.242912 0.0771504 0.459624
1816 2 0.24805 0.0206544 0.486027
1059 4 0.000712403 0.111162 0.449857
1058 4 0.0490899 0.0992752 0.454221
1057 2 0.0249012 0.105219 0.452039
260 4 0.118008 0.158158 0.489835
687 4 0.194385 0.105148 0.435684
685 2 0.204646 0.121081 0.451995
686 4 0.214907 0.137013 0.468306
963 4 0.247331 0.10171 0.45805
432 4 0.324508 0.134706 0.421143
319 2 0.335384 0.152414 0.493319
425 4 0.340742 0.124778 0.430424
424 2 0.348147 0.118922 0.453577
426 4 0.355552 0.113066 0.47673
347 4 0.0108551 0.220248 0.418855
374 4 0.222639 0.191578 0.420814
510 4 0.224769 0.211148 0.422967
649 2 0.312237 0.202226 0.48169
650 4 0.294885 0.220093 0.47949
711 4 0.273102 0.222473 0.477343
709 2 0.262077 0.235853 0.459326
651 4 0.329589 0.184358 0.483889
715 2 0.300447 0.240683 0.419683
710 4 0.251051 0.249232 0.441309
411 4 0.346299 0.190242 0.479767
409 2 0.36686 0.204034 0.483259
576 4 0.405541 0.226461 0.485354
410 4 0.387421 0.217826 0.486752
320 4 0.344908 0.168652 0.476862
574 2 0.422954 0.214694 0.471809
575 4 0.440368 0.202926 0.458264
266 4 0.436298 0.205172 0.438817
617 4 0.0503986 0.28513 0.424763
1135 2 0.155309 0.300054 0.478023
1136 4 0.15774 0.286561 0.457113
1137 4 0.152878 0.313546 0.498932
1259 4 0.239105 0.258567 0.42761
716 4 0.319539 0.251168 0.431961
2813 4 0.0618364 0.364017 0.451711
2812 2 0.0740361 0.358993 0.47295
2814 4 0.0862358 0.353968 0.494189
1040 4 0.0945644 0.337535 0.500283
119 3 0.449917 0.412252 0.425032
3989 4 0.45308 0.399585 0.440482
3988 2 0.454541 0.375295 0.446228
3990 4 0.456002 0.351004 0.451974
383 4 0.0553721 0.458668 0.468463
382 2 0.0743084 0.44286 0.47255
1160 4 0.129286 0.417506 0.490592
1159 2 0.143058 0.438275 0.488552
384 4 0.0932448 0.427052 0.476637
772 2 0.112413 0.488561 0.4909
773 4 0.107593 0.478922 0.468338
1161 4 0.156829 0.459044 0.486513
1171 2 0.180435 0.484831 0.459873
1190 4 0.177659 0.453715 0.485892
1189 2 0.198173 0.439437 0.485193
1191 4 0.218687 0.425158 0.484494
1173 4 0.169119 0.46645 0.472491
3603 4 0.491038 0.422353 0.441165
116 1 0.460029 0.433054 0.426883
1269 4 0.457917 0.482916 0.490858
1267 2 0.464026 0.466242 0.473256
117 3 0.44377 0.448937 0.430421
1268 4 0.470135 0.449567 0.455654
118 3 0.474671 0.43317 0.444883
2319 4 0.0579438 0.0122785 0.559488
825 4 0.0374455 0.0770971 0.565644
823 2 0.0569711 0.0751158 0.550152
2429 4 0.0801315 0.0675591 0.516878
824 4 0.0764967 0.0731346 0.53466
2317 2 0.0543275 0.0181642 0.583518
2428 2 0.100898 0.0809232 0.512964
1182 4 0.223256 0.0433471 0.571865
1180 2 0.24687 0.046178 0.564147
1181 4 0.270483 0.049009 0.556428
1217 4 0.349997 0.0218267 0.56309
2333 4 0.337127 0.00571355 0.566614
1005 4 0.357638 0.00675326 0.575096
1216 2 0.349777 0.046801 0.564279
1218 4 0.349557 0.0717754 0.565468
4467 4 0.483736 0.0415202 0.54478
3008 4 0.492311 0.0246517 0.537752
4465 2 0.496947 0.0504436 0.564042
879 4 0.0737239 0.149563 0.56451
877 2 0.0531462 0.147778 0.55042
470 4 0.0144416 0.148475 0.545073
878 4 0.0325684 0.145992 0.536329
1272 4 0.0849878 0.164986 0.558297
2430 4 0.121665 0.0942873 0.509051
259 2 0.126234 0.162366 0.513069
261 4 0.134459 0.166574 0.536303
1219 2 0.225329 0.158929 0.557579
1220 4 0.234161 0.135721 0.560504
945 4 0.227965 0.131178 0.578579
1151 4 0.245415 0.120744 0.564005
1150 2 0.2601 0.107053 0.549103
1152 4 0.274786 0.0933622 0.5342
321 4 0.32586 0.136177 0.509775
900 4 0.344042 0.128221 0.553352
898 2 0.35023 0.147951 0.567408
3053 4 0.458237 0.124964 0.523157
3052 2 0.468603 0.125001 0.545911
3054 4 0.478969 0.125037 0.568664
908 4 0.083067 0.22192 0.582003
1033 2 0.146877 0.201247 0.5544
1034 4 0.145237 0.224818 0.56258
1035 4 0.148517 0.177676 0.54622
1270 2 0.0943345 0.166839 0.581414
1221 4 0.216497 0.182137 0.554655
791 4 0.276235 0.220267 0.526978
790 2 0.286403 0.241546 0.535286
899 4 0.356419 0.167682 0.581465
2845 2 0.0291973 0.323256 0.549688
1082 4 0.00238844 0.24803 0.556639
2847 4 0.016431 0.313178 0.568678
3327 4 0.00125774 0.297897 0.570892
3263 4 0.996362 0.317316 0.574136
1041 4 0.143942 0.330287 0.503452
813 4 0.248343 0.306099 0.537438
792 4 0.296571 0.262825 0.543593
804 4 0.307759 0.2761 0.552662
812 4 0.290209 0.281019 0.548342
811 2 0.269276 0.293559 0.54289
802 2 0.319783 0.274542 0.57453
2846 4 0.0419636 0.333335 0.530698
1039 2 0.119253 0.333911 0.501867
896 4 0.110337 0.382579 0.548367
895 2 0.117208 0.393951 0.527186
897 4 0.124079 0.405324 0.506005
239 4 0.288566 0.415226 0.52585
238 2 0.308299 0.404173 0.515192
240 4 0.328032 0.393119 0.504534
1937 4 0.0158052 0.498806 0.535769
1936 2 0.0082549 0.486513 0.556191
1938 4 0.000704608 0.474219 0.576612
1394 4 0.134805 0.49921 0.5221
538 2 0.122106 0.461628 0.537533
540 4 0.121868 0.484621 0.527711
539 4 0.122344 0.438636 0.547354
774 4 0.117233 0.4982 0.513462
1393 2 0.159743 0.497521 0.521467
1395 4 0.184682 0.495832 0.520833
1187 4 0.243224 0.478356 0.532788
1067 4 0.206306 0.460177 0.574595
1186 2 0.253873 0.495731 0.5183
1176 4 0.299984 0.47843 0.560507
1174 2 0.287301 0.469623 0.580173
1000 2 0.389625 0.458993 0.572804
1001 4 0.373326 0.440857 0.578338
1002 4 0.405924 0.477128 0.567271
661 2 0.377111 0.496043 0.52244
1910 4 0.401661 0.496848 0.560564
663 4 0.36404 0.491083 0.501711
4149 4 0.424368 0.473182 0.561988
4084 2 0.479204 0.484168 0.530133
4086 4 0.494017 0.482377 0.550196
4147 2 0.444747 0.47438 0.576426
4085 4 0.46439 0.485958 0.51007
2318 4 0.0507112 0.0240498 0.607549
1032 4 0.170739 0.0463058 0.603289
1031 4 0.219244 0.0439285 0.591359
1030 2 0.194991 0.0451172 0.597324
100 3 0.239303 0.0165934 0.655227
841 2 0.318276 0.0152155 0.594554
950 4 0.253834 0.00471114 0.657682
949 2 0.266529 0.0141202 0.638305
951 4 0.279225 0.0235293 0.618928
843 4 0.296356 0.0167826 0.606481
1003 2 0.381048 0.00568478 0.583815
1004 4 0.404458 0.00461631 0.592533
842 4 0.340195 0.0136483 0.582627
1198 2 0.0393247 0.118104 0.64895
1200 4 0.0612422 0.115049 0.66059
1199 4 0.0174073 0.121158 0.637311
851 4 0.00232796 0.161878 0.624952
3266 4 0.00261963 0.110453 0.649742
1153 2 0.140778 0.14785 0.614229
1154 4 0.121603 0.163393 0.610241
1155 4 0.159953 0.132307 0.618217
943 2 0.212922 0.114629 0.589761
1284 4 0.168667 0.121776 0.632749
1211 4 0.171826 0.141951 0.632022
944 4 0.19788 0.0980803 0.600944
1282 2 0.179056 0.106908 0.649959
1210 2 0.183359 0.161682 0.642165
327 4 0.238892 0.165807 0.592431
888 4 0.285252 0.089747 0.659053
887 4 0.288384 0.0946787 0.609388
886 2 0.286818 0.0922128 0.63422
1193 4 0.345867 0.155226 0.645879
1192 2 0.345649 0.162466 0.621948
3402 4 0.472211 0.118122 0.586142
3401 4 0.465334 0.101721 0.63288
3400 2 0.468773 0.109921 0.609511
1164 4 0.469215 0.110702 0.649999
1207 2 0.00733078 0.234643 0.626047
907 2 0.0815147 0.218807 0.606763
909 4 0.0799623 0.215695 0.631524
1209 4 0.0220577 0.245707 0.642955
1271 4 0.103681 0.168693 0.604531
695 4 0.179249 0.24801 0.601695
1212 4 0.194891 0.181412 0.652308
325 2 0.250572 0.178411 0.610593
326 4 0.262252 0.191016 0.628756
1194 4 0.345432 0.169707 0.598016
1024 2 0.403666 0.227455 0.645788
1025 4 0.378844 0.227548 0.642784
830 4 0.356175 0.168813 0.656985
1026 4 0.428488 0.227363 0.648791
953 4 0.463874 0.225062 0.594165
954 4 0.427434 0.228147 0.628272
952 2 0.445654 0.226605 0.611218
984 4 0.00960507 0.310896 0.587632
982 2 0.023408 0.319171 0.606769
983 4 0.037211 0.327445 0.625905
856 2 0.144339 0.328054 0.617835
858 4 0.159274 0.323364 0.637332
796 2 0.163729 0.301887 0.664271
797 4 0.175273 0.315673 0.646896
694 2 0.185954 0.260248 0.622442
696 4 0.192659 0.272486 0.643189
803 4 0.331807 0.272984 0.596397
1263 4 0.495609 0.315617 0.610342
3275 4 0.0388346 0.340231 0.643316
3274 2 0.0407297 0.360811 0.657389
857 4 0.129404 0.332743 0.598338
1008 4 0.412426 0.389763 0.59647
1006 2 0.393456 0.383757 0.611611
1007 4 0.374486 0.377751 0.626752
3329 4 0.474832 0.371948 0.650482
2014 2 0.108598 0.493418 0.656623
1066 2 0.230156 0.460368 0.582102
1068 4 0.254005 0.46056 0.589608
1028 4 0.257305 0.459852 0.610295
1953 4 0.25982 0.476298 0.603785
1175 4 0.274617 0.460817 0.599839
1027 2 0.257012 0.443428 0.629146
1029 4 0.256718 0.427004 0.647996
4148 4 0.465125 0.475578 0.590864
2167 2 0.477234 0.491043 0.615849
2169 4 0.463533 0.495737 0.595467
2168 4 0.490935 0.48635 0.636231
1249 2 0.489792 0.473897 0.664408
1185 4 0.0835853 0.0111655 0.678458
99 3 0.213717 0.0267511 0.680914
96 1 0.224304 0.00889923 0.670539
2200 2 0.222934 0.0366449 0.717145
2201 4 0.217892 0.0482128 0.73873
2202 4 0.227976 0.0250769 0.695559
2262 4 0.234334 0.00683225 0.704779
1149 4 0.225579 0.0633218 0.747889
1239 4 0.245441 0.0379883 0.687801
1238 4 0.270454 0.0764821 0.667969
806 4 0.287448 0.0798788 0.67873
1237 2 0.257947 0.0572352 0.677885
1112 4 0.365267 0.0111068 0.73596
1111 2 0.372737 0.0344234 0.74103
1113 4 0.380207 0.05774 0.746101
2399 4 0.373186 0.0748898 0.745707
2341 2 0.429321 0.999891 0.697298
2343 4 0.433946 0.0153783 0.678221
2440 2 0.456898 0.00607296 0.74278
864 4 0.0124751 0.129443 0.720529
1073 4 0.0735649 0.123976 0.672556
1072 2 0.0711441 0.140527 0.691141
1074 4 0.0687233 0.157077 0.709726
1077 4 0.00338755 0.142589 0.708469
862 2 0.0127369 0.131028 0.745481
1225 2 0.165399 0.115824 0.749024
1227 4 0.151505 0.133216 0.737638
1283 4 0.189445 0.0920407 0.66717
916 2 0.228793 0.15336 0.704369
917 4 0.221733 0.140644 0.68403
918 4 0.235852 0.166075 0.724707
805 2 0.297149 0.0979243 0.693063
807 4 0.30685 0.11597 0.707395
2398 2 0.359959 0.0958614 0.742482
2400 4 0.346731 0.116833 0.739257
1162 2 0.472935 0.106032 0.674279
1163 4 0.476655 0.101362 0.69856
893 4 0.0737174 0.170071 0.724711
892 2 0.0677028 0.182254 0.745701
947 4 0.0843754 0.170135 0.706427
946 2 0.104004 0.185477 0.704299
948 4 0.123632 0.20082 0.702171
9 3 0.140438 0.198373 0.714004
10 3 0.154156 0.216061 0.744279
6 1 0.159331 0.207673 0.723749
1064 4 0.159396 0.241069 0.703778
8 3 0.16775 0.224527 0.710203
45 3 0.248387 0.169231 0.739652
7 3 0.175328 0.191305 0.726064
991 2 0.204699 0.233817 0.712491
992 4 0.181252 0.237821 0.704783
993 4 0.228146 0.229814 0.720198
810 4 0.310652 0.219424 0.733549
808 2 0.325162 0.219577 0.713187
809 4 0.339673 0.219729 0.692825
829 2 0.346569 0.189812 0.666575
831 4 0.336964 0.210811 0.676164
846 4 0.362918 0.200348 0.711316
3204 4 0.356402 0.221198 0.682052
3202 2 0.371173 0.238727 0.692038
844 2 0.374231 0.196204 0.733226
1065 4 0.134523 0.282854 0.692112
798 4 0.152186 0.288102 0.681646
1063 2 0.14696 0.261962 0.697945
3203 4 0.385943 0.256257 0.702024
3485 4 0.395054 0.271132 0.737748
3276 4 0.0426249 0.381391 0.671462
816 4 0.076144 0.369365 0.737614
814 2 0.083144 0.371598 0.713715
815 4 0.0901441 0.373831 0.689815
942 4 0.142697 0.360389 0.718174
940 2 0.13879 0.383305 0.708966
941 4 0.134884 0.40622 0.699758
2013 4 0.151331 0.415705 0.695331
1228 2 0.345855 0.413996 0.730689
3328 2 0.490185 0.382661 0.667055
859 2 0.484982 0.410791 0.71391
860 4 0.464736 0.418329 0.726498
1280 4 0.0273351 0.447957 0.712917
1279 2 0.0485358 0.434716 0.71354
1281 4 0.0697366 0.421476 0.714162
885 4 0.0847869 0.415826 0.726295
2015 4 0.119395 0.480006 0.674754
1079 4 0.116186 0.473173 0.693227
1078 2 0.125022 0.449873 0.695274
1080 4 0.133858 0.426572 0.697321
883 2 0.0959412 0.419468 0.748374
2012 4 0.193713 0.43555 0.712956
2011 2 0.172522 0.425627 0.704144
929 4 0.287272 0.470781 0.717836
928 2 0.288144 0.490247 0.733504
1229 4 0.354655 0.42331 0.709218
998 4 0.369878 0.436664 0.697472
997 2 0.391243 0.44647 0.705991
999 4 0.412607 0.456277 0.71451
1019 4 0.423177 0.455188 0.730903
1205 4 0.431623 0.462741 0.713638
1206 4 0.459691 0.460717 0.672299
1251 4 0.473424 0.470948 0.683078
1204 2 0.445657 0.461729 0.692968
1147 2 0.204622 0.0721522 0.75828
1148 4 0.183664 0.0809826 0.768672
2322 4 0.389523 0.0759484 0.754679
2320 2 0.407048 0.0793101 0.772193
2321 4 0.424573 0.0826718 0.789708
2442 4 0.477377 0.0173064 0.751704
1202 4 0.017185 0.0897069 0.805023
1201 2 0.0205558 0.113118 0.796916
1203 4 0.0239266 0.13653 0.78881
863 4 0.0129987 0.132613 0.770433
1131 4 0.105519 0.148625 0.83346
1226 4 0.179294 0.0984316 0.760409
977 4 0.207853 0.165943 0.765833
43 3 0.25505 0.147306 0.769528
1257 4 0.321982 0.0961163 0.799338
1255 2 0.328094 0.103341 0.822481
819 4 0.381828 0.161143 0.820728
817 2 0.394445 0.157541 0.799444
818 4 0.407062 0.15394 0.778159
894 4 0.0616882 0.194436 0.766691
989 4 0.0577326 0.214823 0.77424
60 3 0.0501165 0.20176 0.787239
57 3 0.0166437 0.194571 0.77238
1106 4 0.00464214 0.179796 0.780358
58 3 0.0279733 0.23019 0.776327
56 1 0.0285737 0.208995 0.785751
59 3 0.0188914 0.209422 0.806834
1104 4 0.0334052 0.241379 0.791589
988 2 0.0732342 0.233281 0.767591
1277 4 0.159255 0.210494 0.763717
1276 2 0.164682 0.233688 0.771316
41 1 0.247712 0.16813 0.76239
978 4 0.178928 0.206733 0.766362
44 3 0.226068 0.171891 0.769859
976 2 0.19339 0.186338 0.766098
42 3 0.261524 0.184293 0.771171
1298 4 0.324059 0.203414 0.809712
1143 4 0.305254 0.205169 0.816711
1142 4 0.273982 0.181869 0.785409
1141 2 0.289618 0.193519 0.80106
1297 2 0.330231 0.216791 0.829914
845 4 0.385545 0.192061 0.755135
48 3 0.40186 0.191284 0.822646
49 3 0.413042 0.224575 0.808115
1043 4 0.411176 0.243912 0.804003
46 1 0.414251 0.210513 0.826533
50 3 0.435958 0.205053 0.83073
1102 2 0.0343558 0.261594 0.806272
970 2 0.0576986 0.310215 0.809044
972 4 0.067961 0.32375 0.790695
971 4 0.0474362 0.29668 0.827392
1103 4 0.0353064 0.28181 0.820955
821 4 0.080847 0.293059 0.75556
990 4 0.0887357 0.251738 0.760942
822 4 0.125634 0.300546 0.776507
820 2 0.103241 0.296802 0.766033
1236 4 0.148771 0.302871 0.781837