ITEM: TIMESTEP
3440000
ITEM: NUMBER OF ATOMS
4590
ITEM: BOX BOUNDS pp pp pp
-9.9985700000000008e+00 9.9985700000000008e+00
-9.9985700000000008e+00 9.9985700000000008e+00
-9.9985700000000008e+00 9.9985700000000008e+00
ITEM: ATOMS id type xs ys zs
1666 2 0.0593766 0.0422656 0.0821884
1667 4 0.0529504 0.063317 0.0703259
591 4 0.044407 0.0794771 0.0593145
702 4 0.0651072 0.0803316 0.0664424
533 4 0.158926 0.0183861 0.0489692
1476 4 0.161506 0.0138926 0.0705043
532 2 0.169733 0.0341025 0.0328019
534 4 0.180539 0.049819 0.0166345
423 4 0.171833 0.0670846 0.0197913
421 2 0.189221 0.0846679 0.0234882
490 2 0.268184 0.0734813 0.0557335
492 4 0.264077 0.0489375 0.0581639
296 4 0.43166 0.0733056 0.0693013
589 2 0.0353889 0.0953464 0.0422259
590 4 0.0263708 0.111216 0.0251374
3232 2 0.0359169 0.144293 0.0100239
3233 4 0.0179005 0.130671 0.020749
1248 4 0.00553134 0.113088 0.0186027
422 4 0.206609 0.102251 0.0271851
652 2 0.235386 0.114074 0.038008
654 4 0.210941 0.119082 0.0364143
491 4 0.272292 0.0980251 0.0533031
653 4 0.259831 0.109067 0.0396017
565 2 0.298045 0.121526 0.0268337
566 4 0.316091 0.127831 0.0107164
567 4 0.279999 0.11522 0.042951
866 4 0.323315 0.147302 0.00607764
665 4 0.328734 0.138454 0.0246372
556 2 0.404054 0.148452 0.0636905
664 2 0.349048 0.147983 0.035669
557 4 0.417997 0.133628 0.0782174
558 4 0.390112 0.163276 0.0491636
666 4 0.369363 0.157512 0.0467008
297 4 0.433304 0.121647 0.0819941
295 2 0.432482 0.0974763 0.0756477
237 4 0.113283 0.167606 0.0759999
255 4 0.328997 0.23586 0.0844525
571 2 0.375675 0.197549 0.029767
572 4 0.375175 0.178003 0.0453518
573 4 0.376176 0.217095 0.0141822
1071 4 0.37549 0.236769 0.00751716
322 2 0.454923 0.245544 0.0461551
323 4 0.478787 0.250987 0.0410495
518 4 0.486967 0.234874 0.052767
324 4 0.431059 0.240102 0.0512607
623 4 0.429872 0.244169 0.0707673
505 2 0.14719 0.301915 0.00257822
292 2 0.146065 0.320069 0.0636803
507 4 0.152296 0.316802 0.0220077
288 4 0.172837 0.320507 0.0262858
293 4 0.159403 0.316798 0.0427857
286 2 0.19386 0.329332 0.0365488
483 4 0.2162 0.320611 0.0578008
481 2 0.229288 0.32084 0.0791036
1069 2 0.384626 0.259766 0.0111003
957 4 0.383839 0.300794 0.0139592
1070 4 0.393763 0.282763 0.0146834
955 2 0.404327 0.311805 0.0231358
771 4 0.494839 0.239041 0.0329945
956 4 0.424814 0.322816 0.0323124
282 4 0.435086 0.3395 0.0286188
1168 2 0.0114559 0.387668 0.040774
1170 4 0.0094429 0.362946 0.043931
1169 4 0.0134688 0.41239 0.0376171
1056 4 0.0112722 0.34832 0.0304328
287 4 0.214883 0.338156 0.0468118
607 2 0.294706 0.383877 0.0764381
608 4 0.284652 0.399097 0.0593375
626 4 0.276705 0.414751 0.0701704
280 2 0.44939 0.347314 0.0475795
281 4 0.463694 0.355128 0.0665402
494 4 0.449685 0.369504 0.0738776
330 4 0.00659258 0.421202 0.0190122
551 4 0.00986877 0.433535 0.0360044
550 2 0.0138763 0.441946 0.0592073
552 4 0.0178838 0.450357 0.0824101
1786 2 0.0939517 0.44638 0.0766439
1788 4 0.0991482 0.422453 0.0715774
1787 4 0.0887552 0.470307 0.0817103
241 2 0.238914 0.497738 0.0569448
243 4 0.247031 0.477499 0.0691792
625 2 0.267749 0.437895 0.0732261
627 4 0.258794 0.461039 0.0762818
245 4 0.344885 0.406622 0.0564285
244 2 0.337973 0.419191 0.0359489
246 4 0.331061 0.431761 0.0154693
40 3 0.345805 0.419253 0.00398068
272 4 0.349616 0.440911 0.00747473
271 2 0.364197 0.461193 0.00637484
2388 4 0.410616 0.485279 0.00700993
564 4 0.472363 0.463866 0.986971
562 2 0.449212 0.471927 0.991896
1668 4 0.0658028 0.0212141 0.0940508
2481 4 0.00916033 0.0248547 0.114355
18 3 0.00636815 0.0441336 0.115689
2479 2 0.00703254 0.00339764 0.127014
16 1 0.0206366 0.0623114 0.113595
19 3 0.0426924 0.055305 0.115285
20 3 0.0160962 0.0776602 0.129795
17 3 0.0174499 0.0719258 0.0929419
1474 2 0.160906 0.0293107 0.0901792
1475 4 0.160307 0.0447288 0.109854
1785 4 0.339023 0.0515207 0.168744
700 2 0.0806426 0.0934804 0.080966
450 4 0.158631 0.0833258 0.0924455
236 4 0.108967 0.123318 0.0988163
235 2 0.111125 0.145462 0.0874081
701 4 0.096178 0.106629 0.0954897
448 2 0.136698 0.0933151 0.0991039
449 4 0.114765 0.103304 0.105762
749 4 0.0436157 0.209193 0.175578
477 4 0.101689 0.183151 0.0711753
476 4 0.104911 0.222949 0.101283
339 4 0.123098 0.224013 0.10983
475 2 0.1033 0.20305 0.086229
337 2 0.122604 0.237095 0.131132
352 2 0.248968 0.230299 0.134333
461 4 0.282598 0.227254 0.12409
354 4 0.265948 0.215353 0.12368
460 2 0.296414 0.227658 0.103254
462 4 0.31023 0.228062 0.0824181
254 4 0.373623 0.247722 0.103651
253 2 0.35131 0.241791 0.094052
630 4 0.385676 0.244394 0.121441
628 2 0.382914 0.22357 0.135002
629 4 0.380152 0.202746 0.148564
537 4 0.0839277 0.310972 0.14588
294 4 0.132727 0.323339 0.0845748
455 4 0.0875449 0.306474 0.126644
456 4 0.112862 0.318356 0.0851887
338 4 0.122109 0.250176 0.152435
363 4 0.118906 0.269193 0.161632
454 2 0.100204 0.312415 0.105917
353 4 0.231988 0.245245 0.144985
736 2 0.199055 0.262736 0.15819
737 4 0.221706 0.264178 0.147701
755 4 0.24272 0.264215 0.142923
482 4 0.242377 0.321069 0.100406
754 2 0.244928 0.283925 0.127697
756 4 0.247136 0.303634 0.112471
738 4 0.176404 0.261295 0.168679
252 4 0.261712 0.319398 0.109379
622 2 0.411966 0.249082 0.0875123
624 4 0.394059 0.253995 0.104257
741 4 0.399095 0.286343 0.0918993
739 2 0.38054 0.302513 0.0963083
740 4 0.361985 0.318682 0.100717
386 4 0.351391 0.318583 0.0834604
535 2 0.0797314 0.333064 0.156812
609 4 0.304761 0.368657 0.0935387
387 4 0.318243 0.352859 0.0985309
250 2 0.280122 0.336274 0.108182
251 4 0.298533 0.35315 0.106986
385 2 0.334817 0.335721 0.0909956
11 1 0.411088 0.403772 0.137354
15 3 0.389502 0.397835 0.141527
671 4 0.467461 0.364582 0.085959
14 3 0.417824 0.395239 0.116854
495 4 0.433601 0.403167 0.107176
12 3 0.424638 0.39514 0.153817
493 2 0.441643 0.386335 0.0905266
595 2 0.467663 0.39348 0.13817
596 4 0.491179 0.398103 0.131042
597 4 0.444148 0.388857 0.145298
670 2 0.491535 0.359047 0.0898297
645 4 0.444691 0.398675 0.16521
2652 4 0.499813 0.415555 0.126135
1691 4 0.0853376 0.48851 0.0927305
315 4 0.0213413 0.464163 0.0985727
620 4 0.00147841 0.45741 0.0943764
313 2 0.0450807 0.469982 0.0933041
314 4 0.0688201 0.475801 0.0880355
1467 4 0.023169 0.491974 0.161025
1440 4 0.257775 0.479529 0.0875029
1438 2 0.270327 0.489154 0.106867
637 2 0.277316 0.500043 0.169164
639 4 0.275293 0.501979 0.144318
659 4 0.350464 0.46157 0.164351
525 4 0.364884 0.465217 0.150654
523 2 0.350795 0.484639 0.143623
13 3 0.413083 0.42689 0.137353
688 2 0.126257 0.0831765 0.226796
689 4 0.109876 0.0779093 0.244936
1403 4 0.115428 0.057288 0.246921
1402 2 0.106806 0.0339666 0.244282
1404 4 0.0981847 0.0106452 0.241644
22 3 0.334877 0.0478437 0.245134
21 1 0.340139 0.0699008 0.241267
1783 2 0.343069 0.0691179 0.18604
757 2 0.391442 0.0751788 0.217401
758 4 0.415741 0.0707951 0.221343
759 4 0.367143 0.0795625 0.21346
1496 4 0.329916 0.029062 0.243583
312 4 0.436442 0.0650996 0.218742
744 4 0.429 0.0703351 0.238209
310 2 0.446641 0.0709547 0.196677
311 4 0.456841 0.0768099 0.174612
690 4 0.142639 0.0884437 0.208656
693 4 0.143973 0.0958137 0.189138
691 2 0.155549 0.116997 0.195651
692 4 0.167126 0.13818 0.202165
723 4 0.1811 0.14995 0.209948
721 2 0.18013 0.150933 0.234913
23 3 0.321306 0.0828935 0.245132
1784 4 0.347114 0.086715 0.203336
25 3 0.346945 0.0723137 0.219669
707 4 0.366506 0.140487 0.201454
706 2 0.376053 0.162606 0.194758
748 2 0.0541681 0.228419 0.187586
750 4 0.0647204 0.247644 0.199594
396 4 0.0479166 0.252149 0.208731
394 2 0.0424053 0.263751 0.230183
582 4 0.286772 0.184577 0.213331
285 4 0.268995 0.179672 0.219793
581 4 0.325223 0.206683 0.190232
580 2 0.305997 0.19563 0.201782
283 2 0.267644 0.191511 0.241775
344 4 0.260866 0.221411 0.255066
30 3 0.342287 0.216463 0.184083
28 3 0.370664 0.236601 0.169699
27 3 0.36789 0.231327 0.206809
708 4 0.3856 0.184724 0.188063
29 3 0.377178 0.202328 0.184777
26 1 0.364364 0.221615 0.186257
361 2 0.125843 0.290507 0.172711
362 4 0.132781 0.311822 0.18379
372 4 0.146475 0.307118 0.197918
370 2 0.168275 0.309096 0.210002
371 4 0.190075 0.311075 0.222086
279 4 0.206535 0.29684 0.221853
612 4 0.208267 0.31642 0.212536
277 2 0.217905 0.288756 0.242602
765 4 0.38788 0.305637 0.227638
763 2 0.364988 0.314442 0.222782
764 4 0.342095 0.323246 0.217925
542 4 0.383383 0.2879 0.232753
541 2 0.403286 0.279489 0.245336
521 4 0.444799 0.271177 0.256282
536 4 0.0755351 0.355156 0.167744
603 4 0.135418 0.418928 0.233345
610 2 0.224057 0.335804 0.212873
417 4 0.245474 0.373902 0.209839
611 4 0.239847 0.355188 0.213209
415 2 0.253267 0.39688 0.215874
303 4 0.332376 0.394166 0.23731
301 2 0.342595 0.39698 0.214664
660 4 0.358523 0.413961 0.177355
302 4 0.352813 0.399794 0.192018
644 4 0.449093 0.391265 0.214468
643 2 0.446892 0.39497 0.189839
447 4 0.432695 0.391081 0.226159
263 4 0.0155965 0.473356 0.170263
262 2 0.0205845 0.453686 0.184872
1757 4 0.0381905 0.441214 0.213806
264 4 0.0255726 0.434017 0.19948
1756 2 0.0403183 0.429267 0.235667
647 4 0.00320374 0.491779 0.168332
1436 4 0.25559 0.428629 0.241168
436 2 0.297376 0.420384 0.239014
416 4 0.261059 0.419859 0.22191
437 4 0.27552 0.431221 0.233535
291 4 0.258438 0.441465 0.224274
638 4 0.279339 0.498107 0.194011
289 2 0.270448 0.459497 0.211792
290 4 0.282457 0.47753 0.199311
767 4 0.298143 0.49187 0.201808
658 2 0.354493 0.437766 0.170853
673 2 0.0760782 0.0798242 0.252883
675 4 0.0957157 0.0643857 0.253978
249 4 0.155099 0.0676702 0.32102
1700 4 0.237 0.0510957 0.269442
1699 2 0.219483 0.0382066 0.281778
248 4 0.189211 0.0327917 0.31004
247 2 0.172155 0.0502309 0.31553
1701 4 0.201965 0.0253175 0.294114
605 4 0.207885 0.023954 0.314726
1497 4 0.364349 0.999148 0.264081
699 4 0.379571 0.00820076 0.275749
1495 2 0.347132 0.0141049 0.253832
697 2 0.384009 0.0236515 0.2949
698 4 0.388448 0.0391022 0.314051
349 2 0.397927 0.0752992 0.306108
351 4 0.389841 0.0588365 0.323101
24 3 0.357194 0.076184 0.255692
257 4 0.383993 0.0416668 0.334722
1749 4 0.434014 0.0094077 0.273228
478 2 0.489328 0.0701633 0.288161
1747 2 0.446571 0.0310191 0.273885
1748 4 0.459129 0.0526304 0.274542
480 4 0.474956 0.0625761 0.269159
579 4 0.990262 0.171689 0.261579
674 4 0.0564407 0.0952627 0.251788
398 4 0.0015451 0.147161 0.329965
600 4 0.157903 0.152751 0.345356
545 4 0.158231 0.14323 0.326146
544 2 0.164297 0.146592 0.302123
546 4 0.170363 0.149955 0.278101
722 4 0.179161 0.151917 0.259879
332 4 0.398385 0.159381 0.276929
331 2 0.402422 0.134711 0.277481
350 4 0.406012 0.0917618 0.289114
333 4 0.406459 0.110042 0.278034
742 2 0.426733 0.0845382 0.258662
743 4 0.424466 0.0987412 0.279114
577 2 0.0132446 0.181393 0.26325
578 4 0.0362276 0.191097 0.264922
391 2 0.0500689 0.19998 0.306033
393 4 0.045283 0.192152 0.282773
276 4 0.178432 0.192975 0.337518
474 4 0.197609 0.189645 0.340226
274 2 0.168895 0.215777 0.3413
343 2 0.252382 0.243699 0.262578
284 4 0.266293 0.20335 0.263756
614 4 0.390481 0.232574 0.307083
613 2 0.380446 0.237628 0.329419
762 4 0.395139 0.168455 0.294556
760 2 0.398878 0.193165 0.295351
419 4 0.412431 0.23383 0.307115
761 4 0.402616 0.217875 0.296147
418 2 0.423892 0.248375 0.290315
442 2 0.00573246 0.305634 0.248331
444 4 0.0273927 0.293168 0.249109
395 4 0.0368941 0.275353 0.251635
278 4 0.229276 0.280672 0.263351
309 4 0.231837 0.276695 0.284056
345 4 0.243898 0.265987 0.27009
307 2 0.246954 0.282282 0.303173
509 4 0.250987 0.299465 0.336461
308 4 0.26207 0.287869 0.32229
497 4 0.269859 0.306876 0.32918
2682 4 0.493667 0.24039 0.277431
543 4 0.423188 0.271078 0.257918
520 2 0.468156 0.262789 0.259327
522 4 0.491513 0.2544 0.262371
420 4 0.435353 0.26292 0.273514
407 4 0.0282638 0.378662 0.33467
548 4 0.0225605 0.39095 0.321623
547 2 0.0376952 0.410823 0.320541
300 4 0.135991 0.401058 0.245118
298 2 0.135555 0.386872 0.265703
734 4 0.129445 0.354356 0.287643
299 4 0.135119 0.372686 0.286289
733 2 0.146177 0.350458 0.30581
438 4 0.319233 0.409547 0.244494
729 4 0.33478 0.401851 0.257266
751 2 0.404607 0.418738 0.300533
727 2 0.350825 0.413221 0.272709
445 2 0.428478 0.406047 0.24574
752 4 0.422417 0.404975 0.311422
561 4 0.437308 0.399164 0.323866
1758 4 0.0424462 0.41732 0.257528
777 4 0.0579045 0.445916 0.331243
601 2 0.141674 0.440639 0.244053
412 2 0.136729 0.458244 0.29807
413 4 0.126428 0.456662 0.320798
776 4 0.105514 0.459368 0.323954
775 2 0.081709 0.452642 0.327599
414 4 0.147031 0.459827 0.275342
602 4 0.14793 0.462351 0.25476
1435 2 0.238294 0.44217 0.253113
1437 4 0.220997 0.45571 0.265057
435 4 0.319827 0.463132 0.328679
2 3 0.350878 0.464309 0.285191
4 3 0.336819 0.467496 0.319902
753 4 0.386798 0.432501 0.289643
728 4 0.366869 0.42459 0.288152
1 1 0.350747 0.477322 0.304159
5 3 0.371933 0.478812 0.31238
1803 4 0.374437 0.4381 0.273289
1802 4 0.392672 0.479503 0.251982
1801 2 0.383554 0.458802 0.262635
3 3 0.342869 0.498454 0.298703
446 4 0.424262 0.421013 0.265321
2862 4 0.49665 0.43461 0.282502
116 1 0.488635 0.450615 0.32318
713 4 0.430811 0.437307 0.276699
712 2 0.454921 0.443152 0.279817
714 4 0.479031 0.448997 0.282935
231 4 0.467093 0.476974 0.326393
229 2 0.452357 0.494136 0.315738
119 3 0.466244 0.454775 0.327623
233 4 0.0101335 0.0540499 0.364899
318 4 0.069776 0.0719544 0.395354
234 4 0.0543338 0.0654404 0.385327
232 2 0.0322337 0.0597451 0.375113
1464 4 0.134014 0.0135498 0.336519
404 4 0.148293 0.0840887 0.328481
316 2 0.0891876 0.0593118 0.404764
317 4 0.108599 0.0466692 0.414173
427 2 0.104546 0.00342676 0.41853
428 4 0.101932 0.0279334 0.422745
684 4 0.275492 0.0709352 0.403151
632 4 0.273725 0.0416192 0.34158
631 2 0.295998 0.0304976 0.343904
682 2 0.271569 0.0611528 0.380478
683 4 0.267647 0.0513704 0.357804
1182 4 0.265052 0.0620969 0.420174
633 4 0.318271 0.019376 0.346229
725 4 0.330405 0.00278415 0.350838
724 2 0.355366 0.00397958 0.350019
726 4 0.380328 0.00517502 0.3492
256 2 0.403251 0.0399138 0.350572
258 4 0.422509 0.0381608 0.366423
424 2 0.416661 0.0128726 0.404566
514 2 0.417721 0.0709832 0.396395
2643 4 0.502018 0.0488146 0.365111
425 4 0.41633 0.0280626 0.384708
452 4 0.482019 0.0454177 0.367898
451 2 0.458574 0.0422792 0.376
453 4 0.435128 0.0391407 0.384102
515 4 0.415091 0.0499388 0.383152
397 2 0.0258965 0.141519 0.330568
399 4 0.0502479 0.135878 0.331172
732 4 0.0618897 0.139073 0.346899
730 2 0.0811619 0.147873 0.360178
405 4 0.153814 0.131432 0.34361
403 2 0.151054 0.10776 0.336046
598 2 0.135237 0.160284 0.35275
685 2 0.118762 0.161833 0.405322
731 4 0.100434 0.156673 0.373457
686 4 0.117132 0.167333 0.380986
320 4 0.265761 0.0833472 0.417498
319 2 0.267785 0.107318 0.410679
467 4 0.278569 0.149326 0.394917
321 4 0.26981 0.131288 0.403859
899 4 0.266483 0.150566 0.412597
574 2 0.440626 0.124263 0.390152
576 4 0.44725 0.145483 0.378706
305 4 0.43591 0.156056 0.366048
575 4 0.434002 0.103042 0.401598
516 4 0.420351 0.0920275 0.409639
392 4 0.0548548 0.207808 0.329292
2654 4 0.0562586 0.219461 0.345538
2653 2 0.0405133 0.238698 0.34822
599 4 0.112571 0.167817 0.360144
616 2 0.0799138 0.257933 0.411771
617 4 0.0860302 0.245318 0.391067
388 2 0.118591 0.234041 0.367452
390 4 0.0978919 0.232515 0.381394
389 4 0.139291 0.235568 0.35351
275 4 0.159358 0.238578 0.345082
401 4 0.154395 0.245883 0.364418
472 2 0.220121 0.193831 0.350271
473 4 0.242632 0.198017 0.360316
410 4 0.252191 0.210155 0.375986
468 4 0.259791 0.189867 0.372455
466 2 0.26918 0.169596 0.383686
409 2 0.260651 0.223809 0.395148
411 4 0.26911 0.237464 0.414309
717 4 0.34464 0.239554 0.410843
615 4 0.370411 0.242682 0.351756
715 2 0.357606 0.236359 0.389705
716 4 0.370573 0.233165 0.368566
304 2 0.445213 0.179259 0.365549
269 4 0.447959 0.221263 0.368678
306 4 0.454515 0.202462 0.36505
268 2 0.438152 0.231208 0.389416
270 4 0.428345 0.241154 0.410155
2655 4 0.024768 0.257936 0.350902
2814 4 0.0120506 0.340177 0.411916
400 2 0.169194 0.260446 0.37835
402 4 0.183993 0.275009 0.392281
375 4 0.179317 0.284549 0.410413
373 2 0.201468 0.29544 0.406426
374 4 0.223619 0.30633 0.402438
510 4 0.23358 0.306213 0.382853
378 4 0.244237 0.299363 0.399865
508 2 0.242284 0.302839 0.359657
498 4 0.316283 0.298503 0.345777
496 2 0.293071 0.302689 0.337478
376 2 0.254083 0.278593 0.409704
406 2 0.00878422 0.367027 0.345176
735 4 0.162908 0.34656 0.323977
677 4 0.161006 0.361304 0.336684
502 2 0.154215 0.401201 0.413404
676 2 0.165276 0.371691 0.359023
678 4 0.169547 0.382078 0.381363
650 4 0.187643 0.385589 0.392116
503 4 0.170851 0.39839 0.394951
649 2 0.205257 0.376488 0.407352
669 4 0.40017 0.385301 0.410669
336 4 0.382459 0.390499 0.401148
334 2 0.372244 0.371968 0.414467
667 2 0.420055 0.394715 0.398791
559 2 0.444737 0.397374 0.347673
560 4 0.452165 0.395585 0.37148
668 4 0.439941 0.40413 0.386912
588 4 0.460937 0.400583 0.390373
586 2 0.471132 0.410753 0.410814
549 4 0.05283 0.430696 0.319459
1545 4 0.119657 0.465818 0.338767
1543 2 0.123864 0.489279 0.346321
433 2 0.310332 0.460501 0.351659
434 4 0.300838 0.457871 0.37464
3990 4 0.464147 0.466911 0.345814
593 4 0.45347 0.496654 0.398324
3989 4 0.469593 0.488727 0.390481
3988 2 0.46687 0.477819 0.368147
1781 4 0.122195 0.0345894 0.42547
1780 2 0.139802 0.0383679 0.442816
1782 4 0.157409 0.0421463 0.460162
368 4 0.124936 0.0810763 0.479002
341 4 0.167695 0.0594987 0.467572
2430 4 0.171348 0.0407342 0.47686
2428 2 0.185115 0.0425775 0.49765
340 2 0.174065 0.0814271 0.457386
1180 2 0.279315 0.0511339 0.437539
1181 4 0.293579 0.0401708 0.454904
963 4 0.286816 0.0498479 0.47262
432 4 0.307056 0.0425481 0.47129
961 2 0.277454 0.0409002 0.494009
430 2 0.330488 0.0342504 0.473988
842 4 0.409363 0.00510277 0.443436
431 4 0.35392 0.0259527 0.476686
841 2 0.388464 0.0152956 0.45263
843 4 0.367565 0.0254883 0.461823
1216 2 0.447 0.0115656 0.455018
1218 4 0.464154 0.0238892 0.4684
1217 4 0.429847 0.999242 0.441637
2585 4 0.99899 0.147308 0.439962
458 4 0.00668046 0.158945 0.456574
457 2 0.0238002 0.146379 0.469772
719 4 0.0459131 0.116057 0.490182
459 4 0.0409198 0.133813 0.482969
718 2 0.0332138 0.0970608 0.500333
938 4 0.0757674 0.16101 0.492866
939 4 0.0800341 0.127262 0.456212
937 2 0.0779007 0.144136 0.474539
687 4 0.120392 0.156334 0.429659
367 2 0.107178 0.0955842 0.469036
369 4 0.0894189 0.110092 0.45907
1151 4 0.137522 0.150987 0.438876
1150 2 0.157787 0.136367 0.439763
342 4 0.180435 0.103355 0.4472
1152 4 0.178051 0.121748 0.440651
898 2 0.272097 0.154844 0.436584
900 4 0.27771 0.159122 0.460571
261 4 0.0871167 0.239045 0.488255
1035 4 0.0786574 0.219165 0.489724
487 2 0.306782 0.245785 0.427346
489 4 0.281971 0.248844 0.426859
488 4 0.331593 0.242726 0.427832
267 4 0.351235 0.234063 0.431507
813 4 0.362833 0.214964 0.482779
266 4 0.371592 0.204878 0.466643
265 2 0.361413 0.21947 0.449075
2924 4 0.412321 0.247068 0.421692
3157 2 0.505479 0.216816 0.495967
3159 4 0.496202 0.238215 0.504977
618 4 0.0737974 0.270547 0.432474
260 4 0.087042 0.270591 0.449454
347 4 0.0852993 0.288068 0.437104
259 2 0.0870793 0.254818 0.468855
346 2 0.104668 0.303785 0.438847
348 4 0.124036 0.319501 0.440591
10 3 0.12709 0.326847 0.459579
9 3 0.162701 0.326471 0.4718
1259 4 0.164891 0.307757 0.478419
377 4 0.263929 0.257822 0.419544
238 2 0.357781 0.315749 0.435572
2925 4 0.380202 0.278446 0.443705
239 4 0.368472 0.294289 0.442668
872 4 0.406183 0.291747 0.504288
2923 2 0.396261 0.262757 0.432699
584 4 0.46353 0.313956 0.482405
6 1 0.145846 0.339429 0.462504
8 3 0.152828 0.348085 0.442139
7 3 0.141135 0.35685 0.476767
504 4 0.137579 0.404012 0.431857
711 4 0.126738 0.372301 0.475953
709 2 0.122934 0.390442 0.459171
710 4 0.119131 0.408582 0.442388
651 4 0.22287 0.367387 0.422587
335 4 0.362028 0.353436 0.427787
240 4 0.34709 0.337209 0.428475
2456 4 0.466004 0.327863 0.496437
679 2 0.074706 0.446799 0.491141
681 4 0.058266 0.461374 0.479205
382 2 0.0539246 0.496926 0.46716
383 4 0.0434564 0.476509 0.477095
680 4 0.0911461 0.432224 0.503077
774 4 0.202393 0.462797 0.474903
773 4 0.170701 0.455996 0.436824
772 2 0.186547 0.459396 0.455864
635 4 0.192981 0.478031 0.482564
634 2 0.205868 0.49655 0.493341
663 4 0.485016 0.441882 0.43117
1910 4 0.473645 0.470484 0.483544
661 2 0.476335 0.447637 0.453901
662 4 0.467654 0.453393 0.476632
587 4 0.481326 0.420922 0.431255
1909 2 0.46697 0.483117 0.504063
720 4 0.0205145 0.0780643 0.510484
2429 4 0.198883 0.0444208 0.518441
1284 4 0.223638 0.0704763 0.584108
1059 4 0.207111 0.0752662 0.574646
1090 2 0.336037 0.00930952 0.578725
962 4 0.268092 0.0319524 0.515397
1091 4 0.355494 0.0168151 0.56493
2196 4 0.355216 0.0103301 0.546878
2194 2 0.356072 0.0046413 0.522545
2195 4 0.356928 0.998953 0.498212
1060 2 0.484351 0.0262808 0.568996
810 4 0.486128 0.0558337 0.560848
1062 4 0.469399 0.0463058 0.568211
808 2 0.496411 0.077662 0.554292
327 4 0.0714071 0.243529 0.564946
696 4 0.0853226 0.250737 0.549796
695 4 0.0732115 0.234925 0.503926
694 2 0.0792671 0.242831 0.526861
1034 4 0.0871147 0.172123 0.504429
1033 2 0.0828861 0.195644 0.497077
878 4 0.0922992 0.245747 0.569747
857 4 0.203116 0.230755 0.515257
856 2 0.200214 0.255453 0.517866
796 2 0.253364 0.24477 0.576818
953 4 0.394681 0.239045 0.539426
812 4 0.378872 0.230273 0.527602
791 4 0.3774 0.250844 0.535906
873 4 0.390943 0.246723 0.519824
952 2 0.412904 0.230554 0.554292
811 2 0.370853 0.222618 0.505191
954 4 0.431127 0.222064 0.569159
905 4 0.445812 0.209967 0.56432
3066 4 0.486973 0.255576 0.50413
982 2 0.0116674 0.292192 0.550084
984 4 0.0300087 0.289646 0.566886
326 4 0.0455257 0.283542 0.580105
1136 4 0.0497837 0.297381 0.563913
325 2 0.0584664 0.263536 0.572525
1135 2 0.0622543 0.319053 0.563818
1258 2 0.173232 0.301082 0.501025
1260 4 0.181573 0.294406 0.523632
858 4 0.197313 0.28015 0.520476
797 4 0.250208 0.268093 0.568376
1237 2 0.329127 0.296195 0.586682
1238 4 0.329849 0.273512 0.576188
790 2 0.35608 0.258721 0.546327
792 4 0.33476 0.266598 0.556748
871 2 0.398563 0.269235 0.512056
585 4 0.416168 0.30534 0.495946
583 2 0.439849 0.309648 0.489176
936 4 0.0182359 0.391193 0.543457
934 2 0.0319749 0.405005 0.55913
1137 4 0.0747249 0.340724 0.563724
991 2 0.140423 0.394702 0.584216
993 4 0.123852 0.408812 0.571909
1159 2 0.1102 0.410107 0.531198
1160 4 0.104284 0.419154 0.508652
928 2 0.346296 0.354579 0.576255
882 4 0.359701 0.391885 0.557316
930 4 0.356885 0.3764 0.57018
925 2 0.478065 0.399681 0.53665
926 4 0.466079 0.389424 0.517251
2455 2 0.488691 0.334324 0.504729
1039 2 0.0828569 0.413301 0.57922
3430 2 0.0401302 0.461424 0.573471
3431 4 0.0328853 0.483499 0.564231
935 4 0.0457139 0.418818 0.574802
3432 4 0.047375 0.439349 0.582711
4434 4 0.0116128 0.483429 0.558044
538 2 0.024112 0.46241 0.510486
4251 4 0.0267265 0.493832 0.546719
1041 4 0.0620815 0.424492 0.587486
539 4 0.0413027 0.461543 0.49235
1040 4 0.103632 0.40211 0.570954
1161 4 0.116117 0.40106 0.553744
1455 4 0.33165 0.487999 0.536957
1445 4 0.320871 0.504417 0.527485
2046 4 0.334824 0.493138 0.516146
1453 2 0.341976 0.470729 0.5518
1454 4 0.352302 0.45346 0.566644
880 2 0.352248 0.414298 0.56552
881 4 0.344796 0.43671 0.573724
4086 4 0.472872 0.499355 0.578434
1911 4 0.460296 0.495751 0.524581
1183 2 0.020024 0.0713692 0.652716
1891 2 0.0127252 0.0197192 0.613352
1185 4 0.0337241 0.0913643 0.658855
1184 4 0.00632379 0.0513741 0.646578
1892 4 0.00549798 0.0359777 0.630919
1893 4 0.0199525 0.00346073 0.595785
1282 2 0.239574 0.0545805 0.594996
2131 2 0.245036 0.0280888 0.647857
1283 4 0.25551 0.0386847 0.605884
2132 4 0.255905 0.0372211 0.627275
1031 4 0.274456 0.0358996 0.616022
1030 2 0.292091 0.0182559 0.614318
1092 4 0.316581 0.00180396 0.592519
1081 2 0.0222151 0.12703 0.651775
1082 4 0.0380518 0.111847 0.663769
943 2 0.0705179 0.0926144 0.650866
944 4 0.0525146 0.0961081 0.667861
1083 4 0.0063783 0.142213 0.639781
945 4 0.0885213 0.0891206 0.63387
1057 2 0.203962 0.0960786 0.588141
1058 4 0.200812 0.116891 0.601635
1155 4 0.185766 0.132274 0.602261
1153 2 0.184437 0.157168 0.604195
909 4 0.188594 0.119303 0.619226
907 2 0.200737 0.113897 0.640404
908 4 0.212881 0.10849 0.661581
886 2 0.321449 0.164191 0.633889
831 4 0.355161 0.0902532 0.614014
830 4 0.346204 0.134137 0.636255
829 2 0.350682 0.112195 0.625135
887 4 0.338308 0.150991 0.646802
1194 4 0.349432 0.136177 0.657146
1026 4 0.450329 0.141827 0.650493
1024 2 0.451119 0.150158 0.626932
1143 4 0.451629 0.125808 0.664473
1025 4 0.451909 0.158489 0.60337
1209 4 0.0487273 0.243728 0.657728
877 2 0.106119 0.234758 0.587451
1272 4 0.124814 0.204904 0.599671
1270 2 0.149386 0.203211 0.60398
879 4 0.119939 0.223769 0.605154
948 4 0.140189 0.220496 0.6621
1154 4 0.183107 0.182061 0.606129
1271 4 0.173957 0.201517 0.608288
1221 4 0.194782 0.199562 0.603352
1219 2 0.219108 0.204084 0.599746
1220 4 0.243434 0.208606 0.596141
798 4 0.256519 0.221447 0.585259
1212 4 0.259043 0.200227 0.583855
888 4 0.304591 0.177391 0.620977
1211 4 0.302582 0.182455 0.600861
1210 2 0.280813 0.191341 0.592358
904 2 0.442901 0.192445 0.581918
906 4 0.439989 0.174924 0.599516
1243 2 0.011282 0.255732 0.667892
1207 2 0.0701685 0.254564 0.664658
804 4 0.314842 0.332708 0.587996
1239 4 0.328405 0.318878 0.597176
802 2 0.298161 0.345458 0.601575
992 4 0.156993 0.380591 0.596524
1068 4 0.155343 0.35866 0.645231
1066 2 0.131223 0.356834 0.651564
1067 4 0.107104 0.355009 0.657896
941 4 0.0956964 0.347814 0.672666
1028 4 0.17408 0.352646 0.651714
897 4 0.174086 0.382456 0.604446
1191 4 0.22459 0.342914 0.622818
896 4 0.205085 0.348003 0.623229
895 2 0.189586 0.365229 0.613838
1189 2 0.245114 0.355204 0.615546
929 4 0.335708 0.332758 0.58233
803 4 0.281481 0.358208 0.615154
1190 4 0.265638 0.367494 0.608273
3113 4 0.487693 0.348195 0.623659
3264 4 0.0426194 0.422688 0.595759
3263 4 0.0122987 0.424478 0.635485
3239 4 0.0109682 0.427777 0.656649
3262 2 0.0274591 0.423583 0.615622
3238 2 0.0253684 0.446103 0.665704
1187 4 0.232563 0.482902 0.60763
2436 4 0.249977 0.473827 0.602021
1173 4 0.317848 0.475358 0.599399
1171 2 0.326763 0.470659 0.622282
2435 4 0.298655 0.484767 0.598644
2434 2 0.274316 0.479297 0.600332
2154 4 0.316601 0.496461 0.59776
891 4 0.323449 0.460958 0.660118
1172 4 0.335678 0.46596 0.645165
3183 4 0.468194 0.491733 0.597866
1204 2 0.49345 0.436776 0.643415
3181 2 0.486135 0.475328 0.603713
1205 4 0.479271 0.43036 0.662985
2133 4 0.234166 0.0189564 0.668439
824 4 0.228033 0.00944866 0.684629
2255 4 0.163602 0.0049628 0.708098
825 4 0.18065 0.0108618 0.700552
823 2 0.204342 0.0101552 0.692591
42 3 0.495422 0.0410698 0.707083
43 3 0.458132 0.0371176 0.704526
846 4 0.453826 0.0490737 0.719138
44 3 0.475249 0.0677732 0.689977
41 1 0.47711 0.0449481 0.693712
45 3 0.479833 0.0340306 0.673912
844 2 0.446991 0.0480222 0.743166
862 2 0.00308022 0.128973 0.743796
1076 4 0.0341153 0.0970046 0.679791
1077 4 0.0378707 0.112387 0.727225
1075 2 0.035993 0.104696 0.703508
864 4 0.0221257 0.122367 0.729004
1105 2 0.0700274 0.154983 0.711356
1177 2 0.0128571 0.163679 0.694603
1072 2 0.130632 0.1468 0.717312
1074 4 0.152301 0.137479 0.70902
1073 4 0.108963 0.15612 0.725604
1106 4 0.0887844 0.148425 0.726533
1215 4 0.100142 0.150869 0.744363
1227 4 0.219773 0.110904 0.680621
1226 4 0.225097 0.113021 0.730299
1225 2 0.222435 0.111962 0.70546
1130 4 0.226029 0.126177 0.747178
1148 4 0.209542 0.112698 0.745493
1192 2 0.365256 0.150332 0.670352
1193 4 0.38108 0.164487 0.683559
1142 4 0.472911 0.0875708 0.688675
1263 4 0.445601 0.14495 0.671346
1141 2 0.46227 0.106689 0.676574
3424 2 0.485694 0.158693 0.695015
1261 2 0.42204 0.152885 0.674009
1245 4 0.0311515 0.240623 0.669337
852 4 0.0464207 0.225884 0.668937
1107 4 0.0512704 0.161541 0.696178
1178 4 0.0347304 0.174872 0.699236
850 2 0.0500307 0.20434 0.681102
851 4 0.0536408 0.182796 0.693267
946 2 0.125307 0.238882 0.670204
1084 2 0.294255 0.241178 0.743238
1262 4 0.398479 0.16082 0.676671
3123 4 0.498401 0.243025 0.68437
3270 4 0.478609 0.18973 0.716816
3426 4 0.469394 0.175274 0.704211
1146 4 0.466061 0.196052 0.700797
1145 4 0.486675 0.23168 0.672399
1144 2 0.476368 0.213866 0.686598
3268 2 0.469402 0.190905 0.740033
1208 4 0.0916097 0.265401 0.671588
947 4 0.110425 0.257267 0.678308
821 4 0.0928779 0.296649 0.732976
820 2 0.096067 0.283722 0.711812
822 4 0.099256 0.270795 0.690648
1242 4 0.106869 0.305067 0.745137
1297 2 0.242885 0.254888 0.732432
1298 4 0.219592 0.250054 0.74013
1086 4 0.286016 0.257627 0.726306
1299 4 0.266178 0.259723 0.724734
1096 2 0.321727 0.326718 0.737346
1098 4 0.313617 0.324202 0.713829
816 4 0.00992742 0.373783 0.691882
892 2 0.0728405 0.407781 0.735161
893 4 0.0733166 0.38536 0.724105
815 4 0.052695 0.383916 0.715736
814 2 0.0313112 0.378849 0.703809
942 4 0.0691943 0.372948 0.706823
940 2 0.0824454 0.360381 0.689745
1027 2 0.189423 0.359701 0.670153
1029 4 0.204766 0.366756 0.688592
1139 4 0.222968 0.377751 0.688749
1063 2 0.222888 0.361119 0.728136
1065 4 0.213815 0.371963 0.707514
1138 2 0.230998 0.401414 0.689627
1140 4 0.239028 0.425076 0.690506
1101 4 0.441758 0.410132 0.718898
1099 2 0.452573 0.416734 0.697343
2170 2 0.0633503 0.496059 0.688329
894 4 0.0723644 0.430202 0.746217
3240 4 0.0397685 0.464428 0.674758
2172 4 0.0484067 0.476128 0.690477
1279 2 0.0460667 0.450214 0.716277
1280 4 0.0559459 0.44149 0.737524
1281 4 0.0361876 0.458939 0.695029
1983 4 0.0737619 0.451801 0.745145
2016 4 0.18609 0.487949 0.729018
1176 4 0.203211 0.491849 0.716089
889 2 0.319885 0.479406 0.676615
1100 4 0.463387 0.423337 0.675787
1269 4 0.471384 0.443208 0.678176
1267 2 0.474995 0.466449 0.686662
1268 4 0.478606 0.48969 0.695148
2169 4 0.480346 0.500072 0.67846
1203 4 0.0874936 0.0230496 0.783117
1201 2 0.0828164 0.00946605 0.762653
911 4 0.0987519 0.0302525 0.799734
1196 4 0.0806702 0.0191956 0.80329
910 2 0.1079 0.0535184 0.800172
912 4 0.117048 0.0767843 0.80061
1195 2 0.0829594 0.00148813 0.820794
1287 4 0.12927 0.074229 0.819629
1149 4 0.182038 0.0875329 0.778824
2400 4 0.334404 0.0171742 0.769982
2398 2 0.343537 0.0404315 0.770911
1049 4 0.367213 0.0733893 0.785187
1111 2 0.396536 0.0598468 0.769091
2399 4 0.35267 0.0636889 0.771841
1112 4 0.372958 0.0666378 0.764279
1113 4 0.420113 0.0530558 0.773903
845 4 0.440156 0.0469707 0.767194
980 4 0.42934 0.0354266 0.781842
979 2 0.432442 0.0281854 0.805572
981 4 0.435543 0.0209442 0.829302
152 3 0.0301489 0.155096 0.817374
34 3 0.0782655 0.0935346 0.82501