ITEM: TIMESTEP
3190000
ITEM: NUMBER OF ATOMS
4590
ITEM: BOX BOUNDS pp pp pp
-9.9985700000000008e+00 9.9985700000000008e+00
-9.9985700000000008e+00 9.9985700000000008e+00
-9.9985700000000008e+00 9.9985700000000008e+00
ITEM: ATOMS id type xs ys zs
1666 2 0.0454284 0.03694 0.056301
1667 4 0.0413807 0.0610826 0.0613931
1668 4 0.0494761 0.0127973 0.051209
702 4 0.0553813 0.0764512 0.0663848
591 4 0.0359429 0.0815451 0.059132
532 2 0.157931 0.0464022 0.040583
533 4 0.150201 0.0288288 0.0566015
1605 4 0.158332 0.00886318 0.0560446
534 4 0.165662 0.0639756 0.0245645
1476 4 0.165944 0.0234936 0.0701052
423 4 0.182748 0.0652042 0.0321143
1474 2 0.178363 0.0297745 0.0908775
490 2 0.297546 0.072983 0.0621995
492 4 0.306054 0.0496617 0.0651853
297 4 0.435235 0.0803298 0.0587059
700 2 0.0720124 0.0900499 0.0791777
589 2 0.0281733 0.0959971 0.0402653
590 4 0.0204036 0.110449 0.0213987
3232 2 0.030684 0.149834 0.00405093
3233 4 0.0194149 0.127983 0.00860299
1248 4 0.00355651 0.123486 0.023161
421 2 0.195871 0.0864861 0.031927
422 4 0.208995 0.107768 0.0317397
652 2 0.247031 0.107822 0.0551983
654 4 0.223887 0.109763 0.0459379
491 4 0.289039 0.0963044 0.0592137
653 4 0.270175 0.105882 0.0644586
565 2 0.294371 0.128136 0.0320841
566 4 0.306213 0.142717 0.0155816
567 4 0.282528 0.113555 0.0485867
665 4 0.327324 0.14824 0.0150301
556 2 0.401498 0.149151 0.058516
558 4 0.380756 0.163056 0.0597878
664 2 0.344737 0.152638 0.0324262
666 4 0.36215 0.157036 0.0498223
866 4 0.327466 0.1561 0.997087
295 2 0.449692 0.0904542 0.0764168
557 4 0.42224 0.135247 0.0572442
3234 4 0.0419531 0.171685 0.999499
555 4 0.0572607 0.182716 0.997677
571 2 0.372923 0.198301 0.0428483
572 4 0.365271 0.178079 0.0554065
573 4 0.380576 0.218522 0.0302902
1071 4 0.379455 0.233201 0.0164632
623 4 0.410827 0.238703 0.0761713
324 4 0.422769 0.238886 0.0594422
322 2 0.446027 0.247358 0.0559084
771 4 0.487281 0.258723 0.0408353
518 4 0.485472 0.242034 0.0540119
323 4 0.469284 0.25583 0.0523746
505 2 0.146932 0.302358 0.00512162
293 4 0.151536 0.318027 0.0416962
292 2 0.135219 0.311903 0.0596254
294 4 0.118903 0.305779 0.0775547
507 4 0.160493 0.31554 0.0214776
288 4 0.16693 0.330975 0.0346417
286 2 0.191701 0.329459 0.0376873
287 4 0.216472 0.327944 0.040733
483 4 0.219433 0.327197 0.0600503
481 2 0.236615 0.319501 0.0765035
1069 2 0.375593 0.257117 0.0226527
957 4 0.385025 0.288428 0.0430953
1070 4 0.371732 0.281033 0.0288422
955 2 0.408438 0.29699 0.0450161
769 2 0.491607 0.253199 0.0168363
956 4 0.431851 0.305552 0.0469368
282 4 0.450285 0.300925 0.0531548
280 2 0.458397 0.321998 0.0638916
1056 4 0.0192479 0.344619 0.0479739
1168 2 0.0281762 0.379457 0.0262902
1170 4 0.0275181 0.355732 0.0341547
1169 4 0.0288342 0.403182 0.0184257
39 3 0.315274 0.41098 0.990645
607 2 0.297823 0.379466 0.075736
608 4 0.29576 0.403289 0.06843
281 4 0.466509 0.343072 0.0746285
330 4 0.0350428 0.420184 0.00689351
551 4 0.0208974 0.423295 0.0230985
550 2 0.0225915 0.430623 0.046944
552 4 0.0242855 0.437952 0.0707894
315 4 0.0209611 0.448364 0.0893631
313 2 0.0430196 0.460042 0.0878702
620 4 0.00841538 0.431757 0.0836649
314 4 0.065078 0.47172 0.0863774
1691 4 0.0826265 0.483559 0.0821225
1786 2 0.105348 0.451217 0.0828699
1788 4 0.125991 0.438898 0.0759918
241 2 0.244045 0.488599 0.0585521
242 4 0.225495 0.504645 0.0536977
243 4 0.262596 0.472552 0.0634065
626 4 0.27815 0.41443 0.0723259
627 4 0.278424 0.464341 0.075406
625 2 0.278287 0.439386 0.0738659
245 4 0.321197 0.441544 0.0517693
244 2 0.331531 0.448265 0.0300159
246 4 0.341865 0.454985 0.00826239
562 2 0.457809 0.486811 0.00371165
564 4 0.477429 0.471624 0.000610169
2481 4 0.0151559 0.035797 0.124694
18 3 0.0138077 0.0475834 0.139948
2479 2 0.0190195 0.0110957 0.12501
16 1 0.0214324 0.0662897 0.128531
19 3 0.0290497 0.0601666 0.107486
1475 4 0.190782 0.0360553 0.11165
1785 4 0.349499 0.0523569 0.152569
20 3 0.0382101 0.0762552 0.140272
448 2 0.131857 0.0969742 0.0955421
236 4 0.102663 0.118566 0.0856696
237 4 0.0864428 0.165703 0.0896304
235 2 0.0945531 0.142134 0.08765
450 4 0.155237 0.0958463 0.104334
701 4 0.0886434 0.103649 0.0919707
449 4 0.108478 0.098102 0.08675
296 4 0.464148 0.100579 0.0941276
477 4 0.10543 0.171221 0.0859139
476 4 0.119969 0.217346 0.0986328
339 4 0.128637 0.222924 0.115576
475 2 0.1127 0.194283 0.0922734
337 2 0.121108 0.244869 0.1249
461 4 0.284237 0.205575 0.103931
354 4 0.274856 0.210948 0.121247
460 2 0.307342 0.214409 0.100283
352 2 0.26298 0.230811 0.130714
462 4 0.330447 0.223242 0.0966356
255 4 0.338377 0.218054 0.114084
254 4 0.386305 0.229064 0.123164
253 2 0.362341 0.223559 0.118624
630 4 0.398799 0.227527 0.138269
628 2 0.42023 0.216914 0.145566
629 4 0.441662 0.206301 0.152863
456 4 0.107134 0.311137 0.0933393
338 4 0.113579 0.266813 0.134223
363 4 0.117991 0.265804 0.152818
454 2 0.104645 0.328419 0.111237
736 2 0.21109 0.257875 0.15742
737 4 0.235156 0.261078 0.151442
353 4 0.251103 0.250673 0.140181
482 4 0.253798 0.311804 0.0929567
755 4 0.252054 0.271887 0.144154
756 4 0.266571 0.298342 0.104278
754 2 0.259312 0.285115 0.124216
252 4 0.262849 0.318564 0.111393
622 2 0.399137 0.257871 0.0871757
624 4 0.387447 0.27704 0.0981802
741 4 0.385794 0.286685 0.115941
739 2 0.382165 0.311057 0.111698
740 4 0.378535 0.33543 0.107455
455 4 0.102156 0.345701 0.129134
537 4 0.0905142 0.361102 0.138036
535 2 0.101863 0.372506 0.157176
250 2 0.281934 0.334246 0.107517
251 4 0.301019 0.349928 0.103641
609 4 0.299887 0.355643 0.083042
387 4 0.31154 0.338686 0.0882168
386 4 0.358626 0.333942 0.104376
385 2 0.335083 0.336314 0.0962966
11 1 0.399268 0.382928 0.137959
13 3 0.389539 0.398319 0.123576
14 3 0.409605 0.366116 0.125756
15 3 0.383413 0.373975 0.151639
495 4 0.413751 0.369045 0.107342
671 4 0.473122 0.361706 0.0852273
494 4 0.457316 0.349262 0.092803
12 3 0.415107 0.393663 0.150728
493 2 0.435533 0.359154 0.100073
595 2 0.456799 0.397799 0.145522
596 4 0.47755 0.409197 0.137482
597 4 0.436048 0.3864 0.153563
2652 4 0.484386 0.418389 0.12106
670 2 0.492218 0.358987 0.101137
1467 4 0.0157868 0.500657 0.169087
1787 4 0.0847056 0.463536 0.0897479
1440 4 0.26694 0.480376 0.0836167
1438 2 0.269327 0.488882 0.107008
637 2 0.281237 0.49225 0.161963
639 4 0.263455 0.503096 0.148129
1439 4 0.271714 0.497387 0.130399
659 4 0.366185 0.451659 0.157013
525 4 0.353056 0.455931 0.143817
523 2 0.342974 0.478676 0.146307
1506 4 0.249689 0.00641587 0.210334
1700 4 0.216706 0.0229303 0.249997
21 1 0.329653 0.0648728 0.232621
23 3 0.30701 0.0666405 0.227873
22 3 0.33586 0.0427729 0.231133
25 3 0.341709 0.0770756 0.217641
1783 2 0.349953 0.0622576 0.175524
1784 4 0.350408 0.0721582 0.198479
759 4 0.363317 0.0788908 0.215499
757 2 0.384961 0.0759087 0.227659
758 4 0.406604 0.0729266 0.239818
312 4 0.422475 0.0678011 0.225861
744 4 0.424684 0.0603987 0.246112
1749 4 0.458102 0.00586461 0.211209
1747 2 0.463719 0.0224894 0.22902
310 2 0.433958 0.0719195 0.204035
311 4 0.44544 0.0760379 0.182209
690 4 0.149965 0.084807 0.235198
693 4 0.144656 0.0857166 0.216026
691 2 0.154382 0.108318 0.211582
692 4 0.164109 0.13092 0.207138
723 4 0.176926 0.147022 0.211887
721 2 0.179224 0.158166 0.234152
582 4 0.287909 0.167915 0.217694
285 4 0.273093 0.158277 0.228205
707 4 0.377062 0.127056 0.216192
706 2 0.371789 0.149461 0.206425
748 2 0.0404795 0.219582 0.189139
750 4 0.0573075 0.226922 0.206113
396 4 0.0605545 0.230574 0.224988
749 4 0.0236514 0.212242 0.172165
581 4 0.326844 0.186096 0.192118
580 2 0.307376 0.177006 0.204906
283 2 0.263411 0.174083 0.244986
30 3 0.337778 0.203505 0.190005
28 3 0.365476 0.219048 0.169785
27 3 0.363131 0.22514 0.206799
708 4 0.366516 0.171866 0.196657
29 3 0.37305 0.191081 0.194379
26 1 0.359719 0.209603 0.190182
394 2 0.0502162 0.249098 0.238223
442 2 0.0111744 0.292885 0.243938
444 4 0.0349394 0.28512 0.243608
361 2 0.124426 0.281242 0.171404
362 4 0.130862 0.29668 0.18999
372 4 0.141997 0.305427 0.202857
370 2 0.164225 0.303024 0.214053
738 4 0.187023 0.254671 0.163397
371 4 0.186452 0.300621 0.22525
279 4 0.197186 0.304298 0.24364
612 4 0.191017 0.321159 0.231374
765 4 0.392965 0.293405 0.237056
763 2 0.370141 0.300634 0.229844
764 4 0.347318 0.307863 0.222631
542 4 0.410194 0.296813 0.225352
541 2 0.425863 0.280377 0.235818
543 4 0.441532 0.263941 0.246283
520 2 0.487002 0.256626 0.240754
521 4 0.46277 0.262779 0.240403
536 4 0.113211 0.38391 0.176316
610 2 0.202698 0.342107 0.224311
417 4 0.225533 0.37715 0.211896
611 4 0.214379 0.363056 0.217247
415 2 0.240259 0.397294 0.213496
436 2 0.29344 0.41221 0.236512
438 4 0.316156 0.404397 0.243449
303 4 0.33325 0.393815 0.23541
660 4 0.352022 0.413557 0.18614
301 2 0.344657 0.394061 0.213161
302 4 0.356064 0.394306 0.190913
644 4 0.440266 0.375574 0.214486
643 2 0.43037 0.379251 0.19182
645 4 0.420473 0.382927 0.169155
447 4 0.432908 0.388187 0.229626
445 2 0.44368 0.396954 0.250417
647 4 0.00744122 0.481364 0.164307
263 4 0.0270974 0.482666 0.172174
262 2 0.0385546 0.469978 0.190421
1757 4 0.0400936 0.459155 0.226657
264 4 0.0500118 0.45729 0.208667
1756 2 0.0349906 0.459554 0.251131
416 4 0.254984 0.417438 0.215096
437 4 0.270725 0.420024 0.229575
1436 4 0.258589 0.436929 0.224063
291 4 0.272613 0.429342 0.209875
638 4 0.299018 0.481405 0.175797
289 2 0.280283 0.451517 0.201237
290 4 0.287953 0.473692 0.192598
767 4 0.296961 0.493065 0.193545
1435 2 0.246939 0.441478 0.245714
658 2 0.359103 0.432608 0.171576
1574 4 0.345679 0.49997 0.224709
1573 2 0.361022 0.489982 0.241739
673 2 0.0729452 0.0810127 0.260281
688 2 0.129978 0.0731092 0.244623
675 4 0.0899838 0.0665848 0.249025
689 4 0.10999 0.0614115 0.254049
1403 4 0.0953951 0.0457857 0.249006
1402 2 0.107014 0.0236525 0.248455
1464 4 0.113266 0.00264291 0.320996
249 4 0.172362 0.0786337 0.330161
1699 2 0.210735 0.0260247 0.274079
248 4 0.19282 0.035817 0.314383
247 2 0.182591 0.0572253 0.322272
1701 4 0.204764 0.0291191 0.298161
605 4 0.208308 0.0213639 0.317948
604 2 0.230501 0.0129564 0.32582
606 4 0.252694 0.00454901 0.333691
24 3 0.333841 0.0724057 0.254165
1496 4 0.33949 0.0371673 0.250747
1497 4 0.36286 0.0117747 0.286938
699 4 0.375812 0.0162061 0.303546
1495 2 0.351175 0.024471 0.268843
697 2 0.381739 0.0386844 0.312754
698 4 0.387666 0.0611628 0.321961
1517 4 0.384462 0.0161837 0.283592
351 4 0.389625 0.0771708 0.335831
478 2 0.495369 0.0472079 0.281495
1748 4 0.469337 0.0391142 0.246831
480 4 0.480744 0.0370561 0.263939
742 2 0.425255 0.0771857 0.264633
674 4 0.0559065 0.0954405 0.271537
579 4 0.00451731 0.147824 0.265997
577 2 0.0251642 0.161824 0.267691
398 4 0.0165001 0.135071 0.323627
531 4 0.998546 0.123106 0.323918
600 4 0.145707 0.154714 0.328195
545 4 0.15916 0.14938 0.312667
405 4 0.151445 0.134246 0.325437
403 2 0.152151 0.109485 0.328839
404 4 0.152856 0.0847239 0.332241
544 2 0.172706 0.158942 0.293952
546 4 0.186251 0.168503 0.275236
349 2 0.40442 0.0887261 0.319316
332 4 0.412447 0.158883 0.275131
331 2 0.421176 0.136692 0.28265
333 4 0.429905 0.114501 0.290168
350 4 0.419215 0.100281 0.302801
743 4 0.425826 0.0939726 0.283155
578 4 0.0458111 0.175825 0.269385
391 2 0.0553264 0.196528 0.303761
393 4 0.0543425 0.192898 0.279042
392 4 0.0563103 0.200158 0.32848
722 4 0.181522 0.169309 0.256416
343 2 0.245413 0.230853 0.271958
284 4 0.253729 0.189889 0.261767
344 4 0.255047 0.207799 0.271021
762 4 0.414612 0.169504 0.29214
760 2 0.412849 0.194309 0.294744
614 4 0.422179 0.226512 0.314122
761 4 0.411086 0.219114 0.297347
419 4 0.426977 0.233705 0.294466
418 2 0.441254 0.243574 0.276468
395 4 0.0398778 0.267622 0.251458
345 4 0.235779 0.253907 0.272895
277 2 0.208019 0.285313 0.255782
278 4 0.218852 0.266328 0.267923
309 4 0.229841 0.269485 0.286095
307 2 0.239568 0.282837 0.304864
308 4 0.249296 0.296189 0.323633
497 4 0.256715 0.314427 0.331777
496 2 0.279858 0.319272 0.323647
498 4 0.303002 0.324118 0.315517
420 4 0.45553 0.253444 0.258469
407 4 0.00613839 0.382138 0.319129
548 4 0.0255527 0.386592 0.320853
300 4 0.160125 0.405241 0.261569
298 2 0.153267 0.385658 0.275522
734 4 0.133632 0.350755 0.295284
299 4 0.14641 0.366076 0.289475
733 2 0.139315 0.353796 0.319442
729 4 0.33386 0.403044 0.255116
727 2 0.35685 0.406716 0.264233
751 2 0.413124 0.404599 0.303987
753 4 0.397217 0.405702 0.284727
728 4 0.379841 0.410388 0.273351
752 4 0.42903 0.403495 0.323247
561 4 0.445882 0.392525 0.317964
446 4 0.454452 0.405721 0.271209
1758 4 0.0298875 0.459953 0.275605
601 2 0.149218 0.442714 0.263447
412 2 0.120083 0.460947 0.308451
602 4 0.13557 0.461908 0.271842
414 4 0.13491 0.453566 0.28972
413 4 0.105256 0.468328 0.327182
776 4 0.0942091 0.449959 0.32842
603 4 0.162866 0.423519 0.255052
1437 4 0.23529 0.446027 0.267365
435 4 0.312503 0.468557 0.325143
4 3 0.31561 0.477091 0.307713
2 3 0.32917 0.496446 0.278487
1 1 0.334941 0.483424 0.296549
1575 4 0.376366 0.479993 0.258768
5 3 0.346089 0.464963 0.289231
1803 4 0.390881 0.426441 0.282018
1802 4 0.394182 0.474742 0.269494
1801 2 0.392531 0.450592 0.275756
1689 4 0.390804 0.494967 0.263638
3 3 0.348553 0.495808 0.310682
1687 2 0.413852 0.503132 0.268865
713 4 0.452801 0.425454 0.268874
712 2 0.472618 0.435885 0.279995
714 4 0.492435 0.446316 0.291115
119 3 0.491121 0.44208 0.327029
233 4 0.0173036 0.0395875 0.365898
318 4 0.0763503 0.0612726 0.392302
234 4 0.0564001 0.059662 0.389756
232 2 0.0368518 0.0496248 0.377827
316 2 0.0868165 0.0423372 0.404835
633 4 0.324114 0.00664154 0.371222
632 4 0.294735 0.0470969 0.37221
631 2 0.309425 0.0268692 0.371716
682 2 0.267238 0.062752 0.376181
683 4 0.280501 0.0516242 0.358141
684 4 0.253976 0.0738797 0.394221
725 4 0.342689 0.0147092 0.367221
257 4 0.396339 0.0575582 0.341071
256 2 0.41028 0.0515967 0.360953
514 2 0.420798 0.0751876 0.410435
2643 4 0.497197 0.0531755 0.364302
425 4 0.430767 0.0318496 0.395777
258 4 0.42422 0.0456351 0.380836
452 4 0.492709 0.0532546 0.383141
451 2 0.468076 0.0508649 0.386698
453 4 0.443442 0.0484753 0.390254
515 4 0.425187 0.052414 0.401092
397 2 0.0363777 0.134559 0.338786
399 4 0.0562553 0.134048 0.353945
732 4 0.0596178 0.125146 0.372129
730 2 0.0773415 0.142586 0.374759
598 2 0.128905 0.154894 0.346711
685 2 0.134539 0.155674 0.400066
731 4 0.0950652 0.160025 0.377389
687 4 0.155475 0.157049 0.413668
686 4 0.113604 0.154299 0.386464
599 4 0.112102 0.155075 0.365226
320 4 0.246187 0.0925655 0.401801
319 2 0.250984 0.116826 0.405485
467 4 0.269856 0.148754 0.395209
899 4 0.271444 0.154251 0.415937
321 4 0.255781 0.141087 0.40917
575 4 0.429866 0.105342 0.407422
574 2 0.431011 0.128022 0.396959
576 4 0.432156 0.150702 0.386496
305 4 0.443413 0.147432 0.370445
2654 4 0.059624 0.201019 0.348199
2653 2 0.0449064 0.220104 0.354858
2655 4 0.0301887 0.239188 0.361518
616 2 0.0885161 0.23726 0.408332
617 4 0.100131 0.22667 0.388886
388 2 0.126002 0.226849 0.367203
390 4 0.114083 0.2128 0.384107
389 4 0.13792 0.240898 0.350299
276 4 0.199707 0.225566 0.341446
474 4 0.206521 0.209068 0.349528
274 2 0.178129 0.238072 0.343223
472 2 0.229119 0.204164 0.35904
473 4 0.251716 0.199261 0.368553
466 2 0.269432 0.168128 0.379408
409 2 0.27659 0.229877 0.377049
468 4 0.269007 0.187501 0.363607
410 4 0.270868 0.208569 0.365285
613 2 0.409519 0.232768 0.334756
715 2 0.370428 0.243843 0.38541
717 4 0.358125 0.236815 0.406011
615 4 0.396859 0.239024 0.35539
304 2 0.446661 0.171196 0.363382
269 4 0.450159 0.212045 0.368758
306 4 0.449909 0.194961 0.356319
268 2 0.433769 0.219557 0.386081
270 4 0.417378 0.22707 0.403404
2814 4 0.018626 0.322642 0.401688
2801 4 0.0268638 0.325629 0.422184
275 4 0.156551 0.250579 0.345
401 4 0.145015 0.258215 0.361511
400 2 0.153604 0.273987 0.378909
402 4 0.162193 0.289758 0.396306
375 4 0.176902 0.285814 0.407512
373 2 0.201779 0.288184 0.408349
374 4 0.226656 0.290554 0.409186
510 4 0.230971 0.284363 0.389222
378 4 0.244023 0.278703 0.405191
509 4 0.246188 0.300718 0.344481
508 2 0.238579 0.292541 0.366852
411 4 0.282313 0.251185 0.388814
489 4 0.292546 0.254019 0.407405
487 2 0.317272 0.251505 0.410135
716 4 0.382731 0.250872 0.364809
488 4 0.341999 0.24899 0.412865
547 2 0.0426156 0.394429 0.337364
549 4 0.0596784 0.402267 0.353875
735 4 0.144999 0.356837 0.343601
677 4 0.161802 0.346983 0.348383
502 2 0.165052 0.398144 0.40507
676 2 0.170225 0.358153 0.369106
678 4 0.178649 0.369323 0.389829
650 4 0.194898 0.375362 0.402413
503 4 0.183917 0.390002 0.390822
649 2 0.219251 0.376824 0.407885
651 4 0.243605 0.378286 0.413358
669 4 0.396282 0.394403 0.398041
336 4 0.384428 0.380456 0.405907
667 2 0.419988 0.394795 0.390101
559 2 0.450984 0.397741 0.341879
560 4 0.456087 0.402957 0.365795
668 4 0.443694 0.395186 0.38216
588 4 0.465686 0.394895 0.382969
777 4 0.063456 0.421764 0.355988
775 2 0.0788326 0.435862 0.342204
1545 4 0.08997 0.466015 0.341745
1543 2 0.100261 0.486271 0.352183
433 2 0.31009 0.451721 0.343471
434 4 0.307677 0.434886 0.361799
231 4 0.446486 0.49049 0.334031
586 2 0.475842 0.406767 0.40249
593 4 0.442375 0.489029 0.384156
3989 4 0.453072 0.482164 0.368621
3990 4 0.475817 0.453709 0.334362
3988 2 0.464444 0.467937 0.351491
2238 4 0.0055141 0.0154486 0.455693
317 4 0.0972827 0.0234017 0.417368
428 4 0.108561 0.0140161 0.432756
1781 4 0.111687 0.034791 0.428576
1780 2 0.12621 0.0412997 0.447861
1782 4 0.140733 0.0478085 0.467146
341 4 0.16211 0.0537845 0.466612
2430 4 0.151767 0.0517394 0.485256
2428 2 0.162956 0.0354287 0.500552
340 2 0.175171 0.069392 0.452086
1180 2 0.268804 0.0653935 0.4316
1181 4 0.281995 0.0512192 0.44742
1182 4 0.255614 0.0795678 0.41578
963 4 0.283562 0.0409399 0.466311
432 4 0.299178 0.0546526 0.459954
961 2 0.267828 0.0370216 0.485345
430 2 0.321644 0.0447229 0.46463
431 4 0.34411 0.0347932 0.469307
841 2 0.385299 0.0194721 0.45969
842 4 0.407917 0.00890951 0.45827
843 4 0.36268 0.0300346 0.46111
426 4 0.415475 0.0105454 0.438357
424 2 0.423121 0.0211975 0.417067
1218 4 0.477149 0.000207625 0.464156
458 4 0.0154532 0.144182 0.437348
457 2 0.0325936 0.133689 0.452224
719 4 0.0506819 0.122941 0.487878
459 4 0.0497339 0.123197 0.4671
2585 4 0.998629 0.131583 0.432339
1151 4 0.167776 0.148626 0.427195
368 4 0.146612 0.0857272 0.464497
367 2 0.126424 0.0973342 0.45539
369 4 0.106237 0.108941 0.446284
939 4 0.100306 0.123176 0.456881
937 2 0.102227 0.146932 0.46444
1150 2 0.175388 0.125833 0.434101
342 4 0.188233 0.0849994 0.437561
1152 4 0.183001 0.103039 0.441007
898 2 0.26878 0.154349 0.440798
900 4 0.266116 0.154448 0.465659
516 4 0.41641 0.0979613 0.419777
618 4 0.0769015 0.24785 0.427777
259 2 0.0775647 0.246034 0.46388
938 4 0.104147 0.170688 0.471998
1034 4 0.11181 0.180145 0.487173
261 4 0.0801141 0.230761 0.483512
1035 4 0.0983078 0.227611 0.495263
1033 2 0.105059 0.203878 0.491218
267 4 0.345998 0.230375 0.422562
813 4 0.362419 0.205176 0.480375
266 4 0.363853 0.220263 0.468166
265 2 0.354926 0.225319 0.445364
3157 2 0.499444 0.214987 0.486051
2924 4 0.413373 0.238097 0.420686
3159 4 0.488695 0.231514 0.50143
260 4 0.0750152 0.261307 0.444248
2847 4 0.00660591 0.295925 0.473806
2802 4 0.0164728 0.289954 0.455651
2800 2 0.0216683 0.307791 0.438918
2845 2 0.00553408 0.300183 0.498422
347 4 0.0895717 0.264857 0.429087
346 2 0.106429 0.282815 0.433389
348 4 0.123286 0.300774 0.437691
10 3 0.118032 0.308257 0.455549
9 3 0.132409 0.322718 0.487201
6 1 0.133931 0.322168 0.464054
8 3 0.155029 0.314918 0.457672
1259 4 0.139789 0.308258 0.499887
376 2 0.265205 0.269786 0.41504
377 4 0.286386 0.260869 0.424889
238 2 0.377004 0.311462 0.445746
2925 4 0.385256 0.27067 0.446165
239 4 0.377281 0.287078 0.440218
2923 2 0.399314 0.254384 0.433425
2456 4 0.47646 0.332451 0.482794
584 4 0.464073 0.317563 0.476237
583 2 0.440555 0.309526 0.47897
585 4 0.417036 0.301488 0.481703
872 4 0.413499 0.280742 0.484649
3066 4 0.503565 0.246346 0.504985
7 3 0.130577 0.343405 0.455875
504 4 0.146187 0.406286 0.419318
711 4 0.118651 0.359026 0.457298
709 2 0.126709 0.379982 0.446292
710 4 0.134766 0.400937 0.435286
680 4 0.105594 0.421431 0.487076
240 4 0.376727 0.335845 0.451274
335 4 0.366101 0.346114 0.4373
334 2 0.375265 0.363285 0.421603
2455 2 0.497818 0.338816 0.49413
383 4 0.0541591 0.466225 0.48156
681 4 0.0626848 0.44598 0.479538
538 2 0.0204649 0.445061 0.498198
539 4 0.0425079 0.448588 0.486936
382 2 0.0643873 0.487318 0.472864
679 2 0.0841396 0.433706 0.483307
1160 4 0.117473 0.419514 0.503956
635 4 0.169906 0.477033 0.478959
773 4 0.205041 0.460966 0.431929
774 4 0.185569 0.462032 0.477977
772 2 0.195305 0.461499 0.454953
587 4 0.485999 0.41864 0.422011
662 4 0.446534 0.446352 0.474679
663 4 0.473832 0.427071 0.43748
1910 4 0.46354 0.458338 0.483603
661 2 0.460183 0.436712 0.45608
2429 4 0.174145 0.0191179 0.515847
962 4 0.252094 0.0331033 0.504378
1090 2 0.335116 0.0124201 0.563089
1091 4 0.351083 0.0141909 0.543929
2196 4 0.353981 0.996361 0.537421
1060 2 0.482296 0.0326293 0.555365
810 4 0.471707 0.0705289 0.556053
1061 4 0.494676 0.0125348 0.563619
1062 4 0.469917 0.0527237 0.54711
720 4 0.0525765 0.0818328 0.51629
718 2 0.0516292 0.102387 0.502084
808 2 0.490869 0.0856231 0.561545
695 4 0.0822423 0.23945 0.503001
694 2 0.0807319 0.244807 0.527377
878 4 0.0973705 0.242516 0.561066
877 2 0.112877 0.236141 0.579617
857 4 0.211223 0.235639 0.547747
953 4 0.387137 0.242242 0.534053
812 4 0.373652 0.234434 0.519344
952 2 0.406726 0.23602 0.548292
811 2 0.368035 0.219805 0.49986
954 4 0.426315 0.229798 0.56253
905 4 0.438479 0.217095 0.55323
904 2 0.449595 0.199755 0.567406
982 2 0.0278394 0.303005 0.550253
984 4 0.0520853 0.305144 0.555975
326 4 0.0615652 0.300674 0.575355
1136 4 0.0691009 0.317023 0.562637
325 2 0.0733588 0.278724 0.573281
983 4 0.00359349 0.300865 0.544531
696 4 0.0792216 0.250165 0.551753
2846 4 0.00446226 0.30444 0.523037
327 4 0.0851524 0.256775 0.571207
1258 2 0.151168 0.29122 0.514219
856 2 0.197347 0.253218 0.53663
858 4 0.183471 0.270797 0.525512
1260 4 0.162547 0.274183 0.528552
797 4 0.252119 0.256642 0.566909
1239 4 0.339259 0.326442 0.570361
1237 2 0.337099 0.301588 0.572029
1238 4 0.334939 0.276734 0.573697
791 4 0.372901 0.255772 0.5236
873 4 0.389803 0.247534 0.51357
790 2 0.354837 0.260923 0.540104
792 4 0.336774 0.266073 0.556607
871 2 0.401651 0.264138 0.49911
1135 2 0.0870248 0.333471 0.556859
991 2 0.140363 0.397126 0.572884
1137 4 0.104949 0.349918 0.551081
993 4 0.117366 0.406915 0.57216
992 4 0.163359 0.387338 0.573608
897 4 0.181654 0.384754 0.566812
804 4 0.323125 0.340076 0.575049
802 2 0.298804 0.344102 0.579228
929 4 0.338217 0.345184 0.560077
928 2 0.34811 0.367792 0.556052
882 4 0.375101 0.401656 0.553002
930 4 0.358003 0.3904 0.552028
925 2 0.490225 0.410792 0.52691
927 4 0.476003 0.402754 0.54584
934 2 0.0225173 0.420178 0.547781
3430 2 0.0408909 0.46791 0.568694
3431 4 0.0418739 0.491767 0.561276
935 4 0.0421905 0.428134 0.561004
3432 4 0.0399079 0.444052 0.576111
1039 2 0.0795904 0.426835 0.573931
540 4 0.998422 0.441533 0.509461
1041 4 0.0550659 0.429119 0.578233
4434 4 0.0260797 0.505592 0.56587
4251 4 0.0322299 0.502404 0.545633
1040 4 0.104115 0.42455 0.569628
1159 2 0.117417 0.418942 0.528953
1161 4 0.117361 0.41837 0.553949
1453 2 0.327098 0.470208 0.541779
1455 4 0.320771 0.493909 0.536946
880 2 0.360726 0.421756 0.556815
1454 4 0.333425 0.446506 0.546613
881 4 0.346352 0.441856 0.560628
1001 4 0.487064 0.41528 0.559718
926 4 0.504446 0.418829 0.507981
1911 4 0.452115 0.497143 0.513004
4084 2 0.452525 0.496871 0.555175
4085 4 0.443965 0.502366 0.532334
4086 4 0.461086 0.491376 0.578015
1000 2 0.497543 0.428052 0.578487
1909 2 0.457827 0.47774 0.498304
1183 2 0.0167076 0.0615497 0.656272
1184 4 0.00489777 0.0395496 0.654967
1892 4 0.0111664 0.0205853 0.646805
1891 2 0.0255709 0.0115954 0.628451
1185 4 0.0285175 0.0835497 0.657577
1284 4 0.220169 0.0683354 0.589475
1282 2 0.233755 0.055533 0.606109
1283 4 0.247342 0.0427306 0.622742
2131 2 0.232167 0.0188924 0.647898
2133 4 0.211236 0.0105441 0.658731
1059 4 0.201494 0.0753979 0.58791
2282 4 0.326842 0.00504653 0.602291
2132 4 0.253099 0.0272406 0.637065
1031 4 0.265092 0.0312763 0.619576
1030 2 0.286488 0.0228674 0.609744
1032 4 0.307884 0.0144584 0.599912
1092 4 0.319149 0.0106494 0.582249
831 4 0.369054 0.0840827 0.621552
1081 2 0.0107697 0.114765 0.643248
1082 4 0.0286928 0.10553 0.658035
943 2 0.0646357 0.106649 0.652055
944 4 0.0462059 0.0948523 0.664152
1083 4 0.992847 0.124 0.628461
945 4 0.0830655 0.118446 0.639957
1057 2 0.194299 0.0962295 0.599719
1058 4 0.187103 0.117061 0.611528
1155 4 0.18554 0.134966 0.622949
1153 2 0.179881 0.158632 0.617199
909 4 0.196413 0.117734 0.63078
907 2 0.213731 0.119526 0.648726
830 4 0.367143 0.13304 0.631566
829 2 0.368098 0.108561 0.626559
887 4 0.355747 0.151313 0.633221
1194 4 0.373235 0.148918 0.645144
886 2 0.334772 0.163071 0.626368
1026 4 0.448663 0.145748 0.6311
1024 2 0.459788 0.15665 0.611541
1143 4 0.443306 0.130491 0.645397
1263 4 0.447512 0.150738 0.651896
1141 2 0.448094 0.108074 0.655381
852 4 0.0602689 0.234759 0.65359
1245 4 0.0411008 0.24484 0.656745
1272 4 0.129143 0.21095 0.591037
1270 2 0.150236 0.197527 0.590739
879 4 0.128383 0.229767 0.598167
1154 4 0.174222 0.182298 0.611448
1271 4 0.171328 0.184103 0.59044
1221 4 0.189885 0.191303 0.599797
1219 2 0.213416 0.199274 0.596976
1220 4 0.236946 0.207245 0.594155
796 2 0.253479 0.237453 0.58288
798 4 0.25484 0.218263 0.598851
888 4 0.313796 0.174829 0.619515
1212 4 0.253492 0.197952 0.605086
1211 4 0.299068 0.177461 0.606973
1210 2 0.27628 0.187707 0.606029
1192 2 0.38476 0.170634 0.649701
1193 4 0.396285 0.19235 0.654259
906 4 0.460711 0.182415 0.581581
1025 4 0.470913 0.167552 0.591982
1209 4 0.0575858 0.255075 0.647928
1243 2 0.0204983 0.257585 0.662933
1207 2 0.0765697 0.268035 0.657768
946 2 0.131453 0.263082 0.662255
948 4 0.154284 0.26173 0.65215
947 4 0.108623 0.264434 0.67236
1208 4 0.0955536 0.280996 0.667608
1068 4 0.160444 0.334799 0.640222
3112 2 0.491293 0.323883 0.646389
3114 4 0.481123 0.307258 0.630725
1066 2 0.140556 0.34791 0.647822
1067 4 0.120668 0.36102 0.655422
1191 4 0.225886 0.374691 0.604604
896 4 0.21201 0.387891 0.606427
895 2 0.196832 0.386322 0.58662
1189 2 0.247617 0.362369 0.603541
1027 2 0.195784 0.356294 0.656261
1028 4 0.176963 0.345577 0.643766
803 4 0.274483 0.348128 0.583406
1190 4 0.269348 0.350048 0.602479
3264 4 0.0345116 0.423467 0.580373
3263 4 0.0168051 0.430154 0.62666
3239 4 0.00585743 0.439862 0.64241
3262 2 0.0256584 0.42681 0.603516
3238 2 0.0202213 0.450413 0.659947
1187 4 0.242572 0.484877 0.632199
2436 4 0.249663 0.493667 0.616443
1173 4 0.311201 0.474834 0.60803
1172 4 0.326185 0.453055 0.650478
1171 2 0.318693 0.463945 0.629254
2435 4 0.299074 0.492998 0.608772
2434 2 0.274369 0.493333 0.612607
2154 4 0.317656 0.493508 0.598432
1206 4 0.497519 0.445139 0.615176
1204 2 0.490533 0.438602 0.638277
3182 4 0.49447 0.457736 0.59813
3181 2 0.475908 0.474482 0.598579
1205 4 0.483548 0.432065 0.661378
825 4 0.190329 0.0111601 0.715028
823 2 0.191805 0.0142753 0.690263
824 4 0.193282 0.0173904 0.665498
43 3 0.459394 0.0651154 0.715853
846 4 0.466918 0.0553475 0.731808
44 3 0.464249 0.0838297 0.683132
41 1 0.46831 0.0639902 0.69446
45 3 0.45909 0.0465332 0.683107
42 3 0.491043 0.0608441 0.696034
1077 4 0.0249343 0.105641 0.724863
1075 2 0.0262876 0.0999067 0.700563
864 4 0.0329974 0.120371 0.736342
1076 4 0.0276408 0.0941723 0.676264
1179 4 0.99591 0.168346 0.710175
1072 2 0.125051 0.158675 0.730419
1074 4 0.142714 0.145773 0.718305
1073 4 0.107389 0.171577 0.742533
1106 4 0.0883565 0.168527 0.7305
1215 4 0.0932239 0.155075 0.747152
908 4 0.231049 0.121318 0.666672
1227 4 0.234576 0.104841 0.678374
1226 4 0.224715 0.11339 0.726648
1225 2 0.229646 0.109115 0.702511
1148 4 0.23081 0.105839 0.746401
1130 4 0.22967 0.12883 0.742039
1142 4 0.452883 0.0856556 0.665365
3424 2 0.482842 0.154887 0.710358
3425 4 0.495067 0.135821 0.699765
850 2 0.055258 0.213566 0.665874
1177 2 0.018625 0.173683 0.701192
1178 4 0.0413405 0.17902 0.692208
851 4 0.0502471 0.192373 0.678159
1107 4 0.0623806 0.178389 0.688923
1105 2 0.0753686 0.173458 0.709711
1298 4 0.226953 0.233501 0.735688
1086 4 0.292278 0.232153 0.727724
1299 4 0.274187 0.231609 0.719379
1297 2 0.25057 0.232555 0.727533
1261 2 0.436699 0.159195 0.672794
3270 4 0.45938 0.192906 0.724888
1262 4 0.425886 0.167653 0.693692
3426 4 0.470616 0.173952 0.720951
1146 4 0.48068 0.192723 0.718698
1145 4 0.498398 0.22272 0.682823
1144 2 0.489539 0.207721 0.700761
3123 4 0.493734 0.242261 0.68087
816 4 0.0312719 0.330029 0.703049
821 4 0.108335 0.292897 0.731486
820 2 0.1095 0.287972 0.707
822 4 0.110665 0.283046 0.682514
1242 4 0.0920551 0.295454 0.740909
1096 2 0.318921 0.32683 0.746924
1098 4 0.307288 0.335488 0.726555
892 2 0.060935 0.398166 0.729811
893 4 0.0674666 0.376935 0.718333
815 4 0.0570611 0.372785 0.700293
814 2 0.0441665 0.351407 0.701671
942 4 0.0785577 0.369728 0.700717
941 4 0.12122 0.365259 0.675014
940 2 0.0998889 0.367494 0.687865
1029 4 0.214604 0.367011 0.668755
1139 4 0.22093 0.385676 0.677642
1063 2 0.228069 0.366189 0.712907
1064 4 0.237627 0.363927 0.735901
1065 4 0.21851 0.36845 0.689914
1138 2 0.223319 0.408818 0.668482
1236 4 0.238295 0.348331 0.750311
1101 4 0.447888 0.39711 0.69629
1099 2 0.465402 0.413626 0.689536
894 4 0.0544035 0.419397 0.74129
3240 4 0.0345851 0.460964 0.677483
2172 4 0.0542516 0.468919 0.674528
1279 2 0.0470218 0.451866 0.715656
1280 4 0.0462453 0.438529 0.736791
1281 4 0.0477983 0.465204 0.694521
2170 2 0.0708858 0.487223 0.670862
1983 4 0.0606993 0.436491 0.752669
1176 4 0.18496 0.497124 0.712961
1140 4 0.225708 0.43196 0.659321
891 4 0.32036 0.466057 0.664773
889 2 0.308572 0.48216 0.679836
890 4 0.296783 0.498263 0.6949
1100 4 0.482916 0.430143 0.682781
1269 4 0.478593 0.449019 0.67326
1267 2 0.484883 0.466643 0.689844
1268 4 0.491172 0.484267 0.706427
1196 4 0.0742089 0.020312 0.816016
1195 2 0.0832546 0.00512928 0.833703
911 4 0.0884756 0.0298173 0.803087
1203 4 0.0809702 0.0105879 0.798103
910 2 0.0959174 0.0528553 0.809336
1201 2 0.0841211 0.00064735 0.775378
912 4 0.103359 0.0758933 0.815585
1285 2 0.143492 0.0799462 0.829113
1149 4 0.197009 0.0719204 0.760815
1147 2 0.21391 0.0888796 0.753608
2400 4 0.338804 0.017637 0.772795
2398 2 0.349145 0.0402263 0.769973