ITEM: TIMESTEP
2710000
ITEM: NUMBER OF ATOMS
4590
ITEM: BOX BOUNDS pp pp pp
-9.9985700000000008e+00 9.9985700000000008e+00
-9.9985700000000008e+00 9.9985700000000008e+00
-9.9985700000000008e+00 9.9985700000000008e+00
ITEM: ATOMS id type xs ys zs
1666 2 0.0666843 0.0524387 0.0242152
1667 4 0.058238 0.0759536 0.0251574
1668 4 0.0751307 0.0289238 0.023273
423 4 0.14537 0.0866299 0.0138436
532 2 0.153293 0.0452348 0.013949
533 4 0.155872 0.0214871 0.0213364
1475 4 0.202384 0.0192247 0.0528685
652 2 0.243689 0.0892537 0.0513821
490 2 0.274036 0.0590958 0.0165032
491 4 0.273323 0.0817062 0.0271539
653 4 0.267551 0.0826922 0.0478141
296 4 0.455145 0.0355514 0.106706
591 4 0.0511532 0.0958626 0.0299952
702 4 0.0725873 0.09083 0.0299454
589 2 0.0286942 0.105491 0.0246967
590 4 0.00623528 0.115119 0.0193983
3232 2 0.0116667 0.159815 0.00781349
3233 4 0.00868993 0.136206 0.0154905
421 2 0.149357 0.105753 0.0294515
422 4 0.153344 0.124875 0.0450594
700 2 0.0921443 0.102303 0.0404844
701 4 0.111701 0.113776 0.0510235
448 2 0.143694 0.120549 0.0822604
449 4 0.124112 0.113076 0.0686262
654 4 0.219827 0.0958153 0.0549502
1133 4 0.195022 0.160958 0.0138208
359 4 0.280884 0.145533 0.0104553
565 2 0.289692 0.116063 0.0325847
566 4 0.29444 0.139147 0.0242311
567 4 0.284944 0.0929794 0.0409382
556 2 0.383655 0.157543 0.0545368
557 4 0.384443 0.152801 0.079074
477 4 0.0694351 0.180024 0.0799955
3234 4 0.0146436 0.183424 0.000136431
913 2 0.143154 0.245382 0.00860955
558 4 0.382868 0.162285 0.0299997
666 4 0.391645 0.173802 0.0144653
571 2 0.370184 0.206915 0.030271
572 4 0.376782 0.183065 0.0266887
573 4 0.363586 0.230765 0.0338533
623 4 0.402765 0.241488 0.0768235
324 4 0.414015 0.240468 0.0608865
322 2 0.436975 0.237782 0.0513575
771 4 0.476449 0.238049 0.0281251
518 4 0.480162 0.229611 0.0477226
517 2 0.49345 0.221777 0.0674003
323 4 0.459935 0.235097 0.0418285
914 4 0.152971 0.260268 0.0261368
293 4 0.139513 0.329714 0.0582602
292 2 0.121205 0.336137 0.0740326
507 4 0.153031 0.319338 0.0456002
505 2 0.148365 0.294911 0.0430048
506 4 0.143699 0.270484 0.0404093
482 4 0.239017 0.320234 0.0773942
481 2 0.223724 0.329752 0.0600535
252 4 0.259446 0.3268 0.0784771
1071 4 0.365631 0.245517 0.0204245
1069 2 0.372825 0.265009 0.00651393
622 2 0.402867 0.260725 0.0927953
624 4 0.40297 0.279963 0.108767
955 2 0.403731 0.319127 0.0040289
769 2 0.470529 0.254951 0.0106764
1056 4 0.998933 0.347141 0.00332633
1170 4 0.0165085 0.351091 0.994553
1168 2 0.0209882 0.374718 0.00139818
1169 4 0.0254679 0.398346 0.00824356
288 4 0.151869 0.340517 0.044742
286 2 0.174841 0.344989 0.0359404
287 4 0.197813 0.349461 0.0271387
483 4 0.20843 0.33927 0.0427128
607 2 0.293147 0.394499 0.0758114
1047 4 0.38718 0.394995 0.00822402
282 4 0.424552 0.343829 0.0298701
956 4 0.412185 0.339384 0.0160032
280 2 0.442339 0.351062 0.0458843
281 4 0.460127 0.358296 0.0618984
494 4 0.46012 0.35913 0.0832202
671 4 0.478712 0.359816 0.0722002
1045 2 0.406078 0.39265 0.992021
551 4 0.022199 0.41934 0.00948011
550 2 0.0153611 0.43662 0.0262073
552 4 0.00852317 0.453901 0.0429345
315 4 0.0245184 0.45977 0.0558757
313 2 0.041899 0.472666 0.0683976
620 4 0.00484238 0.456923 0.063645
314 4 0.0592796 0.485561 0.0809195
1691 4 0.0667115 0.50167 0.0689143
1787 4 0.0788441 0.484388 0.0722874
1786 2 0.101312 0.47415 0.0762322
241 2 0.226795 0.490575 0.0563551
242 4 0.205946 0.484967 0.0437429
608 4 0.283894 0.4157 0.0663214
626 4 0.278585 0.433374 0.0607682
243 4 0.247644 0.496182 0.0689673
627 4 0.26182 0.479768 0.0689669
625 2 0.270203 0.456571 0.0648675
244 2 0.331416 0.458064 0.0297257
245 4 0.334342 0.459713 0.0545027
1440 4 0.251047 0.484483 0.0867668
39 3 0.334408 0.413162 0.00508793
246 4 0.328489 0.456416 0.00494867
2386 2 0.389436 0.505027 0.0224526
2387 4 0.368591 0.501769 0.0358716
2388 4 0.410281 0.508285 0.00903362
562 2 0.441696 0.491456 0.992827
2480 4 0.00354296 0.997509 0.151279
16 1 0.0016838 0.0717212 0.116355
2479 2 0.0132336 0.0184734 0.141699
18 3 0.00865476 0.0506944 0.12326
2481 4 0.0229242 0.0394374 0.132119
297 4 0.419834 0.00277582 0.093304
295 2 0.437489 0.0191636 0.100005
20 3 0.0151469 0.0877219 0.125375
450 4 0.163275 0.128023 0.0958946
236 4 0.105511 0.124777 0.0685023
235 2 0.0944424 0.145495 0.0770714
475 2 0.0639693 0.202702 0.0889962
476 4 0.0585035 0.22538 0.097997
339 4 0.0760113 0.233907 0.0998839
237 4 0.0833735 0.166213 0.0856405
337 2 0.0922999 0.243573 0.116206
738 4 0.191437 0.254237 0.164188
461 4 0.288352 0.21439 0.111409
354 4 0.269538 0.221582 0.111104
460 2 0.308821 0.207218 0.0989674
352 2 0.256415 0.241812 0.117713
462 4 0.32929 0.200047 0.0865264
254 4 0.392171 0.197456 0.109377
253 2 0.370817 0.196857 0.0963844
255 4 0.349462 0.196257 0.0833923
630 4 0.412 0.197237 0.104385
28 3 0.373363 0.194015 0.175863
629 4 0.450417 0.212447 0.132555
628 2 0.431209 0.204842 0.11847
294 4 0.102898 0.342559 0.089805
338 4 0.108589 0.253239 0.132529
363 4 0.112854 0.261967 0.14928
456 4 0.0937108 0.328565 0.0990307
361 2 0.128216 0.275047 0.164049
736 2 0.206844 0.256152 0.144588
737 4 0.222251 0.258068 0.124989
353 4 0.243291 0.262043 0.124322
756 4 0.250621 0.316106 0.0948093
755 4 0.229142 0.276693 0.116853
754 2 0.239882 0.2964 0.105831
741 4 0.396879 0.299756 0.107813
739 2 0.380075 0.318178 0.105956
740 4 0.36327 0.336599 0.104099
454 2 0.0900644 0.33369 0.12323
455 4 0.086418 0.338816 0.14743
537 4 0.0992797 0.354384 0.149941
535 2 0.105143 0.376926 0.159032
250 2 0.275392 0.343178 0.0886078
251 4 0.291339 0.359557 0.0987384
609 4 0.3024 0.373297 0.0853014
387 4 0.310558 0.367421 0.104084
385 2 0.329388 0.35256 0.111138
386 4 0.348218 0.337699 0.118193
11 1 0.412162 0.363087 0.144257
13 3 0.398859 0.371879 0.1274
14 3 0.425723 0.346311 0.135709
12 3 0.42548 0.379828 0.152714
495 4 0.426581 0.342621 0.116436
493 2 0.443351 0.350875 0.0998281
670 2 0.496354 0.347674 0.0851049
595 2 0.465216 0.39073 0.151401
596 4 0.486667 0.394702 0.139185
597 4 0.443765 0.386758 0.163618
2652 4 0.491969 0.413605 0.134477
647 4 0.00951829 0.461132 0.142284
263 4 0.00167807 0.45831 0.16172
1788 4 0.12378 0.463912 0.080177
1438 2 0.263547 0.490021 0.107702
525 4 0.351315 0.450554 0.149367
523 2 0.358414 0.474462 0.147582
524 4 0.365513 0.49837 0.145798
659 4 0.332766 0.443725 0.155949
688 2 0.126648 0.0689419 0.241424
690 4 0.139046 0.0768605 0.221206
1700 4 0.193226 0.041639 0.24059
1506 4 0.280579 0.0161576 0.220623
21 1 0.318534 0.0467009 0.241813
23 3 0.298338 0.0442296 0.23066
22 3 0.325402 0.0261039 0.249413
1785 4 0.344536 0.0265868 0.162206
1783 2 0.340659 0.0339508 0.185784
25 3 0.334262 0.0550923 0.22764
1784 4 0.336782 0.0413147 0.209362
759 4 0.354284 0.0508288 0.218951
757 2 0.375298 0.063546 0.223628
758 4 0.396311 0.0762631 0.228306
744 4 0.407207 0.0656014 0.24391
1749 4 0.491081 0.0260591 0.212033
1747 2 0.497192 0.0237608 0.236169
511 2 0.0121029 0.127979 0.229511
512 4 0.998439 0.126629 0.208615
693 4 0.14857 0.0944379 0.219457
691 2 0.163802 0.112691 0.211714
692 4 0.179035 0.130945 0.20397
723 4 0.179314 0.15044 0.197962
721 2 0.177021 0.164519 0.218498
285 4 0.299648 0.173511 0.23693
312 4 0.417805 0.0740196 0.226717
310 2 0.426924 0.0844949 0.205925
311 4 0.436042 0.0949702 0.185134
748 2 0.0390435 0.211859 0.199251
749 4 0.0255085 0.210232 0.178291
750 4 0.0525785 0.213486 0.220212
396 4 0.0550724 0.22762 0.233495
394 2 0.0443573 0.241836 0.251052
722 4 0.174729 0.178597 0.239034
580 2 0.306358 0.174582 0.199862
582 4 0.289669 0.173566 0.218452
581 4 0.323047 0.175597 0.181271
30 3 0.336132 0.190803 0.180464
707 4 0.396838 0.16423 0.24713
27 3 0.353746 0.221438 0.192471
706 2 0.379139 0.166824 0.22966
708 4 0.36144 0.169418 0.21219
29 3 0.358696 0.188856 0.210542
26 1 0.355378 0.198652 0.189771
521 4 0.467331 0.249483 0.248379
362 4 0.143578 0.288127 0.178817
372 4 0.159417 0.278712 0.172485
370 2 0.175421 0.290084 0.187969
371 4 0.191425 0.301456 0.203452
279 4 0.201869 0.292418 0.219753
277 2 0.220313 0.282323 0.233283
612 4 0.212162 0.30522 0.206268
610 2 0.217213 0.329474 0.202886
763 2 0.393183 0.334898 0.2399
765 4 0.410404 0.31741 0.235129
542 4 0.421076 0.301792 0.243112
541 2 0.435156 0.281374 0.246277
543 4 0.449236 0.260955 0.249442
536 4 0.111006 0.399468 0.168123
603 4 0.134753 0.42223 0.233054
417 4 0.2281 0.372733 0.200201
611 4 0.222264 0.353727 0.199505
415 2 0.243834 0.379307 0.218487
416 4 0.259569 0.385882 0.236773
436 2 0.29406 0.405627 0.246564
438 4 0.316866 0.397403 0.25268
15 3 0.399079 0.354762 0.160935
303 4 0.336918 0.393749 0.24642
301 2 0.343518 0.39924 0.222937
660 4 0.340003 0.40184 0.182292
302 4 0.350119 0.404731 0.199453
764 4 0.375962 0.352387 0.244671
644 4 0.40833 0.407555 0.213524
643 2 0.416908 0.394101 0.194274
645 4 0.425486 0.380647 0.175023
262 2 0.0156303 0.452866 0.181741
1757 4 0.030174 0.455945 0.220287
264 4 0.0295826 0.447421 0.201763
1756 2 0.032255 0.476869 0.233815
437 4 0.271253 0.413851 0.240447
637 2 0.271621 0.491276 0.1636
1436 4 0.252904 0.42212 0.248436
291 4 0.266706 0.435095 0.237628
638 4 0.279225 0.480081 0.184625
289 2 0.273214 0.449287 0.218099
290 4 0.279723 0.46348 0.198569
767 4 0.297429 0.475739 0.196276
766 2 0.322183 0.472423 0.195064
658 2 0.336385 0.422782 0.169121
768 4 0.346936 0.469108 0.193852
1574 4 0.362966 0.471961 0.20578
1573 2 0.372254 0.477101 0.228419
447 4 0.423607 0.419067 0.222143
445 2 0.430085 0.415008 0.245949
673 2 0.0809474 0.0843763 0.276438
689 4 0.114251 0.0610233 0.261643
675 4 0.100302 0.0685481 0.276207
1403 4 0.109784 0.049694 0.279462
1402 2 0.102189 0.0263878 0.284391
1699 2 0.194146 0.0404878 0.26555
248 4 0.195087 0.0458126 0.310711
247 2 0.181441 0.0659026 0.316655
1701 4 0.195066 0.0393367 0.29051
605 4 0.209592 0.0315752 0.3041
604 2 0.224858 0.0124602 0.309272
24 3 0.315868 0.0608913 0.259977
1496 4 0.339212 0.0160882 0.258413
699 4 0.379012 0.0103477 0.301146
1495 2 0.353125 0.00521092 0.276114
697 2 0.389247 0.0268676 0.316879
1497 4 0.367037 0.994334 0.293814
349 2 0.399257 0.0793746 0.315022
351 4 0.392722 0.0635388 0.333235
480 4 0.486977 0.0247892 0.27063
513 4 0.0257672 0.12933 0.250407
531 4 0.00823538 0.132437 0.319314
579 4 0.0303796 0.147813 0.259866
530 4 0.0235292 0.131265 0.271717
529 2 0.0158823 0.131851 0.295516
674 4 0.061593 0.100205 0.276669
249 4 0.167794 0.0859925 0.3226
600 4 0.155262 0.151884 0.322649
545 4 0.154483 0.161276 0.303476
405 4 0.148427 0.140792 0.305271
403 2 0.155879 0.116929 0.304808
404 4 0.163331 0.0930662 0.304346
333 4 0.404531 0.111581 0.282732
742 2 0.41397 0.0808552 0.262532
350 4 0.405792 0.0952104 0.296809
762 4 0.442284 0.158569 0.304241
743 4 0.420733 0.096109 0.281153
332 4 0.423851 0.155064 0.298116
331 2 0.414191 0.133323 0.290424
577 2 0.0418539 0.169887 0.262367
578 4 0.0533281 0.191961 0.264868
391 2 0.0782947 0.205436 0.297433
392 4 0.0869357 0.212311 0.319866
393 4 0.0696538 0.198561 0.274999
2654 4 0.0739139 0.216045 0.336155
544 2 0.162439 0.166011 0.280249
546 4 0.170395 0.170747 0.257023
275 4 0.171839 0.223319 0.32064
284 4 0.257546 0.189795 0.258447
344 4 0.252154 0.206382 0.24849
343 2 0.253037 0.231338 0.24976
274 2 0.193971 0.219244 0.331537
283 2 0.278597 0.181653 0.247689
613 2 0.401071 0.231114 0.32303
614 4 0.41211 0.221126 0.302942
761 4 0.428639 0.206613 0.301725
760 2 0.435462 0.182591 0.302983
419 4 0.42067 0.215584 0.283856
520 2 0.489237 0.245644 0.259805
418 2 0.434664 0.227449 0.266868
420 4 0.448657 0.239314 0.24988
442 2 0.00691754 0.28104 0.269113
395 4 0.0336421 0.256052 0.26861
444 4 0.0205654 0.26446 0.28192
735 4 0.169699 0.329755 0.319639
278 4 0.238757 0.272227 0.246814
345 4 0.253919 0.256294 0.251031
309 4 0.253013 0.274092 0.263096
307 2 0.253726 0.279452 0.287508
308 4 0.254438 0.284812 0.31192
509 4 0.254618 0.288743 0.333439
497 4 0.258234 0.305259 0.320015
496 2 0.271484 0.325107 0.312553
300 4 0.138361 0.404028 0.240341
298 2 0.143704 0.385543 0.256307
734 4 0.153938 0.368311 0.291967
733 2 0.161818 0.349033 0.305803
299 4 0.149048 0.367058 0.272274
677 4 0.180758 0.334266 0.335964
498 4 0.284734 0.344955 0.305091
729 4 0.33293 0.399867 0.266307
727 2 0.349379 0.405297 0.284338
728 4 0.365828 0.410727 0.302369
751 2 0.404034 0.399668 0.317488
753 4 0.387649 0.410319 0.301891
752 4 0.420419 0.389017 0.333085
561 4 0.439028 0.38269 0.338391
1758 4 0.0343361 0.497794 0.247344
775 2 0.0735728 0.461129 0.323385
777 4 0.060395 0.44208 0.332802
776 4 0.0867505 0.480177 0.313968
549 4 0.0424237 0.432364 0.334655
601 2 0.128605 0.439204 0.250353
412 2 0.119764 0.477407 0.29826
602 4 0.122456 0.456178 0.267652
414 4 0.132325 0.470933 0.277633
413 4 0.107202 0.48388 0.318887
1545 4 0.0919527 0.487115 0.333417
1435 2 0.23445 0.429685 0.263516
1437 4 0.215996 0.437249 0.278596
435 4 0.327125 0.452098 0.329648
1575 4 0.381542 0.48224 0.251057
5 3 0.352205 0.475422 0.295477
1803 4 0.376817 0.427765 0.294892
1802 4 0.385872 0.469341 0.268623
1801 2 0.381344 0.448553 0.281758
1689 4 0.402232 0.478279 0.257867
1 1 0.351291 0.482754 0.31702
3 3 0.372755 0.486243 0.325112
1687 2 0.420035 0.491863 0.268989
120 3 0.504708 0.444324 0.312779
446 4 0.436563 0.410948 0.269755
231 4 0.496854 0.487403 0.289036
229 2 0.475157 0.499538 0.291707
713 4 0.455918 0.407653 0.276366
712 2 0.474452 0.421068 0.28645
714 4 0.492986 0.434483 0.296534
1376 4 0.997853 0.0508081 0.382412
233 4 0.0119012 0.0612939 0.369108
318 4 0.0636859 0.0485018 0.373674
234 4 0.0598059 0.0565337 0.355573
232 2 0.0358535 0.0589138 0.36234
316 2 0.0830192 0.0444911 0.389014
317 4 0.102353 0.0404803 0.404354
428 4 0.112631 0.0214889 0.405328
606 4 0.240124 0.993345 0.314444
725 4 0.334333 0.0108391 0.363399
633 4 0.328303 0.013984 0.3453
632 4 0.307775 0.0590254 0.352411
631 2 0.318039 0.0365047 0.348855
682 2 0.290403 0.0718279 0.39013
683 4 0.304556 0.0683175 0.369819
698 4 0.399483 0.0433875 0.332611
257 4 0.413708 0.0586568 0.33803
2643 4 0.506738 0.0602619 0.370456
256 2 0.419462 0.0631854 0.361937
425 4 0.427914 0.0493147 0.397029
258 4 0.425217 0.067714 0.385845
452 4 0.493941 0.069653 0.38224
451 2 0.469655 0.0661773 0.387062
453 4 0.445368 0.0627016 0.391884
515 4 0.431004 0.0692333 0.40694
398 4 0.0206258 0.138023 0.335797
2756 4 0.999633 0.141666 0.336462
397 2 0.0380875 0.124727 0.347776
399 4 0.0555492 0.111432 0.359755
732 4 0.0708215 0.122722 0.355906
598 2 0.142163 0.157076 0.343305
730 2 0.0907313 0.137092 0.360628
599 4 0.129065 0.162268 0.36396
685 2 0.136386 0.155654 0.397797
686 4 0.118154 0.163165 0.382423
731 4 0.110641 0.151461 0.36535
1151 4 0.169094 0.135123 0.407497
467 4 0.265093 0.144549 0.408234
514 2 0.416284 0.0891892 0.410142
575 4 0.393173 0.120933 0.400346
574 2 0.404283 0.14318 0.402952
576 4 0.415393 0.165428 0.405559
2653 2 0.0513269 0.208728 0.343994
2655 4 0.0287399 0.20141 0.351834
617 4 0.0908693 0.237347 0.367584
388 2 0.126541 0.251214 0.348775
390 4 0.103519 0.250643 0.358516
616 2 0.0916864 0.244589 0.391502
276 4 0.216103 0.21517 0.342434
474 4 0.232401 0.210501 0.331773
472 2 0.249803 0.205803 0.349102
473 4 0.267205 0.201105 0.36643
409 2 0.310115 0.199643 0.376763
466 2 0.267077 0.165994 0.395532
468 4 0.269061 0.18744 0.382831
410 4 0.285256 0.200999 0.379079
411 4 0.334974 0.198286 0.374447
716 4 0.373515 0.24206 0.355346
715 2 0.368403 0.238399 0.379546
615 4 0.390031 0.241103 0.343118
717 4 0.363291 0.234739 0.403746
304 2 0.44011 0.181964 0.386843
269 4 0.445174 0.214609 0.356833
306 4 0.445009 0.199743 0.369958
268 2 0.443875 0.239468 0.359178
305 4 0.43521 0.164186 0.403728
2814 4 0.00694778 0.30595 0.415564
389 4 0.149562 0.251784 0.339034
401 4 0.166103 0.254025 0.350531
618 4 0.0925035 0.25183 0.41542
400 2 0.175918 0.267655 0.369053
375 4 0.194416 0.296825 0.396699
402 4 0.185734 0.281285 0.387575
373 2 0.219132 0.293179 0.395691
374 4 0.243848 0.289533 0.394682
510 4 0.261772 0.290521 0.3829
508 2 0.258195 0.289632 0.358169
378 4 0.26313 0.292156 0.40417
376 2 0.287281 0.290399 0.4104
2924 4 0.429135 0.266593 0.376695
2923 2 0.419878 0.271438 0.399411
270 4 0.442577 0.264328 0.361522
548 4 0.0285779 0.388614 0.35453
407 4 0.0141501 0.376111 0.359511
547 2 0.0355008 0.410489 0.344592
676 2 0.18098 0.341732 0.359826
678 4 0.181201 0.349199 0.383687
650 4 0.212845 0.396232 0.40339
649 2 0.234423 0.387222 0.412246
651 4 0.256 0.378213 0.421102
667 2 0.41076 0.410222 0.402426
669 4 0.388117 0.40813 0.412824
559 2 0.443255 0.398507 0.357289
560 4 0.447481 0.414325 0.376187
668 4 0.433402 0.412314 0.392029
588 4 0.454462 0.409928 0.396122
586 2 0.469501 0.418993 0.413921
434 4 0.278313 0.443177 0.335854
433 2 0.302719 0.447637 0.332751
4 3 0.340282 0.467171 0.330225
2 3 0.339736 0.50263 0.317775
119 3 0.494754 0.437855 0.348511
3990 4 0.476865 0.445709 0.35588
3988 2 0.474979 0.469691 0.362699
1126 2 0.9981 0.0498197 0.476519
2236 2 0.0284663 0.00407515 0.459023
1127 4 0.0211121 0.0473363 0.467059
2238 4 0.0210021 0.027721 0.462238
1781 4 0.11408 0.0355268 0.422167
1780 2 0.121315 0.0474869 0.442898
1782 4 0.12855 0.059447 0.463629
341 4 0.138843 0.0716767 0.478249
2430 4 0.140621 0.050545 0.479139
340 2 0.155875 0.0863385 0.46729
2428 2 0.154334 0.0322064 0.48918
684 4 0.27625 0.0753384 0.410441
430 2 0.315399 0.0225994 0.47353
1180 2 0.273596 0.0523108 0.44457
1181 4 0.273963 0.0309739 0.4576
1182 4 0.273229 0.0736476 0.431539
963 4 0.271244 0.0162158 0.472819
432 4 0.29099 0.0233278 0.468157
961 2 0.26136 0.0211475 0.49525
431 4 0.339807 0.021871 0.478904
841 2 0.381878 0.0171562 0.464793
842 4 0.402938 0.0160996 0.451356
843 4 0.360819 0.0182128 0.47823
426 4 0.414176 0.0176701 0.433231
424 2 0.421045 0.0334924 0.41513
1217 4 0.423975 0.0132169 0.451612
1216 2 0.443244 0.0233052 0.463945
1218 4 0.462512 0.0333935 0.476279
457 2 0.0135832 0.115154 0.465991
719 4 0.0334788 0.108042 0.49414
459 4 0.0340301 0.10384 0.474885
687 4 0.154618 0.148143 0.413171
368 4 0.113982 0.0846504 0.447422
367 2 0.110233 0.108775 0.442025
369 4 0.106485 0.132899 0.436627
939 4 0.119826 0.140686 0.446073
937 2 0.137796 0.155368 0.455385
342 4 0.172907 0.101 0.45633
1152 4 0.173305 0.0949982 0.437043
1150 2 0.171199 0.115061 0.42227
320 4 0.259499 0.0848175 0.419723
321 4 0.251211 0.134106 0.421358
319 2 0.255355 0.109462 0.420541
899 4 0.265356 0.147675 0.429566
898 2 0.282084 0.150271 0.447968
900 4 0.298811 0.152867 0.46637
516 4 0.401563 0.109145 0.413344
938 4 0.155766 0.170049 0.464697
1034 4 0.161763 0.186383 0.473512
261 4 0.116587 0.225685 0.470716
1035 4 0.1367 0.229505 0.477127
1033 2 0.149231 0.207944 0.47532
695 4 0.12064 0.230777 0.491149
259 2 0.102582 0.237216 0.453509
260 4 0.088578 0.248747 0.436302
267 4 0.347247 0.222602 0.412424
813 4 0.36542 0.220452 0.475841
266 4 0.365653 0.210664 0.457362
265 2 0.35645 0.216633 0.434893
811 2 0.372555 0.231654 0.497026
2847 4 0.00234874 0.284148 0.473067
2801 4 0.0178736 0.288784 0.417386
2802 4 0.0165541 0.297347 0.466637
2800 2 0.0172138 0.293065 0.442011
347 4 0.0993576 0.266122 0.429891
346 2 0.115675 0.28505 0.429077
348 4 0.131992 0.303978 0.428262
10 3 0.130424 0.308698 0.448144
9 3 0.130548 0.310172 0.485767
6 1 0.134297 0.322044 0.466187
1259 4 0.138792 0.300176 0.501195
1258 2 0.143194 0.276506 0.507941
377 4 0.311432 0.288642 0.416631
489 4 0.331807 0.291881 0.420741
488 4 0.346274 0.244472 0.414118
487 2 0.33904 0.268177 0.417429
238 2 0.406599 0.3191 0.434897
239 4 0.412329 0.29585 0.427702
2455 2 0.493159 0.309757 0.504934
2925 4 0.410622 0.276284 0.422127
2456 4 0.47119 0.309422 0.492999
584 4 0.461394 0.29445 0.486881
583 2 0.438111 0.297531 0.495458
680 4 0.0421529 0.401423 0.50108
679 2 0.0430468 0.420465 0.484901
8 3 0.156144 0.32985 0.465716
504 4 0.165869 0.386981 0.442867
7 3 0.119961 0.340022 0.46553
711 4 0.115152 0.359376 0.459959
709 2 0.130588 0.376506 0.450291
710 4 0.146023 0.393637 0.440622
503 4 0.199472 0.381806 0.406195
502 2 0.18267 0.384394 0.424531
240 4 0.400869 0.34235 0.442092
335 4 0.384373 0.352155 0.442821
334 2 0.382411 0.376181 0.436184
336 4 0.380449 0.400208 0.429546
926 4 0.47852 0.415454 0.497778
382 2 0.0761562 0.47246 0.460588
539 4 0.0392087 0.460401 0.467245
538 2 0.0145268 0.464214 0.468444
681 4 0.0439408 0.439508 0.468722
383 4 0.0594936 0.454114 0.463897
384 4 0.0928188 0.490807 0.457278
569 4 0.111347 0.49002 0.46214
634 2 0.20057 0.47859 0.465486
774 4 0.233429 0.469689 0.451672
635 4 0.214952 0.464687 0.450484
636 4 0.186189 0.492493 0.480488
772 2 0.257528 0.464248 0.447819
773 4 0.281626 0.458808 0.443965
587 4 0.48454 0.428058 0.431721
662 4 0.458355 0.474913 0.468616
663 4 0.489828 0.446678 0.441916
1910 4 0.441372 0.475671 0.479047
661 2 0.474091 0.460796 0.455266
2507 4 0.494574 0.427607 0.450887
1909 2 0.451525 0.49083 0.496144
2429 4 0.168047 0.0138679 0.49922
1284 4 0.184512 0.0764635 0.563132
1031 4 0.233063 0.0334166 0.584098
1282 2 0.198667 0.0584791 0.573201
962 4 0.251476 0.0260793 0.517681
1030 2 0.257501 0.0300461 0.588177
1032 4 0.281938 0.0266756 0.592257
1091 4 0.342075 0.015725 0.566717
720 4 0.0528131 0.128749 0.535348
718 2 0.0431459 0.118395 0.514744
1059 4 0.179502 0.0944779 0.57139
327 4 0.0831294 0.230085 0.548978
877 2 0.111904 0.203233 0.564681
878 4 0.0937509 0.211724 0.54973
696 4 0.0919357 0.222202 0.53119
694 2 0.106288 0.226489 0.51117
879 4 0.130058 0.194742 0.579632
1272 4 0.139874 0.213957 0.5813
856 2 0.217822 0.230565 0.558059
858 4 0.233125 0.213488 0.54809
953 4 0.388518 0.231061 0.534186
812 4 0.379689 0.242856 0.518211
791 4 0.376847 0.24891 0.53863
873 4 0.396151 0.250782 0.529843
790 2 0.355304 0.249801 0.55129
952 2 0.401444 0.214331 0.547535
954 4 0.41437 0.197601 0.560885
905 4 0.421905 0.18726 0.576936
982 2 0.0367653 0.297383 0.544301
984 4 0.0614034 0.293855 0.546688
326 4 0.0749352 0.279102 0.554538
1136 4 0.0766714 0.300225 0.560022
325 2 0.0790323 0.254594 0.551758
983 4 0.0121272 0.300911 0.541914
2846 4 0.0100244 0.294444 0.521397
2845 2 0.00618656 0.289296 0.497232
1135 2 0.0860058 0.321145 0.570042
1137 4 0.0953402 0.342065 0.580063
1260 4 0.147596 0.252835 0.514687
857 4 0.20252 0.247642 0.568028
1239 4 0.309987 0.309602 0.586413
804 4 0.297389 0.317708 0.572766
1237 2 0.317046 0.289015 0.574104
802 2 0.282219 0.3373 0.576112
792 4 0.333761 0.250692 0.56395
1238 4 0.324106 0.268428 0.561794
871 2 0.399262 0.275124 0.525049
929 4 0.385114 0.328821 0.569299
872 4 0.402373 0.299466 0.520255
585 4 0.414828 0.300613 0.504036
936 4 0.020025 0.402694 0.526423
3353 4 0.00822241 0.397184 0.541099
897 4 0.164554 0.379029 0.584371
880 2 0.364713 0.407332 0.576419
928 2 0.376701 0.350436 0.578636
925 2 0.474614 0.404214 0.519768
927 4 0.470708 0.392975 0.541759
1001 4 0.477102 0.399749 0.559165
934 2 0.0325784 0.417429 0.542249
3430 2 0.0376297 0.468342 0.565183
3431 4 0.032799 0.491051 0.555903
935 4 0.0451318 0.432165 0.558075
3432 4 0.0424603 0.445632 0.574464
1041 4 0.0569836 0.429681 0.576575
3264 4 0.0359642 0.425013 0.576315
1039 2 0.0805285 0.424571 0.569889
1159 2 0.128265 0.437903 0.541547
1161 4 0.118878 0.434673 0.564496
1160 4 0.137653 0.441133 0.518599
1040 4 0.104073 0.419461 0.563203
993 4 0.117947 0.420109 0.579872
1455 4 0.347006 0.482078 0.542309
1454 4 0.357989 0.433789 0.549261
1453 2 0.352498 0.457934 0.545785
881 4 0.372431 0.426083 0.56179
1000 2 0.480662 0.417227 0.576686
1183 2 0.0200895 0.0532319 0.657145
1184 4 0.0100882 0.0306987 0.652972
1892 4 0.0173591 0.0143502 0.641484
1185 4 0.0300908 0.0757651 0.661317
1891 2 0.0161972 0.991493 0.631415
1283 4 0.212822 0.0404946 0.583269
2131 2 0.211848 0.0184831 0.62178
2132 4 0.219413 0.0289924 0.600391
2133 4 0.204284 0.00797381 0.64317
1090 2 0.333837 0.00478868 0.587639
1060 2 0.491075 0.0357265 0.592237
1061 4 0.494701 0.0115394 0.597434
944 4 0.042655 0.0925467 0.664635
1081 2 0.00784087 0.111739 0.652623
943 2 0.0663876 0.0989401 0.660045
3179 4 0.992848 0.148566 0.63988
1083 4 0.995247 0.128951 0.639573
945 4 0.0901202 0.105333 0.655455
1057 2 0.17816 0.107288 0.592821
1058 4 0.176817 0.120097 0.614252
1155 4 0.181609 0.13962 0.621611
1153 2 0.180289 0.164425 0.61875
909 4 0.178979 0.123609 0.635306
907 2 0.197102 0.12036 0.652223
830 4 0.378768 0.15806 0.634793
829 2 0.384187 0.133802 0.637507
831 4 0.389606 0.109544 0.64022
904 2 0.443328 0.179098 0.586915
810 4 0.458748 0.0894178 0.577889
808 2 0.483022 0.0917447 0.583415
1026 4 0.474069 0.146134 0.646809
1024 2 0.477046 0.161424 0.62725
1025 4 0.480023 0.176713 0.607691
906 4 0.464752 0.170935 0.596894
1143 4 0.465206 0.126856 0.648193
1263 4 0.455371 0.143873 0.65689
1209 4 0.0685284 0.245136 0.651575
1245 4 0.0478977 0.244487 0.64581
852 4 0.0570625 0.227213 0.654694
850 2 0.0533678 0.206086 0.667545
1270 2 0.160341 0.211699 0.595483
1154 4 0.178969 0.189229 0.615889
1271 4 0.180809 0.209441 0.609667
1221 4 0.198641 0.19687 0.611371
1219 2 0.221273 0.20637 0.616138
1220 4 0.243905 0.21587 0.620906
798 4 0.263863 0.219887 0.614637
796 2 0.268519 0.243805 0.60903
1212 4 0.2599 0.204321 0.628768
888 4 0.312012 0.162351 0.632349
1211 4 0.296908 0.171068 0.623736
1210 2 0.278404 0.187694 0.626252
1194 4 0.372847 0.1789 0.636813
886 2 0.336675 0.16395 0.628561
887 4 0.361339 0.165549 0.624774
1192 2 0.395212 0.189877 0.634698
1193 4 0.417578 0.200855 0.632583
1243 2 0.023872 0.250539 0.642444
1244 4 0.999846 0.25659 0.639078
1207 2 0.0886801 0.257018 0.660402
948 4 0.157435 0.294475 0.645132
946 2 0.139597 0.288885 0.661738
797 4 0.273175 0.267723 0.603424
3112 2 0.487861 0.31369 0.626485
3114 4 0.467788 0.299087 0.629486
992 4 0.160335 0.396317 0.591614
991 2 0.139141 0.408213 0.585743
1191 4 0.215262 0.373643 0.617147
896 4 0.199995 0.360254 0.614239
895 2 0.182274 0.369641 0.599305
1189 2 0.237722 0.368226 0.607588
1027 2 0.206075 0.383823 0.672401
1029 4 0.220713 0.403838 0.675611
1139 4 0.214751 0.415546 0.691455
1190 4 0.260183 0.36281 0.598029
803 4 0.26705 0.356892 0.579459
882 4 0.356995 0.388581 0.591049
930 4 0.368288 0.372052 0.587973
3239 4 0.0156 0.444251 0.63836
3262 2 0.0274063 0.427273 0.599699
3238 2 0.029932 0.459093 0.652484
3263 4 0.0188484 0.429533 0.623084
3494 4 0.00667957 0.446891 0.619267
2154 4 0.293729 0.486187 0.609083
1173 4 0.282058 0.469219 0.6168
1172 4 0.307803 0.452106 0.656107
1171 2 0.29493 0.460662 0.636454
2435 4 0.273714 0.482708 0.602165
2434 2 0.253223 0.490934 0.613898
3183 4 0.453165 0.485686 0.583477
1002 4 0.484223 0.434706 0.594208
1206 4 0.486875 0.432449 0.616136
1204 2 0.471448 0.430784 0.635742
1205 4 0.456021 0.42912 0.655348
3182 4 0.478837 0.450396 0.607896
3181 2 0.466001 0.468041 0.595687
1077 4 0.0214284 0.0882247 0.730223
1075 2 0.0267296 0.0861081 0.70588
864 4 0.00792656 0.0862623 0.743898
2049 4 0.120415 0.998476 0.753878
2400 4 0.360111 0.0523416 0.727803
2398 2 0.367167 0.0675128 0.746384
43 3 0.464039 0.0554849 0.724189
846 4 0.459347 0.0463401 0.740931
41 1 0.477991 0.0692313 0.711748
45 3 0.49834 0.059341 0.709147
44 3 0.468517 0.0734281 0.690986
1082 4 0.0204351 0.0945269 0.665673
1076 4 0.0320308 0.0839915 0.681536
908 4 0.215225 0.117112 0.66914
1227 4 0.217501 0.120542 0.689005
1226 4 0.221782 0.111746 0.738046
1225 2 0.219642 0.116144 0.713526
1141 2 0.465607 0.105013 0.660354
42 3 0.480633 0.0891837 0.722887
1142 4 0.466007 0.0831698 0.672515
1261 2 0.436248 0.158596 0.663426
3424 2 0.505849 0.163623 0.718979
3270 4 0.474896 0.163736 0.741488
1177 2 0.0180179 0.174144 0.699414
1178 4 0.0418287 0.181704 0.700446
851 4 0.049673 0.184958 0.680396
1107 4 0.0591987 0.171077 0.693307
1105 2 0.0810688 0.170945 0.705426
1106 4 0.102939 0.170814 0.717545
1073 4 0.110782 0.188812 0.721265
1072 2 0.12376 0.184257 0.742145
1086 4 0.313713 0.233994 0.736513
1299 4 0.294037 0.231147 0.739409
1297 2 0.272057 0.235819 0.750374
1262 4 0.417125 0.17332 0.669962
3426 4 0.489205 0.177312 0.731658
1146 4 0.47922 0.18343 0.749489
816 4 0.015677 0.33495 0.732215
1208 4 0.108832 0.2689 0.669228
1242 4 0.105261 0.281201 0.747821
821 4 0.112073 0.291673 0.730383
947 4 0.121759 0.283294 0.678343
820 2 0.106254 0.287758 0.706383
822 4 0.100434 0.283842 0.682384
1098 4 0.356485 0.27704 0.711625
1096 2 0.347483 0.285929 0.733192
892 2 0.0551745 0.396834 0.733602
893 4 0.0588679 0.373552 0.725266
815 4 0.051597 0.361111 0.709279
814 2 0.033637 0.348031 0.720747
942 4 0.0722813 0.368062 0.709543
1067 4 0.127169 0.34002 0.678028
940 2 0.0916841 0.355174 0.700454
941 4 0.111087 0.342285 0.691366
1066 2 0.149808 0.350509 0.676406
1028 4 0.191436 0.363808 0.66919
1068 4 0.172447 0.360997 0.674783
1065 4 0.253057 0.361698 0.675926
1234 2 0.233995 0.344961 0.750476
1063 2 0.259409 0.355411 0.699278
1064 4 0.265762 0.349124 0.722629
806 4 0.275632 0.356012 0.740106
805 2 0.295763 0.370264 0.744206
1236 4 0.257337 0.344302 0.741538
1101 4 0.437024 0.383769 0.697232
1099 2 0.44326 0.40549 0.686531
3240 4 0.0442639 0.473935 0.666608
894 4 0.0514811 0.420116 0.741938
2172 4 0.047614 0.482514 0.685934
1279 2 0.0470405 0.448342 0.70537
3276 4 0.0346713 0.433134 0.740034
1983 4 0.0539082 0.440971 0.746687
1280 4 0.0510964 0.435352 0.726346
1281 4 0.0429846 0.461332 0.684394
1140 4 0.223511 0.460168 0.67065
1138 2 0.219131 0.437857 0.681053
1176 4 0.175862 0.489439 0.702972
2016 4 0.160864 0.495248 0.714907
891 4 0.304499 0.464368 0.673158
889 2 0.305886 0.485973 0.685667
2169 4 0.499954 0.489135 0.696271
1269 4 0.453491 0.44687 0.667523
1100 4 0.449495 0.42721 0.67583
1268 4 0.484928 0.474952 0.694427
1267 2 0.469209 0.460911 0.680975
1195 2 0.0776566 0.00522494 0.815665
1196 4 0.0779897 0.0238171 0.79895
1203 4 0.0732235 0.0306603 0.77898
911 4 0.089489 0.0396537 0.789457
1201 2 0.0876767 0.0177027 0.763219
910 2 0.092455 0.0605017 0.802938
1147 2 0.215722 0.0939454 0.769643
1149 4 0.19985 0.0796765 0.782669
1049 4 0.368726 0.0800437 0.78528
2399 4 0.374223 0.0826841 0.764964
1112 4 0.389198 0.0829995 0.780512
1111 2 0.403801 0.0634386 0.785924
844 2 0.446101 0.0388603 0.760774
1113 4 0.418405 0.0438778 0.791336
845 4 0.432855 0.0313805 0.780618
980 4 0.41283 0.024538 0.784303
979 2 0.418481 0.0139624 0.806244
1214 4 0.0705121 0.131982 0.795564
1213 2 0.0657498 0.145536 0.7751
33 3 0.0698269 0.114258 0.805168
31 1 0.0760965 0.112453 0.827436