ITEM: TIMESTEP
2680000
ITEM: NUMBER OF ATOMS
4590
ITEM: BOX BOUNDS pp pp pp
-9.9985700000000008e+00 9.9985700000000008e+00
-9.9985700000000008e+00 9.9985700000000008e+00
-9.9985700000000008e+00 9.9985700000000008e+00
ITEM: ATOMS id type xs ys zs
1666 2 0.0705845 0.0530581 0.0267539
1667 4 0.0707929 0.0780552 0.0272834
1668 4 0.0703761 0.028061 0.0262244
423 4 0.149985 0.0842454 0.0172188
532 2 0.161015 0.0486851 0.0117954
533 4 0.164665 0.0261386 0.0219693
1475 4 0.209557 0.0134334 0.0396846
652 2 0.249091 0.0846432 0.0601477
490 2 0.278514 0.0577941 0.0176355
491 4 0.274141 0.0739963 0.0361705
653 4 0.273453 0.0801012 0.0568268
296 4 0.46025 0.0406521 0.0774795
591 4 0.0557249 0.0932974 0.0299143
702 4 0.0762886 0.0988158 0.029575
589 2 0.0355435 0.106648 0.0236179
590 4 0.0153621 0.119999 0.0173215
3232 2 0.0138342 0.160084 0.00965005
3233 4 0.0039554 0.13804 0.016106
421 2 0.146937 0.104776 0.0311614
422 4 0.143889 0.125306 0.045104
700 2 0.0890791 0.112342 0.0462667
701 4 0.10187 0.125869 0.0629584
448 2 0.140437 0.122594 0.0876055
449 4 0.119557 0.127425 0.0747265
654 4 0.224729 0.0891852 0.0634685
1133 4 0.201357 0.149275 0.0099901
359 4 0.272474 0.134271 0.00698267
565 2 0.285243 0.114534 0.0286779
566 4 0.290329 0.135096 0.0153921
567 4 0.280156 0.0939723 0.0419637
556 2 0.382805 0.159943 0.0548718
557 4 0.374316 0.154364 0.0777185
477 4 0.0697338 0.175933 0.0808981
3234 4 0.0237131 0.182127 0.00319411
913 2 0.142536 0.243413 0.00849545
558 4 0.391295 0.165523 0.0320251
666 4 0.38897 0.167888 0.0108056
571 2 0.377035 0.208191 0.0261151
572 4 0.383928 0.184257 0.0239175
573 4 0.370142 0.232125 0.0283126
623 4 0.403886 0.241772 0.0744693
324 4 0.41473 0.235069 0.0593706
322 2 0.436158 0.237724 0.0467617
771 4 0.476654 0.241129 0.0237747
518 4 0.476353 0.236744 0.0446462
517 2 0.490603 0.230569 0.0642421
323 4 0.457586 0.240379 0.0341529
914 4 0.152344 0.256356 0.0275074
293 4 0.14315 0.33101 0.0589498
292 2 0.122997 0.332206 0.0737015
507 4 0.151094 0.319443 0.04264
505 2 0.148512 0.294616 0.0411888
506 4 0.14593 0.269788 0.0397376
482 4 0.24497 0.316695 0.0735163
481 2 0.228201 0.328166 0.0589427
252 4 0.262168 0.325537 0.0828593
1071 4 0.367639 0.250385 0.0218435
1069 2 0.380249 0.268492 0.0100841
622 2 0.403513 0.265317 0.0828779
624 4 0.40314 0.288861 0.0912866
955 2 0.408969 0.319654 0.00298738
769 2 0.47607 0.257953 0.00528679
1056 4 0.00362327 0.3385 0.995208
1170 4 0.0161455 0.354532 0.000961463
1168 2 0.0102087 0.37865 0.00383685
1169 4 0.00427187 0.402768 0.00671224
288 4 0.151008 0.341055 0.0417747
286 2 0.17497 0.345283 0.0360169
287 4 0.198931 0.349511 0.030259
483 4 0.211432 0.339638 0.0443691
607 2 0.300798 0.396816 0.077986
1047 4 0.40364 0.39081 0.0202396
282 4 0.437394 0.342987 0.0255795
956 4 0.422357 0.335416 0.0170396
280 2 0.453357 0.344498 0.0447647
281 4 0.46932 0.346009 0.0639498
494 4 0.459925 0.351755 0.0824332
671 4 0.47928 0.359887 0.0780456
1045 2 0.418669 0.381907 0.00234976
551 4 0.00783509 0.423442 0.00334344
550 2 0.00967321 0.435116 0.0253779
552 4 0.0115113 0.44679 0.0474124
315 4 0.0226281 0.461398 0.058679
313 2 0.044648 0.473092 0.0605623
620 4 0.0151448 0.44354 0.06803
314 4 0.0666679 0.484787 0.0624456
1691 4 0.0749675 0.495087 0.0791674
1787 4 0.0860879 0.479497 0.0694346
1786 2 0.109773 0.476428 0.0768365
241 2 0.231492 0.487423 0.0549421
242 4 0.207933 0.484065 0.0472675
608 4 0.291238 0.416592 0.0660408
626 4 0.274514 0.427256 0.0599352
243 4 0.25505 0.490781 0.0626166
627 4 0.266374 0.475174 0.0716958
625 2 0.270444 0.451215 0.0658155
244 2 0.327754 0.465945 0.0329376
245 4 0.321133 0.4748 0.0553636
1440 4 0.25449 0.488316 0.0838719
39 3 0.333061 0.416646 0.0155291
246 4 0.334375 0.45709 0.0105115
2386 2 0.396771 0.496978 0.0224683
2387 4 0.372675 0.503319 0.0245606
2388 4 0.420866 0.490638 0.020376
562 2 0.447308 0.497193 0.996764
2480 4 0.0136055 0.998745 0.144663
16 1 0.00891203 0.0729331 0.116604
2479 2 0.00794684 0.0223833 0.1388
18 3 0.012623 0.0500288 0.116434
2481 4 0.00228818 0.0460217 0.132936
297 4 0.43523 0.0123413 0.110239
295 2 0.44774 0.0264967 0.0938592
20 3 0.0268374 0.0836418 0.125696
450 4 0.161317 0.117763 0.100484
236 4 0.100462 0.127937 0.0841558
235 2 0.0924736 0.151099 0.089144
475 2 0.0643349 0.198983 0.0889444
476 4 0.058936 0.222032 0.0969907
339 4 0.0776813 0.222959 0.104089
237 4 0.0844849 0.174261 0.0941322
337 2 0.0910701 0.240847 0.115312
738 4 0.197502 0.244747 0.166715
461 4 0.290178 0.209166 0.10802
354 4 0.271073 0.216455 0.105816
460 2 0.313939 0.20197 0.105053
352 2 0.261263 0.236749 0.116638
462 4 0.3377 0.194773 0.102086
254 4 0.396811 0.192083 0.120244
253 2 0.375629 0.187937 0.107621
255 4 0.354447 0.183791 0.0949992
630 4 0.404872 0.211579 0.122507
28 3 0.353654 0.197134 0.164694
629 4 0.452834 0.197436 0.121942
628 2 0.428853 0.204507 0.122224
294 4 0.102844 0.333403 0.0884532
338 4 0.104459 0.258734 0.126536
363 4 0.116425 0.268368 0.138775
456 4 0.0886656 0.330138 0.10349
361 2 0.126355 0.274911 0.160769
736 2 0.214041 0.250933 0.149012
737 4 0.230579 0.257119 0.131309
353 4 0.251453 0.257042 0.12746
756 4 0.24917 0.31344 0.0946386
755 4 0.238109 0.269491 0.115778
754 2 0.24364 0.291466 0.105209
741 4 0.401701 0.308454 0.098652
739 2 0.379262 0.318479 0.103251
740 4 0.356823 0.328505 0.107849
454 2 0.0929432 0.33356 0.127887
455 4 0.0972207 0.336981 0.152283
537 4 0.095494 0.356382 0.158672
535 2 0.103664 0.378942 0.165704
250 2 0.27902 0.343549 0.0869486
251 4 0.295872 0.361562 0.091038
609 4 0.310357 0.377039 0.0899312
387 4 0.307396 0.367107 0.108566
385 2 0.330406 0.357325 0.108486
386 4 0.353417 0.347543 0.108407
11 1 0.409375 0.362738 0.1454
13 3 0.390115 0.371507 0.135885
14 3 0.417778 0.345732 0.132036
12 3 0.425137 0.379416 0.146999
495 4 0.429593 0.358887 0.121546
493 2 0.444759 0.355321 0.10199
670 2 0.498089 0.34989 0.0911404
595 2 0.461114 0.385645 0.146198
596 4 0.479325 0.398466 0.134832
597 4 0.442904 0.372825 0.157565
2652 4 0.492016 0.412841 0.129255
647 4 0.0118343 0.468858 0.146686
263 4 0.0164098 0.454321 0.159106
1788 4 0.133458 0.47336 0.0842383
1438 2 0.256201 0.492989 0.108375
525 4 0.348946 0.454123 0.153259
523 2 0.358061 0.47515 0.143262
524 4 0.367176 0.496178 0.133265
659 4 0.334434 0.441985 0.162279
688 2 0.133975 0.0689766 0.24459
690 4 0.150654 0.0744029 0.226771
1700 4 0.204434 0.0391253 0.243935
1506 4 0.282467 0.0100286 0.217781
21 1 0.323369 0.0518368 0.245461
23 3 0.30032 0.0535951 0.243456
22 3 0.32864 0.0304872 0.252212
1785 4 0.352379 0.0241544 0.170177
1783 2 0.345982 0.0297824 0.193684
25 3 0.333257 0.0560081 0.225374
1784 4 0.339585 0.0354105 0.217191
759 4 0.354996 0.0483986 0.224394
757 2 0.376175 0.0616885 0.224303
758 4 0.397354 0.0749784 0.224212
744 4 0.416993 0.0723837 0.232449
1749 4 0.479117 0.0110672 0.211472
1747 2 0.48995 0.0202439 0.232054
511 2 0.00834061 0.124024 0.237354
512 4 0.996893 0.110955 0.219373
693 4 0.149635 0.0905957 0.214936
691 2 0.160624 0.10957 0.202919
692 4 0.171614 0.128543 0.190902
723 4 0.171962 0.146903 0.200598
721 2 0.172636 0.166039 0.216678
285 4 0.282439 0.15319 0.241327
312 4 0.414279 0.0861015 0.216472
310 2 0.434293 0.0921094 0.202742
311 4 0.454307 0.0981173 0.189012
748 2 0.0438117 0.209173 0.20991
749 4 0.0306721 0.203428 0.189427
750 4 0.0569513 0.214918 0.230392
396 4 0.0488146 0.23301 0.230277
394 2 0.0484301 0.246912 0.251056
722 4 0.173311 0.185174 0.232758
580 2 0.305216 0.171772 0.209401
582 4 0.291511 0.167079 0.22978
581 4 0.318922 0.176466 0.189022
30 3 0.336684 0.181531 0.194464
707 4 0.402881 0.164599 0.243625
27 3 0.35855 0.211417 0.199113
706 2 0.389361 0.163409 0.222626
708 4 0.375841 0.162219 0.201627
29 3 0.373993 0.178217 0.190634
26 1 0.3556 0.191945 0.187226
521 4 0.463952 0.247336 0.243122
362 4 0.136285 0.281454 0.182764
372 4 0.1571 0.284889 0.181743
370 2 0.174075 0.29701 0.195532
371 4 0.19105 0.30913 0.20932
279 4 0.206362 0.294743 0.216289
277 2 0.221255 0.283705 0.233069
612 4 0.210158 0.308774 0.198662
610 2 0.219625 0.331682 0.195378
763 2 0.394083 0.333755 0.239278
765 4 0.414441 0.320374 0.233652
542 4 0.42486 0.305093 0.240576
541 2 0.435241 0.28247 0.242947
543 4 0.445622 0.259847 0.245319
536 4 0.111834 0.401503 0.172736
603 4 0.141915 0.413325 0.242844
417 4 0.244281 0.366841 0.197052
611 4 0.229092 0.35459 0.192093
415 2 0.244295 0.373923 0.221032
416 4 0.244309 0.381006 0.245011
436 2 0.294507 0.412407 0.248158
438 4 0.313232 0.396562 0.253006
15 3 0.404801 0.35472 0.166219
303 4 0.333782 0.390431 0.24857
301 2 0.344372 0.396225 0.226673
660 4 0.338552 0.403734 0.194226
302 4 0.354961 0.402019 0.204777
764 4 0.373724 0.347137 0.244903
644 4 0.416598 0.407533 0.211195
643 2 0.4225 0.396144 0.189732
645 4 0.428402 0.384756 0.168269
262 2 0.0165078 0.449315 0.183603
1757 4 0.0323284 0.455203 0.213083
264 4 0.0166058 0.444309 0.2081
1756 2 0.0257896 0.464542 0.235336
437 4 0.275782 0.428252 0.243309
637 2 0.266103 0.489247 0.169239
1436 4 0.254886 0.430808 0.247091
291 4 0.261872 0.431204 0.226612
638 4 0.279861 0.478481 0.187128
289 2 0.268768 0.443705 0.206086
290 4 0.275664 0.456207 0.185559
767 4 0.295779 0.463663 0.189893
766 2 0.317521 0.47415 0.196411
658 2 0.336493 0.422859 0.178253
768 4 0.339263 0.484637 0.20293
1574 4 0.354446 0.486375 0.215688
1573 2 0.369588 0.48161 0.235006
447 4 0.424679 0.420667 0.224263
445 2 0.428834 0.425615 0.248417
673 2 0.0816157 0.0752981 0.269768
689 4 0.117296 0.0635503 0.26241
675 4 0.0971756 0.0561345 0.265791
1403 4 0.114059 0.0480041 0.27685
1402 2 0.108234 0.0236981 0.277535
1699 2 0.201101 0.0364997 0.268576
248 4 0.194991 0.0524818 0.303581
247 2 0.1791 0.0715373 0.306673
1701 4 0.197769 0.0338742 0.293217
605 4 0.209031 0.0377239 0.311089
604 2 0.223889 0.0196585 0.319925
24 3 0.331106 0.0668574 0.261365
1496 4 0.334484 0.0155501 0.264664
699 4 0.37766 0.017685 0.296758
1495 2 0.348547 0.00952282 0.28444
697 2 0.387051 0.0312193 0.315568
1497 4 0.36261 0.00349555 0.304216
349 2 0.409464 0.0824802 0.310822
351 4 0.402201 0.0626242 0.32417
480 4 0.491007 0.02451 0.26925
513 4 0.0197881 0.137094 0.255336
531 4 0.0130605 0.12828 0.31965
579 4 0.0321582 0.154132 0.25983
530 4 0.0303922 0.138249 0.273813
529 2 0.0217264 0.133265 0.296731
674 4 0.0660557 0.0944617 0.273746
249 4 0.16321 0.0905929 0.309765
600 4 0.152326 0.160535 0.312888
545 4 0.166115 0.160988 0.296813
405 4 0.153466 0.143921 0.299499
403 2 0.153894 0.119305 0.295136
404 4 0.154323 0.0946882 0.290773
333 4 0.406383 0.111709 0.280883
742 2 0.4172 0.0829705 0.255099
350 4 0.416726 0.102336 0.297474
762 4 0.442756 0.157435 0.303162
743 4 0.417407 0.0935573 0.27775
332 4 0.423582 0.153784 0.30173
331 2 0.414982 0.132746 0.291306
577 2 0.0478657 0.172975 0.264669
578 4 0.0635732 0.191817 0.269509
391 2 0.0786597 0.205483 0.302833
392 4 0.0839175 0.203018 0.327153
393 4 0.0734019 0.207948 0.278513
2654 4 0.0689962 0.198136 0.340086
544 2 0.168925 0.171444 0.274276
546 4 0.171735 0.181901 0.251738
275 4 0.170428 0.219402 0.31726
284 4 0.250872 0.187307 0.259775
344 4 0.249793 0.20727 0.25672
343 2 0.250431 0.232087 0.253736
274 2 0.189261 0.213362 0.332557
283 2 0.266656 0.170248 0.250551
613 2 0.390323 0.220852 0.321763
614 4 0.406481 0.214563 0.303748
761 4 0.423933 0.203463 0.308433
760 2 0.433344 0.180449 0.305798
419 4 0.422957 0.213906 0.289823
520 2 0.486482 0.246974 0.25396
418 2 0.434623 0.227104 0.272077
420 4 0.446288 0.240301 0.254331
442 2 0.0108158 0.282991 0.262538
395 4 0.0480455 0.260813 0.271836
444 4 0.0328964 0.271457 0.264684
735 4 0.171409 0.330768 0.321856
278 4 0.236149 0.272668 0.249848
345 4 0.251069 0.256903 0.250753
309 4 0.243642 0.266272 0.268718
307 2 0.251716 0.276344 0.290132
308 4 0.25979 0.286417 0.311545
509 4 0.257871 0.29108 0.33287
497 4 0.256186 0.306313 0.317936
496 2 0.267757 0.327083 0.310196
300 4 0.143317 0.403935 0.260531
298 2 0.147345 0.379376 0.262943
734 4 0.153087 0.359413 0.285189
733 2 0.162248 0.345091 0.303523
299 4 0.151373 0.354817 0.265355
677 4 0.186021 0.343104 0.330922
498 4 0.279327 0.347853 0.302456
729 4 0.327306 0.393297 0.268987
727 2 0.342147 0.406732 0.283968
728 4 0.356989 0.420168 0.298948
751 2 0.393045 0.397863 0.316055
753 4 0.371962 0.406303 0.305594
752 4 0.414129 0.389423 0.326516
561 4 0.429485 0.383072 0.336239
1758 4 0.0192507 0.47388 0.25759
775 2 0.0692553 0.459853 0.322413
777 4 0.0534502 0.441537 0.328731
776 4 0.0850604 0.478169 0.316096
549 4 0.0439907 0.424388 0.331185
601 2 0.133403 0.435392 0.250952
412 2 0.113202 0.479416 0.289235
602 4 0.12489 0.457459 0.259061
414 4 0.120861 0.475901 0.265695
413 4 0.105542 0.482931 0.312776
1545 4 0.094309 0.495391 0.326375
1435 2 0.231187 0.433466 0.254605
1437 4 0.207487 0.436125 0.262118
435 4 0.327691 0.460147 0.325701
1575 4 0.38473 0.476844 0.254324
5 3 0.349418 0.483718 0.30336
1803 4 0.377333 0.426249 0.300064
1802 4 0.390269 0.458323 0.263945
1801 2 0.383801 0.442286 0.282005
1689 4 0.403441 0.475652 0.264758
1 1 0.350929 0.48398 0.326083
3 3 0.372641 0.489041 0.332516
1687 2 0.42232 0.491078 0.270308
120 3 0.504485 0.4461 0.315272
446 4 0.432989 0.430563 0.272571
231 4 0.487597 0.477967 0.304801
229 2 0.474868 0.494482 0.291003
713 4 0.450301 0.428411 0.281022
712 2 0.47262 0.429057 0.292275
714 4 0.494939 0.429704 0.303528
1376 4 0.994399 0.0472009 0.386853
233 4 0.0138256 0.0524397 0.380071
318 4 0.0716858 0.0496919 0.373126
234 4 0.060695 0.0644517 0.367434
232 2 0.0372603 0.0584457 0.373752
316 2 0.0906077 0.0394317 0.385848
317 4 0.10953 0.0291714 0.398571
428 4 0.116369 0.0158023 0.414691
606 4 0.238747 0.00159311 0.328761
725 4 0.332939 0.00218294 0.370486
633 4 0.325742 0.00996275 0.353494
632 4 0.309297 0.0571886 0.353382
631 2 0.317519 0.0335757 0.353438
682 2 0.29424 0.0765282 0.402153
683 4 0.313765 0.0789858 0.386729
698 4 0.396443 0.0447536 0.334377
257 4 0.414161 0.0548036 0.34037
2643 4 0.499126 0.0580872 0.371842
256 2 0.420438 0.0569459 0.364478
425 4 0.417777 0.0470795 0.404043
258 4 0.426715 0.0590882 0.388586
452 4 0.489721 0.0716304 0.383238
451 2 0.465785 0.0717976 0.390464
453 4 0.441849 0.0719648 0.39769
515 4 0.423649 0.0677206 0.40795
398 4 0.017963 0.121562 0.339598
2756 4 0.00726875 0.140244 0.336718
397 2 0.0414825 0.123643 0.347825
399 4 0.0650019 0.125724 0.356052
732 4 0.0703975 0.143264 0.366445
598 2 0.141491 0.158588 0.335337
730 2 0.0953383 0.141493 0.366442
599 4 0.130656 0.15664 0.357787
685 2 0.139842 0.155281 0.398407
686 4 0.125124 0.157366 0.378302
731 4 0.120279 0.139723 0.366439
1151 4 0.152735 0.133708 0.414634
467 4 0.258084 0.152673 0.41921
514 2 0.409508 0.0877022 0.413045
575 4 0.389432 0.126572 0.413719
574 2 0.404132 0.145742 0.40727
576 4 0.418833 0.164912 0.400821
2653 2 0.0478717 0.209696 0.346816
2655 4 0.0267471 0.221256 0.353547
617 4 0.0872717 0.237848 0.368567
388 2 0.129239 0.247773 0.354533
390 4 0.106762 0.24173 0.363668
616 2 0.0887425 0.24822 0.391271
276 4 0.208095 0.207322 0.347854
474 4 0.226636 0.200537 0.347778
472 2 0.247885 0.201462 0.360922
473 4 0.269134 0.202388 0.374067
409 2 0.314449 0.20088 0.370792
466 2 0.266792 0.169806 0.403215
468 4 0.275499 0.186939 0.38722
410 4 0.290126 0.197027 0.375123
411 4 0.338771 0.204734 0.366461
716 4 0.369422 0.23111 0.35816
715 2 0.367292 0.235413 0.382698
615 4 0.374166 0.227141 0.339778
717 4 0.365162 0.239716 0.407237
304 2 0.440366 0.191564 0.396271
269 4 0.449879 0.209668 0.360287
306 4 0.450697 0.206415 0.379011
268 2 0.443858 0.233935 0.360073
305 4 0.430035 0.176713 0.413531
2814 4 0.00506248 0.290553 0.412426
389 4 0.151716 0.253816 0.345398
401 4 0.167603 0.255734 0.355933
618 4 0.0902133 0.258591 0.413974
400 2 0.174836 0.272304 0.373205
375 4 0.197988 0.290731 0.401966
402 4 0.182068 0.288874 0.390476
373 2 0.22246 0.292216 0.397056
374 4 0.246931 0.293701 0.392146
510 4 0.263257 0.28438 0.382133
508 2 0.260564 0.28773 0.357502
378 4 0.257627 0.277861 0.402183
376 2 0.280583 0.281167 0.411524
2924 4 0.433084 0.258194 0.380738
2923 2 0.425953 0.269471 0.401885
270 4 0.437836 0.258201 0.359858
548 4 0.0162819 0.394841 0.360509
407 4 0.0140196 0.377294 0.37285
547 2 0.0301363 0.409614 0.345847
676 2 0.186283 0.337455 0.355278
678 4 0.186545 0.331806 0.379634
650 4 0.213687 0.384319 0.396272
649 2 0.234485 0.38259 0.410042
651 4 0.255283 0.380861 0.423813
667 2 0.413948 0.409953 0.40093
669 4 0.395611 0.406695 0.417613
559 2 0.440015 0.393388 0.356435
560 4 0.450546 0.403704 0.37663
668 4 0.432285 0.413211 0.384247
588 4 0.451334 0.421117 0.391621
586 2 0.464977 0.42139 0.412574
434 4 0.287035 0.438932 0.345644
433 2 0.307363 0.449539 0.335672
4 3 0.344732 0.463334 0.334668
2 3 0.336759 0.500063 0.334433
119 3 0.500638 0.445882 0.352726
3990 4 0.485955 0.457856 0.356631
3988 2 0.483694 0.482754 0.356233
1126 2 0.998963 0.0473494 0.482356
2236 2 0.0268295 0.00531025 0.457441
1127 4 0.0219516 0.044924 0.472827
2238 4 0.0188865 0.0281333 0.46386
1781 4 0.110078 0.0355684 0.419035
1780 2 0.117254 0.046718 0.440233
1782 4 0.124431 0.0578676 0.461432
341 4 0.131844 0.0716564 0.476281
2430 4 0.132906 0.0502924 0.479736
340 2 0.151267 0.0828873 0.465246
2428 2 0.149398 0.0344152 0.489791
684 4 0.274715 0.0740706 0.417577
430 2 0.320614 0.0267571 0.471664
1180 2 0.27667 0.0503658 0.448128
1181 4 0.28984 0.0343176 0.462063
1182 4 0.263499 0.066414 0.434193
963 4 0.282269 0.0213378 0.477512
432 4 0.298898 0.0344211 0.481403
961 2 0.26325 0.0187217 0.493532
431 4 0.34233 0.019093 0.461924
841 2 0.382435 0.0213087 0.461176
842 4 0.405463 0.020768 0.451451
843 4 0.359407 0.0218494 0.470902
426 4 0.415233 0.00921408 0.436608
424 2 0.416505 0.0281468 0.420326
1217 4 0.425946 0.0131438 0.454684
1216 2 0.443381 0.0250234 0.468104
1218 4 0.460816 0.0369029 0.481523
457 2 0.0120541 0.112155 0.464934
719 4 0.0245177 0.0988468 0.494534
459 4 0.0294779 0.097342 0.475041
687 4 0.154561 0.153196 0.418512
368 4 0.103148 0.091542 0.467868
367 2 0.106386 0.111181 0.452736
369 4 0.109625 0.130821 0.437604
939 4 0.119819 0.148903 0.438867
937 2 0.136201 0.160407 0.453849
342 4 0.170691 0.0941182 0.454211
1152 4 0.18319 0.108669 0.445395
1150 2 0.167962 0.121188 0.430015
320 4 0.255009 0.0823006 0.422215
321 4 0.254747 0.13227 0.424128
319 2 0.254878 0.107285 0.423171
899 4 0.267683 0.145184 0.436754
898 2 0.288402 0.146381 0.450699
900 4 0.309122 0.147579 0.464643
516 4 0.395368 0.107684 0.41814
938 4 0.152583 0.171912 0.468832
1034 4 0.159173 0.190538 0.471753
261 4 0.111077 0.225739 0.471851
1035 4 0.125428 0.223936 0.487457
1033 2 0.1423 0.207237 0.479605
695 4 0.106883 0.213718 0.489168
259 2 0.107001 0.236394 0.449602
260 4 0.102925 0.24705 0.427353
267 4 0.347704 0.232745 0.417184
813 4 0.380398 0.220209 0.469843
266 4 0.374868 0.211621 0.453469
265 2 0.361286 0.222183 0.435327
811 2 0.383303 0.22509 0.494193
2847 4 0.00214356 0.29081 0.475353
2801 4 0.0220158 0.287473 0.423741
2802 4 0.0189639 0.302744 0.471262
2800 2 0.0204899 0.295108 0.447501
347 4 0.106471 0.267932 0.425823
346 2 0.12122 0.287641 0.430206
348 4 0.135969 0.30735 0.434589
10 3 0.136779 0.31105 0.454425
9 3 0.123744 0.308593 0.489663
6 1 0.131872 0.322861 0.473268
1259 4 0.132639 0.292205 0.498384
1258 2 0.140135 0.269119 0.504388
377 4 0.303539 0.284474 0.420866
489 4 0.321467 0.293107 0.424166
488 4 0.349824 0.253551 0.41268
487 2 0.335646 0.273329 0.418423
238 2 0.412047 0.312523 0.435231
239 4 0.419191 0.289223 0.440822
2455 2 0.495894 0.306093 0.495722
2925 4 0.418822 0.280748 0.423031
2456 4 0.473927 0.3135 0.486354
584 4 0.456865 0.306688 0.493217
583 2 0.43262 0.308606 0.49902
680 4 0.0440101 0.392724 0.496848
679 2 0.0451999 0.414199 0.484097
8 3 0.150862 0.333756 0.480953
504 4 0.160064 0.387983 0.438569
7 3 0.115759 0.33854 0.468401
711 4 0.115802 0.359222 0.465416
709 2 0.128732 0.3726 0.448712
710 4 0.141661 0.385978 0.432008
503 4 0.20259 0.381124 0.413169
502 2 0.181327 0.384554 0.425869
240 4 0.404902 0.335823 0.429641
335 4 0.387273 0.342484 0.439037
334 2 0.387375 0.366859 0.433465
336 4 0.387477 0.391233 0.427892
926 4 0.482713 0.403879 0.497297
382 2 0.0740082 0.469407 0.462849
539 4 0.0411391 0.454642 0.461315
538 2 0.0180252 0.460174 0.469082
681 4 0.0463896 0.435674 0.471347
383 4 0.0614659 0.447781 0.462426
384 4 0.0865505 0.491033 0.463272
569 4 0.106307 0.490072 0.461488
634 2 0.203493 0.476645 0.471772
774 4 0.228792 0.469462 0.445778
635 4 0.219078 0.460178 0.461229
636 4 0.187907 0.493111 0.482314
772 2 0.252277 0.461013 0.444281
773 4 0.275762 0.452564 0.442784
587 4 0.478619 0.421663 0.433526
662 4 0.457958 0.47413 0.46519
663 4 0.486334 0.439611 0.442742
1910 4 0.444117 0.476794 0.478886
661 2 0.472146 0.45687 0.453966
2507 4 0.48744 0.421112 0.453471
1909 2 0.45128 0.494089 0.495462
2429 4 0.16589 0.018538 0.499846
1284 4 0.191875 0.0747271 0.559133
1031 4 0.223449 0.0274602 0.578392
1282 2 0.197817 0.0542261 0.572155
962 4 0.244232 0.0161056 0.509551
1030 2 0.247584 0.0293799 0.572148
1032 4 0.271719 0.0312996 0.565903
1091 4 0.347938 0.0118215 0.571478
720 4 0.04197 0.115347 0.538396
718 2 0.0332439 0.107097 0.516465
1059 4 0.189027 0.0924192 0.567361
327 4 0.0787958 0.229015 0.550706
877 2 0.111932 0.211176 0.566655
878 4 0.0953528 0.215415 0.548425
696 4 0.0919698 0.230852 0.533718
694 2 0.0994266 0.222285 0.511443
879 4 0.128511 0.206937 0.584886
1272 4 0.14751 0.213595 0.577621
856 2 0.212681 0.230907 0.553039
858 4 0.227056 0.212406 0.544306
953 4 0.392952 0.228437 0.53915
812 4 0.386208 0.22997 0.518543
791 4 0.373029 0.238578 0.533594
873 4 0.392154 0.248386 0.52995
790 2 0.359047 0.246382 0.552797
952 2 0.407323 0.210719 0.549383
954 4 0.421693 0.193 0.559616
905 4 0.420062 0.176004 0.571643
982 2 0.0382684 0.296585 0.544663
984 4 0.0624481 0.291654 0.54869
326 4 0.0666994 0.276019 0.562747
1136 4 0.0827447 0.288482 0.55606
325 2 0.0727476 0.252517 0.556726
983 4 0.0140887 0.301515 0.540637
2846 4 0.00986151 0.287979 0.52468
2845 2 0.00600253 0.289394 0.500017
1135 2 0.0910098 0.31195 0.558533
1137 4 0.099275 0.335418 0.561006
1260 4 0.14763 0.246033 0.510392
857 4 0.198307 0.249408 0.561772
1239 4 0.310731 0.314261 0.567753
804 4 0.291232 0.309012 0.564346
1237 2 0.321351 0.291799 0.570553
802 2 0.282828 0.330456 0.574076
792 4 0.345065 0.254186 0.572001
1238 4 0.331971 0.269336 0.573352
871 2 0.400206 0.271441 0.524582
929 4 0.377742 0.325618 0.565624
872 4 0.408259 0.294496 0.519213
585 4 0.408375 0.310524 0.504824
936 4 0.0159199 0.407568 0.528918
3353 4 0.00487563 0.393793 0.535336
897 4 0.160952 0.36883 0.590982
880 2 0.363697 0.404852 0.579593
928 2 0.374511 0.348862 0.574253
925 2 0.477979 0.399531 0.52146
927 4 0.473244 0.395182 0.545623
1001 4 0.487192 0.405974 0.554757
934 2 0.0323151 0.420888 0.542295
3430 2 0.0361902 0.477061 0.561373
3431 4 0.0333349 0.501851 0.559796
935 4 0.0487104 0.434208 0.555672
3432 4 0.0390455 0.452271 0.562951
1041 4 0.0562537 0.444592 0.573667
3264 4 0.0375719 0.434109 0.574467
1039 2 0.0795914 0.435707 0.572402
1159 2 0.120609 0.434324 0.535081
1161 4 0.119438 0.423251 0.557468
1160 4 0.121779 0.445396 0.512693
1040 4 0.102929 0.426823 0.571138
993 4 0.122698 0.424932 0.57859
1455 4 0.34379 0.485435 0.548084
1454 4 0.352289 0.436188 0.549894
1453 2 0.348039 0.460812 0.548989
881 4 0.357191 0.422698 0.563333
1000 2 0.484832 0.418247 0.576413
1183 2 0.0207558 0.0522762 0.662777
1184 4 0.0124446 0.0290041 0.658967
1892 4 0.00201166 0.0206675 0.641883
1185 4 0.029067 0.0755483 0.666586
1891 2 0.0118643 0.00145707 0.629271
1283 4 0.203759 0.033725 0.585177
2131 2 0.209426 0.00979277 0.616953
2132 4 0.213421 0.0156906 0.592985
2133 4 0.205431 0.00389494 0.64092
1090 2 0.338378 0.00692457 0.594057
1060 2 0.494732 0.0314682 0.589746
1061 4 0.485304 0.0101153 0.59871
944 4 0.048009 0.0860019 0.66835
1081 2 0.0148763 0.115359 0.653734
943 2 0.066813 0.100675 0.660848
3179 4 0.00183407 0.148425 0.632083
1083 4 0.000848353 0.133375 0.643544
945 4 0.085617 0.115349 0.653347
1057 2 0.184933 0.105664 0.58817
1058 4 0.180839 0.118908 0.608978
1155 4 0.176215 0.134412 0.624314
1153 2 0.180674 0.158978 0.625661
909 4 0.191241 0.119808 0.627649
907 2 0.198686 0.11393 0.650784
830 4 0.377662 0.152994 0.627035
829 2 0.3814 0.129921 0.635913
831 4 0.385139 0.106847 0.644792
904 2 0.441248 0.172698 0.584504
810 4 0.456062 0.0855604 0.590817
808 2 0.480485 0.0872084 0.595909
1026 4 0.481476 0.146483 0.653968
1024 2 0.48068 0.154583 0.630326
1025 4 0.479884 0.162684 0.606685
906 4 0.462434 0.169393 0.597366
1143 4 0.472484 0.128216 0.66195
1263 4 0.46352 0.147665 0.665234
1209 4 0.067612 0.245374 0.639793
1245 4 0.0471839 0.244199 0.647035
852 4 0.0603215 0.227655 0.65047
850 2 0.0576228 0.208157 0.665888
1270 2 0.163016 0.206591 0.595943
1154 4 0.185134 0.183544 0.627008
1271 4 0.178521 0.199587 0.614265
1221 4 0.196751 0.201248 0.625754
1219 2 0.220093 0.210199 0.626219
1220 4 0.243435 0.219149 0.626684
798 4 0.263661 0.216614 0.619174
796 2 0.266483 0.241439 0.620125
1212 4 0.254729 0.201256 0.631668
888 4 0.312639 0.17994 0.629561
1211 4 0.294535 0.171176 0.628291
1210 2 0.274632 0.186216 0.62998
1194 4 0.379412 0.172966 0.634685
886 2 0.336557 0.172683 0.628895
887 4 0.360475 0.165426 0.628229
1192 2 0.400215 0.186093 0.6302
1193 4 0.421018 0.199219 0.625714
1243 2 0.0243994 0.247857 0.637409
1244 4 0.00161488 0.251515 0.627783
1207 2 0.0831314 0.258619 0.654246
948 4 0.154777 0.302679 0.656663
946 2 0.136297 0.28924 0.666815
797 4 0.269306 0.266265 0.621076
3112 2 0.497168 0.320048 0.62362
3114 4 0.482728 0.300052 0.619515
992 4 0.153579 0.386578 0.587314
991 2 0.138139 0.405755 0.582952
1191 4 0.224985 0.362346 0.618783
896 4 0.207056 0.365338 0.610034
895 2 0.184004 0.367084 0.600508
1189 2 0.243271 0.36418 0.601829
1027 2 0.198594 0.377536 0.66652
1029 4 0.207353 0.398741 0.65658
1139 4 0.212809 0.413564 0.667677
1190 4 0.261557 0.366015 0.584875
803 4 0.274424 0.351901 0.583807
882 4 0.370202 0.387007 0.595853
930 4 0.37128 0.372106 0.582882
3239 4 0.0135848 0.441504 0.641138
3262 2 0.0297948 0.43638 0.598121
3238 2 0.0271535 0.45714 0.655159
3263 4 0.0220177 0.438651 0.621776
3494 4 0.0047539 0.451172 0.624439
2154 4 0.287337 0.49331 0.599404
1173 4 0.295109 0.474947 0.607508
1172 4 0.304149 0.454595 0.652283
1171 2 0.299629 0.464771 0.629895
2435 4 0.273916 0.479108 0.608422
2434 2 0.252306 0.491537 0.610349
3183 4 0.456385 0.485955 0.589844
1002 4 0.482471 0.43052 0.598068
1206 4 0.484173 0.437516 0.618147
1204 2 0.469216 0.433715 0.637819
1205 4 0.454258 0.429914 0.657492
3182 4 0.489419 0.450479 0.602126
3181 2 0.472902 0.468217 0.595985
1077 4 0.0275761 0.083339 0.732928
1075 2 0.0301161 0.0858855 0.708184
864 4 0.00854164 0.0830584 0.736824
2049 4 0.122773 0.00262338 0.74895
2400 4 0.351662 0.0522771 0.723539
2398 2 0.363027 0.0653662 0.741559
43 3 0.455567 0.055395 0.722269
846 4 0.45855 0.040339 0.735857
41 1 0.470276 0.0707719 0.713017
45 3 0.491758 0.0642438 0.716832
44 3 0.466494 0.0726121 0.690198
1082 4 0.0289042 0.0973437 0.663924
1076 4 0.0326561 0.088432 0.683441
908 4 0.206131 0.108052 0.673918
1227 4 0.202114 0.107121 0.693685
1226 4 0.230191 0.115146 0.73428
1225 2 0.216152 0.111134 0.713983
1141 2 0.476542 0.105021 0.670359
42 3 0.466735 0.0912787 0.722819
1142 4 0.480599 0.0818261 0.678767
1261 2 0.441357 0.15849 0.66933
3424 2 0.495758 0.158493 0.716172
3270 4 0.471347 0.162175 0.744467
1177 2 0.0224733 0.174753 0.699445
1178 4 0.046496 0.172308 0.692955
851 4 0.054924 0.188659 0.681306
1107 4 0.0678919 0.1734 0.689144
1105 2 0.0905045 0.17858 0.698472
1106 4 0.113117 0.18376 0.707801
1073 4 0.122247 0.183488 0.726006
1072 2 0.132648 0.185062 0.748689
1086 4 0.31516 0.230913 0.742243
1299 4 0.296478 0.233677 0.736518
1297 2 0.275864 0.234257 0.750656
1262 4 0.419193 0.169315 0.673426
3426 4 0.47722 0.171975 0.726159
1146 4 0.479731 0.182592 0.744605
816 4 0.0255149 0.3263 0.730979
1208 4 0.0986508 0.271864 0.668699
1242 4 0.0947364 0.304237 0.748645
821 4 0.105493 0.304023 0.732287
947 4 0.117817 0.275801 0.676967
820 2 0.103047 0.291996 0.710502
822 4 0.100601 0.27997 0.688718
1098 4 0.356104 0.28518 0.715336
1096 2 0.352937 0.29155 0.739306
892 2 0.0596647 0.395847 0.733714
893 4 0.0652953 0.372869 0.725622
815 4 0.0489227 0.366887 0.713501
814 2 0.0372188 0.346594 0.72224
942 4 0.0671777 0.356093 0.7123
1067 4 0.129138 0.346245 0.696583
940 2 0.0890114 0.354251 0.700255
941 4 0.110845 0.352408 0.688211
1066 2 0.151895 0.344456 0.686379
1028 4 0.189835 0.356331 0.676459
1068 4 0.174652 0.342668 0.676176
1065 4 0.252877 0.37167 0.679016
1234 2 0.243089 0.351223 0.75003
1063 2 0.262452 0.359872 0.698873
1064 4 0.272027 0.348073 0.71873
806 4 0.280598 0.362839 0.731727
805 2 0.300059 0.374151 0.742614
1236 4 0.265537 0.34979 0.739113
1101 4 0.450185 0.386321 0.70032
1099 2 0.446331 0.407595 0.687759
3240 4 0.0407223 0.472776 0.66918
894 4 0.0540341 0.418825 0.741806
2172 4 0.0372518 0.486237 0.685456
1279 2 0.0463928 0.451253 0.710172
3276 4 0.0361087 0.429185 0.74676
1983 4 0.0549834 0.438052 0.750864
1280 4 0.0481634 0.436157 0.730025
1281 4 0.0446222 0.466349 0.690318
1140 4 0.222684 0.46221 0.673738
1138 2 0.217746 0.437887 0.670707
1176 4 0.19347 0.489389 0.71047
2016 4 0.179713 0.490276 0.724877
891 4 0.304441 0.458741 0.673398
889 2 0.305645 0.480418 0.685801
2169 4 0.488905 0.495444 0.702384
1269 4 0.450161 0.447864 0.669011
1100 4 0.442478 0.428868 0.675199
1268 4 0.474713 0.480424 0.697955
1267 2 0.462437 0.464144 0.683483
1195 2 0.0836619 0.0051064 0.816028
1196 4 0.089397 0.0256905 0.803045
1203 4 0.0819907 0.0270073 0.782634
911 4 0.095049 0.0419871 0.790396
1201 2 0.093591 0.018785 0.762067
910 2 0.0950916 0.0629748 0.803986
1147 2 0.218371 0.0823632 0.765407
1149 4 0.213269 0.0636926 0.781236
1049 4 0.371133 0.0829485 0.78068
2399 4 0.374391 0.0784552 0.759578
1112 4 0.391022 0.0801068 0.773401
1111 2 0.403151 0.059248 0.779956
844 2 0.445644 0.0353168 0.756676
1113 4 0.415281 0.0383893 0.786511
845 4 0.432739 0.0302947 0.777494
980 4 0.417015 0.0172892 0.784013
979 2 0.420988 0.0109301 0.807866
1214 4 0.0647081 0.122631 0.7947
1213 2 0.0607207 0.138741 0.775998