ITEM: TIMESTEP
2110000
ITEM: NUMBER OF ATOMS
4590
ITEM: BOX BOUNDS pp pp pp
-9.9985700000000008e+00 9.9985700000000008e+00
-9.9985700000000008e+00 9.9985700000000008e+00
-9.9985700000000008e+00 9.9985700000000008e+00
ITEM: ATOMS id type xs ys zs
1666 2 0.0473153 0.0487604 0.0612839
1667 4 0.0602439 0.0698945 0.0579104
1668 4 0.0343868 0.0276263 0.0646574
423 4 0.13836 0.0771484 0.00529232
534 4 0.155649 0.0687333 0.00828508
1475 4 0.235947 0.0171667 0.0634026
1476 4 0.187946 0.00617568 0.0721094
1474 2 0.211946 0.0116712 0.067756
490 2 0.303382 0.0649067 0.00884527
491 4 0.300146 0.0699724 0.0331155
653 4 0.29328 0.0770413 0.0521683
652 2 0.2846 0.0750966 0.0755361
295 2 0.408607 0.000171275 0.0740164
297 4 0.384317 0.000754439 0.0799176
296 4 0.432897 0.999588 0.0681152
702 4 0.0720946 0.0868124 0.0526169
591 4 0.0501542 0.087602 0.0516979
589 2 0.0323672 0.0999116 0.039157
590 4 0.0145801 0.112221 0.0266162
3233 4 6.31867e-05 0.12453 0.0162967
235 2 0.0738977 0.154419 0.0739102
1248 4 0.00149084 0.103644 0.0114356
3232 2 0.00741035 0.143126 0.0012839
421 2 0.142486 0.101805 0.00574224
422 4 0.146612 0.126462 0.00619217
700 2 0.088874 0.105225 0.0547655
701 4 0.105654 0.123637 0.0569141
236 4 0.0901536 0.136995 0.0663388
449 4 0.110948 0.136507 0.0738526
448 2 0.135713 0.133291 0.0750956
565 2 0.286249 0.113167 0.0310699
566 4 0.28232 0.137631 0.0277092
567 4 0.290178 0.0887041 0.0344306
665 4 0.328877 0.138286 0.99954
359 4 0.275827 0.151923 0.0135098
664 2 0.341314 0.154096 0.0143914
557 4 0.401185 0.141347 0.058276
556 2 0.381713 0.156278 0.0534726
987 4 0.465277 0.154844 0.0147482
237 4 0.0576418 0.171843 0.0814816
914 4 0.160635 0.243649 0.0114191
357 4 0.221346 0.240166 0.00731163
666 4 0.353751 0.169905 0.0292427
558 4 0.36224 0.171209 0.0486693
571 2 0.367541 0.206278 0.0183765
572 4 0.364886 0.187337 0.0344804
1071 4 0.382173 0.239227 0.00765444
769 2 0.497749 0.222965 0.0360633
771 4 0.491801 0.24715 0.0382732
323 4 0.478091 0.244497 0.0544225
770 4 0.503697 0.19878 0.0338535
293 4 0.154059 0.310768 0.0515881
292 2 0.140568 0.314351 0.0723327
507 4 0.153021 0.303214 0.0314343
505 2 0.1578 0.278699 0.0302799
288 4 0.165908 0.319621 0.0363047
506 4 0.162579 0.254183 0.0291255
286 2 0.18629 0.333684 0.0328396
252 4 0.256004 0.325429 0.0864469
955 2 0.375128 0.324565 0.0112467
322 2 0.455598 0.252127 0.0622351
324 4 0.433106 0.259756 0.0700477
280 2 0.474359 0.30074 0.0438559
282 4 0.473895 0.280612 0.0290299
281 4 0.474823 0.320869 0.0586819
551 4 0.0303687 0.418404 0.00946935
1170 4 0.0175765 0.348341 0.0110277
1168 2 0.0232105 0.37269 0.010292
1169 4 0.0288445 0.39704 0.00955634
481 2 0.228857 0.345038 0.0663593
483 4 0.218639 0.351926 0.0446032
287 4 0.206671 0.347746 0.0293744
608 4 0.272267 0.41312 0.0779401
626 4 0.254168 0.423357 0.0765568
956 4 0.379254 0.346634 0.0222512
671 4 0.464799 0.33826 0.0529848
670 2 0.468808 0.344321 0.0769092
550 2 0.0353286 0.424605 0.0331787
552 4 0.0402886 0.430805 0.056888
315 4 0.0434491 0.451776 0.0600302
313 2 0.0609476 0.468603 0.054044
314 4 0.078446 0.48543 0.0480579
620 4 0.0378467 0.439237 0.0764399
1787 4 0.0961515 0.48437 0.0598029
1786 2 0.114072 0.47409 0.0738866
243 4 0.23987 0.4928 0.0558834
625 2 0.229927 0.426827 0.0816071
1440 4 0.243627 0.484968 0.0753834
246 4 0.317352 0.453371 0.0150065
272 4 0.318597 0.472582 0.00423768
244 2 0.322256 0.450811 0.0393903
271 2 0.304483 0.492551 0.99902
245 4 0.32716 0.448251 0.0637742
2388 4 0.399535 0.488524 0.0178667
563 4 0.414917 0.474922 0.0197171
562 2 0.435077 0.470341 0.00565506
18 3 0.00838884 0.0655363 0.120719
2481 4 0.00886969 0.0664273 0.141023
16 1 0.0138818 0.0804486 0.103811
2479 2 0.00695607 0.0452024 0.154101
19 3 0.0364406 0.085759 0.104953
17 3 0.00958898 0.0705611 0.0834901
654 4 0.27592 0.0731519 0.0989039
311 4 0.433451 0.0545524 0.173467
20 3 0.00133973 0.0993585 0.105751
450 4 0.160477 0.130075 0.0763386
477 4 0.0557954 0.192874 0.081878
476 4 0.0762937 0.235563 0.0979466
475 2 0.0660445 0.214219 0.0899123
339 4 0.0712559 0.236372 0.117306
337 2 0.0924988 0.244803 0.127447
738 4 0.169942 0.246024 0.112783
736 2 0.194437 0.250789 0.111215
461 4 0.294705 0.232822 0.128354
354 4 0.277039 0.224943 0.122205
460 2 0.309207 0.221315 0.111548
352 2 0.258589 0.241082 0.117273
462 4 0.32371 0.209807 0.0947423
254 4 0.379954 0.183629 0.122955
630 4 0.39245 0.196355 0.133051
253 2 0.358341 0.190397 0.11236
255 4 0.336728 0.197164 0.101765
628 2 0.417399 0.195131 0.13194
629 4 0.442348 0.193907 0.13083
294 4 0.127077 0.317933 0.0930772
338 4 0.113742 0.253233 0.137589
363 4 0.127624 0.26591 0.13194
361 2 0.133777 0.27241 0.155287
353 4 0.24014 0.257221 0.112341
737 4 0.218932 0.255554 0.109646
755 4 0.228275 0.27489 0.109734
754 2 0.232355 0.296087 0.0971175
756 4 0.236436 0.317285 0.0845006
741 4 0.381094 0.281926 0.118855
739 2 0.365792 0.29857 0.129532
624 4 0.391183 0.278485 0.102442
622 2 0.414673 0.273917 0.095196
740 4 0.35049 0.315215 0.140208
623 4 0.438164 0.269349 0.0879503
15 3 0.43739 0.309633 0.148592
11 1 0.426369 0.32869 0.154425
456 4 0.126909 0.337434 0.0958068
454 2 0.125119 0.342718 0.12018
455 4 0.123328 0.348001 0.144553
537 4 0.105886 0.356794 0.149361
482 4 0.239075 0.338151 0.0881154
250 2 0.275415 0.339796 0.0929231
607 2 0.285811 0.393688 0.0859466
251 4 0.294827 0.354164 0.0993993
609 4 0.299356 0.374255 0.0939531
387 4 0.314002 0.362503 0.104053
385 2 0.326074 0.344651 0.116731
495 4 0.402499 0.348608 0.125801
386 4 0.338147 0.326799 0.129409
14 3 0.413812 0.336378 0.136491
493 2 0.414571 0.364232 0.110461
528 4 0.487798 0.338439 0.108556
494 4 0.426643 0.379856 0.0951197
595 2 0.467545 0.374124 0.149698
12 3 0.441695 0.344831 0.160234
597 4 0.444986 0.366582 0.157402
2652 4 0.501009 0.397737 0.142933
596 4 0.490105 0.381666 0.141994
672 4 0.472817 0.350381 0.100834
648 4 0.0302097 0.463614 0.105747
646 2 0.0351149 0.458766 0.129781
647 4 0.04002 0.453919 0.153814
619 2 0.0195011 0.425803 0.0868396
1788 4 0.131993 0.463811 0.0879704
627 4 0.205685 0.430297 0.0866575
1438 2 0.26572 0.481543 0.0865792
1439 4 0.287813 0.478118 0.097775
637 2 0.291636 0.476122 0.142044
639 4 0.293522 0.47718 0.117134
523 2 0.347134 0.487429 0.147899
2480 4 0.00504245 0.0239775 0.167178
1422 4 0.00185491 0.00502196 0.172246
688 2 0.13351 0.0733777 0.228838
690 4 0.150969 0.074538 0.210976
689 4 0.116051 0.0722174 0.246699
693 4 0.166611 0.0693855 0.200118
1506 4 0.252269 0.00284955 0.19923
23 3 0.30017 0.040792 0.244705
21 1 0.319516 0.0532601 0.241755
25 3 0.327521 0.0503045 0.220641
24 3 0.315099 0.0757338 0.245474
1785 4 0.347453 0.00421165 0.180204
759 4 0.34504 0.0618417 0.211815
1784 4 0.332578 0.048345 0.198417
1783 2 0.340015 0.0262783 0.189311
757 2 0.368135 0.0714127 0.212221
758 4 0.391231 0.0809837 0.212626
312 4 0.412831 0.0810992 0.210491
744 4 0.404544 0.0835113 0.22991
310 2 0.423141 0.0678258 0.191979
511 2 0.00958903 0.135342 0.235542
512 4 3.9825e-05 0.140594 0.213039
691 2 0.175033 0.0924448 0.195373
692 4 0.183456 0.115504 0.190628
723 4 0.184474 0.131312 0.203526
721 2 0.178927 0.147112 0.222094
722 4 0.17338 0.162912 0.240662
580 2 0.288543 0.162199 0.2002
582 4 0.266339 0.163206 0.211651
285 4 0.251853 0.167769 0.22514
28 3 0.364063 0.158959 0.172324
29 3 0.352917 0.150729 0.207713
708 4 0.351148 0.155803 0.227684
748 2 0.0676779 0.20387 0.227714
749 4 0.0706318 0.187327 0.209199
750 4 0.064724 0.220413 0.246228
396 4 0.0550759 0.238298 0.242726
284 4 0.220039 0.201161 0.244468
283 2 0.235946 0.184465 0.234804
30 3 0.328738 0.166052 0.183254
581 4 0.310748 0.161191 0.188749
26 1 0.350491 0.165489 0.189974
27 3 0.35684 0.186499 0.19686
521 4 0.472269 0.246906 0.250603
362 4 0.139931 0.27891 0.178634
372 4 0.155325 0.291713 0.179095
370 2 0.178998 0.291497 0.187139
371 4 0.202672 0.291282 0.195183
279 4 0.217738 0.294933 0.210434
277 2 0.2262 0.285618 0.23204
612 4 0.206071 0.311317 0.202287
763 2 0.395541 0.315003 0.25198
764 4 0.371451 0.310145 0.247368
13 3 0.412539 0.324591 0.1726
520 2 0.496908 0.250831 0.252244
535 2 0.104331 0.353945 0.174153
536 4 0.102777 0.351095 0.198945
298 2 0.143359 0.37931 0.248235
300 4 0.130692 0.396601 0.23536
603 4 0.118054 0.411152 0.233622
610 2 0.208411 0.335606 0.196834
417 4 0.221844 0.375537 0.196776
415 2 0.22978 0.399216 0.197996
611 4 0.210751 0.359895 0.19138
301 2 0.32835 0.399641 0.224179
303 4 0.317107 0.400032 0.246509
660 4 0.326832 0.411077 0.190113
302 4 0.339593 0.39925 0.201849
447 4 0.421059 0.399964 0.223681
645 4 0.42684 0.359298 0.167735
643 2 0.422478 0.373851 0.187593
644 4 0.418115 0.388405 0.207451
445 2 0.441046 0.400247 0.238701
263 4 0.0336614 0.443361 0.168989
262 2 0.0373043 0.461095 0.186235
1757 4 0.0494238 0.469784 0.220627
264 4 0.0409472 0.478829 0.20348
1756 2 0.0400858 0.48306 0.239647
601 2 0.107587 0.424882 0.251709
416 4 0.237716 0.422896 0.199216
291 4 0.25713 0.421556 0.194403
289 2 0.27303 0.438684 0.185515
290 4 0.28893 0.455812 0.176627
638 4 0.28975 0.475064 0.166954
767 4 0.298092 0.472231 0.186547
766 2 0.313497 0.481463 0.203943
768 4 0.328902 0.490696 0.221339
525 4 0.34847 0.475931 0.170062
659 4 0.341943 0.456619 0.176031
658 2 0.334387 0.433848 0.183072
1574 4 0.333355 0.497076 0.23943
1573 2 0.351695 0.482579 0.2483
673 2 0.0827798 0.0829442 0.258502
1404 4 0.123368 0.00477071 0.270131
675 4 0.0991715 0.0641336 0.256874
1403 4 0.116525 0.0515403 0.253807
1402 2 0.119947 0.0281555 0.261969
1699 2 0.20025 0.00536535 0.273746
248 4 0.200902 0.0380428 0.292498
247 2 0.190818 0.0598944 0.29928
1701 4 0.201479 0.0169431 0.295873
605 4 0.217852 0.0291326 0.302719
604 2 0.231786 0.0297454 0.323471
632 4 0.337386 0.0444171 0.316474
742 2 0.414251 0.0784043 0.252379
1495 2 0.35625 0.0192092 0.279608
1497 4 0.368253 0.00954695 0.299299
22 3 0.335309 0.0461785 0.256907
699 4 0.386156 0.999687 0.306717
1496 4 0.344247 0.0288715 0.259917
697 2 0.396541 0.0151636 0.323385
351 4 0.408449 0.0438517 0.322645
349 2 0.414186 0.063326 0.30805
743 4 0.423958 0.0732974 0.274849
674 4 0.0663881 0.101755 0.26013
579 4 0.0397256 0.127215 0.264362
513 4 0.0191382 0.130089 0.258046
577 2 0.0568955 0.142948 0.273464
530 4 0.0233459 0.124291 0.278921
529 2 0.0170603 0.112741 0.300188
531 4 0.0107748 0.10119 0.321454
578 4 0.0740654 0.158681 0.282566
393 4 0.0672497 0.162957 0.300556
391 2 0.0711835 0.16386 0.325231
398 4 0.0265418 0.0940652 0.335276
600 4 0.150707 0.154271 0.315464
405 4 0.166259 0.139918 0.317354
545 4 0.164758 0.151692 0.299211
403 2 0.165592 0.115075 0.314608
544 2 0.175226 0.15837 0.277508
249 4 0.180734 0.0817461 0.306063
404 4 0.164925 0.0902311 0.311863
546 4 0.185695 0.165049 0.255806
706 2 0.358215 0.151302 0.251241
350 4 0.419924 0.0828003 0.293455
707 4 0.365283 0.1468 0.274799
762 4 0.435679 0.151611 0.295891
332 4 0.447819 0.135877 0.297323
333 4 0.428357 0.0942756 0.277542
331 2 0.438088 0.115076 0.287432
344 4 0.216697 0.211284 0.26135
343 2 0.226385 0.234309 0.262425
472 2 0.237941 0.207558 0.328856
473 4 0.261164 0.201047 0.322263
613 2 0.406479 0.230662 0.318058
614 4 0.41211 0.217614 0.297485
760 2 0.427246 0.174864 0.292236
761 4 0.418813 0.198117 0.28858
418 2 0.447765 0.231766 0.280211
419 4 0.433483 0.214515 0.291329
420 4 0.462047 0.249017 0.269094
394 2 0.0432823 0.25739 0.253751
442 2 0.0169435 0.300611 0.278019
395 4 0.0314887 0.276483 0.264777
444 4 0.0397856 0.292931 0.271353
389 4 0.142424 0.256294 0.323915
401 4 0.158257 0.26869 0.322765
388 2 0.119041 0.259562 0.332143
278 4 0.234662 0.276302 0.253645
345 4 0.236073 0.257334 0.2635
309 4 0.227418 0.274006 0.273685
307 2 0.241206 0.29089 0.285933
308 4 0.254994 0.307773 0.298181
497 4 0.274822 0.31147 0.305824
496 2 0.296631 0.302154 0.297902
509 4 0.257374 0.319618 0.315975
498 4 0.318441 0.292838 0.28998
765 4 0.41963 0.319861 0.256593
543 4 0.454648 0.259816 0.252268
541 2 0.44029 0.28028 0.252768
542 4 0.425932 0.300744 0.253267
408 4 0.0418491 0.344386 0.338484
299 4 0.156026 0.36202 0.261109
734 4 0.13927 0.356011 0.272208
733 2 0.145125 0.348699 0.295391
735 4 0.15098 0.341388 0.318574
729 4 0.312091 0.392552 0.265753
727 2 0.330014 0.395852 0.282871
438 4 0.300731 0.408942 0.25698
728 4 0.347938 0.399151 0.29999
753 4 0.357283 0.385763 0.31348
751 2 0.381671 0.389943 0.317072
752 4 0.40606 0.394123 0.320664
434 4 0.338852 0.417593 0.305911
446 4 0.461033 0.400531 0.253721
713 4 0.458382 0.414255 0.268567
1758 4 0.0307478 0.496336 0.258666
775 2 0.0590738 0.460201 0.324177
776 4 0.0824942 0.467705 0.319665
777 4 0.0356533 0.452698 0.32869
412 2 0.106942 0.448498 0.301934
602 4 0.0971204 0.438611 0.269796
414 4 0.110402 0.432645 0.282911
413 4 0.103481 0.464351 0.320958
1545 4 0.0960709 0.48415 0.32306
1435 2 0.227319 0.442842 0.280673
1436 4 0.239409 0.420995 0.281983
1437 4 0.215229 0.464689 0.279363
436 2 0.280075 0.41494 0.269729
437 4 0.259419 0.420937 0.282478
433 2 0.327521 0.429529 0.324734
1575 4 0.370035 0.468082 0.25717
1802 4 0.378331 0.456765 0.27111
1801 2 0.365795 0.437373 0.280701
1803 4 0.353259 0.417981 0.290291
231 4 0.474438 0.489112 0.275037
712 2 0.477229 0.423576 0.282099
714 4 0.496076 0.432897 0.29563
233 4 0.0040968 0.0547591 0.396732
318 4 0.066383 0.0614171 0.406008
234 4 0.0519758 0.0689158 0.393921
232 2 0.0280363 0.0618374 0.395327
1464 4 0.135445 0.00927815 0.364503
316 2 0.0824586 0.0442611 0.414518
441 4 0.243065 0.0104744 0.344386
631 2 0.332874 0.0286447 0.335343
606 4 0.24572 0.0303583 0.344222
682 2 0.280661 0.0532141 0.399314
683 4 0.287629 0.0429126 0.377623
698 4 0.406926 0.0306398 0.340052
633 4 0.328362 0.0128722 0.354212
425 4 0.405839 0.0396067 0.402894
258 4 0.414126 0.0535 0.389789
256 2 0.417584 0.0504772 0.365211
2643 4 0.489823 0.0773698 0.37178
2641 2 0.498972 0.0681473 0.350416
257 4 0.421042 0.0474543 0.340633
2756 4 0.00635058 0.08663 0.338095
397 2 0.0452202 0.099694 0.350916
399 4 0.0638986 0.105323 0.366556
732 4 0.079136 0.116763 0.362462
392 4 0.0751174 0.164763 0.349907
368 4 0.137706 0.0868945 0.406425
731 4 0.119668 0.145514 0.368048
730 2 0.0994019 0.131138 0.365255
686 4 0.140172 0.15333 0.365364
599 4 0.122209 0.163466 0.355515
598 2 0.136458 0.158869 0.33549
685 2 0.149381 0.150923 0.388485
687 4 0.158589 0.148516 0.411606
367 2 0.119159 0.100294 0.416506
467 4 0.316 0.163421 0.397208
466 2 0.291237 0.165558 0.394484
514 2 0.405415 0.104818 0.390617
516 4 0.384088 0.117843 0.391442
575 4 0.391261 0.137492 0.386602
574 2 0.400433 0.160424 0.390498
515 4 0.426743 0.0917927 0.389792
452 4 0.487609 0.0975715 0.374913
453 4 0.437962 0.103042 0.377342
451 2 0.462785 0.100307 0.376127
2653 2 0.0485914 0.189787 0.368014
2655 4 0.0267265 0.198679 0.376262
2654 4 0.0704563 0.180895 0.359766
275 4 0.166903 0.234509 0.368435
274 2 0.185261 0.220231 0.359255
474 4 0.214718 0.21407 0.335449
276 4 0.20362 0.205953 0.350074
409 2 0.241542 0.197787 0.407746
468 4 0.266474 0.167696 0.391761
410 4 0.252206 0.181207 0.392365
615 4 0.400849 0.243709 0.338631
576 4 0.409606 0.183356 0.394395
716 4 0.384217 0.242029 0.351386
488 4 0.344553 0.250722 0.402916
267 4 0.365483 0.244147 0.406026
269 4 0.466796 0.226932 0.372172
306 4 0.460526 0.208879 0.370318
304 2 0.444712 0.193924 0.382624
305 4 0.428898 0.178969 0.39493
2814 4 0.0190583 0.32436 0.400414
2801 4 0.0115992 0.307854 0.408199
390 4 0.0956568 0.262831 0.34037
618 4 0.0943598 0.273213 0.407057
617 4 0.0866333 0.26856 0.357869
616 2 0.0904965 0.270887 0.382463
400 2 0.172739 0.275058 0.342127
375 4 0.187806 0.290812 0.37992
402 4 0.187222 0.281427 0.361489
373 2 0.211161 0.299324 0.37722
374 4 0.234515 0.307836 0.374519
510 4 0.250028 0.320551 0.365431
508 2 0.253701 0.320085 0.340703
378 4 0.254961 0.30145 0.374185
489 4 0.300082 0.273582 0.403616
376 2 0.269697 0.283941 0.38426
377 4 0.284432 0.266433 0.394335
487 2 0.322318 0.262152 0.403266
715 2 0.372452 0.250761 0.371648
717 4 0.360687 0.259493 0.391909
268 2 0.454654 0.247293 0.38012
270 4 0.442512 0.267654 0.388067
2924 4 0.446805 0.269674 0.406997
2923 2 0.431448 0.286299 0.417625
548 4 0.00854816 0.39525 0.347551
406 2 0.0270888 0.361877 0.348554
407 4 0.0123285 0.379367 0.358623
2812 2 0.999573 0.33677 0.390848
547 2 0.020437 0.4171 0.345016
677 4 0.159099 0.337219 0.336916
678 4 0.207343 0.33833 0.350032
676 2 0.183221 0.337774 0.343474
710 4 0.173276 0.399832 0.404817
504 4 0.178634 0.38683 0.39107
502 2 0.203417 0.387146 0.394368
503 4 0.2282 0.387462 0.397667
650 4 0.247891 0.391648 0.396861
649 2 0.265102 0.376698 0.40713
561 4 0.420026 0.389282 0.334484
559 2 0.425667 0.401753 0.355409
560 4 0.431308 0.414224 0.376333
549 4 0.0323258 0.43895 0.342481
773 4 0.209127 0.494023 0.400837
435 4 0.31619 0.441466 0.343557
2 3 0.311036 0.481133 0.364612
4 3 0.331274 0.452538 0.350993
1 1 0.332259 0.474323 0.358921
667 2 0.404282 0.415828 0.408078
3 3 0.345754 0.47529 0.377772
5 3 0.34048 0.488108 0.342764
588 4 0.444841 0.425769 0.38852
668 4 0.426115 0.419689 0.396521
3989 4 0.485518 0.49119 0.372492
586 2 0.461508 0.427287 0.407097
317 4 0.0985341 0.027105 0.423028
1781 4 0.108128 0.0207141 0.441188
428 4 0.0912647 0.00944719 0.434106
1780 2 0.120482 0.0331568 0.459013
1782 4 0.132836 0.0455995 0.476838
341 4 0.15172 0.0537361 0.470743
2430 4 0.148822 0.0470399 0.491098
340 2 0.169461 0.067181 0.459354
1180 2 0.274969 0.0500032 0.457684
1181 4 0.28582 0.0356003 0.475004
1182 4 0.264117 0.0644061 0.440364
684 4 0.273692 0.0635156 0.421005
963 4 0.283128 0.0216704 0.492069
961 2 0.26435 0.00531274 0.48983
320 4 0.280797 0.0771319 0.436212
430 2 0.316678 0.0222218 0.491444
432 4 0.297194 0.0378046 0.493092
843 4 0.334487 0.00312788 0.469429
431 4 0.336163 0.0066391 0.489796
426 4 0.392081 0.00380277 0.43498
424 2 0.39896 0.0217047 0.418937
1216 2 0.40916 0.0122314 0.47204
1218 4 0.418022 0.0268997 0.490247
457 2 0.00844898 0.117346 0.459228
719 4 0.040262 0.11277 0.477654
459 4 0.0318529 0.108583 0.460034
718 2 0.0547196 0.118962 0.497092
369 4 0.100612 0.113693 0.426588
939 4 0.114555 0.124679 0.434971
937 2 0.121544 0.146827 0.444235
1151 4 0.171569 0.135898 0.422338
342 4 0.187201 0.0806258 0.447966
1152 4 0.19585 0.0974084 0.443067
1150 2 0.18371 0.116653 0.432703
321 4 0.291346 0.124542 0.448117
319 2 0.286071 0.100837 0.442164
899 4 0.2794 0.132268 0.462982
898 2 0.28004 0.156992 0.459312
938 4 0.128533 0.168975 0.453498
1034 4 0.145102 0.179977 0.45525
261 4 0.100942 0.220026 0.452994
1035 4 0.121608 0.224051 0.457747
1033 2 0.133355 0.202014 0.456498
695 4 0.108188 0.218827 0.473417
694 2 0.1046 0.229571 0.495708
259 2 0.0961918 0.238611 0.436956
411 4 0.230879 0.214367 0.423127
900 4 0.28068 0.181717 0.455641
813 4 0.360399 0.225293 0.470906
266 4 0.362884 0.222737 0.451144
265 2 0.364183 0.233442 0.428585
811 2 0.364315 0.236355 0.492984
2656 2 0.48469 0.200322 0.449592
2657 4 0.467877 0.215296 0.438717
2802 4 0.00345105 0.289701 0.454077
2800 2 0.00752515 0.298778 0.431138
347 4 0.0879898 0.277682 0.427202
260 4 0.0914412 0.257196 0.420918
346 2 0.100821 0.296666 0.437208
348 4 0.113652 0.315651 0.447214
10 3 0.129643 0.322915 0.457483
9 3 0.128961 0.310805 0.493128
6 1 0.137757 0.326486 0.478461
8 3 0.160919 0.325096 0.478333
238 2 0.384938 0.328567 0.426336
239 4 0.40466 0.316708 0.436112
2925 4 0.416091 0.302924 0.428254
2456 4 0.483352 0.315946 0.474766
584 4 0.462892 0.311882 0.47197
583 2 0.439803 0.304606 0.478226
585 4 0.416714 0.29733 0.484482
680 4 0.029645 0.408457 0.419949
679 2 0.0475965 0.416581 0.435342
7 3 0.131608 0.34751 0.485486
711 4 0.140397 0.387441 0.440401
709 2 0.156836 0.393636 0.422609
651 4 0.282314 0.361749 0.417399
240 4 0.365215 0.340425 0.41656
335 4 0.358206 0.356892 0.427473
669 4 0.382448 0.411967 0.419635
334 2 0.360558 0.381626 0.424666
336 4 0.362911 0.40636 0.421858
926 4 0.457159 0.371913 0.500034
681 4 0.0655481 0.424704 0.450734
383 4 0.0792306 0.43455 0.459827
540 4 0.0379556 0.470246 0.48397
568 2 0.11842 0.484693 0.432347
384 4 0.125455 0.442122 0.442317
569 4 0.121171 0.460025 0.435369
382 2 0.102343 0.438336 0.451072
772 2 0.198993 0.485189 0.421919
634 2 0.183988 0.473665 0.484215
774 4 0.188858 0.476355 0.443
635 4 0.189559 0.467253 0.460699
1909 2 0.470167 0.497628 0.491412
663 4 0.478852 0.428551 0.447088
587 4 0.478174 0.428805 0.425674
2507 4 0.49556 0.421597 0.436011
662 4 0.460942 0.462868 0.478747
661 2 0.469897 0.445709 0.462918
1910 4 0.455065 0.481835 0.479259
2428 2 0.161311 0.0536254 0.511734
2429 4 0.173799 0.0602109 0.53237
1030 2 0.242425 0.0453372 0.572622
1032 4 0.25753 0.0621738 0.561966
720 4 0.0691772 0.125154 0.516529
808 2 0.473898 0.0968958 0.573449
810 4 0.450554 0.0957404 0.564566
809 4 0.497242 0.0980512 0.582332
471 4 0.0198102 0.229588 0.510243
879 4 0.133976 0.216311 0.571753
1272 4 0.149104 0.226798 0.581794
877 2 0.117826 0.226283 0.555477
878 4 0.101676 0.236254 0.539201
696 4 0.101013 0.240314 0.517999
327 4 0.0863449 0.249072 0.530695
857 4 0.182532 0.207724 0.518917
856 2 0.18644 0.231345 0.526126
952 2 0.395351 0.234183 0.546569
954 4 0.406101 0.220554 0.564566
953 4 0.384601 0.247811 0.528572
812 4 0.368231 0.247418 0.515063
905 4 0.418737 0.207741 0.575623
904 2 0.437844 0.193718 0.583588
982 2 0.0162246 0.298529 0.541737
984 4 0.0400789 0.294153 0.54782
326 4 0.0613237 0.288534 0.548512
1136 4 0.0547586 0.307218 0.556165
325 2 0.0738343 0.268803 0.539604
1135 2 0.0553192 0.331845 0.560451
1258 2 0.148037 0.294041 0.527047
1260 4 0.159312 0.278089 0.542654
1259 4 0.136762 0.309993 0.51144
858 4 0.190349 0.254965 0.533334
1238 4 0.316232 0.281358 0.567918
792 4 0.334579 0.286692 0.559629
1237 2 0.298518 0.295085 0.579007
804 4 0.28516 0.324151 0.576413
790 2 0.35051 0.272643 0.546437
791 4 0.366441 0.258594 0.533246
873 4 0.379798 0.265431 0.5177
871 2 0.401001 0.275059 0.508593
872 4 0.422204 0.284686 0.499486
936 4 0.0325919 0.408148 0.547152
3353 4 0.0321591 0.404444 0.527097
3352 2 0.0176542 0.388 0.515081
1137 4 0.0558799 0.356472 0.564737
1160 4 0.150146 0.413539 0.545347
1191 4 0.214895 0.397291 0.58166
1189 2 0.234026 0.385617 0.570573
1190 4 0.253157 0.373944 0.559487
803 4 0.262846 0.368896 0.575591
802 2 0.274003 0.346523 0.576002
881 4 0.338413 0.409443 0.572689
925 2 0.465639 0.381519 0.521504
927 4 0.474119 0.391126 0.542975
1001 4 0.473484 0.411494 0.547954
934 2 0.0368952 0.420571 0.56842
3430 2 0.037967 0.475901 0.573911
539 4 0.0358178 0.463514 0.533476
538 2 0.0368867 0.46688 0.508723
1161 4 0.103462 0.428158 0.555721
1159 2 0.126804 0.420849 0.550534
1395 4 0.180825 0.499977 0.512512
636 4 0.178417 0.480077 0.507732
2154 4 0.29783 0.491694 0.581066
1454 4 0.352144 0.421557 0.566168
1453 2 0.355939 0.441552 0.551643
1455 4 0.359735 0.461546 0.537117
1000 2 0.478497 0.42146 0.570331
1183 2 0.0201817 0.0516569 0.659486
1184 4 0.00422376 0.0326963 0.656166
1185 4 0.0361396 0.0706175 0.662806
1059 4 0.16249 0.0744202 0.597277
1284 4 0.163062 0.0579738 0.58577
1283 4 0.208859 0.0381372 0.588907
2133 4 0.224883 0.0108291 0.650624
1282 2 0.185961 0.0480555 0.587339
2132 4 0.220239 0.0272901 0.603633
1031 4 0.22732 0.0285006 0.583278
2131 2 0.222561 0.0190596 0.627129
2281 2 0.330071 0.00825619 0.649322
2283 4 0.33641 0.0241258 0.667575
1062 4 0.47519 0.0314864 0.609758
1060 2 0.487164 0.0101098 0.604774
1083 4 0.00841075 0.12173 0.625329
1081 2 0.0195579 0.106342 0.641581
1082 4 0.030705 0.0909545 0.657834
943 2 0.0697685 0.103166 0.664965
944 4 0.0504505 0.0873004 0.665476
945 4 0.0890866 0.119032 0.664454
1057 2 0.163137 0.0968809 0.608244
1058 4 0.163784 0.119342 0.619212
1155 4 0.173146 0.13697 0.626711
1153 2 0.175195 0.161855 0.628006
909 4 0.173071 0.119229 0.638509
907 2 0.192464 0.109478 0.650919
908 4 0.211857 0.0997269 0.663328
886 2 0.329063 0.154372 0.632939
1193 4 0.392693 0.140249 0.595909
887 4 0.343929 0.135143 0.627072
1194 4 0.362475 0.125622 0.632971
1192 2 0.377584 0.132935 0.61444
830 4 0.346268 0.128085 0.647185
1026 4 0.448161 0.153191 0.649815
1143 4 0.45315 0.137833 0.663863
1024 2 0.449271 0.158725 0.625456
1025 4 0.450381 0.164258 0.601098
852 4 0.0660787 0.242436 0.660545
1270 2 0.1632 0.211537 0.595707
1154 4 0.177245 0.186741 0.629302
1271 4 0.177295 0.196275 0.609621
1221 4 0.196561 0.19511 0.619326
1219 2 0.22084 0.20036 0.622181
1220 4 0.245119 0.205609 0.625035
888 4 0.314197 0.173602 0.638805
798 4 0.254387 0.223056 0.633543
1212 4 0.266276 0.206001 0.628503
1211 4 0.310879 0.184847 0.620521
1210 2 0.288578 0.195424 0.624512
796 2 0.264469 0.243068 0.644636
906 4 0.456951 0.179694 0.591553
1245 4 0.0581831 0.262095 0.663558
1209 4 0.0785622 0.259998 0.658123
946 2 0.16026 0.276945 0.656065
1207 2 0.102821 0.257561 0.66367
948 4 0.178412 0.283748 0.640273
1239 4 0.280805 0.308812 0.590096
797 4 0.274551 0.263079 0.65573
929 4 0.385366 0.331648 0.628458
897 4 0.160539 0.420149 0.604782
896 4 0.207872 0.414299 0.589745
895 2 0.184205 0.417224 0.597264
880 2 0.346561 0.39494 0.591356
882 4 0.354708 0.380436 0.610023
930 4 0.37245 0.378698 0.617495
928 2 0.378908 0.355173 0.622977
1099 2 0.42927 0.393636 0.663933
1100 4 0.445037 0.413027 0.664705
935 4 0.0411985 0.432994 0.589688
3432 4 0.0392592 0.454158 0.586188
3264 4 0.0227824 0.443475 0.595743
1041 4 0.0410898 0.447075 0.606652
1039 2 0.0638496 0.443055 0.616192
3262 2 0.00684379 0.452697 0.612657
992 4 0.14236 0.422606 0.612407
1040 4 0.0866095 0.439035 0.625732
993 4 0.0926336 0.427504 0.610393
991 2 0.117497 0.425055 0.6114
1186 2 0.22249 0.493707 0.656877
1173 4 0.280836 0.48456 0.589994
1172 4 0.280339 0.474308 0.638937
1171 2 0.280587 0.479434 0.614466
891 4 0.285943 0.460435 0.653318
3182 4 0.493258 0.464503 0.592411
1206 4 0.48949 0.430259 0.613521
1204 2 0.471595 0.42664 0.630605
1002 4 0.48351 0.431427 0.592708
3440 4 0.497801 0.44531 0.600815
3181 2 0.481227 0.484035 0.602358
1205 4 0.453701 0.423022 0.64769
1269 4 0.452125 0.433595 0.666246
824 4 0.229313 0.0219134 0.667139
823 2 0.214004 0.00746997 0.680636
2400 4 0.351139 0.0691105 0.719575
2398 2 0.349706 0.0646172 0.74413
43 3 0.45093 0.0663506 0.72023
846 4 0.43519 0.0627991 0.732328
1076 4 0.033371 0.0849648 0.678213
1075 2 0.021793 0.0976613 0.696377
1077 4 0.0102149 0.110358 0.714541
864 4 0.0106303 0.116807 0.734849
1227 4 0.229107 0.103322 0.672091
1226 4 0.221344 0.120663 0.718348
1225 2 0.225226 0.111993 0.695219
1148 4 0.214244 0.111082 0.736466
1130 4 0.221599 0.131176 0.737146
1129 2 0.213502 0.152171 0.748047
1005 4 0.30604 0.0892953 0.742751
829 2 0.356455 0.122717 0.669379
831 4 0.366642 0.11735 0.691574
1262 4 0.409935 0.157358 0.708852
1263 4 0.441252 0.154756 0.669952
45 3 0.484718 0.0824429 0.724364
41 1 0.462448 0.0864353 0.721762
44 3 0.458856 0.0991041 0.702657
42 3 0.45466 0.0981015 0.739994
1142 4 0.468367 0.0957531 0.686189
1141 2 0.460758 0.116793 0.675026
3426 4 0.484222 0.16149 0.718574
3270 4 0.483919 0.168749 0.739426
1261 2 0.425593 0.156057 0.689402
1179 4 0.00525682 0.167581 0.703262
850 2 0.0627681 0.220331 0.671751
1177 2 0.0247281 0.183027 0.70053
1178 4 0.0441994 0.198473 0.697798
851 4 0.0594574 0.198226 0.682958
1107 4 0.0604546 0.184731 0.700104
1105 2 0.0841103 0.178075 0.704717
1106 4 0.107766 0.171419 0.709331
1073 4 0.119532 0.182997 0.722028
1072 2 0.121824 0.185465 0.746804
977 4 0.246481 0.221538 0.73536
976 2 0.234882 0.203298 0.747926
1299 4 0.30106 0.206526 0.711729
1298 4 0.265666 0.230227 0.737925
1297 2 0.283363 0.218377 0.724827
1086 4 0.312045 0.191292 0.717768
1084 2 0.32683 0.179396 0.734049
1085 4 0.341615 0.167499 0.75033
1145 4 0.465833 0.220266 0.701787
1144 2 0.467523 0.198368 0.713738
1146 4 0.469212 0.17647 0.725688
1244 4 0.0170256 0.288018 0.675168
1243 2 0.0376044 0.275056 0.669363
1208 4 0.127079 0.255125 0.669217
820 2 0.131184 0.269642 0.71334
822 4 0.131091 0.263692 0.689055
947 4 0.142108 0.270141 0.671857
821 4 0.131277 0.275592 0.737625
1098 4 0.3233 0.312857 0.740007
3123 4 0.480459 0.263408 0.684393
892 2 0.0479943 0.392405 0.728239
893 4 0.0557367 0.369245 0.733609
942 4 0.0750851 0.372593 0.741818
894 4 0.0402518 0.415566 0.72287
815 4 0.0666692 0.353179 0.742811
940 2 0.0998061 0.371175 0.738348
941 4 0.124527 0.369756 0.734878
1067 4 0.122038 0.357299 0.719238
1066 2 0.144858 0.352662 0.710129
1068 4 0.167677 0.348026 0.701021
1065 4 0.237012 0.353429 0.686489
1139 4 0.226829 0.393967 0.700085
1029 4 0.209177 0.402942 0.694655
1028 4 0.182445 0.362384 0.706537
1027 2 0.195811 0.382663 0.700596
1138 2 0.244407 0.409137 0.690808
1063 2 0.251514 0.345035 0.705048
1064 4 0.266016 0.336642 0.723606
806 4 0.275754 0.354063 0.731721
805 2 0.298616 0.363918 0.734043
807 4 0.321478 0.373773 0.736365
1236 4 0.264188 0.341353 0.744277
1101 4 0.413504 0.374245 0.663161
3274 2 0.000243928 0.427671 0.743011
2172 4 0.0194251 0.489248 0.686218
1279 2 0.0224446 0.451215 0.698942
3276 4 0.0225 0.424761 0.731993
1983 4 0.0414511 0.434408 0.732867
1280 4 0.0312556 0.433409 0.714124
1281 4 0.0136335 0.46902 0.683759
1174 2 0.193596 0.490617 0.714395
1188 4 0.210301 0.483707 0.676284
1176 4 0.1768 0.494528 0.7325
1175 4 0.210392 0.486707 0.696291
889 2 0.287316 0.477939 0.671119
1140 4 0.261985 0.424307 0.68153
890 4 0.288689 0.495444 0.688921
1988 4 0.294549 0.495098 0.709778
2169 4 0.47148 0.492028 0.679924
1268 4 0.455209 0.480053 0.684492
1267 2 0.453667 0.456824 0.675369
1196 4 0.0833032 0.0282737 0.811035
1195 2 0.0773854 0.0115758 0.828679
911 4 0.0870992 0.048747 0.815793
1203 4 0.101685 0.037134 0.805032
1201 2 0.108729 0.0302588 0.782047
1202 4 0.115773 0.0233835 0.759063
2049 4 0.107449 0.00646015 0.756936
910 2 0.0972088 0.0703582 0.823272
1149 4 0.221236 0.0697492 0.763732
1049 4 0.337098 0.0549154 0.78721
1048 2 0.336899 0.0741764 0.803153
2399 4 0.348274 0.060124 0.768685
1112 4 0.35637 0.0465554 0.78283
1111 2 0.380919 0.0442432 0.786974
1113 4 0.405468 0.041931 0.791117
845 4 0.418484 0.040676 0.773947
844 2 0.426837 0.0517376 0.753137
980 4 0.426419 0.0428025 0.794254
979 2 0.439418 0.0335881 0.813523
863 4 0.0100156 0.0955081 0.780089
862 2 0.010323 0.106158 0.757469
1214 4 0.074012 0.137003 0.7992
1213 2 0.0548605 0.150655 0.790713
33 3 0.0745888 0.127682 0.817744
1215 4 0.0357089 0.164307 0.782227