ITEM: TIMESTEP
1360000
ITEM: NUMBER OF ATOMS
4590
ITEM: BOX BOUNDS pp pp pp
-9.9985700000000008e+00 9.9985700000000008e+00
-9.9985700000000008e+00 9.9985700000000008e+00
-9.9985700000000008e+00 9.9985700000000008e+00
ITEM: ATOMS id type xs ys zs
1668 4 0.0712456 0.0506268 0.0625699
1666 2 0.0715198 0.075136 0.0576295
464 4 0.998971 0.0441373 0.0533041
1475 4 0.215621 0.0108374 0.0414226
1474 2 0.206966 0.000557617 0.0625079
490 2 0.288176 0.0321045 0.0242025
491 4 0.278106 0.0388363 0.0460763
653 4 0.283739 0.0563902 0.0537029
652 2 0.293569 0.060693 0.0762869
297 4 0.395308 0.0270478 0.0575671
295 2 0.388061 0.0453117 0.0730294
2974 2 0.490464 0.0570675 0.00553883
747 4 0.468338 0.0826424 0.000548191
2975 4 0.468751 0.0633604 0.994856
589 2 0.0394334 0.11021 0.0275228
590 4 0.0185417 0.109545 0.0138014
591 4 0.0603251 0.110874 0.0412441
475 2 0.0703512 0.175424 0.0871532
1667 4 0.071794 0.0996451 0.0526892
702 4 0.0903845 0.104072 0.0620339
422 4 0.155156 0.102657 0.0214738
700 2 0.109908 0.117506 0.0700057
421 2 0.157866 0.0863924 0.00267721
476 4 0.0848136 0.155685 0.0922893
701 4 0.129432 0.130939 0.0779776
565 2 0.259277 0.15353 0.0553375
567 4 0.263183 0.137913 0.0744694
557 4 0.384155 0.131418 0.013388
556 2 0.39122 0.146714 0.031862
746 4 0.456145 0.129922 0.0113495
745 2 0.462242 0.106282 0.00594887
477 4 0.0558888 0.195163 0.0820171
914 4 0.151256 0.222577 0.00631652
359 4 0.242982 0.160152 0.0217809
566 4 0.255372 0.169147 0.0362056
506 4 0.160535 0.240861 0.00372527
558 4 0.398285 0.162011 0.050336
571 2 0.364001 0.212993 0.0201816
573 4 0.372622 0.236202 0.016695
666 4 0.337152 0.18578 0.0179088
572 4 0.355379 0.189783 0.0236681
769 2 0.462819 0.235982 0.0406807
770 4 0.444869 0.224286 0.027789
292 2 0.140575 0.297553 0.0606224
293 4 0.152035 0.300121 0.0385486
294 4 0.129115 0.294985 0.0826961
288 4 0.167447 0.304292 0.0243075
507 4 0.163445 0.283557 0.0295958
505 2 0.16199 0.262209 0.0166606
481 2 0.220095 0.329875 0.0755129
286 2 0.181509 0.322471 0.0341518
1069 2 0.382809 0.264847 0.00816254
1071 4 0.390019 0.244094 0.0201001
771 4 0.480769 0.247677 0.0535723
323 4 0.464282 0.255609 0.065399
518 4 0.484196 0.255961 0.0728356
551 4 0.0793618 0.39652 0.0311783
483 4 0.199435 0.334375 0.0621684
287 4 0.195572 0.340651 0.043996
607 2 0.274067 0.41006 0.0809318
280 2 0.454839 0.364412 0.0325972
282 4 0.457142 0.373673 0.00948618
281 4 0.452537 0.355152 0.0557081
671 4 0.438914 0.346975 0.0688425
552 4 0.058941 0.433781 0.0575471
550 2 0.0691514 0.415151 0.0443627
315 4 0.0543253 0.450245 0.0694277
625 2 0.236809 0.456527 0.058304
627 4 0.221544 0.463761 0.0398702
626 4 0.252075 0.449292 0.0767378
244 2 0.330215 0.460482 0.0296338
246 4 0.317711 0.479718 0.0395755
608 4 0.260959 0.431124 0.0778251
272 4 0.312643 0.497373 0.0327803
245 4 0.342718 0.441247 0.0196921
563 4 0.416147 0.49223 0.00788805
564 4 0.459123 0.469058 0.997079
562 2 0.437635 0.480644 0.00248349
1804 2 0.0739156 0.00435607 0.083606
1415 4 0.0630164 0.0123286 0.117322
1414 2 0.0578559 0.995751 0.135315
18 3 0.0194847 0.0806205 0.146224
17 3 0.034169 0.0770722 0.111808
2481 4 0.00695508 0.0743361 0.160466
16 1 0.0391658 0.0808855 0.133936
1805 4 0.0713313 0.0216068 0.10152
19 3 0.0533939 0.0641472 0.141405
654 4 0.303399 0.0649959 0.0988709
296 4 0.380813 0.0635755 0.0884917
20 3 0.049309 0.101176 0.135946
448 2 0.158753 0.107718 0.0946843
236 4 0.139635 0.148392 0.0849564
449 4 0.148594 0.129237 0.087012
235 2 0.146679 0.169861 0.0956625
450 4 0.168913 0.0861981 0.102356
339 4 0.108116 0.193221 0.121362
337 2 0.11353 0.215405 0.131547
338 4 0.118944 0.237588 0.141732
237 4 0.153724 0.191331 0.106369
738 4 0.205182 0.231632 0.133791
736 2 0.224866 0.245088 0.126264
461 4 0.312008 0.219487 0.10226
354 4 0.298404 0.234161 0.105367
460 2 0.327377 0.201596 0.110559
352 2 0.281468 0.250479 0.113857
630 4 0.40446 0.181829 0.138718
254 4 0.394527 0.16612 0.146975
253 2 0.370598 0.167762 0.139911
255 4 0.34667 0.169404 0.132847
462 4 0.342746 0.183705 0.118858
628 2 0.427949 0.179423 0.130493
629 4 0.451438 0.177016 0.122268
363 4 0.121115 0.257432 0.137138
454 2 0.133769 0.307332 0.123811
456 4 0.133635 0.304565 0.0989617
455 4 0.133904 0.310099 0.148661
537 4 0.127382 0.324633 0.159697
482 4 0.240756 0.325375 0.0888574
756 4 0.254122 0.325873 0.105627
737 4 0.244549 0.258545 0.118736
754 2 0.25068 0.302661 0.114262
755 4 0.247237 0.27945 0.122896
353 4 0.264532 0.266797 0.122347
741 4 0.374756 0.301996 0.109389
622 2 0.405406 0.277078 0.111624
624 4 0.383412 0.285015 0.102767
739 2 0.360424 0.321378 0.102749
740 4 0.346091 0.34076 0.0961087
322 2 0.454016 0.261379 0.0874558
324 4 0.443751 0.26715 0.109513
623 4 0.427401 0.269142 0.12048
526 2 0.486034 0.299406 0.121221
528 4 0.476208 0.32223 0.118448
619 2 0.0118253 0.376595 0.110547
620 4 0.0185985 0.378874 0.134508
648 4 0.0260635 0.381234 0.152993
621 4 0.00505202 0.374316 0.0865866
646 2 0.0284733 0.403341 0.164423
252 4 0.243167 0.343564 0.0998902
251 4 0.27505 0.382088 0.100293
250 2 0.259108 0.362826 0.100092
609 4 0.287175 0.388995 0.0840384
387 4 0.296288 0.385556 0.103082
385 2 0.31368 0.367643 0.104446
386 4 0.331072 0.349731 0.105809
494 4 0.385178 0.409556 0.0981809
493 2 0.395481 0.392201 0.11294
495 4 0.405783 0.374846 0.127699
660 4 0.344569 0.408466 0.180613
672 4 0.457808 0.323888 0.108976
13 3 0.422993 0.344922 0.158602
670 2 0.448361 0.335432 0.0889094
14 3 0.424402 0.369498 0.129647
15 3 0.455815 0.352734 0.14189
11 1 0.435688 0.361323 0.148199
595 2 0.464421 0.410496 0.148537
12 3 0.439124 0.378581 0.163014
2652 4 0.496188 0.411962 0.125686
597 4 0.444724 0.399891 0.159705
314 4 0.0580215 0.458833 0.118553
313 2 0.0561734 0.454539 0.0939903
1438 2 0.247382 0.489362 0.10688
1439 4 0.248423 0.466938 0.117891
637 2 0.26375 0.456083 0.150975
639 4 0.262998 0.455864 0.125983
525 4 0.360819 0.456808 0.155457
523 2 0.360828 0.481807 0.154933
596 4 0.484119 0.4211 0.137368
2479 2 0.00407653 0.0503404 0.166877
2480 4 0.00119798 0.0263447 0.173288
673 2 0.0981203 0.0409507 0.232883
675 4 0.118402 0.0322566 0.24464
1403 4 0.128683 0.0140501 0.239417
674 4 0.0778381 0.0496448 0.221126
1700 4 0.224992 0.00469152 0.241987
693 4 0.178745 0.0711866 0.232028
690 4 0.180033 0.0589552 0.247963
23 3 0.333005 0.0336274 0.225754
21 1 0.350758 0.0424141 0.237839
25 3 0.367902 0.0476255 0.223783
759 4 0.387949 0.0412269 0.217374
1784 4 0.371459 0.0261387 0.216363
1783 2 0.372021 0.0121902 0.195619
24 3 0.343904 0.0613686 0.249335
757 2 0.402008 0.0585897 0.228601
1496 4 0.343703 0.0128877 0.257737
744 4 0.437442 0.073986 0.239611
758 4 0.416068 0.0759524 0.239828
312 4 0.427387 0.08403 0.223554
511 2 0.0177038 0.128156 0.234081
512 4 0.012121 0.120247 0.211028
722 4 0.149774 0.169095 0.23793
721 2 0.160019 0.151377 0.223566
723 4 0.170264 0.133659 0.209203
692 4 0.181283 0.11768 0.21379
691 2 0.180014 0.0944335 0.222909
285 4 0.248994 0.169388 0.203625
582 4 0.261355 0.162503 0.189149
580 2 0.275124 0.143959 0.179571
581 4 0.288893 0.125416 0.169992
30 3 0.303247 0.150722 0.21745
27 3 0.331369 0.161831 0.195572
26 1 0.325648 0.148947 0.21375
28 3 0.331219 0.126858 0.209339
29 3 0.33736 0.156519 0.232295
311 4 0.445825 0.108831 0.184239
310 2 0.436606 0.0964305 0.203897
343 2 0.245195 0.248559 0.235302
284 4 0.259665 0.21354 0.22454
344 4 0.245422 0.224226 0.229558
283 2 0.254329 0.191464 0.214082
708 4 0.347058 0.173236 0.235668
764 4 0.384662 0.21665 0.247652
394 2 0.0102103 0.275449 0.234391
396 4 0.0347421 0.270661 0.233719
535 2 0.114143 0.339321 0.175
361 2 0.121571 0.265898 0.160661
372 4 0.141027 0.280185 0.187457
362 4 0.122027 0.274364 0.184183
370 2 0.162248 0.287687 0.198346
371 4 0.18347 0.295188 0.209234
279 4 0.190504 0.304347 0.227184
277 2 0.209237 0.292782 0.239038
612 4 0.188293 0.316153 0.208515
278 4 0.22797 0.281217 0.250891
610 2 0.204851 0.332874 0.200064
308 4 0.286219 0.31129 0.266286
647 4 0.0308832 0.425448 0.175854
536 4 0.100904 0.354009 0.190302
300 4 0.136666 0.404461 0.219506
298 2 0.138999 0.38134 0.228735
299 4 0.141333 0.358219 0.237963
417 4 0.228688 0.365887 0.183344
415 2 0.22658 0.390164 0.188946
611 4 0.221409 0.349594 0.191613
416 4 0.224471 0.41444 0.194547
303 4 0.310249 0.39588 0.22514
729 4 0.304882 0.391369 0.243916
301 2 0.317397 0.401594 0.201871
302 4 0.324544 0.407309 0.178602
645 4 0.437162 0.393024 0.179408
643 2 0.429019 0.389482 0.202782
644 4 0.420877 0.385941 0.226156
447 4 0.435866 0.386917 0.238702
263 4 0.0416023 0.442355 0.181355
262 2 0.0433853 0.464895 0.19203
1757 4 0.0579593 0.490876 0.218355
264 4 0.0451683 0.487435 0.202705
291 4 0.231346 0.425634 0.210879
289 2 0.238628 0.44493 0.196743
290 4 0.245909 0.464225 0.182607
638 4 0.264502 0.456302 0.175966
767 4 0.264379 0.473666 0.188533
768 4 0.310541 0.476725 0.207518
766 2 0.28746 0.475195 0.198026
1574 4 0.325747 0.490156 0.203892
659 4 0.374935 0.442388 0.159927
658 2 0.359752 0.425427 0.17027
1573 2 0.34314 0.483124 0.220421
1575 4 0.360533 0.476092 0.236951
1802 4 0.373024 0.461833 0.240904
689 4 0.13921 0.0300803 0.248628
688 2 0.159621 0.0445178 0.248296
1699 2 0.220526 0.0145094 0.264545
248 4 0.204975 0.0425161 0.288866
247 2 0.194851 0.0650134 0.292934
1701 4 0.216059 0.0243274 0.287102
605 4 0.213042 0.0333813 0.306309
604 2 0.227745 0.0309707 0.326389
22 3 0.357922 0.026691 0.253024
697 2 0.38665 0.0132119 0.319493
349 2 0.419267 0.0662699 0.313876
350 4 0.428687 0.084335 0.299382
742 2 0.442101 0.0757317 0.264115
579 4 0.0404396 0.130226 0.269039
513 4 0.0232866 0.136065 0.257134
577 2 0.061988 0.142734 0.271136
530 4 0.0209387 0.121677 0.272886
529 2 0.00223345 0.114052 0.287622
398 4 0.07716 0.0829985 0.330757
578 4 0.0835363 0.155242 0.273233
544 2 0.1373 0.162014 0.273855
545 4 0.141074 0.154386 0.297366
405 4 0.15732 0.142924 0.294834
249 4 0.184727 0.0875108 0.297002
403 2 0.173193 0.124165 0.299454
404 4 0.189065 0.105406 0.304073
633 4 0.311823 0.0922542 0.294188
631 2 0.324569 0.087177 0.31509
632 4 0.337316 0.0820999 0.335993
743 4 0.446759 0.0774774 0.288619
333 4 0.44628 0.0963983 0.298784
331 2 0.446098 0.120674 0.304772
332 4 0.445916 0.144949 0.310759
762 4 0.430687 0.156773 0.305438
546 4 0.133526 0.169641 0.250344
393 4 0.0859515 0.167468 0.318214
763 2 0.375908 0.236458 0.26015
707 4 0.347596 0.187195 0.283684
706 2 0.347327 0.180215 0.259676
765 4 0.367154 0.256266 0.272647
761 4 0.432211 0.203526 0.323117
760 2 0.431449 0.18015 0.314278
418 2 0.442213 0.238366 0.304664
419 4 0.429395 0.22455 0.321095
520 2 0.496175 0.23257 0.285085
420 4 0.455031 0.252183 0.288232
364 2 0.0102335 0.320324 0.274176
750 4 0.0533308 0.26318 0.234581
748 2 0.0620855 0.260656 0.257865
749 4 0.0708403 0.258132 0.28115
442 2 0.0129137 0.278263 0.315145
345 4 0.244967 0.272893 0.241046
307 2 0.266604 0.296023 0.263574
309 4 0.246989 0.280757 0.260862
497 4 0.294721 0.328651 0.258004
496 2 0.305179 0.33844 0.278497
508 2 0.263882 0.319009 0.31881
521 4 0.475954 0.246735 0.289041
543 4 0.469811 0.264373 0.278638
541 2 0.467032 0.289142 0.28062
542 4 0.464254 0.313912 0.282601
2692 2 0.00900969 0.37219 0.251169
2694 4 0.0259209 0.353822 0.252513
366 4 0.0236066 0.339414 0.265124
408 4 0.0531168 0.365844 0.329974
734 4 0.149255 0.360675 0.257276
733 2 0.159312 0.369345 0.278462
677 4 0.155754 0.377932 0.315282
735 4 0.16937 0.378014 0.299649
498 4 0.315637 0.348228 0.298991
509 4 0.262138 0.327491 0.295354
727 2 0.322092 0.403249 0.257622
438 4 0.288011 0.4169 0.260463
728 4 0.339302 0.415129 0.271329
753 4 0.388575 0.355509 0.315156
751 2 0.408604 0.369688 0.319945
434 4 0.34135 0.422967 0.291326
712 2 0.496854 0.416721 0.277051
445 2 0.446677 0.394589 0.259902
446 4 0.457488 0.40226 0.281102
713 4 0.47402 0.408001 0.271786
752 4 0.428633 0.383868 0.324735
777 4 0.0648898 0.476373 0.320703
549 4 0.0648021 0.46753 0.338484
603 4 0.0803913 0.422438 0.29964
413 4 0.12792 0.496802 0.312626
412 2 0.134969 0.491436 0.289245
602 4 0.121948 0.44524 0.283709
601 2 0.10117 0.433839 0.291674
414 4 0.142018 0.486071 0.265863
775 2 0.0879098 0.485799 0.323238
437 4 0.260645 0.444378 0.292035
436 2 0.274328 0.430639 0.276249
1437 4 0.280646 0.480972 0.332265
1435 2 0.265182 0.465379 0.32031
1436 4 0.249718 0.449787 0.308355
433 2 0.345946 0.424625 0.315847
1801 2 0.361929 0.44739 0.258035
1803 4 0.350834 0.432947 0.275166
231 4 0.444769 0.501881 0.279332
318 4 0.0571267 0.0370738 0.344644
234 4 0.0383991 0.0304156 0.348997
232 2 0.0135265 0.0302281 0.351547
316 2 0.0668778 0.0351607 0.367588
317 4 0.0766289 0.0332477 0.390532
428 4 0.0875206 0.0168995 0.393085
606 4 0.242447 0.0285601 0.346469
441 4 0.261672 0.02259 0.350361
724 2 0.331224 0.00504292 0.375954
726 4 0.306969 0.010024 0.379426
440 4 0.287933 0.00423914 0.388758
439 2 0.274803 0.0134146 0.36956
725 4 0.355479 6.18276e-05 0.372481
698 4 0.396073 0.0324011 0.332461
257 4 0.395872 0.0506052 0.344319
256 2 0.387789 0.040745 0.365828
258 4 0.379705 0.0308848 0.387336
425 4 0.397401 0.0318574 0.39696
351 4 0.409847 0.0482048 0.328371
452 4 0.417626 0.0768789 0.394841
2655 4 0.00328333 0.130121 0.378465
397 2 0.0714037 0.0905541 0.353886
399 4 0.0656474 0.0981097 0.377015
2653 2 0.0254393 0.141598 0.37686
2654 4 0.0475953 0.153075 0.375256
732 4 0.0792208 0.109407 0.387461
392 4 0.061131 0.157637 0.360499
391 2 0.0735412 0.162552 0.339357
731 4 0.118754 0.140017 0.388398
730 2 0.0989874 0.124712 0.38793
686 4 0.134974 0.153849 0.386623
599 4 0.115144 0.161495 0.387734
685 2 0.152934 0.141936 0.3993
687 4 0.170894 0.130024 0.411977
683 4 0.323785 0.0835649 0.397637
467 4 0.337018 0.145491 0.398403
453 4 0.415951 0.126396 0.401619
515 4 0.397591 0.131561 0.404412
451 2 0.416788 0.101638 0.39823
598 2 0.115129 0.179844 0.370748
600 4 0.115113 0.198192 0.353763
260 4 0.0969634 0.242974 0.400699
275 4 0.176995 0.218536 0.405391
474 4 0.2138 0.181118 0.368148
276 4 0.195516 0.189562 0.369084
472 2 0.238576 0.183275 0.370735
274 2 0.186255 0.204049 0.387237
473 4 0.263352 0.185432 0.373322
468 4 0.318574 0.189201 0.414212
466 2 0.327796 0.167346 0.406307
410 4 0.31077 0.20654 0.417814
614 4 0.413791 0.212476 0.330272
613 2 0.402543 0.228275 0.346054
269 4 0.465213 0.224166 0.387263
306 4 0.471966 0.208677 0.399634
268 2 0.458049 0.247397 0.381417
444 4 0.0303319 0.268101 0.329927
389 4 0.159611 0.288454 0.342113
388 2 0.135481 0.289896 0.348501
390 4 0.11135 0.291338 0.35489
616 2 0.0964317 0.309745 0.383973
618 4 0.0945435 0.31271 0.408729
617 4 0.0983198 0.30678 0.359218
347 4 0.0965427 0.294971 0.4202
401 4 0.179323 0.286349 0.336299
400 2 0.19114 0.290362 0.357966
375 4 0.191673 0.305334 0.392369
402 4 0.202956 0.294375 0.379632
373 2 0.184456 0.305795 0.416304
378 4 0.282182 0.297578 0.342287
489 4 0.303503 0.281967 0.403595
376 2 0.292816 0.289622 0.363472
377 4 0.30345 0.281666 0.384656
487 2 0.325163 0.276846 0.414989
510 4 0.265625 0.310527 0.342266
615 4 0.391295 0.244074 0.361836
716 4 0.390647 0.254378 0.379085
715 2 0.378021 0.258396 0.400289
270 4 0.450885 0.270628 0.375571
2924 4 0.459786 0.287922 0.383548
2923 2 0.442022 0.30067 0.395677
2925 4 0.424259 0.313418 0.407807
406 2 0.0434378 0.388831 0.331741
407 4 0.0337589 0.411817 0.333508
680 4 0.0434162 0.400671 0.413786
676 2 0.17409 0.381508 0.331901
678 4 0.192426 0.385084 0.348519
651 4 0.315217 0.383927 0.414036
649 2 0.292781 0.393822 0.418926
559 2 0.427948 0.402816 0.366574
561 4 0.426862 0.390354 0.344925
560 4 0.429034 0.415278 0.388223
548 4 0.0422712 0.423991 0.348353
547 2 0.0535366 0.445761 0.343419
2 3 0.32551 0.468884 0.339769
3 3 0.325092 0.449373 0.371891
435 4 0.350543 0.426284 0.340368
4 3 0.353458 0.444818 0.347011
5 3 0.350268 0.476853 0.366536
1 1 0.338696 0.460048 0.35642
668 4 0.413156 0.421977 0.401046
593 4 0.465222 0.483339 0.385895
588 4 0.433652 0.421466 0.407993
368 4 0.103389 0.0596382 0.425669
340 2 0.171332 0.0764553 0.49986
1180 2 0.27704 0.0699145 0.467479
1181 4 0.277997 0.0549774 0.487508
424 2 0.391011 0.0167495 0.415831
457 2 0.0240005 0.149117 0.464669
719 4 0.0580426 0.1269 0.472927
459 4 0.0470713 0.139608 0.46309
718 2 0.0575611 0.108937 0.490313
367 2 0.114649 0.081015 0.432106
369 4 0.125909 0.102392 0.438542
939 4 0.131268 0.119051 0.447679
937 2 0.129588 0.143997 0.447874
938 4 0.127909 0.168944 0.448069
342 4 0.183753 0.0902685 0.483123
1151 4 0.163287 0.117195 0.424537
1150 2 0.173947 0.106509 0.44447
1152 4 0.184608 0.0958229 0.464404
1182 4 0.276084 0.0848516 0.44745
682 2 0.306668 0.0880959 0.415291
684 4 0.289551 0.0926269 0.432944
321 4 0.289288 0.143825 0.461111
320 4 0.271128 0.103568 0.437652
319 2 0.280208 0.123697 0.449381
899 4 0.300329 0.134877 0.4757
898 2 0.318913 0.151598 0.476147
516 4 0.387463 0.167075 0.438129
514 2 0.392527 0.149318 0.42127
575 4 0.391983 0.171541 0.457627
259 2 0.105208 0.24072 0.424196
1034 4 0.133534 0.181267 0.462295
261 4 0.113452 0.238465 0.447693
1035 4 0.128905 0.23105 0.461361
1033 2 0.13122 0.206159 0.461828
695 4 0.111969 0.240836 0.469671
694 2 0.106258 0.244554 0.493728
857 4 0.19719 0.211907 0.472303
856 2 0.190575 0.217479 0.495763
411 4 0.266466 0.215845 0.439056
409 2 0.288618 0.211193 0.428435
900 4 0.337497 0.16832 0.476594
813 4 0.388798 0.241799 0.49459
574 2 0.415289 0.180598 0.457693
304 2 0.45791 0.202436 0.419348
305 4 0.443854 0.196194 0.439063
576 4 0.438594 0.189655 0.457758
346 2 0.105712 0.297026 0.443371
348 4 0.114881 0.299081 0.466541
10 3 0.134823 0.301527 0.472887
6 1 0.133511 0.320146 0.485935
9 3 0.139763 0.315027 0.507686
8 3 0.147299 0.33676 0.477432
374 4 0.17724 0.306256 0.440239
717 4 0.365394 0.262415 0.421492
266 4 0.379238 0.256282 0.483796
488 4 0.346822 0.271725 0.426382
265 2 0.371277 0.264868 0.461703
267 4 0.363316 0.273454 0.43961
872 4 0.454326 0.252706 0.491394
2456 4 0.490688 0.314348 0.46832
584 4 0.488138 0.295026 0.466567
585 4 0.460416 0.253891 0.472905
583 2 0.474277 0.274459 0.469736
239 4 0.417367 0.325975 0.422786
2812 2 0.0117554 0.354635 0.423073
2813 4 0.034466 0.363145 0.416991
7 3 0.111823 0.327813 0.48604
504 4 0.235054 0.399611 0.472153
709 2 0.19312 0.398886 0.482116
711 4 0.170962 0.394867 0.49298
710 4 0.215279 0.402906 0.471252
502 2 0.25449 0.398188 0.456487
503 4 0.273926 0.396765 0.440822
650 4 0.270346 0.403718 0.423817
238 2 0.405511 0.339232 0.44036
669 4 0.381031 0.414012 0.438533
334 2 0.374231 0.381385 0.461186
240 4 0.393655 0.352489 0.457935
335 4 0.377017 0.357505 0.468052
336 4 0.371445 0.405266 0.454321
681 4 0.0640108 0.432653 0.446247
679 2 0.0537135 0.416662 0.430016
383 4 0.0785327 0.445063 0.449019
384 4 0.122649 0.467938 0.443434
569 4 0.140478 0.470505 0.452544
382 2 0.100591 0.4565 0.446226
568 2 0.146382 0.494347 0.447867
634 2 0.190822 0.473107 0.491122
635 4 0.200165 0.450632 0.485399
773 4 0.247297 0.459167 0.441734
772 2 0.230345 0.450413 0.457895
774 4 0.213394 0.441659 0.474057
636 4 0.181478 0.495581 0.496845
667 2 0.397094 0.417994 0.419789
2506 2 0.505474 0.432096 0.467692
1910 4 0.441807 0.485476 0.497703
587 4 0.471573 0.426983 0.440123
663 4 0.465089 0.443995 0.451027
586 2 0.452612 0.424224 0.424058
2507 4 0.484744 0.435837 0.454222
661 2 0.454598 0.462436 0.464256
662 4 0.444106 0.480878 0.477486
2428 2 0.114326 0.0641801 0.508714
2429 4 0.0899396 0.064723 0.50322
2430 4 0.138712 0.0636373 0.514209
341 4 0.158911 0.0626421 0.516596
961 2 0.260013 0.0236777 0.514124
963 4 0.270182 0.0444227 0.504562
430 2 0.315494 0.0412994 0.502455
432 4 0.291208 0.0472334 0.502846
431 4 0.339781 0.0353655 0.502063
841 2 0.381312 0.0315588 0.502855
843 4 0.357983 0.0405197 0.502051
842 4 0.40464 0.0225979 0.503658
1217 4 0.408199 0.00329469 0.504331
1062 4 0.503804 0.0429999 0.566552
1060 2 0.492 0.0229083 0.575617
810 4 0.453255 0.0560958 0.536586
808 2 0.465097 0.0706611 0.553102
720 4 0.0570795 0.0909733 0.507699
641 4 0.49341 0.131133 0.542636
809 4 0.47694 0.0852265 0.569619
2657 4 0.479313 0.154114 0.500074
640 2 0.499745 0.113594 0.52598
469 2 0.0275635 0.194905 0.538775
470 4 0.00591264 0.207381 0.537899
1199 4 0.00704533 0.225351 0.547018
471 4 0.0492144 0.182429 0.539652
877 2 0.124497 0.221357 0.548854
879 4 0.133104 0.205819 0.566452
878 4 0.11589 0.236894 0.531256
696 4 0.100546 0.248272 0.517785
327 4 0.0988088 0.247447 0.539388
858 4 0.18396 0.223051 0.519223
811 2 0.386787 0.253253 0.516724
982 2 0.040968 0.315924 0.546298
983 4 0.0207154 0.330032 0.542302
984 4 0.0612207 0.301816 0.550294
326 4 0.0776937 0.292775 0.539908
1136 4 0.0816207 0.303615 0.55853
1135 2 0.0853389 0.317295 0.579126
325 2 0.0882513 0.270111 0.539648
1258 2 0.165944 0.306024 0.543088
1259 4 0.15518 0.310618 0.520992
1260 4 0.176707 0.30143 0.565184
1239 4 0.272429 0.309685 0.566399
1237 2 0.29697 0.307515 0.570665
1238 4 0.321511 0.305345 0.574931
804 4 0.258711 0.322778 0.572539
792 4 0.334292 0.28947 0.571298
812 4 0.384775 0.264708 0.538858
790 2 0.349424 0.278323 0.554807
791 4 0.364555 0.267176 0.538315
873 4 0.436514 0.262708 0.537038
871 2 0.44542 0.257707 0.514216
953 4 0.427151 0.274275 0.551138
952 2 0.416555 0.261349 0.569735
934 2 0.0259796 0.417839 0.553096
936 4 0.021887 0.404988 0.532042
3353 4 0.0168245 0.38619 0.535967
802 2 0.235864 0.332069 0.56843
803 4 0.213018 0.341361 0.564321
1190 4 0.19546 0.342541 0.556606
1189 2 0.184553 0.362175 0.567593
1191 4 0.173647 0.38181 0.57858
880 2 0.363325 0.389473 0.574537
881 4 0.348925 0.398004 0.555962
882 4 0.377725 0.380941 0.593112
930 4 0.389984 0.367243 0.584217
925 2 0.473659 0.368756 0.545291
926 4 0.489053 0.349668 0.540407
927 4 0.458265 0.387844 0.550175
1001 4 0.451521 0.387127 0.570112
1000 2 0.446144 0.405063 0.586682
935 4 0.0300723 0.430691 0.574149
539 4 0.0735324 0.456608 0.51959
538 2 0.0642907 0.478122 0.52836
540 4 0.0550491 0.499636 0.537131
1159 2 0.134667 0.43302 0.526579
1160 4 0.132218 0.417787 0.546255
1161 4 0.137117 0.448253 0.506904
2154 4 0.294552 0.501488 0.576973
1453 2 0.327281 0.423416 0.529595
2152 2 0.318851 0.50579 0.581003
1455 4 0.308808 0.434839 0.517208
1454 4 0.345754 0.411994 0.541983
1909 2 0.461287 0.49667 0.508675
3182 4 0.476377 0.442597 0.591312
1031 4 0.233408 0.0618578 0.593287
1282 2 0.191638 0.0726092 0.600332
1283 4 0.214658 0.0700666 0.590909
1284 4 0.168619 0.0751518 0.609756
2131 2 0.222596 0.996582 0.609966
2133 4 0.208365 0.000917533 0.630062
1030 2 0.249125 0.0806341 0.588228
949 2 0.287041 0.998507 0.598431
951 4 0.280577 0.0214617 0.605946
2281 2 0.392256 0.010505 0.650287
2282 4 0.386196 0.0236713 0.629913
1092 4 0.369228 0.0276894 0.621053
1090 2 0.36763 0.0115294 0.60204
1061 4 0.480196 0.00281667 0.584682
1083 4 0.020917 0.125054 0.640325
1081 2 0.0345283 0.107752 0.65218
1082 4 0.0481396 0.0904492 0.664034
3179 4 0.0109526 0.141899 0.638449
1059 4 0.151268 0.0848978 0.608585
1058 4 0.153071 0.125743 0.637379
1057 2 0.152169 0.105321 0.622982
1155 4 0.162885 0.140708 0.648912
909 4 0.167845 0.120123 0.651587
1153 2 0.165231 0.157992 0.630997
907 2 0.185542 0.110572 0.666446
1032 4 0.264843 0.0994103 0.583168
1194 4 0.34562 0.142682 0.652649
1192 2 0.362027 0.149351 0.635
1193 4 0.378435 0.15602 0.617351
3008 4 0.468277 0.0965654 0.585074
1026 4 0.434009 0.156169 0.664762
3009 4 0.498315 0.108096 0.623355
3007 2 0.483296 0.102331 0.604215
1272 4 0.122298 0.207105 0.582199
1270 2 0.142118 0.201374 0.596323
948 4 0.161514 0.247212 0.651875
1154 4 0.167578 0.175276 0.613082
1271 4 0.161938 0.195644 0.610448
1221 4 0.178912 0.190862 0.622586
1219 2 0.203116 0.194021 0.617168
1220 4 0.227321 0.19718 0.61175
1212 4 0.239134 0.195867 0.629587
798 4 0.246572 0.206391 0.61226
796 2 0.245872 0.230663 0.606296
1211 4 0.281294 0.180075 0.651357
1210 2 0.260214 0.187971 0.640472
904 2 0.410834 0.220278 0.610471
906 4 0.42625 0.203968 0.621496
1024 2 0.432283 0.169497 0.643677
1025 4 0.430558 0.182825 0.622593
1145 4 0.480022 0.218555 0.657924
905 4 0.395419 0.236587 0.599446
1243 2 0.0352587 0.274855 0.654814
1244 4 0.0166629 0.28806 0.644567
1245 4 0.0538545 0.26165 0.665061
1137 4 0.0890572 0.330976 0.599721
797 4 0.245172 0.254935 0.600333
954 4 0.405959 0.248424 0.588331
3113 4 0.501598 0.260514 0.590233
3264 4 0.0222124 0.417162 0.589296
3262 2 0.0155569 0.397414 0.603112
3263 4 0.00890138 0.377666 0.616929
895 2 0.165725 0.403005 0.600076
992 4 0.131763 0.40724 0.597916
897 4 0.145442 0.411745 0.611796
896 4 0.186008 0.394264 0.588356
1140 4 0.280019 0.421205 0.658732
1138 2 0.258961 0.408909 0.664261
928 2 0.412781 0.357627 0.580607
929 4 0.435577 0.348011 0.576997
1206 4 0.442561 0.40875 0.616874
1041 4 0.0424257 0.424651 0.590459
1039 2 0.0628272 0.439106 0.590615
2172 4 0.0393086 0.490515 0.645675
3240 4 0.00714066 0.436995 0.651834
1281 4 0.00914967 0.434261 0.672142
1040 4 0.0832287 0.45356 0.590772
993 4 0.10286 0.447876 0.594173
991 2 0.117311 0.427558 0.596044
1173 4 0.285301 0.488959 0.590026
1172 4 0.279416 0.472933 0.637028
1171 2 0.282358 0.480946 0.613527
891 4 0.275536 0.471518 0.656233
889 2 0.298618 0.466789 0.664602
1204 2 0.437074 0.418842 0.639083
1002 4 0.440766 0.422999 0.603252
3183 4 0.443094 0.479533 0.596667
3181 2 0.459736 0.461065 0.593989
1268 4 0.467877 0.480426 0.661486
1267 2 0.451241 0.462909 0.667933
1205 4 0.431587 0.428935 0.661291
1269 4 0.434604 0.445393 0.67438
3440 4 0.479917 0.430013 0.605955
1892 4 0.0276479 0.0118746 0.668371
1183 2 0.03552 0.0521499 0.679625
1184 4 0.0255002 0.0292617 0.680582
4338 4 0.0121003 0.012985 0.683356
4336 2 0.000530558 0.00745847 0.704822
1185 4 0.0455398 0.075038 0.678669
944 4 0.0648847 0.0849692 0.67616
943 2 0.0869953 0.0770919 0.684777
2049 4 0.0894716 0.00630273 0.732718
945 4 0.109106 0.0692145 0.693394
1202 4 0.0849423 0.0202201 0.746227
2254 2 0.194967 0.0131556 0.719643
2256 4 0.209195 0.0226741 0.737867
2255 4 0.180738 0.0036372 0.701419
2400 4 0.327885 0.0129397 0.714809
2398 2 0.336326 0.0316884 0.729036
2283 4 0.398317 0.997339 0.670661
42 3 0.409372 0.0682123 0.72223
41 1 0.429422 0.0794339 0.723336
44 3 0.436791 0.0837697 0.701765
43 3 0.444853 0.0661441 0.734456
1076 4 0.047952 0.0951779 0.68533
864 4 0.0314682 0.116447 0.747319
1075 2 0.0413168 0.107377 0.706122
1077 4 0.0346815 0.119576 0.726915
1179 4 0.0152293 0.152279 0.689226
1226 4 0.235923 0.128692 0.728696
908 4 0.20324 0.101021 0.681304
1225 2 0.226821 0.121442 0.706565
1227 4 0.217718 0.114192 0.684434
1148 4 0.248837 0.128906 0.745754
1005 4 0.290496 0.109761 0.719603
1003 2 0.299031 0.129193 0.732821
1004 4 0.307566 0.148625 0.74604
830 4 0.342108 0.1263 0.667171
887 4 0.331303 0.144682 0.668211
831 4 0.361717 0.0863247 0.689935
829 2 0.351912 0.106312 0.678553
1143 4 0.419908 0.147176 0.678834
45 3 0.426458 0.0989959 0.734614
1142 4 0.434319 0.100335 0.68878
1141 2 0.427113 0.123756 0.683807
1178 4 0.0308696 0.199045 0.680914
1177 2 0.0230495 0.175662 0.68507
850 2 0.0533959 0.220979 0.68176
851 4 0.0505284 0.196199 0.68347
1107 4 0.0545353 0.183113 0.698667
1105 2 0.0707533 0.177861 0.716959
852 4 0.0562634 0.245759 0.68005
1106 4 0.0869713 0.172609 0.73525
978 4 0.221827 0.211156 0.744961
976 2 0.244917 0.214892 0.736123
888 4 0.299561 0.182046 0.658361
886 2 0.315432 0.163364 0.663286
977 4 0.268006 0.218628 0.727286
1299 4 0.327137 0.180492 0.733476
1298 4 0.286944 0.21024 0.732912
1297 2 0.30704 0.195366 0.733194
918 4 0.282106 0.230423 0.738406
1084 2 0.355915 0.176131 0.74598
1086 4 0.343775 0.173953 0.72423
1262 4 0.430605 0.181776 0.730221
1261 2 0.429587 0.174008 0.706477
1263 4 0.42857 0.166241 0.682732
1144 2 0.491532 0.2057 0.676019
3426 4 0.493901 0.173725 0.698075
1209 4 0.0727868 0.25831 0.675145
816 4 0.0396991 0.325381 0.736006
1208 4 0.118642 0.259057 0.695083
1207 2 0.0957143 0.258683 0.685114
821 4 0.143436 0.31834 0.719136
820 2 0.131237 0.299237 0.708579
822 4 0.119039 0.280134 0.698022
947 4 0.134509 0.27072 0.686788
1242 4 0.133732 0.319381 0.736728
946 2 0.148012 0.258966 0.669331
1065 4 0.266315 0.315082 0.710628
3123 4 0.488492 0.277223 0.673941
892 2 0.0495191 0.401444 0.737883
893 4 0.0643247 0.384772 0.749198
814 2 0.0535428 0.34466 0.743871
815 4 0.0673866 0.363939 0.751736
894 4 0.0347136 0.418116 0.726568
940 2 0.107343 0.384161 0.745575
941 4 0.130328 0.39158 0.739108
1067 4 0.131791 0.383299 0.719961
1066 2 0.151958 0.380738 0.705405
942 4 0.0843578 0.376742 0.752041
1029 4 0.231923 0.40702 0.685794
1068 4 0.172126 0.378176 0.690848
1139 4 0.237904 0.396613 0.66979
1028 4 0.183654 0.394358 0.689034
1027 2 0.207788 0.400689 0.687414
1236 4 0.24683 0.363217 0.753062
1063 2 0.264018 0.335433 0.724972
1064 4 0.261722 0.355784 0.739315
806 4 0.256136 0.376608 0.73897
1101 4 0.451459 0.407017 0.716618
1279 2 0.0177999 0.435273 0.69558
3276 4 0.0225554 0.430161 0.739207
1983 4 0.0427882 0.436706 0.733383
1981 2 0.047317 0.461291 0.733904
1280 4 0.02645 0.436284 0.719018
1982 4 0.0518457 0.485875 0.734424
885 4 0.0500802 0.499221 0.750096
1188 4 0.234691 0.494473 0.686101
1174 2 0.218435 0.490475 0.714939
1175 4 0.221911 0.479987 0.692509
890 4 0.321699 0.46206 0.672972
1088 4 0.30345 0.490658 0.70038
1988 4 0.318496 0.478631 0.701972
1987 2 0.343232 0.476767 0.705105
1989 4 0.367969 0.474902 0.708239
1100 4 0.423077 0.428678 0.681604
1099 2 0.437268 0.417847 0.699111
1195 2 0.0786846 0.0216335 0.828308
1203 4 0.0821707 0.0364854 0.793434
1201 2 0.0835565 0.0283527 0.769831
911 4 0.0893266 0.0557317 0.801542
1196 4 0.0900033 0.0380337 0.813205
910 2 0.092794 0.0790781 0.809794
1048 2 0.341767 0.0644161 0.779964
1050 4 0.329084 0.0733478 0.799574
1049 4 0.354449 0.0554843 0.760354
2399 4 0.344768 0.0504371 0.743263
1112 4 0.388425 0.0228669 0.79773
1111 2 0.413314 0.0251085 0.796902
846 4 0.470249 0.0558694 0.745596
1113 4 0.438203 0.02735 0.796074
844 2 0.457835 0.0404233 0.760844
845 4 0.445421 0.0249773 0.776091
980 4 0.457457 0.018614 0.792504
979 2 0.465135 0.0193999 0.816287
862 2 0.0108557 0.111163 0.760448
34 3 0.0672742 0.129059 0.812486
33 3 0.102855 0.141763 0.808356
31 1 0.0868268 0.13476 0.823603
32 3 0.0947301 0.116238 0.834721
912 4 0.0962615 0.102424 0.818047
1130 4 0.23862 0.146953 0.73945
1129 2 0.23134 0.166187 0.75367
1149 4 0.2595 0.0887163 0.773535
1257 4 0.332969 0.08153 0.817343