ITEM: TIMESTEP
410000
ITEM: NUMBER OF ATOMS
4590
ITEM: BOX BOUNDS pp pp pp
-9.9985700000000008e+00 9.9985700000000008e+00
-9.9985700000000008e+00 9.9985700000000008e+00
-9.9985700000000008e+00 9.9985700000000008e+00
ITEM: ATOMS id type xs ys zs
463 2 0.0290029 0.0237023 0.0455388
465 4 0.0395523 0.0344832 0.0654803
464 4 0.0184534 0.0129215 0.0255974
3291 4 0.0214259 0.0112832 0.00669053
701 4 0.0819353 0.0895719 0.0606206
1666 2 0.0971279 0.999111 0.0541271
1667 4 0.106819 0.0213104 0.0479268
700 2 0.0953563 0.0689841 0.0652246
702 4 0.108777 0.0483963 0.0698287
534 4 0.182405 0.0768227 0.0133654
491 4 0.235747 0.0339563 0.026318
490 2 0.258064 0.0321354 0.0151909
492 4 0.280381 0.0303145 0.00406384
986 4 0.375622 0.0535212 0.00784437
747 4 0.469105 0.0610332 0.0330783
2975 4 0.48372 0.0497921 0.0234275
2974 2 0.506105 0.0395395 0.0277848
589 2 0.0482109 0.141385 0.0518217
590 4 0.031082 0.127738 0.0397583
3233 4 0.0322758 0.109718 0.0305195
591 4 0.0653398 0.155033 0.063885
3232 2 0.0262898 0.112009 0.00635139
565 2 0.210798 0.129036 0.0772197
566 4 0.20393 0.15054 0.066469
358 2 0.259696 0.138239 0.0288109
359 4 0.265747 0.125871 0.0496818
360 4 0.253645 0.150607 0.00794002
557 4 0.385063 0.136852 0.0175721
556 2 0.380398 0.134136 0.041986
558 4 0.375733 0.131419 0.0663999
297 4 0.408119 0.101471 0.101172
745 2 0.458477 0.0796756 0.0202452
746 4 0.447849 0.098318 0.00741211
555 4 0.0394169 0.193843 0.0226162
553 2 0.0471846 0.201454 0.000101696
476 4 0.133802 0.164905 0.0678531
914 4 0.165646 0.230487 0.00936618
571 2 0.314889 0.246974 0.0357759
572 4 0.305345 0.226093 0.0258718
666 4 0.304624 0.223274 0.00615632
664 2 0.311934 0.200529 0.998781
771 4 0.471269 0.218096 0.0666335
770 4 0.470101 0.187701 0.0269412
769 2 0.470685 0.202899 0.0467874
323 4 0.459459 0.22774 0.0815846
518 4 0.472289 0.239973 0.0692416
292 2 0.132576 0.320084 0.0232931
293 4 0.152577 0.30853 0.013722
507 4 0.151596 0.293068 0.0259873
357 4 0.237697 0.253825 0.00671353
505 2 0.169297 0.280031 0.0379001
506 4 0.186997 0.266995 0.0498128
481 2 0.231756 0.326014 0.0723072
482 4 0.253371 0.328591 0.0600069
573 4 0.324432 0.267855 0.04568
1069 2 0.390559 0.277836 0.0328755
1070 4 0.410141 0.291105 0.04098
955 2 0.377285 0.339704 0.00297868
1071 4 0.370977 0.264568 0.0247711
330 4 0.0439786 0.360247 0.0157444
328 2 0.0373511 0.384316 0.0143471
329 4 0.0307237 0.408384 0.0129498
294 4 0.112574 0.331639 0.0328642
288 4 0.180208 0.393357 0.0214325
287 4 0.205794 0.356552 0.0436025
286 2 0.193001 0.374954 0.0325175
252 4 0.253881 0.348241 0.0636723
250 2 0.263485 0.370176 0.0564755
251 4 0.273089 0.392111 0.0492788
609 4 0.284495 0.405194 0.0603556
607 2 0.301711 0.418657 0.0725019
957 4 0.357664 0.352398 0.0118704
281 4 0.45128 0.353343 0.075988
280 2 0.459135 0.35512 0.0523171
282 4 0.466991 0.356897 0.0286462
550 2 0.0515384 0.436981 0.0719766
551 4 0.0633189 0.439691 0.0500893
1788 4 0.0745971 0.503293 0.0564809
245 4 0.270925 0.446579 0.0321116
244 2 0.269273 0.468501 0.0202011
246 4 0.267621 0.490423 0.0082907
272 4 0.281952 0.50531 0.0113007
1778 4 0.293634 0.508554 0.0820643
564 4 0.41358 0.461789 0.015341
562 2 0.422878 0.482222 0.00432951
228 4 0.482632 0.484809 0.0501397
20 3 0.0394971 0.0686909 0.142486
16 1 0.0399919 0.0551157 0.160765
17 3 0.0311519 0.0346157 0.15522
19 3 0.0618903 0.052173 0.167851
450 4 0.184579 0.0552641 0.131012
448 2 0.188872 0.0798742 0.132057
1505 4 0.197741 0.0222578 0.160393
1475 4 0.207709 0.0200954 0.0959918
652 2 0.305462 0.0266522 0.106034
654 4 0.282849 0.0213654 0.115303
653 4 0.328074 0.0319389 0.0967659
296 4 0.394416 0.054492 0.0908786
295 2 0.401268 0.0779814 0.096025
1760 4 0.490664 0.0253047 0.137199
379 2 0.0093997 0.162516 0.165245
567 4 0.217667 0.107532 0.0879705
449 4 0.193165 0.104484 0.133101
237 4 0.192646 0.158523 0.13205
235 2 0.185865 0.135213 0.126065
236 4 0.179084 0.111903 0.12008
693 4 0.233943 0.0859702 0.158791
582 4 0.290181 0.112282 0.162468
310 2 0.442227 0.111541 0.164594
311 4 0.456274 0.117809 0.144882
475 2 0.128244 0.181574 0.0856409
477 4 0.122686 0.198244 0.103429
737 4 0.197647 0.244085 0.0970009
736 2 0.195324 0.225546 0.113617
738 4 0.193001 0.207007 0.130233
354 4 0.30555 0.21243 0.0958865
352 2 0.290224 0.229364 0.106062
460 2 0.322533 0.188918 0.0861792
461 4 0.298604 0.195741 0.0886365
353 4 0.274898 0.246298 0.116237
255 4 0.354547 0.174498 0.099712
462 4 0.346462 0.182096 0.083722
254 4 0.401934 0.182024 0.113804
253 2 0.37824 0.178261 0.106758
324 4 0.414107 0.247287 0.0894471
629 4 0.438728 0.178442 0.152711
322 2 0.436783 0.237513 0.0855158
630 4 0.413356 0.198189 0.114409
628 2 0.426042 0.188316 0.13356
337 2 0.0948374 0.266602 0.14215
339 4 0.105889 0.269194 0.119872
483 4 0.21014 0.323438 0.0846075
537 4 0.172948 0.325015 0.147783
754 2 0.280809 0.283509 0.101054
755 4 0.278746 0.265432 0.118205
756 4 0.282871 0.301586 0.0839037
741 4 0.376801 0.324008 0.0978765
622 2 0.417069 0.292121 0.108838
624 4 0.408152 0.297081 0.131664
528 4 0.491409 0.2622 0.148473
623 4 0.425985 0.28716 0.0860108
672 4 0.463931 0.304727 0.121184
670 2 0.462285 0.321422 0.102643
526 2 0.496954 0.286444 0.151051
619 2 0.0186831 0.372555 0.121019
620 4 0.0289785 0.393014 0.13105
455 4 0.102223 0.398361 0.0924564
454 2 0.126624 0.392909 0.0925357
456 4 0.151026 0.387456 0.0926151
535 2 0.160448 0.344945 0.156254
536 4 0.147948 0.364874 0.164724
626 4 0.235083 0.412557 0.126209
387 4 0.312784 0.389041 0.144808
385 2 0.333326 0.378821 0.134869
608 4 0.318927 0.43212 0.0846482
739 2 0.360529 0.337086 0.111638
740 4 0.344257 0.350164 0.125399
386 4 0.353868 0.368602 0.124931
14 3 0.414354 0.380574 0.136036
495 4 0.403138 0.398043 0.135042
671 4 0.460638 0.338117 0.0841024
13 3 0.411033 0.348223 0.155703
15 3 0.437577 0.351729 0.12923
11 1 0.425897 0.362746 0.145381
12 3 0.440561 0.37083 0.161154
595 2 0.479289 0.384374 0.143211
597 4 0.46166 0.376671 0.159181
596 4 0.496918 0.392077 0.12724
552 4 0.0397578 0.434272 0.093864
315 4 0.0318509 0.451211 0.100797
313 2 0.0287817 0.453538 0.125502
314 4 0.0257124 0.455865 0.150207
242 4 0.142591 0.4889 0.0829245
417 4 0.150244 0.409673 0.140324
415 2 0.16928 0.413502 0.156076
625 2 0.223055 0.421388 0.106147
627 4 0.211027 0.430219 0.0860836
637 2 0.241952 0.490197 0.159815
639 4 0.242042 0.496721 0.135678
524 4 0.341631 0.497858 0.0884849
493 2 0.402841 0.417462 0.15079
525 4 0.339203 0.484679 0.136663
523 2 0.340417 0.491268 0.112574
658 2 0.358384 0.4546 0.161608
659 4 0.345642 0.474322 0.153014
494 4 0.402545 0.436881 0.166539
18 3 0.0273148 0.0643775 0.177851
2481 4 0.0114929 0.0735133 0.187974
2479 2 0.994668 0.0551266 0.189983
673 2 0.123301 0.0424284 0.222188
674 4 0.124105 0.0673053 0.219806
675 4 0.122496 0.0175516 0.22457
1403 4 0.107211 0.013425 0.235115
1504 2 0.211106 0.0030364 0.169173
688 2 0.212209 0.0634871 0.241839
690 4 0.187225 0.0632575 0.242785
689 4 0.237194 0.0637167 0.240894
1783 2 0.411952 0.00921898 0.19831
21 1 0.371288 0.0736893 0.230413
23 3 0.361131 0.056402 0.242092
25 3 0.38947 0.0658398 0.219168
759 4 0.399754 0.0529484 0.204613
1784 4 0.405527 0.0333818 0.198535
22 3 0.378012 0.0898229 0.245368
757 2 0.415314 0.0691431 0.193623
758 4 0.430875 0.0853378 0.182633
742 2 0.456427 0.0641434 0.245317
743 4 0.473447 0.0725311 0.229033
744 4 0.439406 0.0557556 0.2616
381 4 0.0133954 0.155311 0.188852
511 2 0.0186131 0.141646 0.223107
512 4 0.0128283 0.136737 0.199283
577 2 0.0623154 0.10623 0.240963
578 4 0.0627986 0.118441 0.21915
546 4 0.170353 0.146379 0.240949
722 4 0.17385 0.129095 0.231521
692 4 0.20556 0.113741 0.189187
723 4 0.187126 0.108212 0.188066
691 2 0.219752 0.0998554 0.173989
721 2 0.180488 0.118654 0.209793
580 2 0.283879 0.118771 0.185778
581 4 0.277577 0.12526 0.209088
26 1 0.326567 0.14496 0.233121
28 3 0.309411 0.142002 0.217781
24 3 0.356211 0.0831034 0.215498
27 3 0.346667 0.144728 0.221935
312 4 0.42818 0.105273 0.184307
394 2 0.0334156 0.240387 0.23458
395 4 0.0360683 0.216714 0.226981
30 3 0.324127 0.164954 0.243748
284 4 0.272964 0.219814 0.177662
285 4 0.276859 0.170732 0.186408
283 2 0.274912 0.195273 0.182035
344 4 0.262699 0.252754 0.222581
343 2 0.252637 0.254763 0.245383
764 4 0.373446 0.206375 0.208567
763 2 0.394584 0.219713 0.209238
765 4 0.415722 0.233051 0.209908
396 4 0.0307629 0.26406 0.24218
750 4 0.0474723 0.272533 0.25051
363 4 0.0778239 0.262744 0.183059
338 4 0.0837855 0.264011 0.164429
362 4 0.115603 0.248334 0.212484
361 2 0.0967133 0.255539 0.197772
372 4 0.132699 0.259596 0.210202
300 4 0.0923682 0.308441 0.237805
370 2 0.156029 0.260029 0.20122
298 2 0.108512 0.32628 0.244613
279 4 0.222256 0.286943 0.182807
371 4 0.17936 0.260461 0.192237
277 2 0.246886 0.290005 0.179782
278 4 0.271517 0.293066 0.176757
307 2 0.301234 0.293928 0.195224
309 4 0.276696 0.298729 0.19534
308 4 0.325772 0.289127 0.195109
647 4 0.0923504 0.406726 0.196723
648 4 0.071966 0.364247 0.179967
646 2 0.0821582 0.385486 0.188345
612 4 0.219412 0.343279 0.169402
610 2 0.243041 0.349702 0.174457
291 4 0.208134 0.415088 0.168866
611 4 0.266671 0.356126 0.179512
303 4 0.33288 0.407124 0.217445
729 4 0.327828 0.406522 0.236703
301 2 0.351263 0.416008 0.203012
643 2 0.45102 0.387934 0.201451
644 4 0.451779 0.392737 0.225978
645 4 0.450262 0.383131 0.176925
447 4 0.446754 0.393448 0.245501
262 2 0.0682754 0.444099 0.201991
264 4 0.054663 0.465072 0.201847
263 4 0.0818879 0.423126 0.202134
416 4 0.188316 0.417331 0.171828
289 2 0.223656 0.429335 0.18233
290 4 0.239178 0.443582 0.195794
638 4 0.241863 0.483673 0.183952
768 4 0.248885 0.479451 0.238045
766 2 0.24664 0.471554 0.214428
767 4 0.244396 0.463656 0.190811
1573 2 0.332554 0.49909 0.231755
660 4 0.371127 0.434878 0.170201
302 4 0.369647 0.424892 0.18858
1574 4 0.340081 0.475443 0.228694
231 4 0.388316 0.460603 0.255942
232 2 0.0201046 0.0551743 0.312174
233 4 0.997487 0.0458405 0.307026
234 4 0.0427223 0.0645081 0.317322
248 4 0.207924 0.059215 0.326337
1699 2 0.212141 0.0186076 0.31627
247 2 0.22178 0.0782805 0.317989
697 2 0.366222 0.0250364 0.319684
698 4 0.382459 0.0395825 0.331928
699 4 0.349984 0.0104902 0.307439
480 4 0.500861 0.0290977 0.285458
351 4 0.423412 0.0684608 0.316574
478 2 0.48995 0.0290488 0.307956
349 2 0.429063 0.0790265 0.294628
479 4 0.47904 0.029 0.330453
513 4 0.024398 0.146555 0.246932
531 4 0.0167746 0.118772 0.299151
529 2 0.0248845 0.124097 0.276107
530 4 0.0329943 0.129422 0.253062
393 4 0.0739008 0.164003 0.262055
579 4 0.0618321 0.0940185 0.262777
392 4 0.0991706 0.133534 0.292614
391 2 0.0865357 0.148769 0.277334
544 2 0.184302 0.154996 0.259826
249 4 0.235636 0.0973459 0.309641
403 2 0.224529 0.130605 0.29159
404 4 0.23953 0.110895 0.295008
405 4 0.209529 0.150315 0.288173
545 4 0.19825 0.163614 0.278703
29 3 0.326406 0.127687 0.248614
632 4 0.348742 0.0850213 0.312389
631 2 0.356499 0.105627 0.324238
333 4 0.436143 0.109442 0.268779
331 2 0.449629 0.129485 0.275229
332 4 0.463114 0.149528 0.281679
350 4 0.434714 0.0895922 0.272682
762 4 0.479171 0.158178 0.272165
444 4 0.031456 0.249158 0.323839
706 2 0.297723 0.171979 0.295373
708 4 0.280032 0.170382 0.277776
707 4 0.315413 0.173575 0.312971
520 2 0.480871 0.242254 0.264314
418 2 0.432927 0.224771 0.308838
419 4 0.425794 0.201134 0.312787
761 4 0.491551 0.191313 0.307512
760 2 0.485361 0.174745 0.289838
365 4 0.998377 0.290468 0.278583
2493 4 0.00225663 0.300634 0.296871
442 2 0.0223636 0.266009 0.307759
443 4 0.0132712 0.28286 0.29168
748 2 0.0673052 0.27342 0.26571
749 4 0.0871382 0.274307 0.28091
401 4 0.165556 0.255854 0.311915
389 4 0.139053 0.26178 0.333375
345 4 0.242575 0.256771 0.268184
400 2 0.178405 0.266363 0.330614
497 4 0.321378 0.32261 0.27533
496 2 0.331955 0.3038 0.287958
498 4 0.342531 0.284989 0.300586
613 2 0.384484 0.307799 0.326351
614 4 0.379328 0.325318 0.309274
521 4 0.463359 0.260095 0.26387
543 4 0.436043 0.266769 0.297532
420 4 0.440059 0.248408 0.304889
541 2 0.443924 0.289525 0.290805
542 4 0.451804 0.312281 0.284078
602 4 0.0657332 0.390024 0.284387
601 2 0.0740029 0.412944 0.289998
299 4 0.124655 0.344119 0.25142
734 4 0.13025 0.356384 0.266493
733 2 0.141891 0.36098 0.288139
735 4 0.153532 0.365576 0.309785
677 4 0.15756 0.380681 0.323052
509 4 0.219152 0.397559 0.328494
508 2 0.237223 0.380298 0.327681
510 4 0.255294 0.363036 0.326868
437 4 0.281624 0.392528 0.285947
727 2 0.332245 0.400931 0.26067
436 2 0.273014 0.415201 0.292026
433 2 0.338351 0.402021 0.326254
434 4 0.334466 0.391239 0.304032
728 4 0.336662 0.395341 0.284637
445 2 0.442969 0.400309 0.269245
446 4 0.439184 0.40717 0.292989
713 4 0.4316 0.417562 0.308759
603 4 0.0822725 0.435863 0.295609
549 4 0.0779469 0.471426 0.329925
777 4 0.0765245 0.487559 0.316853
1757 4 0.104195 0.480236 0.275722
775 2 0.0973261 0.500911 0.320622
414 4 0.157392 0.464575 0.299611
412 2 0.160382 0.482028 0.317264
1436 4 0.265029 0.49605 0.322639
438 4 0.264404 0.437875 0.298106
229 2 0.396397 0.483553 0.261705
1803 4 0.35795 0.469463 0.299974
594 4 0.386216 0.484792 0.335453
1801 2 0.341056 0.480695 0.285358
712 2 0.441792 0.440391 0.308416
714 4 0.451984 0.46322 0.308073
318 4 0.0442805 0.0672425 0.337809
316 2 0.0659242 0.0563397 0.343962
317 4 0.087568 0.0454369 0.350115
428 4 0.0846313 0.0246814 0.343372
427 2 0.0821869 0.000904489 0.350711
1701 4 0.203175 0.0382645 0.328856
606 4 0.200304 0.0494141 0.391849
604 2 0.207225 0.0490981 0.367825
605 4 0.214146 0.0487821 0.3438
439 2 0.271298 0.0112643 0.400854
441 4 0.272777 0.0355966 0.395293
256 2 0.407121 0.0572854 0.359397
257 4 0.389642 0.054628 0.341717
258 4 0.424601 0.0599429 0.377078
398 4 0.0565858 0.125146 0.330302
397 2 0.0792959 0.119812 0.3393
399 4 0.102006 0.114477 0.348299
731 4 0.161847 0.0845099 0.340299
732 4 0.119031 0.106135 0.354435
730 2 0.140439 0.0953226 0.347367
686 4 0.165939 0.139391 0.391079
685 2 0.17147 0.118132 0.403022
598 2 0.187673 0.154166 0.358282
599 4 0.169172 0.143459 0.371253
600 4 0.206174 0.164874 0.345311
683 4 0.303344 0.105023 0.388209
682 2 0.299122 0.113594 0.411315
633 4 0.364257 0.126233 0.336088
451 2 0.471574 0.140268 0.382876
453 4 0.451065 0.12726 0.376927
515 4 0.433349 0.120963 0.385988
514 2 0.423739 0.131242 0.406656
2655 4 0.00606453 0.16212 0.366835
2653 2 0.0264816 0.174247 0.359007
2654 4 0.0468987 0.186373 0.351179
474 4 0.228474 0.204027 0.366233
274 2 0.206231 0.230456 0.390389
276 4 0.213808 0.215642 0.371726
472 2 0.249166 0.211184 0.354159
275 4 0.198654 0.24527 0.409052
473 4 0.269858 0.218341 0.342084
487 2 0.282459 0.24386 0.411331
305 4 0.469108 0.184779 0.404372
304 2 0.482519 0.205882 0.404362
306 4 0.495931 0.226984 0.404351
618 4 0.0652121 0.320173 0.37842
347 4 0.0585109 0.302016 0.385746
346 2 0.0487142 0.295993 0.407948
616 2 0.0844715 0.308244 0.36784
390 4 0.0970471 0.277453 0.355524
388 2 0.11805 0.269617 0.34445
375 4 0.166958 0.301018 0.378602
617 4 0.103731 0.296314 0.357259
373 2 0.166929 0.31439 0.399729
402 4 0.191254 0.276871 0.349312
489 4 0.273054 0.259004 0.393799
376 2 0.294338 0.289685 0.352874
377 4 0.31659 0.284417 0.362988
378 4 0.272087 0.294953 0.342759
615 4 0.389641 0.290279 0.343429
716 4 0.371876 0.283638 0.351406
715 2 0.364425 0.271351 0.371869
717 4 0.356975 0.259065 0.392331
267 4 0.352029 0.264451 0.411205
406 2 0.0650771 0.395993 0.377146
408 4 0.0658804 0.376092 0.392261
407 4 0.0642737 0.415894 0.362031
676 2 0.17098 0.376012 0.343625
678 4 0.1844 0.371344 0.364199
503 4 0.242363 0.361164 0.414857
336 4 0.356997 0.338796 0.396922
753 4 0.391862 0.404984 0.322623
751 2 0.413356 0.39787 0.333233
2925 4 0.482251 0.333093 0.376649
561 4 0.43373 0.390275 0.365345
752 4 0.43485 0.390755 0.343843
559 2 0.439183 0.387688 0.38961
548 4 0.0593594 0.434945 0.358637
547 2 0.0686531 0.453185 0.344281
680 4 0.045307 0.456081 0.397794
499 2 0.122438 0.485257 0.387908
501 4 0.1321 0.464322 0.378237
500 4 0.112775 0.506192 0.39758
413 4 0.163373 0.499481 0.334917
435 4 0.342236 0.412803 0.348476
4 3 0.310427 0.463841 0.358778
1 1 0.328124 0.478625 0.361352
2 3 0.330412 0.48367 0.383679
5 3 0.324014 0.497767 0.349719
592 2 0.409171 0.488263 0.344738
3 3 0.347773 0.468848 0.35382
2236 2 0.0451819 0.999734 0.494013
720 4 0.0353475 0.0631125 0.48326
718 2 0.0459676 0.0857481 0.483121
367 2 0.116376 0.0523931 0.450771
369 4 0.136325 0.0665884 0.455842
368 4 0.0964267 0.0381979 0.445701
341 4 0.179816 0.0443612 0.497783
1181 4 0.26005 0.0490831 0.489942
1180 2 0.264154 0.0733086 0.48531
432 4 0.299758 0.0675499 0.488122
726 4 0.330387 0.00556147 0.431794
724 2 0.338187 0.0291881 0.434269
725 4 0.345987 0.0528147 0.436744
426 4 0.373433 0.0104479 0.426231
424 2 0.394128 0.0235173 0.431336
425 4 0.414824 0.0365868 0.436441
457 2 0.0024075 0.149527 0.431061
719 4 0.0565878 0.108384 0.482982
687 4 0.177001 0.0968734 0.414965
1151 4 0.177819 0.15618 0.476769
1150 2 0.17857 0.132065 0.483335
321 4 0.24442 0.138292 0.462277
466 2 0.328161 0.169872 0.433649
467 4 0.331118 0.146951 0.424108
684 4 0.2949 0.122166 0.434421
320 4 0.291768 0.137306 0.446218
319 2 0.268094 0.137799 0.454248
1182 4 0.268258 0.097534 0.480677
575 4 0.409348 0.156133 0.440953
516 4 0.414129 0.14152 0.427325
642 4 0.502965 0.116777 0.479237
459 4 0.0260734 0.15713 0.428362
470 4 0.0272644 0.16281 0.507339
260 4 0.0842837 0.184987 0.42088
261 4 0.111865 0.200537 0.459586
259 2 0.0980744 0.192762 0.440233
1035 4 0.103616 0.207816 0.478196
1033 2 0.114033 0.191415 0.493934
695 4 0.101248 0.219083 0.460242
694 2 0.104107 0.243258 0.465947
488 4 0.291863 0.228715 0.428864
411 4 0.292546 0.20208 0.495259
409 2 0.306558 0.205407 0.47482
410 4 0.32057 0.208735 0.454381
468 4 0.325203 0.192794 0.443191
266 4 0.385799 0.250545 0.445365
574 2 0.429867 0.167519 0.449584
576 4 0.450386 0.178906 0.458215
348 4 0.0389175 0.289971 0.43015
326 4 0.0814102 0.313761 0.500169
327 4 0.0991467 0.284715 0.46353
696 4 0.106965 0.267434 0.471651
325 2 0.0902785 0.299238 0.48185
651 4 0.238313 0.298877 0.456754
374 4 0.166899 0.327762 0.420857
649 2 0.255596 0.312891 0.445349
650 4 0.27288 0.326904 0.433943
265 2 0.368914 0.257498 0.428285
812 4 0.363139 0.296694 0.499783
583 2 0.464427 0.26499 0.481397
584 4 0.480574 0.274969 0.465122
585 4 0.448281 0.255012 0.497673
2813 4 0.00300015 0.386341 0.443665
935 4 0.00607442 0.409658 0.507066
10 3 0.136846 0.351772 0.477594
502 2 0.225863 0.366922 0.432739
772 2 0.240925 0.414227 0.476601
504 4 0.209363 0.372681 0.450621
709 2 0.176956 0.401311 0.454374
710 4 0.191374 0.382288 0.44693
773 4 0.249171 0.391599 0.483322
334 2 0.355134 0.350514 0.418931
238 2 0.384684 0.367299 0.465924
240 4 0.361539 0.370575 0.457051
335 4 0.353271 0.362233 0.44094
239 4 0.40783 0.364024 0.474797
560 4 0.444636 0.385101 0.413874
681 4 0.0510905 0.434486 0.442526
679 2 0.0481988 0.445283 0.42016
383 4 0.0623922 0.419823 0.44846
539 4 0.056543 0.463941 0.473241
538 2 0.0712939 0.468013 0.493015
382 2 0.085191 0.425636 0.456923
570 4 0.134663 0.488664 0.451782
568 2 0.119784 0.470606 0.460597
384 4 0.10799 0.431449 0.465385
569 4 0.104904 0.452548 0.469412
711 4 0.162537 0.420333 0.461818
636 4 0.219072 0.485512 0.423228
634 2 0.224303 0.468962 0.441225
635 4 0.229534 0.452412 0.459223
774 4 0.23268 0.436854 0.469879
669 4 0.32105 0.458895 0.448964
1556 4 0.274749 0.504567 0.438351
668 4 0.364343 0.438031 0.43514
588 4 0.406717 0.432904 0.462153
587 4 0.426823 0.456239 0.422758
586 2 0.41677 0.444572 0.442455
1453 2 0.351887 0.4987 0.486209
667 2 0.342697 0.448463 0.442052
1454 4 0.357437 0.474842 0.491229
663 4 0.471875 0.470191 0.487661
1126 2 0.0205036 0.0259311 0.536772
1127 4 0.0380909 0.0129491 0.524634
1128 4 0.00291633 0.0389132 0.54891
2238 4 0.0289221 0.0131445 0.507465
2428 2 0.17027 0.013588 0.511481
340 2 0.178707 0.0691985 0.500441
2430 4 0.183573 0.0344727 0.514952
961 2 0.271205 0.0219114 0.515116
962 4 0.285178 0.00278046 0.523113
430 2 0.318333 0.0696302 0.50473
963 4 0.257233 0.0410424 0.507119
1217 4 0.408633 0.0524021 0.526755
1216 2 0.41321 0.0447599 0.550118
841 2 0.373124 0.0707378 0.52227
842 4 0.394913 0.0607356 0.515172
431 4 0.336908 0.0717105 0.521338
1218 4 0.417786 0.0371177 0.573481
1062 4 0.487158 0.0424707 0.530547
471 4 0.0363951 0.181258 0.552913
938 4 0.109909 0.164051 0.51719
937 2 0.106734 0.139768 0.512147
939 4 0.103558 0.115485 0.507103
1155 4 0.146153 0.139277 0.590872
1153 2 0.161162 0.156895 0.581412
1031 4 0.230306 0.0848249 0.574613
342 4 0.177598 0.0940357 0.503098
1152 4 0.179321 0.107951 0.4899
1030 2 0.255047 0.0877645 0.576726
1032 4 0.279787 0.0907041 0.578838
899 4 0.329775 0.152153 0.524483
843 4 0.351336 0.0807399 0.529369
877 2 0.0782444 0.235308 0.54002
878 4 0.0693587 0.241207 0.517406
469 2 0.0318298 0.172034 0.530126
1272 4 0.0977215 0.211887 0.563442
879 4 0.0871302 0.22941 0.562635
1034 4 0.124449 0.175014 0.509673
1270 2 0.107025 0.201461 0.584177
857 4 0.236556 0.226459 0.512899
1154 4 0.176172 0.174513 0.571951
898 2 0.322842 0.171642 0.538529
858 4 0.265807 0.215352 0.551908
856 2 0.251182 0.220906 0.532403
900 4 0.315909 0.191131 0.552575
983 4 0.0628864 0.317977 0.578327
1258 2 0.135575 0.306237 0.538285
1260 4 0.125164 0.302174 0.560652
9 3 0.140171 0.326223 0.505051
1259 4 0.145986 0.310301 0.515918
791 4 0.298434 0.26987 0.547623
790 2 0.292312 0.277721 0.570559
804 4 0.302944 0.329131 0.535367
813 4 0.377515 0.303015 0.54726
811 2 0.370327 0.299855 0.523522
872 4 0.443365 0.24806 0.516237
3065 4 0.488669 0.260602 0.513639
873 4 0.438898 0.28549 0.549097
871 2 0.441132 0.266775 0.532667
953 4 0.458927 0.307112 0.568266
952 2 0.463614 0.285891 0.58063
7 3 0.114697 0.353744 0.507568
8 3 0.151188 0.362135 0.51083
1137 4 0.12321 0.361507 0.590176
6 1 0.135806 0.348469 0.500103
1189 2 0.222914 0.355633 0.55453
1190 4 0.240072 0.341889 0.542619
1191 4 0.205755 0.369376 0.566441
896 4 0.201654 0.388705 0.570911
895 2 0.185164 0.395403 0.588473
802 2 0.279754 0.332793 0.543969
803 4 0.256564 0.336455 0.552572
929 4 0.384171 0.351765 0.554515
928 2 0.37203 0.358255 0.575388
925 2 0.454491 0.405525 0.542641
926 4 0.455458 0.396928 0.519182
927 4 0.453524 0.414121 0.566101
1011 4 0.505792 0.339403 0.552273
3307 2 0.502594 0.376418 0.532315
3308 4 0.498194 0.357696 0.548293
934 2 0.988968 0.42293 0.519573
540 4 0.0860448 0.472085 0.512789
1160 4 0.155166 0.436554 0.562334
1161 4 0.177803 0.470171 0.53304
1159 2 0.166484 0.453363 0.547687
1173 4 0.24231 0.46269 0.595309
1171 2 0.257717 0.447125 0.583244
1172 4 0.273124 0.43156 0.57118
882 4 0.354716 0.433134 0.555927
880 2 0.371521 0.450767 0.550282
881 4 0.388325 0.4684 0.544638
662 4 0.452152 0.497175 0.524857
1910 4 0.441449 0.48542 0.537176
1909 2 0.433518 0.48763 0.560785
661 2 0.462013 0.483683 0.506259
1001 4 0.442509 0.425963 0.576857
1185 4 0.0251409 0.0319193 0.619127
1183 2 0.0218127 0.0333196 0.643868
944 4 0.0540762 0.0814999 0.667502
943 2 0.0671072 0.0601685 0.666917
825 4 0.149212 0.0425846 0.641506
823 2 0.159822 0.0204065 0.636953
951 4 0.259724 0.0346183 0.611423
949 2 0.262976 0.0215003 0.590387
808 2 0.457538 0.0832454 0.621098
810 4 0.438885 0.0702758 0.631541
1082 4 0.0559188 0.0926882 0.649397
1083 4 0.0708832 0.11012 0.60498
1081 2 0.063401 0.101404 0.627189
1059 4 0.158995 0.0902987 0.615169
1058 4 0.136902 0.123765 0.585292
1057 2 0.147948 0.107032 0.60023
909 4 0.157472 0.170811 0.651614
907 2 0.168482 0.158713 0.670524
1284 4 0.174952 0.0981956 0.623178
1283 4 0.223571 0.0909036 0.614026
1282 2 0.199262 0.0945496 0.618602
809 4 0.476191 0.0962151 0.610656
1245 4 0.0660554 0.247401 0.64176
1209 4 0.0762851 0.249409 0.659654
1271 4 0.116328 0.191036 0.604912
1221 4 0.18151 0.179938 0.591427
1210 2 0.246457 0.184659 0.65456
1212 4 0.231237 0.190555 0.635618
1219 2 0.200276 0.188194 0.60574
1220 4 0.219042 0.19645 0.620052
796 2 0.221415 0.244623 0.610046
798 4 0.217458 0.238021 0.633835
904 2 0.467088 0.23226 0.605661
906 4 0.45571 0.216401 0.621287
1024 2 0.434954 0.195554 0.653774
1025 4 0.442897 0.206895 0.632954
905 4 0.478466 0.24812 0.590034
1243 2 0.0438813 0.258686 0.639283
1244 4 0.0217072 0.269971 0.636805
1207 2 0.0948154 0.260209 0.672506
797 4 0.225373 0.251225 0.586256
946 2 0.184247 0.275155 0.635314
947 4 0.17176 0.256251 0.645892
948 4 0.196735 0.294058 0.624736
792 4 0.286189 0.285571 0.593495
1238 4 0.285288 0.285974 0.612647
1237 2 0.301871 0.293715 0.629684
1239 4 0.318454 0.301456 0.64672
954 4 0.468301 0.26467 0.592993
3123 4 0.476576 0.280078 0.665744
982 2 0.0504461 0.338043 0.586561
984 4 0.0380058 0.358108 0.594794
1040 4 0.0828465 0.370003 0.641949
1039 2 0.0586504 0.365764 0.637284
1041 4 0.0344543 0.361526 0.632619
1136 4 0.0798946 0.34723 0.610687
993 4 0.102416 0.36501 0.644427
1135 2 0.101552 0.354369 0.600431
991 2 0.115572 0.385631 0.64961
992 4 0.128728 0.406253 0.654793
897 4 0.168674 0.402101 0.606034
1029 4 0.244158 0.383198 0.659247
1002 4 0.405899 0.404039 0.602928
930 4 0.359889 0.364745 0.59626
1206 4 0.406121 0.423289 0.644088
1000 2 0.424204 0.415001 0.589892
1953 4 0.293477 0.502372 0.59773
889 2 0.310242 0.417138 0.590387
891 4 0.291019 0.42232 0.57526
890 4 0.329465 0.411957 0.605513
1911 4 0.425588 0.48984 0.584394
945 4 0.0801382 0.0388371 0.666332
1184 4 0.0184846 0.03472 0.66861
1147 2 0.21598 0.0655986 0.743544
2256 4 0.189973 0.0197538 0.692833
2281 2 0.400957 0.00289987 0.675482
45 3 0.406472 0.0805014 0.702583
1004 4 0.348839 0.086202 0.69678
2283 4 0.413533 0.0240385 0.670991
43 3 0.429637 0.0738825 0.731518
1076 4 0.0463431 0.102298 0.665847
864 4 0.0266967 0.135296 0.714192
1075 2 0.0318156 0.113556 0.6828
1077 4 0.0172882 0.124814 0.699753
862 2 0.0264315 0.138349 0.739007
1130 4 0.164353 0.150704 0.734092
908 4 0.179491 0.146615 0.689435
1148 4 0.214475 0.0799111 0.723097
1225 2 0.198821 0.113071 0.706825
1226 4 0.212603 0.0989894 0.722218
1227 4 0.185039 0.127152 0.691432
1005 4 0.310356 0.114896 0.710797
1003 2 0.329598 0.100549 0.703789
887 4 0.328024 0.167692 0.68163
829 2 0.348872 0.155849 0.70869
831 4 0.348385 0.147364 0.732205
830 4 0.349359 0.164333 0.685175
42 3 0.442497 0.0731209 0.696209
41 1 0.427645 0.0834036 0.710451
44 3 0.432678 0.106032 0.711477
1142 4 0.43155 0.117104 0.694183
1141 2 0.433012 0.141353 0.688266
3426 4 0.476596 0.119651 0.677005
1143 4 0.434474 0.165602 0.682348
851 4 0.0711264 0.182523 0.695401
852 4 0.0419759 0.217635 0.674953
850 2 0.0565511 0.200079 0.685177
1213 2 0.0125736 0.199708 0.743142
1214 4 0.036898 0.194 0.744105
1107 4 0.0872073 0.185038 0.707499
1178 4 0.0224607 0.220242 0.706572
1105 2 0.0800064 0.183397 0.731387
1177 2 0.00910178 0.241158 0.703533
1129 2 0.169743 0.174727 0.738453
1131 4 0.175133 0.19875 0.742814
1277 4 0.184919 0.21503 0.747804
1276 2 0.201246 0.233966 0.747987
1211 4 0.261677 0.178762 0.673501
978 4 0.27408 0.182167 0.726551
886 2 0.304608 0.17519 0.677089
888 4 0.281191 0.182688 0.672548
976 2 0.284348 0.20061 0.739951
1193 4 0.372756 0.22258 0.678753
1192 2 0.357564 0.20275 0.677674
1194 4 0.342371 0.182921 0.676595
1026 4 0.42701 0.184214 0.674594
1261 2 0.434274 0.201024 0.711773
1263 4 0.430924 0.181857 0.69607
1262 4 0.437624 0.220191 0.727476
1179 4 0.995743 0.262074 0.700493
1208 4 0.113346 0.271009 0.685358
822 4 0.137197 0.298807 0.725305
820 2 0.148992 0.279228 0.715169
821 4 0.160787 0.25965 0.705033
1065 4 0.224761 0.31134 0.689811
1063 2 0.242682 0.326516 0.698396
807 4 0.323208 0.322842 0.697781
805 2 0.30136 0.334402 0.701553
1019 4 0.377354 0.326408 0.711967
3121 2 0.491216 0.271512 0.684114
3274 2 0.00693628 0.395215 0.71834
3276 4 0.0305943 0.393283 0.710482
892 2 0.0648191 0.389029 0.737105
894 4 0.0430492 0.391087 0.72498
940 2 0.127266 0.37408 0.73597
1067 4 0.161549 0.374623 0.720969
941 4 0.146954 0.362138 0.726227
1028 4 0.206968 0.406476 0.683243
1066 2 0.181058 0.382702 0.707579
1068 4 0.200566 0.390782 0.694189
1027 2 0.225563 0.394837 0.671245
806 4 0.279512 0.345961 0.705326
1064 4 0.260603 0.341692 0.706981
1204 2 0.411801 0.411483 0.665385
1205 4 0.417482 0.399678 0.686681
1018 2 0.370993 0.349561 0.718942
1020 4 0.364633 0.372714 0.725918
1101 4 0.454292 0.413542 0.748275
1981 2 0.0127574 0.468716 0.723134
1281 4 0.0626153 0.429139 0.681177
1280 4 0.0546513 0.459897 0.719793
1279 2 0.0586333 0.444518 0.700485
1983 4 0.997157 0.484019 0.710984
1982 4 0.0283582 0.453413 0.735284
1174 2 0.203235 0.490781 0.687013
1176 4 0.184987 0.485097 0.703134
2016 4 0.173096 0.497839 0.714391
1989 4 0.314687 0.489383 0.697666
1139 4 0.29716 0.43055 0.729226
1138 2 0.28992 0.432569 0.705379
1140 4 0.282679 0.434588 0.681532
1987 2 0.321652 0.487349 0.721593
1988 4 0.328617 0.485315 0.745521
1228 2 0.389596 0.457903 0.729043
1230 4 0.399039 0.434751 0.728968
1229 4 0.380153 0.481054 0.729119
1268 4 0.445516 0.479853 0.682178
1267 2 0.43998 0.455674 0.685327
1269 4 0.434443 0.431495 0.688476
1100 4 0.429277 0.428744 0.707731
1099 2 0.441784 0.421143 0.728003
1251 4 0.503702 0.46712 0.742088
1295 4 0.016857 0.0648549 0.810678
1294 2 0.0248063 0.042903 0.819628
1296 4 0.0327555 0.0209511 0.828578
1203 4 0.0976914 0.0636569 0.800939
1201 2 0.0976255 0.0428047 0.787142
1202 4 0.0975595 0.0219524 0.773345
2049 4 0.115672 0.0166269 0.76578
911 4 0.102564 0.0595052 0.819738
1149 4 0.217485 0.051286 0.76399
2399 4 0.294139 0.0063503 0.763092
1255 2 0.306745 0.0774089 0.799883
1257 4 0.322954 0.0610259 0.790186
1049 4 0.311423 0.00640333 0.754103
1048 2 0.318548 0.0236235 0.770773
973 2 0.339525 0.0129087 0.832848
1050 4 0.325672 0.0408438 0.787442
1112 4 0.405974 0.0692591 0.786301
974 4 0.326319 0.0182351 0.812295
1111 2 0.425543 0.0538186 0.788263
1113 4 0.445111 0.0383782 0.790225
844 2 0.478702 0.0654962 0.78007
845 4 0.459182 0.0524817 0.788717
980 4 0.428824 0.0130957 0.826093
863 4 0.0261663 0.141401 0.763823
833 4 0.0187837 0.140729 0.781142
34 3 0.0920144 0.133795 0.815435
31 1 0.106985 0.145567 0.80218
32 3 0.102729 0.140763 0.78009
35 3 0.128326 0.139415 0.807217
33 3 0.104315 0.168369 0.805547
1256 4 0.290535 0.0937918 0.80958
839 4 0.298615 0.152002 0.780048
838 2 0.278345 0.143128 0.791691
840 4 0.258075 0.134253 0.803333
1084 2 0.357334 0.127756 0.763631
1085 4 0.370951 0.110481 0.775521