ITEM: TIMESTEP
3020000
ITEM: NUMBER OF ATOMS
4590
ITEM: BOX BOUNDS pp pp pp
-9.9985700000000008e+00 9.9985700000000008e+00
-9.9985700000000008e+00 9.9985700000000008e+00
-9.9985700000000008e+00 9.9985700000000008e+00
ITEM: ATOMS id type xs ys zs
1666 2 0.0639935 0.0281935 0.0516279
1667 4 0.0581233 0.0524913 0.0522053
1668 4 0.0698638 0.00389561 0.0510506
702 4 0.066642 0.0682367 0.0637811
591 4 0.0500463 0.0724126 0.0511048
3134 4 0.0356496 0.075119 0.00107661
532 2 0.154069 0.0517904 0.0347738
533 4 0.146939 0.0367229 0.0534099
1475 4 0.19461 0.0469277 0.0909995
1474 2 0.186473 0.0255775 0.0808435
421 2 0.181338 0.0915102 0.00647223
423 4 0.164513 0.075315 0.997538
490 2 0.2888 0.074513 0.0548465
492 4 0.298981 0.0518113 0.0523651
296 4 0.467133 0.0842806 0.0784081
295 2 0.448147 0.0680655 0.0770689
589 2 0.0347415 0.0916316 0.0464604
590 4 0.0194367 0.110851 0.041816
3232 2 0.0310734 0.151136 0.0218966
3233 4 0.0268888 0.128827 0.0323842
700 2 0.0865551 0.0817773 0.0705114
1248 4 0.00585256 0.125948 0.0352576
236 4 0.0983699 0.110604 0.08976
450 4 0.161097 0.0980671 0.0755087
237 4 0.0932334 0.160322 0.0881781
235 2 0.0958017 0.135463 0.0889691
422 4 0.198163 0.107705 0.0154063
652 2 0.240618 0.104123 0.0542327
654 4 0.217324 0.0995617 0.062092
491 4 0.278619 0.0972147 0.057328
653 4 0.263912 0.108684 0.0463734
565 2 0.288613 0.129767 0.0378557
566 4 0.298074 0.14094 0.0175863
567 4 0.279152 0.118595 0.0581251
359 4 0.288478 0.127407 0.00586462
556 2 0.389405 0.149539 0.0577045
557 4 0.407101 0.140995 0.0731652
558 4 0.37171 0.158084 0.0422437
666 4 0.357173 0.170401 0.0319255
664 2 0.34462 0.158578 0.01382
3234 4 0.0352579 0.173445 0.0114091
555 4 0.047485 0.184267 0.999334
571 2 0.375346 0.201546 0.0303259
572 4 0.374044 0.179302 0.0416696
573 4 0.376649 0.22379 0.0189823
1071 4 0.381677 0.227757 0.999605
324 4 0.407907 0.218098 0.0638054
623 4 0.398927 0.230914 0.0752756
1069 2 0.38139 0.251275 0.00809186
322 2 0.429458 0.222601 0.0519543
771 4 0.459879 0.246411 0.0395288
518 4 0.468961 0.230969 0.051108
517 2 0.486679 0.233772 0.0685261
323 4 0.451009 0.227104 0.0401032
914 4 0.138554 0.27235 0.999407
505 2 0.157713 0.298848 0.00644588
506 4 0.151853 0.282553 0.98841
293 4 0.15204 0.33065 0.034151
507 4 0.163574 0.315144 0.0244814
482 4 0.259131 0.327785 0.0813648
955 2 0.420033 0.28046 0.0318634
957 4 0.399675 0.272221 0.0199123
1070 4 0.381104 0.274792 0.0165788
769 2 0.470399 0.25214 0.0175814
956 4 0.440392 0.288698 0.0438144
282 4 0.448493 0.292774 0.0615267
280 2 0.457386 0.314924 0.0689756
1056 4 0.0221359 0.339975 0.0351802
1168 2 0.0294288 0.378993 0.0168211
1170 4 0.0268533 0.354554 0.0214365
292 2 0.135436 0.33206 0.0527917
456 4 0.10315 0.345441 0.0761731
294 4 0.118831 0.333469 0.0714325
288 4 0.173005 0.329203 0.0374304
481 2 0.250585 0.330371 0.0580099
286 2 0.197764 0.330843 0.0343495
287 4 0.222523 0.332483 0.0312685
483 4 0.242039 0.332957 0.0346551
608 4 0.304583 0.407525 0.0591127
281 4 0.466278 0.337074 0.0764245
494 4 0.458265 0.342448 0.0954873
551 4 0.0330086 0.425155 0.0151414
550 2 0.0283182 0.433634 0.0381912
552 4 0.0236279 0.442112 0.0612409
315 4 0.024691 0.462509 0.0693466
313 2 0.0454432 0.473871 0.0774358
620 4 0.00779891 0.450504 0.0748017
314 4 0.0661953 0.485233 0.085525
1786 2 0.108259 0.479241 0.085597
1788 4 0.131017 0.474074 0.0766234
241 2 0.236366 0.480812 0.0524957
242 4 0.22502 0.485346 0.0306812
243 4 0.247713 0.476277 0.0743102
39 3 0.319988 0.411788 0.00601337
626 4 0.289053 0.421206 0.0616879
627 4 0.264269 0.462481 0.0752084
625 2 0.276661 0.441844 0.0684481
245 4 0.338499 0.480788 0.053157
244 2 0.335039 0.465032 0.0340532
246 4 0.331578 0.449276 0.0149494
2388 4 0.419885 0.50869 0.0267103
16 1 0.0106202 0.0821611 0.137491
2481 4 0.0198339 0.0423844 0.140365
19 3 0.0292335 0.0958256 0.135204
1785 4 0.3501 0.0419992 0.15271
297 4 0.429162 0.0518504 0.0757298
701 4 0.106468 0.0953178 0.0772418
448 2 0.138365 0.0989261 0.0858856
449 4 0.115632 0.0997851 0.0962626
477 4 0.0967848 0.179945 0.0890117
476 4 0.0882757 0.212549 0.125962
339 4 0.100289 0.227741 0.119143
475 2 0.0925302 0.196247 0.107487
337 2 0.10545 0.250671 0.127675
738 4 0.194197 0.244728 0.151504
461 4 0.288773 0.216332 0.102176
354 4 0.27647 0.224129 0.115949
460 2 0.312865 0.22088 0.107082
352 2 0.263562 0.243507 0.125062
462 4 0.336957 0.225428 0.111989
255 4 0.346762 0.21446 0.0996244
254 4 0.38582 0.216703 0.130772
253 2 0.366291 0.215582 0.115198
630 4 0.384187 0.204279 0.146787
28 3 0.356996 0.200304 0.160436
628 2 0.408143 0.208434 0.15262
629 4 0.432099 0.212588 0.158453
338 4 0.110612 0.2736 0.136206
363 4 0.12179 0.290012 0.142378
361 2 0.135201 0.298132 0.161856
537 4 0.113006 0.332835 0.142306
736 2 0.212688 0.257785 0.140885
737 4 0.231179 0.270843 0.130266
755 4 0.248217 0.279411 0.120989
252 4 0.260718 0.336974 0.100519
756 4 0.269904 0.317578 0.097037
754 2 0.259061 0.298495 0.109013
353 4 0.250653 0.262885 0.134175
622 2 0.402644 0.249539 0.0915386
624 4 0.406361 0.268163 0.107802
741 4 0.395492 0.284209 0.103071
739 2 0.378862 0.297591 0.116093
740 4 0.362233 0.310972 0.129115
454 2 0.109541 0.342436 0.100159
455 4 0.115931 0.33943 0.124144
535 2 0.108267 0.349822 0.160031
607 2 0.312711 0.390971 0.0759966
250 2 0.281849 0.349968 0.0973835
251 4 0.30298 0.362961 0.0942485
609 4 0.320839 0.374417 0.0928806
387 4 0.319469 0.358642 0.107011
385 2 0.33768 0.342336 0.112267
386 4 0.355892 0.326029 0.117522
11 1 0.40458 0.370785 0.155199
13 3 0.400169 0.393479 0.157187
14 3 0.40391 0.364512 0.132869
671 4 0.479382 0.345802 0.0910849
670 2 0.499653 0.343513 0.105542
12 3 0.425615 0.366544 0.163487
495 4 0.416875 0.361967 0.115651
493 2 0.43757 0.352208 0.105569
595 2 0.465844 0.385458 0.149215
596 4 0.485911 0.399929 0.1456
597 4 0.445777 0.370987 0.152831
2652 4 0.476384 0.412043 0.132236
1691 4 0.0736621 0.503389 0.0947485
263 4 0.027099 0.472483 0.160151
1787 4 0.0855001 0.484407 0.0945706
1440 4 0.261414 0.476343 0.0914897
1438 2 0.262699 0.489693 0.112592
1439 4 0.263984 0.503042 0.133695
637 2 0.282284 0.493923 0.162922
525 4 0.342065 0.463066 0.133183
523 2 0.346415 0.483308 0.147203
659 4 0.346416 0.451184 0.148292
658 2 0.349791 0.427783 0.156427
693 4 0.162562 0.0780776 0.22515
688 2 0.13176 0.0715 0.251061
689 4 0.115622 0.0577873 0.264353
1700 4 0.202109 0.0331039 0.234099
21 1 0.313042 0.0605005 0.232349
23 3 0.294689 0.0486281 0.224565
22 3 0.322542 0.0489071 0.249799
25 3 0.328388 0.0628862 0.215692
1783 2 0.346312 0.0495977 0.176228
1784 4 0.342524 0.0571961 0.199746
759 4 0.350207 0.0587611 0.221202
757 2 0.372988 0.0671067 0.227249
758 4 0.395769 0.0754524 0.233295
744 4 0.415632 0.0828382 0.230532
312 4 0.403227 0.0778348 0.213431
1749 4 0.4579 0.00703045 0.213665
1747 2 0.465252 0.0147331 0.236288
310 2 0.421863 0.0756943 0.196899
311 4 0.440499 0.0735537 0.180367
511 2 0.00423809 0.138591 0.233673
512 4 0.00694458 0.130618 0.21013
690 4 0.147899 0.0852128 0.237768
691 2 0.168491 0.100352 0.215461
692 4 0.174419 0.122627 0.205773
723 4 0.176341 0.13938 0.218727
721 2 0.176518 0.149576 0.241556
24 3 0.306328 0.0813611 0.239976
581 4 0.327673 0.167948 0.194527
582 4 0.279264 0.168048 0.207067
580 2 0.303468 0.167998 0.200797
707 4 0.383584 0.125958 0.212418
706 2 0.377285 0.146636 0.199852
748 2 0.0387554 0.217679 0.199689
750 4 0.0442709 0.209156 0.222539
396 4 0.049205 0.217402 0.239197
749 4 0.0332399 0.226201 0.176839
285 4 0.277393 0.176521 0.225247
283 2 0.270949 0.199945 0.231162
30 3 0.331195 0.183122 0.181807
27 3 0.344674 0.216367 0.192103
708 4 0.370985 0.167314 0.187285
29 3 0.366611 0.185925 0.194277
26 1 0.349779 0.196282 0.182118
362 4 0.148612 0.306252 0.181335
372 4 0.153763 0.288799 0.188777
370 2 0.174267 0.292528 0.202592
371 4 0.194771 0.296257 0.216408
279 4 0.202729 0.294781 0.236564
612 4 0.215079 0.301288 0.220458
610 2 0.217016 0.32549 0.226432
765 4 0.402919 0.29669 0.250438
542 4 0.420683 0.296439 0.241776
541 2 0.433839 0.275182 0.242246
536 4 0.103528 0.366808 0.177756
603 4 0.131619 0.409214 0.260725
300 4 0.150059 0.401019 0.261542
417 4 0.236046 0.360683 0.237267
611 4 0.218953 0.349692 0.232406
415 2 0.24618 0.383274 0.233785
416 4 0.256314 0.405866 0.230303
436 2 0.30142 0.406381 0.238453
303 4 0.340475 0.394588 0.23078
437 4 0.277401 0.410575 0.232914
438 4 0.325439 0.402187 0.243992
301 2 0.346991 0.400786 0.20745
15 3 0.389279 0.358824 0.167093
302 4 0.353506 0.406984 0.184119
644 4 0.444992 0.373821 0.221565
643 2 0.445138 0.36765 0.197336
645 4 0.445283 0.36148 0.173106
447 4 0.431637 0.389687 0.218595
445 2 0.438047 0.404392 0.237775
647 4 0.0126092 0.483496 0.171296
262 2 0.0372726 0.457734 0.177591
1757 4 0.0451234 0.452255 0.212102
264 4 0.0474462 0.442986 0.195031
1756 2 0.048808 0.460941 0.235257
1467 4 0.0283334 0.493791 0.16083
601 2 0.125697 0.433489 0.26162
1436 4 0.262562 0.422767 0.242121
291 4 0.264746 0.42293 0.220458
638 4 0.282975 0.480818 0.184205
289 2 0.273343 0.44193 0.206664
290 4 0.28194 0.46093 0.19287
767 4 0.299341 0.472904 0.195488
766 2 0.31551 0.486413 0.208952
660 4 0.353166 0.404381 0.164561
768 4 0.331678 0.499922 0.222416
1574 4 0.338721 0.484401 0.233622
1573 2 0.35821 0.482748 0.249199
673 2 0.0763979 0.0636606 0.263653
674 4 0.0545197 0.0675829 0.275104
1799 4 0.132285 0.993962 0.261407
1404 4 0.127269 0.00132573 0.279134
675 4 0.0982761 0.0597382 0.252201
1403 4 0.103101 0.0402743 0.259143
1402 2 0.115185 0.0208 0.269138
1699 2 0.201238 0.0312395 0.259018
248 4 0.207897 0.0453529 0.295909
247 2 0.190337 0.0599153 0.306145
1701 4 0.200366 0.0293751 0.283937
605 4 0.219152 0.027136 0.294364
604 2 0.22472 0.013436 0.314526
249 4 0.172778 0.0744778 0.316382
1497 4 0.371634 0.00940139 0.278765
1496 4 0.338355 0.0343885 0.251037
699 4 0.3885 0.013237 0.291462
1495 2 0.354995 0.0218949 0.264901
697 2 0.389706 0.0309108 0.309107
351 4 0.399517 0.0677153 0.323482
698 4 0.390912 0.0485845 0.326753
1748 4 0.472605 0.0224357 0.258911
480 4 0.484154 0.0130686 0.272479
513 4 0.0015316 0.146565 0.257216
531 4 0.997966 0.117254 0.31693
579 4 0.018357 0.144881 0.270861
529 2 0.00145208 0.122741 0.292786
398 4 0.0110133 0.112514 0.33393
600 4 0.134039 0.148774 0.313851
545 4 0.151998 0.160882 0.315604
405 4 0.153392 0.139744 0.313139
403 2 0.162714 0.116549 0.313671
544 2 0.163142 0.1693 0.294865
598 2 0.120421 0.149696 0.3348
404 4 0.172035 0.0933539 0.314202
546 4 0.174287 0.177718 0.274126
349 2 0.402869 0.0857554 0.306496
742 2 0.415796 0.0969372 0.251181
333 4 0.396669 0.118518 0.27676
350 4 0.40622 0.103795 0.289511
743 4 0.415961 0.111036 0.27183
331 2 0.405028 0.141558 0.281706
332 4 0.413388 0.164598 0.286653
762 4 0.411962 0.165777 0.306729
394 2 0.049544 0.239488 0.250914
577 2 0.0321944 0.164272 0.278457
578 4 0.0460319 0.183663 0.286052
391 2 0.0737172 0.19138 0.301451
393 4 0.0652929 0.182695 0.27957
392 4 0.0821416 0.200066 0.323332
722 4 0.176696 0.159772 0.264386
343 2 0.24334 0.231654 0.268759
344 4 0.260429 0.217846 0.256822
284 4 0.264504 0.223368 0.237077
613 2 0.401962 0.236808 0.332449
614 4 0.418333 0.223264 0.319267
761 4 0.434867 0.209177 0.316343
760 2 0.423414 0.187477 0.311536
419 4 0.430101 0.224878 0.301603
418 2 0.43498 0.231093 0.27788
395 4 0.0498831 0.261574 0.26263
442 2 0.0116842 0.281633 0.25827
444 4 0.028935 0.26455 0.264249
277 2 0.209172 0.278116 0.254055
278 4 0.215615 0.26145 0.271546
345 4 0.226251 0.245462 0.280697
309 4 0.231714 0.265754 0.285809
307 2 0.24921 0.276596 0.300004
308 4 0.266706 0.287439 0.314199
497 4 0.256445 0.304342 0.323083
496 2 0.275278 0.320778 0.32248
509 4 0.255399 0.285478 0.332842
763 2 0.381532 0.308754 0.255152
764 4 0.360144 0.320818 0.259865
543 4 0.446995 0.253924 0.242716
521 4 0.460517 0.24307 0.255309
420 4 0.439859 0.237307 0.254158
520 2 0.485061 0.246376 0.25875
298 2 0.145567 0.379522 0.273496
734 4 0.137304 0.365421 0.302943
299 4 0.141075 0.358026 0.28545
733 2 0.145431 0.3502 0.321039
729 4 0.342962 0.392725 0.251919
498 4 0.29411 0.337215 0.321877
727 2 0.362876 0.398077 0.266061
751 2 0.411415 0.40506 0.310853
753 4 0.396597 0.413982 0.292798
728 4 0.38279 0.403428 0.280202
752 4 0.426234 0.396138 0.328909
561 4 0.425426 0.377443 0.335791
1758 4 0.0524925 0.469627 0.258412
412 2 0.109331 0.472351 0.297772
602 4 0.119775 0.457765 0.262514
414 4 0.124376 0.470587 0.277879
413 4 0.0942859 0.474114 0.317664
1435 2 0.246711 0.437826 0.254252
1437 4 0.230861 0.452885 0.266383
435 4 0.319224 0.453925 0.320612
4 3 0.315514 0.472964 0.315557
2 3 0.336498 0.489554 0.289154
1575 4 0.377699 0.481094 0.264775
5 3 0.344256 0.454583 0.299628
1803 4 0.378777 0.423896 0.286614
1802 4 0.391343 0.471673 0.278854
1801 2 0.38506 0.447785 0.282734
1689 4 0.398964 0.484194 0.262491
1 1 0.336946 0.474897 0.306877
3 3 0.351341 0.483167 0.323088
1687 2 0.419067 0.499033 0.263412
229 2 0.463638 0.492667 0.29478
446 4 0.444457 0.419098 0.256954
713 4 0.456337 0.433404 0.264379
231 4 0.474793 0.47533 0.308929
712 2 0.476957 0.444003 0.273742
714 4 0.497576 0.454602 0.283104
233 4 0.015929 0.053095 0.386378
318 4 0.0851922 0.0540811 0.38692
234 4 0.0656746 0.0578308 0.384464
232 2 0.0408018 0.0554629 0.385421
1464 4 0.113747 0.00633673 0.346505
316 2 0.0941982 0.04121 0.406372
725 4 0.328015 0.0157512 0.379258
633 4 0.326924 0.0247415 0.362487
632 4 0.287802 0.0557473 0.359516
631 2 0.307363 0.0402444 0.361002
682 2 0.268992 0.0739749 0.385296
683 4 0.273189 0.0694021 0.361075
684 4 0.264795 0.0785477 0.409517
257 4 0.406055 0.0570165 0.340685
256 2 0.414162 0.0525872 0.363919
425 4 0.428486 0.0359757 0.404061
258 4 0.422269 0.0481579 0.387154
452 4 0.4872 0.0617902 0.375211
451 2 0.465066 0.0549413 0.384611
453 4 0.442932 0.0480925 0.39401
515 4 0.427984 0.0574042 0.406163
514 2 0.425821 0.0803886 0.415767
2756 4 0.998856 0.129913 0.334081
397 2 0.0347284 0.111684 0.34181
399 4 0.0584436 0.110855 0.349689
732 4 0.0651704 0.114086 0.368167
730 2 0.0813949 0.132763 0.371785
599 4 0.106802 0.150619 0.355749
685 2 0.138499 0.158919 0.385702
686 4 0.117348 0.159166 0.37237
731 4 0.0976194 0.151441 0.375403
687 4 0.159651 0.158672 0.399034
1151 4 0.168739 0.151368 0.414219
467 4 0.259463 0.147419 0.403658
466 2 0.265422 0.165737 0.387717
320 4 0.266155 0.0900129 0.427354
319 2 0.263873 0.114846 0.425543
516 4 0.423658 0.103373 0.42537
574 2 0.439964 0.132358 0.404692
576 4 0.450986 0.14179 0.384327
305 4 0.456577 0.156522 0.372772
575 4 0.428941 0.122926 0.425057
2654 4 0.0782438 0.201787 0.342893
2653 2 0.0601912 0.209606 0.358324
2655 4 0.0421387 0.217426 0.373756
617 4 0.111129 0.218531 0.382762
388 2 0.122425 0.24076 0.352059
390 4 0.105073 0.227945 0.364703
616 2 0.104165 0.230751 0.403434
474 4 0.212716 0.209689 0.341014
274 2 0.179018 0.234859 0.349559
276 4 0.201231 0.223394 0.349004
472 2 0.23306 0.19931 0.351192
473 4 0.253403 0.188932 0.36137
409 2 0.283179 0.222363 0.372534
468 4 0.271381 0.184054 0.371775
410 4 0.268563 0.203917 0.36409
411 4 0.297795 0.240809 0.380977
716 4 0.374996 0.249305 0.362392
715 2 0.367378 0.243124 0.385391
615 4 0.385592 0.250351 0.345631
717 4 0.35976 0.236942 0.408389
488 4 0.348209 0.254305 0.412467
304 2 0.457744 0.180884 0.367269
269 4 0.450177 0.223739 0.363043
306 4 0.458912 0.205247 0.361767
268 2 0.435036 0.232277 0.381016
2814 4 0.00924638 0.322142 0.404652
275 4 0.156805 0.246324 0.350114
389 4 0.139777 0.253575 0.339416
401 4 0.145657 0.263199 0.357698
400 2 0.153298 0.280399 0.374159
375 4 0.179312 0.291432 0.395108
402 4 0.160939 0.297599 0.39062
373 2 0.203693 0.28618 0.396879
374 4 0.228075 0.280927 0.39865
510 4 0.237492 0.282716 0.379451
508 2 0.246446 0.284097 0.356147
378 4 0.248722 0.286726 0.397581
376 2 0.271462 0.288227 0.407869
2924 4 0.4148 0.243414 0.41815
270 4 0.419894 0.240815 0.398988
548 4 0.0201928 0.391125 0.342648
407 4 0.00677465 0.381337 0.33232
547 2 0.0380068 0.406554 0.351001
735 4 0.153558 0.334979 0.339134
677 4 0.16782 0.343727 0.35046
676 2 0.18034 0.358431 0.366342
678 4 0.192859 0.373135 0.382224
650 4 0.195406 0.366998 0.402986
503 4 0.183384 0.385383 0.398223
649 2 0.220156 0.369175 0.405791
651 4 0.244906 0.371352 0.408596
669 4 0.400751 0.385146 0.422617
667 2 0.422204 0.383177 0.409926
559 2 0.439142 0.379663 0.356579
560 4 0.452857 0.381884 0.377366
668 4 0.443658 0.381207 0.397236
588 4 0.464078 0.389117 0.395019
586 2 0.479842 0.402487 0.409088
777 4 0.0671731 0.424899 0.343459
549 4 0.0558208 0.421984 0.359354
775 2 0.0842117 0.442394 0.338095
776 4 0.10125 0.45989 0.332731
1545 4 0.0895969 0.476996 0.338882
1543 2 0.106199 0.493025 0.348505
433 2 0.309429 0.436825 0.336001
434 4 0.299633 0.419724 0.351389
119 3 0.490186 0.450947 0.336486
3990 4 0.474827 0.452448 0.348246
3988 2 0.463257 0.469739 0.362115
427 2 0.108747 0.994497 0.432402
317 4 0.103204 0.028339 0.425825
428 4 0.11729 0.0174078 0.437627
1781 4 0.105734 0.0330109 0.446855
1780 2 0.126452 0.0419548 0.457623
1782 4 0.14717 0.0508987 0.468392
2430 4 0.163852 0.0440289 0.479673
368 4 0.138254 0.086506 0.448277
341 4 0.16586 0.0614876 0.467343
2428 2 0.16434 0.0233408 0.493707
2429 4 0.164827 0.00265276 0.507741
1180 2 0.278899 0.0513119 0.437707
1181 4 0.294247 0.0339636 0.447123
1182 4 0.263552 0.0686602 0.428291
963 4 0.289653 0.0326463 0.468787
432 4 0.31014 0.0346663 0.462498
961 2 0.282343 0.0281758 0.492276
430 2 0.335076 0.036202 0.463496
431 4 0.360013 0.0377377 0.464493
841 2 0.387655 0.020167 0.469252
842 4 0.402307 0.00250841 0.45932
843 4 0.373002 0.0378256 0.479185
426 4 0.416396 0.00993978 0.445008
424 2 0.422441 0.0229577 0.424534
1217 4 0.422168 0.0090111 0.465867
1216 2 0.441152 0.0186671 0.478966
1218 4 0.460135 0.0283231 0.492065
458 4 0.999125 0.136442 0.451787
457 2 0.0132928 0.122556 0.467006
719 4 0.0375 0.099389 0.496121
459 4 0.0274611 0.108669 0.482225
367 2 0.12617 0.108101 0.444698
369 4 0.114085 0.129696 0.44112
939 4 0.103982 0.146327 0.441867
937 2 0.115938 0.16011 0.458963
340 2 0.179849 0.0781168 0.454975
342 4 0.193838 0.094746 0.442608
1152 4 0.193422 0.110878 0.430094
1150 2 0.18108 0.131123 0.422156
899 4 0.260794 0.160874 0.420262
321 4 0.261591 0.139679 0.423732
898 2 0.272486 0.166462 0.441646
260 4 0.081837 0.239822 0.438918
938 4 0.127894 0.173893 0.476059
1034 4 0.136331 0.185749 0.490285
261 4 0.0856457 0.222083 0.485518
1035 4 0.101027 0.219802 0.500017
1033 2 0.118679 0.202775 0.495151
259 2 0.0837413 0.230952 0.462218
618 4 0.0972011 0.242971 0.424107
900 4 0.284177 0.17205 0.46303
267 4 0.354953 0.242464 0.428784
813 4 0.371109 0.209169 0.483489
266 4 0.368395 0.210338 0.464672
265 2 0.361674 0.226401 0.446728
2801 4 0.0124859 0.315926 0.423827
2847 4 0.0275654 0.294877 0.473152
2802 4 0.0350841 0.311945 0.468259
2800 2 0.023785 0.313936 0.446043
2845 2 0.0173155 0.288035 0.494908
347 4 0.0846312 0.259377 0.430468
346 2 0.0949258 0.280947 0.437815
348 4 0.10522 0.302516 0.445161
10 3 0.104418 0.316782 0.458249
9 3 0.132855 0.301255 0.47743
6 1 0.125787 0.319858 0.465498
1259 4 0.131657 0.304426 0.496379
8 3 0.139846 0.323468 0.447395
377 4 0.294201 0.289728 0.418157
489 4 0.313524 0.290328 0.412446
487 2 0.330866 0.272316 0.412456
238 2 0.386899 0.315976 0.435936
2925 4 0.400256 0.279908 0.449091
239 4 0.402651 0.296632 0.437637
871 2 0.409412 0.27693 0.491018
2923 2 0.407528 0.261661 0.43362
2456 4 0.487869 0.294012 0.476614
584 4 0.477659 0.310935 0.474622
583 2 0.452844 0.311261 0.471574
585 4 0.428029 0.311587 0.468526
872 4 0.416696 0.296839 0.477762
680 4 0.0896402 0.409935 0.481613
7 3 0.126537 0.338259 0.479281
504 4 0.152909 0.403541 0.433469
711 4 0.129914 0.353031 0.466252
709 2 0.134319 0.375502 0.456212
710 4 0.138723 0.397973 0.446171
502 2 0.168146 0.394462 0.415846
336 4 0.385038 0.393171 0.430467
240 4 0.371148 0.335319 0.434234
335 4 0.357418 0.351484 0.430801
334 2 0.371228 0.372327 0.430634
587 4 0.495605 0.415857 0.423157
679 2 0.0709422 0.423709 0.472348
382 2 0.0633458 0.478178 0.466744
539 4 0.0420312 0.440571 0.48173
538 2 0.0241402 0.451864 0.495055
681 4 0.0522442 0.437482 0.463082
383 4 0.0504682 0.457243 0.471335
384 4 0.0762234 0.499113 0.462152
773 4 0.212492 0.463934 0.429086
635 4 0.168632 0.491839 0.474839
772 2 0.199123 0.474829 0.447189
774 4 0.185753 0.485725 0.465292
634 2 0.182 0.500314 0.494194
662 4 0.454082 0.463086 0.452657
663 4 0.487862 0.434852 0.428941
1909 2 0.446623 0.485512 0.483911
661 2 0.470972 0.448969 0.440799
1910 4 0.449138 0.480972 0.459452
720 4 0.0726607 0.0958689 0.531506
1284 4 0.209586 0.0780779 0.580919
962 4 0.275034 0.0237053 0.515766
1091 4 0.351077 0.0244313 0.55811
1090 2 0.34208 0.0107341 0.576994
1060 2 0.474637 0.036556 0.573418
810 4 0.475481 0.0750458 0.557353
1061 4 0.475002 0.0116254 0.575292
718 2 0.0550804 0.097629 0.513814
1059 4 0.206651 0.0985701 0.576296
808 2 0.490399 0.0927287 0.566837
327 4 0.0783962 0.245041 0.56911
696 4 0.0900622 0.23975 0.551985
694 2 0.0853146 0.230751 0.529145
877 2 0.115915 0.238661 0.579218
878 4 0.0988873 0.252311 0.567015
879 4 0.132944 0.225012 0.591422
1272 4 0.144082 0.225411 0.574085
695 4 0.080567 0.221753 0.506305
856 2 0.212567 0.227546 0.543976
857 4 0.215567 0.211877 0.563228
953 4 0.409614 0.251876 0.524587
812 4 0.394669 0.23988 0.515151
811 2 0.382889 0.224524 0.49932
952 2 0.427996 0.243323 0.539221
954 4 0.446377 0.23477 0.553854
905 4 0.4578 0.227129 0.568446
904 2 0.465365 0.203955 0.574006
906 4 0.47293 0.180781 0.579565
3159 4 0.493009 0.208667 0.515056
982 2 0.0207643 0.294844 0.550091
984 4 0.0403942 0.299173 0.564961
326 4 0.0466852 0.282733 0.577737
1136 4 0.0615761 0.297072 0.570932
325 2 0.0625407 0.263887 0.573423
983 4 0.00113443 0.290515 0.535221
1135 2 0.0676676 0.320448 0.577387
1260 4 0.170885 0.29226 0.524907
1258 2 0.151271 0.298343 0.510643
858 4 0.209567 0.243216 0.524724
1239 4 0.33772 0.317639 0.586139
804 4 0.32011 0.328642 0.587175
791 4 0.389791 0.259373 0.522177
873 4 0.402127 0.25702 0.504274
1237 2 0.339345 0.29431 0.57729
790 2 0.372503 0.260122 0.540225
792 4 0.355215 0.260871 0.558273
929 4 0.365281 0.336469 0.539654
936 4 0.00533497 0.404715 0.540825
934 2 0.0210907 0.414562 0.557558
991 2 0.128211 0.404171 0.576676
1040 4 0.0989335 0.423281 0.574206
880 2 0.366459 0.408739 0.56617
928 2 0.375459 0.355696 0.55198
882 4 0.368911 0.384118 0.562564
930 4 0.385637 0.374922 0.564306
925 2 0.471667 0.399904 0.524508
927 4 0.479741 0.387699 0.544782
1001 4 0.485183 0.389255 0.563538
926 4 0.463592 0.41211 0.504235
1000 2 0.49087 0.407751 0.579372
3430 2 0.0432502 0.467064 0.560627
3431 4 0.0424316 0.489976 0.550652
935 4 0.0368465 0.424409 0.57429
3432 4 0.0440688 0.444151 0.570603
1039 2 0.0752469 0.428081 0.580616
1041 4 0.0515603 0.43288 0.587026
540 4 0.00624923 0.463157 0.50838
993 4 0.111572 0.413239 0.560364
1159 2 0.100406 0.440116 0.532987
1161 4 0.105086 0.433301 0.556584
1160 4 0.0957266 0.44693 0.509389
1455 4 0.343387 0.478234 0.527184
1454 4 0.362115 0.453456 0.566377
1453 2 0.352751 0.465845 0.546781
881 4 0.364008 0.433359 0.569777
1911 4 0.444109 0.490052 0.50837
4084 2 0.463802 0.495391 0.549394
4085 4 0.455682 0.493435 0.525827
1183 2 0.0299907 0.0543716 0.657957
1184 4 0.0213341 0.034585 0.645358
1892 4 0.01443 0.0165217 0.635497
4338 4 0.00943804 0.019692 0.656169
1185 4 0.0386473 0.0741581 0.670556
1282 2 0.219794 0.059635 0.594366
1283 4 0.230002 0.041192 0.607813
2131 2 0.222547 0.0241653 0.640489
2132 4 0.232861 0.0436687 0.628724
2133 4 0.212232 0.00466193 0.652253
824 4 0.204062 0.00837773 0.669357
1031 4 0.245432 0.0301956 0.617845
1030 2 0.268067 0.030794 0.60724
1032 4 0.290703 0.0313924 0.596635
1092 4 0.333084 0.997037 0.595879
1062 4 0.474273 0.0614866 0.571544
89 3 0.491302 0.0045795 0.583552
1081 2 0.00916588 0.105566 0.653524
943 2 0.0701917 0.0971361 0.664459
1082 4 0.0244753 0.0903294 0.666119
945 4 0.0948505 0.100932 0.666107
1057 2 0.194814 0.109685 0.59531
1058 4 0.182976 0.120799 0.614323
1155 4 0.1924 0.139535 0.61952
1153 2 0.189932 0.163864 0.614305
909 4 0.195608 0.122445 0.63205
907 2 0.211145 0.113273 0.649361
908 4 0.226682 0.1041 0.666671
830 4 0.362024 0.136162 0.625261
829 2 0.37169 0.113586 0.620562
831 4 0.381356 0.0910105 0.615863
887 4 0.357404 0.150245 0.609551
1194 4 0.372182 0.155128 0.623979
1026 4 0.454992 0.139493 0.63002
1024 2 0.456704 0.155167 0.610615
1143 4 0.4417 0.13007 0.644437
1263 4 0.450481 0.149614 0.648989
1141 2 0.442295 0.109473 0.6586
852 4 0.0452229 0.234348 0.662754
1270 2 0.163361 0.211875 0.582468
1154 4 0.187463 0.188193 0.609089
1271 4 0.18264 0.198339 0.590851
1221 4 0.194607 0.20791 0.605851
1219 2 0.219133 0.210414 0.601683
1220 4 0.24366 0.212919 0.597515
888 4 0.321484 0.184925 0.606764
798 4 0.259311 0.226415 0.602585
796 2 0.258526 0.251405 0.602859
1212 4 0.263807 0.205806 0.599873
1211 4 0.305254 0.184934 0.618507
1210 2 0.28453 0.19537 0.60919
886 2 0.339444 0.167585 0.608157
1192 2 0.388414 0.168786 0.637215
1193 4 0.404645 0.182443 0.65045
1025 4 0.458416 0.170842 0.591209
1261 2 0.444875 0.167646 0.665378
3123 4 0.494949 0.254822 0.662891
1245 4 0.0458489 0.248567 0.646378
1209 4 0.055877 0.25282 0.664973
1243 2 0.0243374 0.261034 0.649022
1244 4 0.00282583 0.273502 0.651667
1207 2 0.0753508 0.26816 0.668232
946 2 0.137359 0.287694 0.664134
948 4 0.16154 0.281409 0.663159
1208 4 0.0948247 0.2835 0.671491
802 2 0.295192 0.330703 0.587282
797 4 0.257741 0.276395 0.603134
1238 4 0.34097 0.270981 0.568441
3113 4 0.500475 0.29619 0.649055
3112 2 0.479022 0.292881 0.636645
3114 4 0.45757 0.289573 0.624235
1137 4 0.0737592 0.343823 0.583842
992 4 0.14485 0.395103 0.592988
1068 4 0.167884 0.356205 0.651127
1067 4 0.118672 0.3647 0.65372
1066 2 0.143278 0.360453 0.652423
897 4 0.162858 0.394162 0.584354
1191 4 0.218732 0.367579 0.613795
896 4 0.203232 0.370524 0.602015
895 2 0.183045 0.382343 0.593184
1189 2 0.239764 0.355873 0.607025
1027 2 0.202775 0.374973 0.658811
1028 4 0.187997 0.357467 0.648794
803 4 0.270273 0.332765 0.58739
1190 4 0.260796 0.344168 0.600255
3264 4 0.0316182 0.440232 0.587559
3239 4 0.0117442 0.447109 0.642369
3262 2 0.0156735 0.439675 0.60681
3238 2 0.0242919 0.458059 0.661019
3263 4 0.999729 0.439119 0.626062
1173 4 0.306951 0.483821 0.611507
1172 4 0.313632 0.457046 0.653211
1171 2 0.310292 0.470434 0.632359
2154 4 0.316048 0.50329 0.607791
3183 4 0.471498 0.490405 0.593004
1002 4 0.496558 0.426247 0.595207
1206 4 0.492215 0.428133 0.616083
1204 2 0.484544 0.426746 0.63984
3182 4 0.487678 0.444097 0.602722
3181 2 0.479588 0.467251 0.597863
1205 4 0.476874 0.425359 0.663597
43 3 0.454731 0.062565 0.716761
846 4 0.459899 0.0499498 0.7333
44 3 0.450141 0.0731174 0.680539
41 1 0.464615 0.073223 0.698675
45 3 0.484064 0.0627376 0.693156
944 4 0.0455329 0.0933406 0.66281
1077 4 0.0256762 0.103852 0.729883
1075 2 0.0317406 0.0976285 0.706438
864 4 0.0292627 0.122495 0.737613
1076 4 0.037805 0.0914045 0.682993
1227 4 0.235377 0.100772 0.683771
1226 4 0.222289 0.108885 0.731349
1225 2 0.228833 0.104829 0.70756
1130 4 0.208891 0.117084 0.745856
1148 4 0.220679 0.0999343 0.750717
1142 4 0.442891 0.0888754 0.672763
42 3 0.469137 0.0950247 0.704453
3270 4 0.468038 0.175138 0.735525
1177 2 0.0238706 0.170979 0.706622
850 2 0.0501555 0.213952 0.676351
1178 4 0.0431669 0.186874 0.707044
851 4 0.0550881 0.193557 0.689948
1107 4 0.0644355 0.181819 0.704914
1105 2 0.0763834 0.176116 0.726125
1106 4 0.0883314 0.170414 0.747336
1086 4 0.298886 0.234594 0.728857
1299 4 0.27884 0.238855 0.724908
1297 2 0.260408 0.228181 0.738003
1084 2 0.318894 0.221957 0.736927
1262 4 0.43927 0.185678 0.681767
3426 4 0.477989 0.168015 0.718146
1146 4 0.473806 0.18926 0.719902
1145 4 0.487052 0.226856 0.689707
1144 2 0.480429 0.208058 0.704805
816 4 0.042379 0.332845 0.729386
947 4 0.113178 0.293979 0.665109
821 4 0.0960955 0.301193 0.732357
820 2 0.102939 0.295377 0.709023
822 4 0.109783 0.289561 0.685688
1096 2 0.337702 0.302313 0.732912
1098 4 0.34458 0.307525 0.709444
892 2 0.0591003 0.410051 0.732162
893 4 0.0749416 0.394079 0.721247
815 4 0.0716447 0.372788 0.722404
814 2 0.0570119 0.352816 0.725895
942 4 0.0852267 0.38109 0.707878
940 2 0.0940491 0.377286 0.684794
941 4 0.102871 0.373481 0.66171
1029 4 0.217554 0.392478 0.668827
1139 4 0.220615 0.404183 0.684721
1065 4 0.242924 0.372709 0.688658
1063 2 0.244089 0.361228 0.710839
1064 4 0.245253 0.349746 0.73302
806 4 0.254149 0.363528 0.747449
805 2 0.275678 0.371414 0.757422
1101 4 0.421114 0.395604 0.695731
1099 2 0.439917 0.408807 0.685868
894 4 0.0432591 0.426024 0.743076
3240 4 0.0368396 0.46901 0.679669
2172 4 0.0398718 0.483856 0.694685
1279 2 0.0301912 0.458551 0.715112
1280 4 0.0381328 0.445492 0.7349
1281 4 0.0222495 0.471611 0.695324
2170 2 0.0574295 0.496648 0.682305
1138 2 0.244369 0.411786 0.682946
1176 4 0.190827 0.489788 0.722153
891 4 0.312985 0.464088 0.6725
1140 4 0.268122 0.419389 0.681172
889 2 0.30217 0.482554 0.685432
890 4 0.291356 0.50102 0.698364
1269 4 0.469652 0.440294 0.677442
1100 4 0.45872 0.422011 0.676005
1268 4 0.495007 0.47772 0.698824
1267 2 0.48233 0.459007 0.688133
1196 4 0.0698638 0.020451 0.810824
1203 4 0.0801055 0.0179642 0.791186
911 4 0.0824592 0.0362184 0.802801
1202 4 0.111433 0.998008 0.757704
910 2 0.0966623 0.0563768 0.806936
1201 2 0.0957694 0.00798618 0.774445
912 4 0.110865 0.0765351 0.81107
1287 4 0.12702 0.0904863 0.817906
1285 2 0.149721 0.0855652 0.82716
1149 4 0.21264 0.0524466 0.764171
1147 2 0.216659 0.0761905 0.757444
2400 4 0.328541 0.0343063 0.759394
2398 2 0.343723 0.0528345 0.766563
1049 4 0.368827 0.0722533 0.793328
1111 2 0.399013 0.0495686 0.778451
2399 4 0.358905 0.0713627 0.773733
1112 4 0.37943 0.0648736 0.775729
1113 4 0.418597 0.0342636 0.781173
844 2 0.449513 0.0407897 0.754119
845 4 0.439127 0.0316296 0.774937
980 4 0.431697 0.0202498 0.791262
979 2 0.435134 0.0129992 0.814943
862 2 0.00776833 0.124678 0.750199
1214 4 0.0712117 0.138041 0.798512
1072 2 0.126996 0.153264 0.746483
1213 2 0.0845987 0.147221 0.779494
33 3 0.0815325 0.119452 0.803996
31 1 0.0907229 0.113346 0.824408
32 3 0.105541 0.0960801 0.821025
1074 4 0.144093 0.135484 0.742393
1129 2 0.218656 0.133882 0.761594