ITEM: TIMESTEP
420000
ITEM: NUMBER OF ATOMS
4590
ITEM: BOX BOUNDS pp pp pp
-9.9985700000000008e+00 9.9985700000000008e+00
-9.9985700000000008e+00 9.9985700000000008e+00
-9.9985700000000008e+00 9.9985700000000008e+00
ITEM: ATOMS id type xs ys zs
463 2 0.0261077 0.0275978 0.0426053
465 4 0.034358 0.0358478 0.0647198
464 4 0.0178575 0.0193478 0.0204909
3291 4 0.0272142 0.0148292 0.00206089
701 4 0.0843592 0.0866303 0.0559623
1666 2 0.0885362 0.00726963 0.0494109
1667 4 0.0948516 0.0309824 0.0446152
700 2 0.0978064 0.0664349 0.0620038
702 4 0.111254 0.0462396 0.0680453
534 4 0.174343 0.0793332 0.0120276
491 4 0.244483 0.0312742 0.0356277
490 2 0.261803 0.03591 0.018201
492 4 0.279124 0.0405457 0.000774316
986 4 0.377597 0.0676372 0.00935996
747 4 0.46753 0.0651322 0.0289592
2975 4 0.480245 0.0485326 0.0248313
2974 2 0.503901 0.0405191 0.0259973
589 2 0.0480386 0.141675 0.0534803
590 4 0.0294465 0.129426 0.042102
3233 4 0.0305182 0.110306 0.0325993
591 4 0.0666307 0.153924 0.0648587
3232 2 0.0233687 0.109888 0.00864332
565 2 0.210787 0.123518 0.0752263
566 4 0.202972 0.143934 0.0630894
358 2 0.257601 0.138016 0.0267865
359 4 0.272319 0.122365 0.0395787
360 4 0.242884 0.153667 0.0139943
557 4 0.39608 0.135124 0.0229108
556 2 0.386105 0.130029 0.0452654
558 4 0.376131 0.124934 0.06762
297 4 0.411069 0.0978582 0.0974054
745 2 0.45467 0.0824826 0.0163593
746 4 0.441809 0.0998329 0.00375933
555 4 0.0434335 0.197198 0.0238891
553 2 0.0501578 0.204526 0.000948792
476 4 0.134907 0.161165 0.0754721
914 4 0.158624 0.226548 0.011861
571 2 0.320797 0.249934 0.0386657
572 4 0.309514 0.22939 0.029958
666 4 0.310184 0.222502 0.0100595
664 2 0.315731 0.2006 0.999348
771 4 0.47029 0.219503 0.0639662
770 4 0.463753 0.18723 0.0263306
769 2 0.467021 0.203366 0.0451484
323 4 0.458587 0.233322 0.0755504
518 4 0.475399 0.24061 0.0639596
292 2 0.133264 0.318878 0.0243608
293 4 0.153507 0.306536 0.0164192
507 4 0.15716 0.292113 0.0287869
357 4 0.238625 0.250174 0.0131961
505 2 0.170416 0.274278 0.0402481
506 4 0.183671 0.256442 0.0517094
481 2 0.228374 0.323815 0.0711122
482 4 0.250562 0.326497 0.0599016
573 4 0.33208 0.270478 0.0473734
1069 2 0.391497 0.270058 0.0319193
1070 4 0.412255 0.283296 0.036283
955 2 0.38029 0.336063 0.000420573
1071 4 0.370739 0.256821 0.0275556
330 4 0.0504086 0.365629 0.0197007
328 2 0.0393644 0.386976 0.0128075
329 4 0.0283202 0.408323 0.00591427
294 4 0.113021 0.33122 0.0323024
288 4 0.185693 0.39805 0.0195573
287 4 0.204267 0.363674 0.0507656
286 2 0.19498 0.380862 0.0351614
252 4 0.257862 0.344395 0.060244
250 2 0.264387 0.367771 0.0542326
251 4 0.270912 0.391148 0.0482211
609 4 0.288013 0.39912 0.054748
607 2 0.299396 0.415648 0.0696619
957 4 0.361925 0.342711 0.0160311
281 4 0.448723 0.348217 0.0743237
280 2 0.459658 0.351814 0.0521278
282 4 0.470593 0.355412 0.0299319
550 2 0.0529273 0.435718 0.0728119
551 4 0.0558309 0.434988 0.0479882
1788 4 0.0707418 0.504594 0.0538534
245 4 0.276028 0.442582 0.0377921
244 2 0.270999 0.464822 0.0275332
246 4 0.26597 0.487063 0.0172744
272 4 0.281542 0.498725 0.0167434
1778 4 0.289224 0.51093 0.0797844
564 4 0.414645 0.459212 0.0193475
562 2 0.424052 0.479553 0.008259
228 4 0.489455 0.485114 0.0396178
20 3 0.0383203 0.0702712 0.141792
16 1 0.0402535 0.0558783 0.159335
17 3 0.0350749 0.0346027 0.152286
19 3 0.0620315 0.056035 0.167341
450 4 0.182347 0.0562649 0.133834
448 2 0.183296 0.0811625 0.135928
1505 4 0.198845 0.0191373 0.162433
1475 4 0.206196 0.0158594 0.0916092
652 2 0.309845 0.0277379 0.112652
654 4 0.288674 0.0258665 0.125823
653 4 0.331016 0.0296094 0.0994819
296 4 0.382971 0.057498 0.0883344
295 2 0.39702 0.0776781 0.0928699
1760 4 0.49094 0.0250392 0.14073
379 2 0.00900971 0.163787 0.165024
567 4 0.218602 0.103103 0.0873632
449 4 0.184244 0.10606 0.138023
237 4 0.188926 0.162155 0.131174
235 2 0.184334 0.138186 0.125736
236 4 0.179741 0.114218 0.120297
693 4 0.231618 0.0801196 0.168211
582 4 0.281249 0.104602 0.169276
310 2 0.441517 0.109964 0.165276
311 4 0.45443 0.1209 0.146868
475 2 0.129771 0.179182 0.0920308
477 4 0.124634 0.197199 0.108589
737 4 0.196924 0.244637 0.0944703
736 2 0.198774 0.226555 0.11164
738 4 0.200625 0.208473 0.128809
354 4 0.292702 0.20953 0.0989461
352 2 0.287054 0.231485 0.109496
460 2 0.324174 0.192408 0.0840843
461 4 0.300104 0.19909 0.0830105
353 4 0.281407 0.253439 0.120046
255 4 0.351262 0.169944 0.0971426
462 4 0.348244 0.185725 0.0851581
254 4 0.397277 0.177433 0.115233
253 2 0.37427 0.173688 0.106188
324 4 0.412494 0.249491 0.0862608
629 4 0.443597 0.179205 0.143726
322 2 0.435541 0.241407 0.0809056
630 4 0.403246 0.196469 0.11976
628 2 0.423421 0.187837 0.131743
337 2 0.0975679 0.263068 0.144102
339 4 0.108813 0.265902 0.12195
483 4 0.206186 0.321133 0.0823227
537 4 0.171517 0.321149 0.156943
754 2 0.28171 0.290459 0.101007
755 4 0.281184 0.273121 0.119015
756 4 0.282236 0.307797 0.0829994
741 4 0.374792 0.322329 0.0972817
622 2 0.4147 0.291607 0.113239
624 4 0.399547 0.291005 0.133119
528 4 0.496568 0.262305 0.143066
623 4 0.429853 0.292208 0.0933592
672 4 0.460698 0.306518 0.120413
670 2 0.460753 0.319491 0.0990377
526 2 0.498818 0.286372 0.14946
619 2 0.0227649 0.370775 0.122791
620 4 0.0271807 0.394169 0.130435
455 4 0.106928 0.39488 0.0843932
454 2 0.130505 0.3973 0.09236
456 4 0.154081 0.39972 0.100327
535 2 0.162021 0.343974 0.160693
536 4 0.152526 0.366798 0.164443
626 4 0.234353 0.431914 0.124215
387 4 0.313371 0.388685 0.145624
385 2 0.332141 0.377457 0.133509
608 4 0.310778 0.432177 0.0845758
739 2 0.357752 0.335457 0.110028
740 4 0.340712 0.348585 0.122775
386 4 0.350911 0.366229 0.121393
14 3 0.415314 0.382504 0.14131
495 4 0.406228 0.398253 0.132419
671 4 0.460808 0.332464 0.0776628
13 3 0.409944 0.350122 0.160468
15 3 0.435248 0.351762 0.132635
11 1 0.425566 0.363424 0.149632
12 3 0.441764 0.369668 0.164726
595 2 0.478005 0.386445 0.142328
597 4 0.457175 0.380608 0.154866
596 4 0.498835 0.392282 0.129789
552 4 0.0500237 0.436449 0.0976355
315 4 0.043902 0.454658 0.106242
313 2 0.0314211 0.455644 0.127886
314 4 0.0189403 0.45663 0.149529
242 4 0.138454 0.490346 0.0854577
417 4 0.147939 0.411539 0.146779
415 2 0.169712 0.414008 0.158821
625 2 0.215382 0.426278 0.108933
627 4 0.196412 0.420641 0.0936514
637 2 0.241274 0.486525 0.160282
639 4 0.238914 0.496381 0.137425
524 4 0.350509 0.492231 0.0912395
493 2 0.403395 0.416782 0.148967
525 4 0.34172 0.481364 0.139254
523 2 0.346115 0.486798 0.115247
658 2 0.363787 0.455874 0.159141
659 4 0.358666 0.478122 0.148944
494 4 0.400562 0.435311 0.165516
18 3 0.0255592 0.0619683 0.176229
2481 4 0.0111031 0.074196 0.181737
2479 2 0.994259 0.0564982 0.187052
673 2 0.121235 0.0453457 0.226029
674 4 0.130511 0.068143 0.230436
675 4 0.111959 0.0225483 0.221622
1403 4 0.10908 0.0192814 0.241947
1504 2 0.213016 0.00113054 0.172439
688 2 0.205501 0.0640519 0.24307
690 4 0.181962 0.0705479 0.237694
689 4 0.22904 0.0575558 0.248446
1783 2 0.413063 0.00971141 0.194041
21 1 0.375529 0.0740415 0.233014
23 3 0.361602 0.0595208 0.244572
25 3 0.391923 0.0623053 0.222424
759 4 0.407429 0.0489756 0.214828
1784 4 0.411576 0.034012 0.199738
22 3 0.385123 0.0886379 0.247982
757 2 0.416069 0.0642484 0.197016
758 4 0.424709 0.0795212 0.179204
742 2 0.453965 0.0620652 0.248897
743 4 0.472434 0.0655572 0.232409
744 4 0.435496 0.0585733 0.265386
381 4 0.0143306 0.155786 0.188107
511 2 0.0166771 0.13697 0.218796
512 4 0.00855541 0.138337 0.195188
577 2 0.0622623 0.107559 0.235473
578 4 0.0610556 0.119544 0.213562
546 4 0.166174 0.152876 0.23908
722 4 0.173827 0.13343 0.238005
692 4 0.200686 0.110939 0.192584
723 4 0.181489 0.11054 0.19421
691 2 0.216152 0.0955293 0.180397
721 2 0.177658 0.121985 0.216108
580 2 0.27643 0.115501 0.191257
581 4 0.27161 0.1264 0.213238
26 1 0.325674 0.145187 0.231741
28 3 0.31068 0.140321 0.214714
24 3 0.363223 0.0861817 0.217535
27 3 0.346737 0.147264 0.222732
312 4 0.428605 0.0990287 0.183685
394 2 0.0267951 0.240568 0.231063
395 4 0.0213706 0.216869 0.22522
30 3 0.319874 0.164755 0.241845
284 4 0.270907 0.219488 0.17532
285 4 0.274363 0.170357 0.183974
283 2 0.272635 0.194923 0.179647
344 4 0.269144 0.249517 0.222327
343 2 0.25347 0.254316 0.241208
764 4 0.373884 0.210172 0.212281
763 2 0.395747 0.21781 0.202856
765 4 0.417611 0.225447 0.19343
396 4 0.0322197 0.264266 0.236905
750 4 0.0441053 0.264175 0.252248
363 4 0.077454 0.266103 0.18347
338 4 0.0863225 0.260234 0.166253
362 4 0.113665 0.250619 0.214287
361 2 0.0955595 0.258361 0.198879
372 4 0.134302 0.254234 0.21127
300 4 0.0909063 0.314365 0.23248
370 2 0.157858 0.254483 0.20289
298 2 0.109436 0.328896 0.240885
279 4 0.219329 0.294278 0.184213
371 4 0.181415 0.254731 0.19451
277 2 0.243632 0.291245 0.179181
278 4 0.267936 0.288212 0.17415
307 2 0.301023 0.296411 0.189391
309 4 0.277781 0.303325 0.183294
308 4 0.324265 0.289497 0.195488
647 4 0.0888972 0.405876 0.203279
648 4 0.0623633 0.367559 0.185155
646 2 0.0756303 0.386717 0.194217
612 4 0.222472 0.344018 0.170327
610 2 0.245282 0.348838 0.179364
291 4 0.211761 0.417176 0.167242
611 4 0.268092 0.353657 0.1884
303 4 0.335092 0.407827 0.222236
729 4 0.330985 0.417455 0.240006
301 2 0.349863 0.418642 0.205205
643 2 0.450237 0.390993 0.198637
644 4 0.454547 0.393191 0.223168
645 4 0.445928 0.388794 0.174106
447 4 0.449748 0.395651 0.241538
262 2 0.0652421 0.438673 0.200063
264 4 0.0590803 0.462305 0.194701
263 4 0.071404 0.415042 0.205425
416 4 0.191485 0.416477 0.170863
289 2 0.226183 0.428459 0.184267
290 4 0.240605 0.439743 0.201293
638 4 0.243635 0.47667 0.18314
768 4 0.253956 0.490791 0.235722
766 2 0.248096 0.475742 0.216632
767 4 0.242236 0.460694 0.197543
1573 2 0.332396 0.499956 0.232077
660 4 0.368908 0.433626 0.169338
302 4 0.364633 0.429456 0.188174
1574 4 0.339826 0.477561 0.223803
231 4 0.386448 0.459856 0.256856
232 2 0.0214822 0.051985 0.309154
233 4 0.999965 0.0405015 0.303647
234 4 0.0429992 0.0634685 0.314661
248 4 0.205737 0.0635142 0.334729
1699 2 0.215502 0.0237129 0.313994
247 2 0.219581 0.0792436 0.321088
697 2 0.364214 0.0260246 0.324112
698 4 0.381859 0.0398731 0.33516
699 4 0.346569 0.012176 0.313064
480 4 0.496748 0.0334122 0.290363
351 4 0.414396 0.0661183 0.317168
478 2 0.492951 0.03135 0.31499
349 2 0.423815 0.0788402 0.297813
479 4 0.489155 0.0292879 0.339618
513 4 0.0247987 0.135604 0.242404
531 4 0.012768 0.124011 0.295317
529 2 0.022347 0.121207 0.272392
530 4 0.031926 0.118402 0.249467
393 4 0.0803846 0.16436 0.253275
579 4 0.0634689 0.0955744 0.257384
392 4 0.0941302 0.130894 0.287798
391 2 0.0872574 0.147627 0.270536
544 2 0.181758 0.156939 0.258206
249 4 0.233426 0.0949731 0.307446
403 2 0.22259 0.134576 0.297848
404 4 0.237038 0.114474 0.301359
405 4 0.208142 0.154678 0.294338
545 4 0.197342 0.161003 0.277332
29 3 0.325837 0.127982 0.247309
632 4 0.352147 0.0836331 0.307736
631 2 0.357063 0.106605 0.316297
333 4 0.431445 0.108118 0.267808
331 2 0.447876 0.12634 0.272623
332 4 0.464306 0.144562 0.277437
350 4 0.433235 0.0915622 0.278458
762 4 0.474366 0.160416 0.271049
444 4 0.0314612 0.251392 0.320768
706 2 0.296905 0.167623 0.294285
708 4 0.277491 0.157222 0.282448
707 4 0.316319 0.178024 0.306121
520 2 0.483122 0.24075 0.260478
418 2 0.430075 0.228456 0.305506
419 4 0.434158 0.204899 0.312824
761 4 0.49582 0.18982 0.305339
760 2 0.485093 0.175118 0.288194
365 4 0.000224267 0.298374 0.279202
2493 4 0.00624134 0.3105 0.296992
442 2 0.0209472 0.270316 0.308257
443 4 0.0104332 0.289239 0.295745
748 2 0.0653625 0.267732 0.264923
749 4 0.0866196 0.271289 0.277599
401 4 0.164941 0.256619 0.308462
389 4 0.140122 0.259908 0.330129
345 4 0.237796 0.259115 0.260088
400 2 0.17836 0.265247 0.327714
497 4 0.320311 0.323047 0.291169
496 2 0.332658 0.301718 0.295388
498 4 0.345006 0.280389 0.299607
613 2 0.380396 0.303843 0.327907
614 4 0.377094 0.311187 0.304236
521 4 0.467832 0.260465 0.262129
543 4 0.441891 0.262323 0.291809
420 4 0.425992 0.252014 0.298188
541 2 0.446114 0.286076 0.285242
542 4 0.450337 0.30983 0.278675
602 4 0.0719709 0.381784 0.283554
601 2 0.0786528 0.405605 0.287169
299 4 0.127966 0.343428 0.249291
734 4 0.137684 0.349159 0.266122
733 2 0.144619 0.363045 0.285725
735 4 0.151554 0.376932 0.305327
677 4 0.158001 0.378953 0.324624
509 4 0.223049 0.393697 0.318042
508 2 0.239345 0.378616 0.329538
510 4 0.255642 0.363535 0.341035
437 4 0.289053 0.39425 0.287267
727 2 0.332058 0.406638 0.262523
436 2 0.277791 0.414995 0.295512
433 2 0.332591 0.39839 0.328081
434 4 0.328174 0.392627 0.304156
728 4 0.33313 0.395821 0.285041
445 2 0.440952 0.402644 0.263874
446 4 0.432155 0.409636 0.28621
713 4 0.435435 0.417259 0.305325
603 4 0.0853348 0.429427 0.290784
549 4 0.0737061 0.471096 0.32616
777 4 0.0710383 0.491001 0.322062
1757 4 0.101596 0.475477 0.271388
775 2 0.0927094 0.503313 0.324053
414 4 0.154279 0.461624 0.300639
412 2 0.161116 0.48041 0.315657
1436 4 0.26665 0.501175 0.3226
438 4 0.266528 0.43574 0.303757
229 2 0.395756 0.48242 0.26228
1803 4 0.354518 0.461831 0.293553
594 4 0.388131 0.485029 0.332909
1801 2 0.339996 0.479162 0.28288
712 2 0.444039 0.440735 0.305555
714 4 0.452643 0.46421 0.305785
318 4 0.0483321 0.0646132 0.334093
316 2 0.0691816 0.0546416 0.343634
317 4 0.0900312 0.0446701 0.353176
428 4 0.0844623 0.0259564 0.350415
427 2 0.0796768 0.00226719 0.356826
1701 4 0.210041 0.0469847 0.321328
606 4 0.194146 0.0458648 0.390496
604 2 0.200703 0.0446863 0.366396
605 4 0.207261 0.0435077 0.342296
439 2 0.271976 0.0158221 0.397282
441 4 0.270586 0.0404821 0.393392
256 2 0.404276 0.0604377 0.363717
257 4 0.386623 0.0559306 0.346593
258 4 0.421929 0.0649447 0.380842
398 4 0.052265 0.124993 0.334812
397 2 0.0764007 0.119923 0.338928
399 4 0.100537 0.114853 0.343044
731 4 0.157898 0.082268 0.347949
732 4 0.115529 0.108166 0.353848
730 2 0.136714 0.095217 0.350899
686 4 0.168526 0.142657 0.393057
685 2 0.172011 0.11853 0.398616
598 2 0.189441 0.161767 0.362086
599 4 0.172034 0.149035 0.374738
600 4 0.206848 0.174499 0.349434
683 4 0.30199 0.104926 0.387598
682 2 0.30135 0.11307 0.411229
633 4 0.361979 0.129577 0.324858
451 2 0.467421 0.140351 0.385317
453 4 0.447721 0.125021 0.38675
515 4 0.426944 0.124033 0.383926
514 2 0.414397 0.134495 0.402855
2655 4 0.00426608 0.166148 0.369921
2653 2 0.0270532 0.171492 0.361124
2654 4 0.0498403 0.176835 0.352328
474 4 0.22913 0.194367 0.359228
274 2 0.206398 0.225049 0.383951
276 4 0.218206 0.207041 0.371245
472 2 0.248073 0.208623 0.351283
275 4 0.19459 0.243058 0.396657
473 4 0.267016 0.222879 0.343339
487 2 0.280326 0.249977 0.411008
305 4 0.467918 0.186172 0.399439
304 2 0.478138 0.208988 0.399812
306 4 0.488358 0.231805 0.400186
618 4 0.0645303 0.310545 0.380823
347 4 0.0566711 0.297058 0.392297
346 2 0.0479187 0.293401 0.415431
616 2 0.0841825 0.304379 0.366648
390 4 0.102048 0.279226 0.356167
388 2 0.121085 0.269567 0.343148
375 4 0.171086 0.299436 0.38187
617 4 0.103835 0.298212 0.352472
373 2 0.165222 0.314884 0.400636
402 4 0.19178 0.273875 0.346967
489 4 0.262924 0.263741 0.399481
376 2 0.298405 0.291296 0.353949
377 4 0.317893 0.291077 0.369612
378 4 0.278917 0.291515 0.338286
615 4 0.383698 0.296499 0.351579
716 4 0.370215 0.281396 0.357368
715 2 0.361969 0.266894 0.375993
717 4 0.353723 0.252392 0.394618
267 4 0.359075 0.264633 0.408727
406 2 0.061716 0.395605 0.377889
408 4 0.0632684 0.373447 0.389369
407 4 0.0601636 0.417762 0.366408
676 2 0.17052 0.378497 0.346263
678 4 0.183038 0.378041 0.367903
503 4 0.239155 0.358128 0.413861
336 4 0.355611 0.336457 0.394399
753 4 0.39885 0.402197 0.319906
751 2 0.419031 0.395523 0.333074
2925 4 0.477393 0.328612 0.37855
561 4 0.43537 0.390101 0.365855
752 4 0.439211 0.388849 0.346241
559 2 0.44226 0.392023 0.389813
548 4 0.0659939 0.43486 0.359749
547 2 0.06985 0.452978 0.342954
680 4 0.0364885 0.45612 0.40504
499 2 0.117425 0.482739 0.396359
501 4 0.124157 0.466924 0.3782
500 4 0.110693 0.498554 0.414518
413 4 0.167952 0.499196 0.330674
435 4 0.337009 0.404154 0.352007
4 3 0.310512 0.462839 0.352082
1 1 0.326076 0.478495 0.359228
2 3 0.324224 0.480953 0.382024
5 3 0.32211 0.498541 0.349175
592 2 0.408066 0.497529 0.341365
3 3 0.347523 0.471214 0.354186
2236 2 0.0426076 0.00598361 0.488472
720 4 0.0467003 0.0628661 0.483889
718 2 0.0532073 0.0870071 0.484119
367 2 0.116038 0.0517833 0.453321
369 4 0.129284 0.0700431 0.464106
368 4 0.102792 0.0335235 0.442537
341 4 0.179852 0.0455675 0.496334
1181 4 0.25722 0.0467417 0.488388
1180 2 0.264648 0.0699331 0.482716
432 4 0.300394 0.0644342 0.488078
726 4 0.323323 0.00735253 0.427891
724 2 0.33706 0.0280232 0.430923
725 4 0.350797 0.0486938 0.433954
426 4 0.37493 0.00942727 0.43525
424 2 0.397303 0.0205892 0.435106
425 4 0.419676 0.0317512 0.434961
457 2 0.00654305 0.148555 0.427825
719 4 0.0597142 0.111148 0.484348
687 4 0.175497 0.0944023 0.404176
1151 4 0.170198 0.15023 0.47405
1150 2 0.171922 0.126738 0.482436
321 4 0.24798 0.140846 0.452239
466 2 0.330059 0.168626 0.430765
467 4 0.33973 0.146504 0.424262
684 4 0.300711 0.121214 0.434861
320 4 0.296195 0.127603 0.453047
319 2 0.272088 0.134224 0.452643
1182 4 0.272076 0.0931245 0.477045
575 4 0.404287 0.156061 0.438918
516 4 0.401849 0.144957 0.421783
642 4 0.506958 0.114042 0.480468
459 4 0.0279085 0.161 0.424109
470 4 0.0344035 0.173423 0.505024
260 4 0.0841705 0.194304 0.408314
261 4 0.107151 0.203436 0.451779
259 2 0.0956607 0.19887 0.430047
1035 4 0.107024 0.209984 0.472267
1033 2 0.116428 0.191411 0.486115
695 4 0.104586 0.224277 0.456037
694 2 0.106598 0.248425 0.462202
488 4 0.297729 0.236212 0.422535
411 4 0.29715 0.197529 0.493508
409 2 0.309655 0.202221 0.472371
410 4 0.322161 0.206912 0.451234
468 4 0.320387 0.190747 0.437269
266 4 0.383083 0.257434 0.451999
574 2 0.423009 0.166323 0.451932
576 4 0.441731 0.176585 0.464946
348 4 0.0391664 0.289744 0.438566
326 4 0.0779199 0.314378 0.504153
327 4 0.0942714 0.287053 0.465596
696 4 0.108609 0.272573 0.468367
325 2 0.0860957 0.300715 0.484874
651 4 0.236986 0.302306 0.455635
374 4 0.159359 0.330332 0.419402
649 2 0.253199 0.319862 0.448278
650 4 0.269412 0.337418 0.440922
265 2 0.371079 0.261034 0.430363
812 4 0.366743 0.297439 0.497793
583 2 0.459612 0.26453 0.477695
584 4 0.478108 0.276052 0.465434
585 4 0.441116 0.253009 0.489956
2813 4 0.00449895 0.382802 0.447189
935 4 0.00639029 0.405415 0.504504
10 3 0.14182 0.352057 0.473264
502 2 0.221028 0.367575 0.428261
772 2 0.236745 0.417385 0.471134
504 4 0.202902 0.377021 0.442661
709 2 0.174858 0.403157 0.456979
710 4 0.196874 0.391355 0.455885
773 4 0.248983 0.396589 0.47769
334 2 0.355414 0.349481 0.415741
238 2 0.384045 0.363874 0.467676
240 4 0.363653 0.369943 0.454541
335 4 0.355216 0.362505 0.437084
239 4 0.404437 0.357804 0.480811
560 4 0.44915 0.393945 0.413772
681 4 0.0521707 0.437946 0.448909
679 2 0.0443296 0.447033 0.426974
383 4 0.0612198 0.419834 0.453322
539 4 0.0611686 0.469527 0.477372
538 2 0.0705118 0.467935 0.500509
382 2 0.0846119 0.425963 0.45968
570 4 0.128672 0.494802 0.448814
568 2 0.121576 0.472641 0.457964
384 4 0.108004 0.432093 0.466037
569 4 0.114481 0.45048 0.467115
711 4 0.152842 0.414958 0.458073
636 4 0.21732 0.485549 0.417872
634 2 0.218829 0.470925 0.438096
635 4 0.220339 0.4563 0.458321
774 4 0.224507 0.43818 0.464579
669 4 0.323053 0.447803 0.45068
1556 4 0.271006 0.518616 0.443363
668 4 0.371213 0.44349 0.437926
588 4 0.405172 0.436878 0.455806
587 4 0.426 0.452149 0.412985
586 2 0.415586 0.444514 0.434396
1453 2 0.352864 0.498 0.483377
667 2 0.347133 0.445646 0.444303
1454 4 0.359951 0.476001 0.492914
663 4 0.476742 0.480232 0.48515
1126 2 0.0178373 0.0299302 0.535346
1127 4 0.0299347 0.0134044 0.521003
1128 4 0.00573981 0.046456 0.549689
2238 4 0.0233772 0.0150035 0.501663
2428 2 0.168535 0.00997374 0.509274
340 2 0.176859 0.0696546 0.502336
2430 4 0.182672 0.0305944 0.509612
961 2 0.271215 0.0161678 0.51186
962 4 0.286078 0.997784 0.520003
430 2 0.31635 0.0687034 0.506849
963 4 0.256352 0.0345516 0.503717
1217 4 0.406825 0.0455145 0.525704
1216 2 0.414307 0.0413263 0.549192
841 2 0.37652 0.0704651 0.525057
842 4 0.400817 0.0653273 0.522154
431 4 0.332306 0.0729726 0.52562
1218 4 0.421788 0.0371382 0.572679
1062 4 0.478065 0.043621 0.537239
471 4 0.0380557 0.176734 0.554788
938 4 0.110214 0.165822 0.511296
937 2 0.105997 0.141234 0.509612
939 4 0.10178 0.116647 0.507929
1155 4 0.149406 0.140461 0.594174
1153 2 0.162719 0.159335 0.584598
1031 4 0.223263 0.0970286 0.578197
342 4 0.173865 0.0937417 0.508339
1152 4 0.173645 0.103246 0.490823
1030 2 0.248025 0.0937521 0.579348
1032 4 0.272786 0.0904756 0.5805
899 4 0.326206 0.156239 0.519733
843 4 0.352223 0.075603 0.52796
877 2 0.0801548 0.234846 0.54094
878 4 0.068228 0.236102 0.519
469 2 0.0362296 0.175079 0.529906
1272 4 0.0969705 0.214774 0.562236
879 4 0.0920817 0.233591 0.562879
1034 4 0.125833 0.172837 0.499963
1270 2 0.109911 0.202397 0.579687
857 4 0.239874 0.237834 0.511429
1154 4 0.176031 0.17821 0.575022
898 2 0.318688 0.174225 0.535391
858 4 0.264308 0.218802 0.550691
856 2 0.252091 0.228318 0.53106
900 4 0.31117 0.19221 0.551048
983 4 0.0491804 0.311722 0.578242
1258 2 0.138911 0.303178 0.532696
1260 4 0.132792 0.296663 0.556048
9 3 0.141275 0.328941 0.502979
1259 4 0.14503 0.309693 0.509345
791 4 0.297018 0.266921 0.543884
790 2 0.291297 0.274089 0.567145
804 4 0.298682 0.335334 0.537865
813 4 0.376989 0.302813 0.546443
811 2 0.371866 0.300126 0.522118
872 4 0.438055 0.253872 0.509299
3065 4 0.498453 0.25611 0.512381
873 4 0.446705 0.283258 0.548825
871 2 0.44238 0.268565 0.529062
953 4 0.455125 0.30638 0.567277
952 2 0.46108 0.28667 0.581463
7 3 0.118782 0.359029 0.501787
8 3 0.155791 0.363921 0.506154
1137 4 0.1195 0.370436 0.585382
6 1 0.139504 0.350965 0.495894
1189 2 0.219676 0.356545 0.551578
1190 4 0.23933 0.341355 0.548716
1191 4 0.200023 0.371735 0.55444
896 4 0.196276 0.378876 0.57202
895 2 0.18475 0.397069 0.584722
802 2 0.275938 0.332169 0.547758
803 4 0.253193 0.329004 0.557651
929 4 0.389326 0.343623 0.556363
928 2 0.378355 0.355276 0.575573
925 2 0.45622 0.405737 0.546407
926 4 0.456451 0.397442 0.52282
927 4 0.455988 0.414031 0.569994
1011 4 0.502857 0.337848 0.554495
3307 2 0.503322 0.378327 0.536531
3308 4 0.500444 0.35725 0.549671
934 2 0.993464 0.420245 0.519937
540 4 0.0798551 0.466344 0.523647
1160 4 0.146542 0.439258 0.558737
1161 4 0.176427 0.466362 0.52919
1159 2 0.161484 0.45281 0.543964
1173 4 0.245659 0.469102 0.599775
1171 2 0.260146 0.453583 0.586566
1172 4 0.274632 0.438064 0.573357
882 4 0.354316 0.430121 0.556685
880 2 0.37251 0.446351 0.551136
881 4 0.390703 0.46258 0.545588
662 4 0.448344 0.491586 0.524715
1910 4 0.446504 0.482371 0.542152
1909 2 0.433057 0.480797 0.563173
661 2 0.462543 0.485909 0.504933
1001 4 0.444679 0.428091 0.57733
1185 4 0.0240903 0.038439 0.621752
1183 2 0.0224135 0.0356042 0.646538
944 4 0.0568919 0.0809114 0.666728
943 2 0.0705958 0.0601644 0.669363
825 4 0.153566 0.0465642 0.643377
823 2 0.159815 0.0229469 0.638053
951 4 0.250264 0.0307594 0.604843
949 2 0.263611 0.0173025 0.588535
808 2 0.462988 0.0806386 0.622074
810 4 0.441601 0.0725313 0.632178
1082 4 0.0497957 0.0944814 0.65173
1083 4 0.0736215 0.100996 0.608249
1081 2 0.0617086 0.0977387 0.629989
1059 4 0.154476 0.0884062 0.620129
1058 4 0.142434 0.123242 0.586333
1057 2 0.148455 0.105824 0.603231
909 4 0.152776 0.179235 0.656758
907 2 0.167358 0.163758 0.669911
1284 4 0.175861 0.0908683 0.62318
1283 4 0.224122 0.097095 0.611654
1282 2 0.199992 0.0939816 0.617417
809 4 0.484374 0.0887459 0.611971
1245 4 0.0666691 0.239494 0.642712
1209 4 0.0780317 0.248182 0.656326
1271 4 0.122851 0.19002 0.597138
1221 4 0.187325 0.179019 0.592009
1210 2 0.250508 0.176574 0.650538
1212 4 0.235924 0.17681 0.63023
1219 2 0.208325 0.184397 0.60447
1220 4 0.229324 0.189774 0.616932
796 2 0.223357 0.239737 0.615543
798 4 0.22316 0.236497 0.640335
904 2 0.467638 0.228734 0.606434
906 4 0.459739 0.209431 0.620224
1024 2 0.439031 0.19694 0.656456
1025 4 0.44769 0.204654 0.634305
905 4 0.475536 0.248038 0.592644
1243 2 0.0470429 0.254985 0.642886
1244 4 0.0274168 0.270475 0.643061
1207 2 0.0911143 0.260303 0.67385
797 4 0.223553 0.242978 0.590751
946 2 0.183462 0.274756 0.6353
947 4 0.171144 0.262839 0.653505
948 4 0.19578 0.286673 0.617095
792 4 0.285577 0.281258 0.590406
1238 4 0.291709 0.286408 0.608042
1237 2 0.301595 0.295309 0.629213
1239 4 0.311481 0.30421 0.650384
954 4 0.467036 0.26696 0.595648
3123 4 0.475438 0.271497 0.666494
982 2 0.0426851 0.332539 0.590475
984 4 0.0361898 0.353356 0.602708
1040 4 0.0845355 0.362546 0.63813
1039 2 0.0596593 0.365043 0.638472
1041 4 0.034783 0.36754 0.638814
1136 4 0.0844984 0.344819 0.61027
993 4 0.103596 0.368854 0.638699
1135 2 0.101999 0.357628 0.597826
991 2 0.11792 0.385608 0.650503
992 4 0.132243 0.402362 0.662307
897 4 0.173223 0.415261 0.597425
1029 4 0.246971 0.387478 0.656788
1002 4 0.41497 0.410638 0.613572
930 4 0.367384 0.36693 0.594783
1206 4 0.410601 0.421243 0.64343
1000 2 0.429824 0.419365 0.595451
1953 4 0.294161 0.494985 0.599076
889 2 0.309292 0.4186 0.591341
891 4 0.292914 0.428444 0.575215
890 4 0.325669 0.408755 0.607467
1911 4 0.41961 0.479223 0.584194
945 4 0.0842997 0.0394173 0.671998
1184 4 0.0207368 0.0327694 0.671324
1147 2 0.220055 0.0703241 0.74482
2256 4 0.187258 0.020994 0.682435
2281 2 0.406207 0.0022194 0.668816
45 3 0.401989 0.0798028 0.702875
1004 4 0.347077 0.0862468 0.68774
2283 4 0.41748 0.0245212 0.667963
43 3 0.42851 0.0751214 0.729189
1076 4 0.0444048 0.0976155 0.672324
864 4 0.0154576 0.136133 0.719088
1075 2 0.030942 0.113051 0.686665
1077 4 0.0174793 0.128487 0.701006
862 2 0.024965 0.136844 0.742202
1130 4 0.17478 0.154124 0.73368
908 4 0.181941 0.148281 0.683065
1148 4 0.220837 0.0814509 0.722442
1225 2 0.199169 0.116336 0.705105
1226 4 0.215885 0.101074 0.715726
1227 4 0.182453 0.131599 0.694483
1005 4 0.313049 0.110638 0.715087
1003 2 0.330063 0.0984422 0.701414
887 4 0.331396 0.165636 0.676486
829 2 0.350136 0.154278 0.706733
831 4 0.348562 0.147042 0.730615
830 4 0.35171 0.161514 0.682851
42 3 0.43628 0.0689219 0.692942
41 1 0.424184 0.0820335 0.707465
44 3 0.430645 0.104154 0.704756
1142 4 0.43273 0.12336 0.699178
1141 2 0.434584 0.146062 0.688864
3426 4 0.482856 0.125491 0.684989
1143 4 0.436438 0.168764 0.67855
851 4 0.0654756 0.187422 0.697638
852 4 0.0517245 0.226948 0.670264
850 2 0.0586 0.207185 0.683951
1213 2 0.0125659 0.194076 0.744246
1214 4 0.0369721 0.189985 0.747821
1107 4 0.0813489 0.17847 0.707027
1178 4 0.0154378 0.224454 0.713261
1105 2 0.0793706 0.177377 0.731928
1177 2 0.000806038 0.243726 0.706962
1129 2 0.175965 0.178209 0.740293
1131 4 0.177151 0.202293 0.746906
1277 4 0.189987 0.21791 0.743041
1276 2 0.208034 0.235208 0.742513
1211 4 0.265093 0.176339 0.670846
978 4 0.270502 0.187244 0.721496
886 2 0.307069 0.171126 0.678284
888 4 0.282742 0.176616 0.680082
976 2 0.281885 0.199718 0.739935
1193 4 0.375632 0.221437 0.675025
1192 2 0.36055 0.201532 0.676258
1194 4 0.345468 0.181627 0.677491
1026 4 0.430372 0.189226 0.678608
1261 2 0.434752 0.197076 0.711713
1263 4 0.429428 0.177781 0.696729
1262 4 0.440076 0.216371 0.726698
1179 4 0.986174 0.262998 0.700663
1208 4 0.104197 0.272424 0.691375
822 4 0.133809 0.301679 0.710355
820 2 0.146114 0.279952 0.711668
821 4 0.158418 0.258225 0.712982
1065 4 0.230043 0.303721 0.692764
1063 2 0.245024 0.323564 0.6954
807 4 0.318562 0.322864 0.701881
805 2 0.298179 0.337344 0.701995
1019 4 0.372613 0.327699 0.719187
3121 2 0.491462 0.271002 0.685681
3274 2 0.011456 0.391914 0.721065
3276 4 0.0334342 0.381102 0.716042
892 2 0.0661161 0.391645 0.734547
894 4 0.0442573 0.394907 0.722854
940 2 0.130736 0.375983 0.735924
1067 4 0.16062 0.376888 0.715138
941 4 0.151915 0.365619 0.727605
1028 4 0.214229 0.402013 0.691679
1066 2 0.183514 0.380256 0.705666
1068 4 0.206408 0.383624 0.696195
1027 2 0.2306 0.394746 0.674234
806 4 0.277796 0.351825 0.70211
1064 4 0.260006 0.343408 0.698036
1204 2 0.411934 0.413061 0.667019
1205 4 0.413267 0.404879 0.690609
1018 2 0.368751 0.351867 0.724305
1020 4 0.364889 0.376034 0.729424
1101 4 0.458038 0.419095 0.743885
1981 2 0.0133405 0.464402 0.716689
1281 4 0.0628105 0.424425 0.675913
1280 4 0.0529182 0.459986 0.709651
1279 2 0.0578643 0.442205 0.692782
1983 4 0.00122246 0.475702 0.697964
1982 4 0.0254585 0.453102 0.735414
1174 2 0.204811 0.492901 0.685926
1176 4 0.183273 0.493385 0.698617
2016 4 0.170358 0.498626 0.712566
1989 4 0.30845 0.491048 0.702252
1139 4 0.29912 0.430182 0.731467
1138 2 0.291522 0.434284 0.708002
1140 4 0.283923 0.438387 0.684537
1987 2 0.319436 0.489258 0.724641
1988 4 0.330422 0.487469 0.747031
1228 2 0.386438 0.460482 0.733194
1230 4 0.399274 0.439036 0.732491
1229 4 0.373602 0.481928 0.733897
1268 4 0.447518 0.484375 0.681968
1267 2 0.438123 0.461317 0.684256
1269 4 0.428728 0.438259 0.686543
1100 4 0.428924 0.429053 0.704465
1099 2 0.443481 0.424074 0.724175
1251 4 0.496562 0.464358 0.741203
1295 4 0.00420776 0.0637673 0.81719
1294 2 0.0140879 0.0412133 0.821534
1296 4 0.023968 0.0186593 0.825879
1203 4 0.0935927 0.0606923 0.803777
1201 2 0.0964703 0.0412098 0.788372
1202 4 0.0993479 0.0217272 0.772966
2049 4 0.119439 0.0178399 0.76806
911 4 0.100573 0.054926 0.823559
1149 4 0.219273 0.0591973 0.767198
2399 4 0.294975 0.00586265 0.763988
1255 2 0.30311 0.0823459 0.799775
1257 4 0.311058 0.0603534 0.790924
1049 4 0.309329 0.0117359 0.751575
1048 2 0.315212 0.0276827 0.769913
973 2 0.339097 0.0153695 0.835307
1050 4 0.321095 0.0436296 0.788251
1112 4 0.406326 0.0565081 0.776887
974 4 0.322031 0.0163412 0.817059
1111 2 0.426458 0.0483443 0.789265
1113 4 0.446591 0.0401804 0.801643
844 2 0.479546 0.0645686 0.78326
845 4 0.460382 0.0514587 0.792536
980 4 0.433442 0.011379 0.825729
863 4 0.0344724 0.137554 0.765317
833 4 0.0200802 0.140554 0.778514
34 3 0.0962942 0.129797 0.810876
31 1 0.108494 0.145382 0.798765
32 3 0.106407 0.140666 0.776347
35 3 0.130471 0.144313 0.804641
33 3 0.100263 0.166709 0.802743
1256 4 0.295162 0.104338 0.808625
839 4 0.30327 0.150023 0.780086
838 2 0.280699 0.143376 0.788544
840 4 0.258127 0.136729 0.797002
1084 2 0.361785 0.12919 0.765149
1085 4 0.370729 0.111171 0.779997