ITEM: TIMESTEP
2380000
ITEM: NUMBER OF ATOMS
4590
ITEM: BOX BOUNDS pp pp pp
-9.9985700000000008e+00 9.9985700000000008e+00
-9.9985700000000008e+00 9.9985700000000008e+00
-9.9985700000000008e+00 9.9985700000000008e+00
ITEM: ATOMS id type xs ys zs
1666 2 0.0669961 0.0505936 0.0463187
1667 4 0.0706467 0.0729752 0.0357871
1668 4 0.0633455 0.0282119 0.0568503
534 4 0.150522 0.0572568 0.0125228
423 4 0.160088 0.0726777 0.0047325
532 2 0.166385 0.0390637 0.00599926
1475 4 0.191021 0.0461877 0.0420343
1474 2 0.184377 0.0296033 0.0595271
1476 4 0.177733 0.0130189 0.0770199
490 2 0.298058 0.0692331 0.010654
653 4 0.284519 0.0811403 0.0494589
652 2 0.282942 0.0626112 0.0661732
491 4 0.282598 0.0773652 0.0285437
591 4 0.0525273 0.0798141 0.0446135
702 4 0.0701515 0.0925438 0.0445768
589 2 0.034865 0.096792 0.039616
590 4 0.0172028 0.11377 0.0346185
3232 2 0.0152269 0.139219 0.999058
3233 4 0.0125522 0.119806 0.0145877
3134 4 0.0436803 0.0836294 0.00634384
421 2 0.15368 0.0966715 0.00763264
422 4 0.147272 0.120665 0.0105328
700 2 0.0852482 0.111052 0.0519737
701 4 0.100345 0.12956 0.0593706
236 4 0.0984592 0.139427 0.0785712
449 4 0.117152 0.13149 0.0721808
448 2 0.13756 0.122891 0.0837883
1133 4 0.165906 0.162559 0.999049
565 2 0.273996 0.115836 0.0342765
566 4 0.278556 0.140181 0.0308517
567 4 0.269437 0.0914915 0.0377013
359 4 0.267314 0.155266 0.024667
358 2 0.250477 0.157698 0.00634313
664 2 0.34626 0.156495 0.00615635
556 2 0.377018 0.166185 0.0613121
987 4 0.456198 0.138694 0.0335729
985 2 0.458631 0.133511 0.00923364
913 2 0.146005 0.241737 0.00745173
357 4 0.248695 0.22855 0.00787386
558 4 0.367491 0.172718 0.0391367
666 4 0.360986 0.172402 0.0186194
571 2 0.365005 0.21379 0.0291559
572 4 0.371028 0.189724 0.0260335
1071 4 0.376334 0.249434 0.03027
573 4 0.358983 0.237855 0.0322784
623 4 0.403411 0.232386 0.0767574
324 4 0.420533 0.237542 0.067594
771 4 0.482433 0.25523 0.0462524
518 4 0.481619 0.24616 0.0656159
322 2 0.442737 0.248081 0.0630029
2835 4 0.995022 0.248014 0.0661732
914 4 0.157054 0.248637 0.0287939
293 4 0.138387 0.321238 0.054137
292 2 0.122203 0.325513 0.0727102
507 4 0.157174 0.312176 0.0476384
288 4 0.154157 0.333376 0.0467109
505 2 0.152232 0.289588 0.0381233
506 4 0.14729 0.267 0.0286081
756 4 0.257947 0.306588 0.078075
955 2 0.392998 0.326902 0.00952568
1069 2 0.374545 0.270791 0.0173927
957 4 0.389955 0.303412 0.00151686
1070 4 0.372756 0.292149 0.00451554
323 4 0.464941 0.25862 0.0584117
282 4 0.444626 0.329075 0.0292818
1170 4 0.0115659 0.35541 0.0128436
1168 2 0.0154883 0.380102 0.0125012
1169 4 0.0194106 0.404793 0.0121588
286 2 0.17789 0.341193 0.045815
287 4 0.201623 0.349011 0.0449192
481 2 0.229657 0.33197 0.0706201
483 4 0.219366 0.348456 0.0548875
608 4 0.280198 0.412489 0.0752719
956 4 0.396041 0.350392 0.0175345
1047 4 0.414657 0.389428 0.0071895
280 2 0.451014 0.337648 0.0518843
281 4 0.457403 0.346221 0.0744867
671 4 0.464732 0.363969 0.0806691
551 4 0.00304279 0.419245 0.0110916
550 2 0.00880405 0.432875 0.0312464
552 4 0.0145653 0.446504 0.0514012
315 4 0.0297899 0.450227 0.0669067
313 2 0.0500004 0.464771 0.0691814
620 4 0.00937091 0.456909 0.0710758
314 4 0.0702109 0.479316 0.0714562
1691 4 0.0816937 0.491648 0.0582773
1787 4 0.0889943 0.472368 0.0636375
1786 2 0.111281 0.465892 0.0729396
1788 4 0.133568 0.459415 0.0822416
242 4 0.206566 0.497556 0.0381097
241 2 0.229855 0.494259 0.0465908
1440 4 0.252898 0.490271 0.0748547
626 4 0.276057 0.426967 0.0621384
243 4 0.253144 0.490962 0.055072
627 4 0.263243 0.473153 0.0478789
625 2 0.26965 0.45006 0.0550087
244 2 0.322632 0.456487 0.0366714
245 4 0.314638 0.444276 0.0569731
272 4 0.338486 0.47933 0.998493
246 4 0.330626 0.468699 0.0163698
2386 2 0.395479 0.496189 0.0149071
2388 4 0.413078 0.483864 0.00211904
854 4 0.485809 0.46443 0.999968
19 3 0.0352576 0.0775326 0.100429
2481 4 0.0246434 0.0452159 0.125618
16 1 0.0161518 0.076896 0.113581
2479 2 0.0188678 0.0298834 0.144506
18 3 0.00926063 0.0549302 0.116482
2480 4 0.0130922 0.0145508 0.163393
654 4 0.281365 0.0440822 0.0828875
1785 4 0.31672 0.0357589 0.167568
297 4 0.408151 0.027917 0.0877004
295 2 0.430422 0.03886 0.0907692
296 4 0.452694 0.049803 0.093838
20 3 0.0203274 0.0864676 0.133819
235 2 0.0821141 0.156342 0.0870498
450 4 0.157968 0.114292 0.0953957
557 4 0.386544 0.159652 0.0834875
237 4 0.065769 0.173258 0.0955285
477 4 0.0519758 0.186696 0.0999393
476 4 0.0755788 0.226149 0.0802665
475 2 0.0637773 0.206422 0.0901029
339 4 0.090994 0.232796 0.090867
337 2 0.105451 0.238353 0.110496
338 4 0.119909 0.243911 0.130124
363 4 0.120608 0.24637 0.149826
461 4 0.290063 0.221309 0.135351
354 4 0.275047 0.217547 0.122075
460 2 0.313457 0.214944 0.129237
352 2 0.258522 0.236269 0.123333
462 4 0.336851 0.20858 0.123123
254 4 0.40471 0.194154 0.122987
253 2 0.381133 0.202381 0.121705
255 4 0.357557 0.210609 0.120422
630 4 0.414559 0.210576 0.124156
629 4 0.459186 0.188013 0.124022
628 2 0.436873 0.199294 0.124089
517 2 0.494439 0.245929 0.0870814
361 2 0.13485 0.259748 0.165427
294 4 0.106018 0.329788 0.0912835
482 4 0.239947 0.315485 0.0863528
738 4 0.17939 0.250811 0.125897
353 4 0.241998 0.254992 0.124591
736 2 0.202665 0.259639 0.123552
737 4 0.22594 0.268468 0.121207
755 4 0.245049 0.270904 0.110648
754 2 0.251498 0.288746 0.0943615
252 4 0.259265 0.323903 0.0926489
741 4 0.384334 0.284682 0.109403
739 2 0.369663 0.30135 0.120898
624 4 0.378167 0.271776 0.0944164
622 2 0.390789 0.252081 0.0855869
740 4 0.354993 0.318018 0.132393
526 2 0.492802 0.318908 0.142345
527 4 0.496202 0.306674 0.163884
528 4 0.489402 0.331142 0.120805
456 4 0.110125 0.329607 0.1109
454 2 0.123257 0.345676 0.124847
455 4 0.136388 0.361745 0.138794
537 4 0.134994 0.373651 0.155279
607 2 0.287829 0.392582 0.0883363
250 2 0.277285 0.33869 0.101694
251 4 0.295304 0.353477 0.11074
609 4 0.29546 0.372676 0.101401
387 4 0.310742 0.367705 0.115548
385 2 0.327064 0.350758 0.124009
386 4 0.343386 0.333812 0.132471
495 4 0.408643 0.338928 0.124278
14 3 0.402736 0.343085 0.143618
12 3 0.414998 0.37102 0.165571
11 1 0.413452 0.348156 0.163564
493 2 0.426983 0.340876 0.107395
494 4 0.445323 0.342823 0.0905117
670 2 0.479432 0.357474 0.099824
595 2 0.454214 0.386123 0.145067
596 4 0.471994 0.397123 0.131354
672 4 0.494132 0.350979 0.118979
597 4 0.436434 0.375123 0.15878
2652 4 0.490651 0.402264 0.133906
15 3 0.434386 0.339188 0.163637
646 2 0.021296 0.468162 0.130796
647 4 0.0245235 0.479676 0.152755
263 4 0.0309294 0.461857 0.159811
648 4 0.0180685 0.456648 0.108837
1438 2 0.268051 0.493386 0.0944976
1439 4 0.283205 0.4965 0.114141
637 2 0.278448 0.480786 0.15574
639 4 0.282845 0.485861 0.131655
525 4 0.329648 0.465397 0.160123
659 4 0.32761 0.444164 0.158288
524 4 0.341361 0.497689 0.123781
523 2 0.335505 0.481543 0.141952
688 2 0.134502 0.060958 0.22744
690 4 0.144467 0.0673629 0.205421
693 4 0.155442 0.0795716 0.193877
1506 4 0.292855 0.00251919 0.210332
21 1 0.324259 0.0537839 0.242183
1783 2 0.330694 0.0418642 0.187383
23 3 0.304716 0.0419873 0.238023
25 3 0.333764 0.0602545 0.222525
1784 4 0.344668 0.0479695 0.207198
759 4 0.344968 0.0705363 0.205811
757 2 0.369579 0.0740585 0.208475
312 4 0.415687 0.0791238 0.207898
758 4 0.394189 0.0775806 0.211139
311 4 0.465382 0.0816265 0.202905
310 2 0.440534 0.0803752 0.205402
1749 4 0.504116 0.0258478 0.226852
511 2 0.0102165 0.144835 0.230439
691 2 0.163234 0.103279 0.195434
692 4 0.171026 0.126986 0.196991
723 4 0.171574 0.141518 0.210706
721 2 0.169064 0.158595 0.228795
580 2 0.305068 0.165067 0.20405
582 4 0.280249 0.167831 0.20531
581 4 0.329886 0.162302 0.20279
744 4 0.406475 0.0926669 0.221418
706 2 0.377361 0.16475 0.23122
707 4 0.392344 0.149316 0.243968
748 2 0.0568944 0.194332 0.215875
749 4 0.0681863 0.183376 0.196442
750 4 0.0456026 0.205287 0.235309
396 4 0.0324081 0.213607 0.247757
722 4 0.166553 0.175673 0.246885
284 4 0.2426 0.206828 0.243914
344 4 0.222188 0.20814 0.244335
285 4 0.266267 0.169365 0.220738
283 2 0.254433 0.188097 0.232326
30 3 0.333585 0.178948 0.190383
708 4 0.362377 0.180183 0.218473
27 3 0.35508 0.204954 0.174428
28 3 0.360016 0.16876 0.165579
29 3 0.369905 0.181664 0.199932
26 1 0.354523 0.183479 0.182654
543 4 0.449513 0.248541 0.245415
362 4 0.149093 0.273125 0.181027
372 4 0.152505 0.284132 0.195806
370 2 0.176291 0.28767 0.202655
371 4 0.200077 0.291207 0.209503
279 4 0.2151 0.3017 0.221552
277 2 0.225501 0.288113 0.239784
612 4 0.204546 0.311931 0.2047
610 2 0.216271 0.328984 0.190669
765 4 0.425209 0.296283 0.248818
542 4 0.43522 0.294546 0.232
541 2 0.442366 0.271543 0.238707
535 2 0.119775 0.369728 0.174725
536 4 0.104555 0.365805 0.194171
298 2 0.14126 0.387663 0.245957
300 4 0.131815 0.404839 0.230434
417 4 0.225574 0.366747 0.181134
415 2 0.228732 0.388441 0.193158
611 4 0.227997 0.346038 0.176638
416 4 0.231889 0.410136 0.205181
301 2 0.328694 0.389608 0.221287
303 4 0.323021 0.376836 0.24202
302 4 0.334366 0.40238 0.200553
660 4 0.342601 0.402992 0.18239
13 3 0.401224 0.339865 0.181456
645 4 0.42586 0.38805 0.173959
644 4 0.429065 0.402813 0.22163
447 4 0.423701 0.398869 0.241008
643 2 0.427463 0.395432 0.197795
262 2 0.0428871 0.45586 0.180936
1757 4 0.0498197 0.462 0.218025
264 4 0.0548447 0.449864 0.20206
1756 2 0.0503918 0.466342 0.242642
603 4 0.128727 0.424294 0.228489
601 2 0.126715 0.443289 0.244624
291 4 0.244254 0.424904 0.19804
638 4 0.27405 0.475711 0.179825
289 2 0.262675 0.441076 0.193108
290 4 0.281096 0.457247 0.188176
767 4 0.29118 0.475747 0.193115
766 2 0.315224 0.470826 0.1979
658 2 0.335106 0.423578 0.170339
768 4 0.339267 0.465906 0.202685
1574 4 0.357965 0.471766 0.20232
1573 2 0.36918 0.469517 0.224553
689 4 0.124537 0.0545532 0.24946
675 4 0.120526 0.06953 0.264008
1404 4 0.115675 0.0182361 0.301579
1403 4 0.10974 0.050921 0.2642
1402 2 0.112708 0.0345785 0.28289
1799 4 0.124568 0.00180437 0.296247
1700 4 0.198909 0.0395939 0.261502
1699 2 0.206229 0.0424396 0.285241
248 4 0.198456 0.0465801 0.323835
247 2 0.184394 0.066713 0.328536
1701 4 0.213548 0.0452852 0.308979
605 4 0.212743 0.0309187 0.325646
604 2 0.233646 0.0184214 0.33131
632 4 0.325533 0.0494801 0.327387
24 3 0.319648 0.0723946 0.255252
699 4 0.384331 0.00227669 0.309379
22 3 0.338894 0.0401557 0.253552
1495 2 0.356692 0.0103522 0.278794
1496 4 0.345948 0.0231538 0.260196
697 2 0.398172 0.0209087 0.318677
351 4 0.413044 0.0612062 0.329787
1497 4 0.367436 0.997551 0.297391
698 4 0.412013 0.0395407 0.327974
349 2 0.415327 0.074039 0.308449
513 4 0.0228829 0.153018 0.250384
579 4 0.034686 0.145209 0.267398
577 2 0.0583907 0.150888 0.272967
530 4 0.0132287 0.143984 0.267159
529 2 0.00772251 0.134666 0.289699
578 4 0.0820953 0.156567 0.278536
393 4 0.0817207 0.163986 0.297124
398 4 0.0147999 0.122455 0.3304
674 4 0.0891819 0.107731 0.271686
673 2 0.104854 0.0886305 0.267847
600 4 0.143786 0.159094 0.32349
544 2 0.164813 0.169117 0.290074
249 4 0.170332 0.0868459 0.333237
545 4 0.160994 0.168047 0.314761
404 4 0.182051 0.102346 0.325496
742 2 0.404848 0.0915819 0.246345
743 4 0.403221 0.0904968 0.271272
332 4 0.407538 0.149193 0.304476
333 4 0.415267 0.106701 0.279268
331 2 0.411402 0.127947 0.291872
350 4 0.417609 0.0868717 0.287112
762 4 0.422486 0.158033 0.316452
394 2 0.0302782 0.233512 0.262739
546 4 0.168633 0.170186 0.265387
391 2 0.0839722 0.182239 0.314063
343 2 0.223965 0.231867 0.252022
474 4 0.210848 0.210682 0.329228
276 4 0.190116 0.212362 0.324933
613 2 0.400629 0.234059 0.327409
614 4 0.406327 0.225639 0.304565
761 4 0.408949 0.206028 0.312717
520 2 0.487636 0.239206 0.270048
760 2 0.415717 0.18203 0.314585
418 2 0.43625 0.227254 0.28219
419 4 0.423232 0.212827 0.297924
420 4 0.449268 0.241682 0.266456
521 4 0.467774 0.247726 0.257476
442 2 0.0123293 0.290992 0.281179
395 4 0.0281483 0.253416 0.277721
444 4 0.0276973 0.271787 0.285673
389 4 0.136963 0.288731 0.334139
278 4 0.235902 0.274526 0.258016
345 4 0.225742 0.255593 0.259708
309 4 0.231244 0.266464 0.277077
307 2 0.247146 0.278975 0.291766
308 4 0.263049 0.291487 0.306454
497 4 0.267792 0.312443 0.308149
496 2 0.291369 0.313205 0.299859
509 4 0.269171 0.299544 0.325345
498 4 0.314946 0.313967 0.291569
763 2 0.415308 0.30698 0.269133
764 4 0.405406 0.317678 0.289449
734 4 0.142142 0.360501 0.277363
733 2 0.152688 0.355626 0.299504
299 4 0.150705 0.370486 0.261479
735 4 0.163233 0.35075 0.321644
729 4 0.32744 0.377883 0.262838
438 4 0.306724 0.377952 0.255701
436 2 0.288081 0.3939 0.260524
437 4 0.269437 0.409848 0.265348
727 2 0.34508 0.391256 0.274462
728 4 0.362721 0.40463 0.286087
753 4 0.360429 0.404051 0.307183
751 2 0.379521 0.40181 0.323172
561 4 0.41191 0.411955 0.331298
445 2 0.427453 0.409249 0.263444
1758 4 0.0509639 0.470685 0.267259
776 4 0.0812844 0.474977 0.332343
412 2 0.111347 0.46453 0.297992
602 4 0.124702 0.462283 0.260759
414 4 0.128682 0.457648 0.281339
413 4 0.0940124 0.471412 0.314645
1545 4 0.10162 0.468412 0.334342
1435 2 0.244625 0.435996 0.267219
1437 4 0.222795 0.443284 0.276991
1436 4 0.266455 0.428708 0.257446
1575 4 0.380395 0.467267 0.246787
1803 4 0.3608 0.422813 0.296928
1802 4 0.378865 0.458195 0.266556
1801 2 0.369833 0.440504 0.281742
5 3 0.34323 0.479456 0.326207
1689 4 0.395051 0.472327 0.261512
1687 2 0.411455 0.490887 0.264917
446 4 0.431205 0.419628 0.28588
713 4 0.447249 0.415699 0.297256
712 2 0.470576 0.424313 0.299871
231 4 0.472344 0.488372 0.319231
714 4 0.493903 0.432928 0.302485
233 4 0.012453 0.0345888 0.37627
318 4 0.0754692 0.062673 0.390528
234 4 0.0577808 0.0543682 0.383678
232 2 0.0351169 0.0444785 0.379974
1376 4 0.996982 0.0208346 0.381762
316 2 0.092181 0.0472186 0.400875
317 4 0.108893 0.0317643 0.411222
1464 4 0.138848 0.0109495 0.343909
631 2 0.322291 0.0265954 0.336924
606 4 0.254548 0.00592421 0.336974
682 2 0.278411 0.0608129 0.409234
683 4 0.287435 0.052197 0.387565
633 4 0.319048 0.00371075 0.346461
425 4 0.41197 0.0369198 0.400307
258 4 0.401988 0.045998 0.38544
256 2 0.41386 0.047293 0.363472
257 4 0.425732 0.048588 0.341505
452 4 0.48438 0.0678417 0.380672
451 2 0.464608 0.0802414 0.389645
2643 4 0.479022 0.0542222 0.367625
397 2 0.0349372 0.129117 0.343639
399 4 0.0550744 0.13578 0.356879
732 4 0.0694904 0.122143 0.359422
368 4 0.0808717 0.095159 0.415499
405 4 0.163007 0.148518 0.323001
731 4 0.107159 0.147928 0.379841
730 2 0.0883245 0.135035 0.369632
599 4 0.114481 0.160403 0.36399
598 2 0.129134 0.159749 0.34374
685 2 0.138309 0.148928 0.40109
686 4 0.125466 0.159186 0.382248
403 2 0.172529 0.125432 0.324248
467 4 0.275225 0.157913 0.401078
515 4 0.434988 0.0820916 0.412777
453 4 0.444837 0.0926411 0.398618
2653 2 0.0590559 0.200492 0.364972
2655 4 0.0433645 0.196559 0.384037
2654 4 0.0747473 0.204425 0.345907
392 4 0.0862238 0.200492 0.331003
275 4 0.153826 0.204752 0.358487
472 2 0.230476 0.208015 0.344485
274 2 0.171971 0.208557 0.34171
473 4 0.250105 0.205348 0.359743
409 2 0.287041 0.235844 0.379468
466 2 0.288332 0.176802 0.391251
468 4 0.30144 0.195691 0.381424
410 4 0.286813 0.210876 0.380784
305 4 0.392047 0.179217 0.386308
576 4 0.392608 0.174193 0.405967
304 2 0.409219 0.197282 0.388298
615 4 0.394932 0.24248 0.350252
717 4 0.371665 0.240706 0.402335
488 4 0.350998 0.24633 0.404757
269 4 0.435825 0.22074 0.373287
306 4 0.42639 0.215348 0.390287
268 2 0.441359 0.245096 0.372137
2814 4 0.00967476 0.329485 0.401511
617 4 0.0849231 0.265202 0.362195
616 2 0.0866817 0.263704 0.387091
388 2 0.116514 0.284717 0.347955
401 4 0.150665 0.282779 0.347893
390 4 0.0960646 0.280702 0.361772
618 4 0.0884404 0.262205 0.411988
400 2 0.167638 0.279727 0.365998
375 4 0.192309 0.288484 0.39939
402 4 0.184611 0.276675 0.384103
373 2 0.216194 0.293495 0.393955
374 4 0.24008 0.298507 0.38852
678 4 0.201885 0.315191 0.347187
676 2 0.188956 0.33592 0.341866
411 4 0.287268 0.260812 0.378153
510 4 0.251196 0.305527 0.371625
508 2 0.260183 0.302535 0.348485
378 4 0.261228 0.29289 0.385435
376 2 0.276692 0.286406 0.403982
487 2 0.330543 0.260048 0.409067
716 4 0.393861 0.258828 0.361351
715 2 0.382763 0.249767 0.381843
270 4 0.446894 0.269453 0.370988
2924 4 0.43142 0.278599 0.377926
2923 2 0.418882 0.288594 0.397111
408 4 0.00916083 0.34901 0.349407
548 4 0.0381309 0.400691 0.370238
406 2 0.019596 0.371628 0.351586
407 4 0.0300311 0.394245 0.353765
677 4 0.176026 0.35665 0.336545
503 4 0.209229 0.396365 0.404981
650 4 0.225686 0.406273 0.412143
649 2 0.23912 0.387839 0.401902
434 4 0.320946 0.395639 0.352019
651 4 0.252555 0.369405 0.391662
433 2 0.325336 0.418587 0.343115
752 4 0.398614 0.399569 0.339161
667 2 0.41591 0.411597 0.406689
669 4 0.395111 0.413623 0.420417
559 2 0.426411 0.410334 0.351602
560 4 0.440913 0.408712 0.371906
668 4 0.436709 0.40957 0.392961
588 4 0.455232 0.400856 0.386374
586 2 0.469343 0.413445 0.402732
547 2 0.0310663 0.424061 0.364842
775 2 0.0596472 0.464895 0.339784
777 4 0.0380101 0.454814 0.347226
549 4 0.0240017 0.447431 0.359446
1543 2 0.109632 0.48957 0.344988
2 3 0.328975 0.488792 0.359411
435 4 0.329725 0.441536 0.33421
4 3 0.320586 0.45542 0.344294
1 1 0.33716 0.471485 0.346658
3 3 0.355592 0.462333 0.357378
593 4 0.485839 0.502934 0.377356
3988 2 0.495692 0.469266 0.35346
3989 4 0.488567 0.492035 0.360943
2238 4 0.0220317 0.0123179 0.482322
1127 4 0.00298752 0.0129673 0.485394
428 4 0.104714 0.0207536 0.429233
1781 4 0.119792 0.0359036 0.429229
1780 2 0.12313 0.0499654 0.449633
1782 4 0.126467 0.0640273 0.470037
341 4 0.145585 0.0665968 0.480252
2430 4 0.133376 0.0490038 0.484114
340 2 0.165151 0.0790237 0.470875
1180 2 0.271506 0.0456872 0.468777
1181 4 0.276171 0.0287678 0.486586
1182 4 0.26684 0.0626066 0.450969
684 4 0.269386 0.0694288 0.430902
963 4 0.261123 0.01385 0.490802
432 4 0.281523 0.00791356 0.487935
320 4 0.282604 0.0769401 0.446304
1217 4 0.402424 0.00915065 0.462742
841 2 0.364813 0.00998836 0.459006
842 4 0.38711 0.0108919 0.447727
426 4 0.407782 0.00865315 0.441345
424 2 0.409876 0.0227865 0.420826
843 4 0.342516 0.00908487 0.470284
1216 2 0.423292 0.0159083 0.474744
1218 4 0.444159 0.022666 0.486746
458 4 0.00600833 0.145841 0.436373
457 2 0.0167105 0.126738 0.448445
719 4 0.0206998 0.107269 0.479502
459 4 0.0274126 0.107635 0.460516
367 2 0.101711 0.0954997 0.429312
687 4 0.151152 0.138671 0.419932
369 4 0.122551 0.0958404 0.443124
939 4 0.120996 0.114746 0.449417
937 2 0.125589 0.138896 0.453982
938 4 0.130182 0.163046 0.458548
1151 4 0.167276 0.14177 0.430864
342 4 0.184717 0.0914505 0.461499
1152 4 0.193924 0.108808 0.457399
1150 2 0.1806 0.125289 0.444132
321 4 0.27311 0.12603 0.445423
319 2 0.277857 0.101485 0.445863
899 4 0.275508 0.143278 0.434944
898 2 0.271449 0.162444 0.45048
574 2 0.395822 0.15158 0.416141
575 4 0.399035 0.128968 0.426315
516 4 0.414808 0.121891 0.435349
514 2 0.424898 0.101991 0.424063
1034 4 0.142735 0.174291 0.44693
261 4 0.111342 0.220046 0.463848
1035 4 0.12988 0.214841 0.473219
1033 2 0.136308 0.194566 0.460074
695 4 0.112468 0.218013 0.484978
259 2 0.103341 0.237619 0.447962
900 4 0.26739 0.18161 0.466016
813 4 0.377992 0.224743 0.472084
266 4 0.390159 0.223939 0.455392
265 2 0.377608 0.236836 0.438032
811 2 0.386621 0.233698 0.493775
267 4 0.365058 0.249733 0.420673
2656 2 0.482718 0.18438 0.450573
2657 4 0.45815 0.188789 0.449116
2801 4 0.00531388 0.321094 0.419577
2802 4 0.0161363 0.284395 0.451776
2847 4 0.0193948 0.297941 0.466823
2800 2 0.0107251 0.302744 0.435677
2845 2 0.00942671 0.293033 0.489222
347 4 0.0878033 0.276096 0.429357
260 4 0.0953404 0.255191 0.432076
346 2 0.102999 0.295384 0.434076
348 4 0.118195 0.314671 0.438794
10 3 0.120059 0.313701 0.458444
9 3 0.132989 0.318973 0.49341
8 3 0.157157 0.312599 0.46478
6 1 0.137044 0.32246 0.470831
489 4 0.310088 0.273767 0.413377
377 4 0.292156 0.279923 0.422529
2925 4 0.406343 0.298589 0.416296
239 4 0.411004 0.315922 0.425077
584 4 0.459171 0.322054 0.484071
2456 4 0.477093 0.313233 0.491061
680 4 0.0377895 0.381053 0.449411
679 2 0.0462066 0.404122 0.454117
504 4 0.162426 0.39331 0.422326
7 3 0.138383 0.345089 0.466924
711 4 0.133253 0.362649 0.472192
709 2 0.139035 0.375364 0.451454
710 4 0.144816 0.38808 0.430716
502 2 0.185828 0.394837 0.413654
238 2 0.396873 0.332682 0.437102
240 4 0.382742 0.349442 0.449127
335 4 0.369357 0.364304 0.443037
334 2 0.373017 0.387165 0.433594
336 4 0.376676 0.410026 0.42415
2507 4 0.491734 0.423988 0.438509
681 4 0.0546238 0.427191 0.458824
383 4 0.0715167 0.431251 0.469314
540 4 0.0314782 0.465207 0.456866
538 2 0.0342714 0.463284 0.481638
382 2 0.0900874 0.447248 0.464373
568 2 0.121973 0.499654 0.44086
384 4 0.108658 0.463245 0.459433
569 4 0.11981 0.478556 0.454104
634 2 0.184343 0.479047 0.497838
773 4 0.241821 0.463752 0.441388
635 4 0.184097 0.479832 0.472848
772 2 0.221302 0.465871 0.455518
774 4 0.200783 0.46799 0.469648
661 2 0.465399 0.452704 0.452202
1910 4 0.473728 0.474609 0.476333
1909 2 0.475987 0.492775 0.493365
662 4 0.456042 0.468538 0.46914
663 4 0.474756 0.43687 0.435263
587 4 0.483455 0.426033 0.419089
2428 2 0.131581 0.0534902 0.508647
2429 4 0.129786 0.0579766 0.533179
1030 2 0.251977 0.0307331 0.562702
1283 4 0.219057 0.0345317 0.580004
1031 4 0.232262 0.0188314 0.57244
1032 4 0.271692 0.0426348 0.552964
1091 4 0.35718 0.00189915 0.575611
720 4 0.0243333 0.0996762 0.528796
718 2 0.0225165 0.103472 0.504149
327 4 0.0865433 0.242146 0.535535
877 2 0.111951 0.222019 0.56442
878 4 0.104278 0.233233 0.543431
696 4 0.10522 0.246031 0.52576
694 2 0.108844 0.232022 0.505369
857 4 0.176484 0.21044 0.553565
856 2 0.198349 0.216179 0.564251
858 4 0.220213 0.221917 0.574937
952 2 0.408338 0.21091 0.543106
953 4 0.398592 0.232123 0.53415
812 4 0.39525 0.242653 0.515467
791 4 0.380335 0.243179 0.530732
954 4 0.418084 0.189697 0.552061
905 4 0.431385 0.201071 0.561219
982 2 0.0235117 0.27942 0.541043
984 4 0.0463546 0.27983 0.551203
326 4 0.0669766 0.284933 0.552481
1136 4 0.0525167 0.300385 0.548872
1135 2 0.063501 0.32283 0.549749
983 4 0.000668803 0.27901 0.530884
325 2 0.07676 0.26354 0.544008
2846 4 0.999459 0.288126 0.511621
1258 2 0.153458 0.305429 0.529861
1259 4 0.143306 0.315663 0.509431
1260 4 0.163609 0.295194 0.55029
1237 2 0.316622 0.295876 0.551106
1239 4 0.301222 0.311025 0.538515
873 4 0.398849 0.253423 0.533495
1238 4 0.332021 0.280727 0.563698
792 4 0.342991 0.268985 0.551712
790 2 0.361663 0.256082 0.541222
871 2 0.416518 0.270611 0.529304
872 4 0.434187 0.287798 0.525113
585 4 0.425243 0.300667 0.513941
583 2 0.442207 0.311361 0.499006
936 4 0.0370369 0.40192 0.525227
3353 4 0.0185257 0.398895 0.52153
1137 4 0.0744852 0.345275 0.550625
934 2 0.0434797 0.414671 0.545746
1160 4 0.100237 0.417362 0.526421
804 4 0.304672 0.328514 0.546857
803 4 0.285073 0.360547 0.57988
802 2 0.294872 0.34453 0.563368
1454 4 0.340276 0.417712 0.564068
880 2 0.375726 0.400873 0.578522
882 4 0.394904 0.385155 0.58173
925 2 0.468704 0.396691 0.528644
927 4 0.465139 0.397297 0.553385
1001 4 0.483838 0.392633 0.556215
1000 2 0.491839 0.400947 0.578397
926 4 0.472268 0.396085 0.503903
3430 2 0.0277948 0.465742 0.558056
539 4 0.0370645 0.461362 0.506411
3431 4 0.0181884 0.486947 0.548933
935 4 0.0499224 0.427423 0.566266
3432 4 0.0374012 0.444536 0.567179
1041 4 0.0541802 0.442457 0.580986
3264 4 0.0367755 0.429594 0.583044
4434 4 0.00558815 0.494388 0.565226
1159 2 0.104592 0.420146 0.550885
1161 4 0.108947 0.422929 0.575348
1395 4 0.192787 0.491239 0.536168
636 4 0.184589 0.478263 0.522828
1455 4 0.322308 0.464114 0.559093
1453 2 0.331292 0.440913 0.561581
881 4 0.356547 0.416591 0.575314
1183 2 0.0251777 0.0536609 0.657495
1184 4 0.0119512 0.0343516 0.648698
1185 4 0.0384042 0.0729703 0.666292
4338 4 0.999164 0.0252199 0.663214
1892 4 0.00234985 0.015689 0.644216
1059 4 0.18825 0.0665769 0.6101
1284 4 0.178106 0.0598093 0.593596
1282 2 0.198582 0.0471705 0.5868
2132 4 0.223711 0.0177641 0.592263
2131 2 0.228503 0.00641841 0.614023
1060 2 0.499064 0.016635 0.600732
810 4 0.467681 0.0762208 0.601203
1083 4 0.0060145 0.125706 0.630656
1081 2 0.0198483 0.108763 0.64277
1082 4 0.0336821 0.0918207 0.654884
3179 4 0.00455547 0.144227 0.636463
1057 2 0.190246 0.0904096 0.617394
1058 4 0.192243 0.114242 0.624688
1155 4 0.184971 0.13517 0.625618
1153 2 0.186302 0.158689 0.617235
909 4 0.17997 0.120467 0.641731
907 2 0.194968 0.125335 0.661135
886 2 0.329653 0.158772 0.632542
1193 4 0.407721 0.144144 0.606803
887 4 0.351369 0.146621 0.630105
1194 4 0.370468 0.142385 0.640118
1192 2 0.389095 0.143265 0.623461
830 4 0.352611 0.132275 0.646653
808 2 0.483525 0.0932381 0.592009
809 4 0.49937 0.110255 0.582814
1026 4 0.449405 0.148189 0.652842
1024 2 0.454776 0.155754 0.629623
1025 4 0.460147 0.163319 0.606405
1209 4 0.0832754 0.240465 0.65686
1245 4 0.0680268 0.254961 0.651714
879 4 0.119624 0.210805 0.58541
1272 4 0.131969 0.218052 0.598887
1270 2 0.155325 0.20919 0.599947
1154 4 0.187634 0.182207 0.608851
1271 4 0.178681 0.200328 0.601008
1221 4 0.199796 0.198917 0.603246
1219 2 0.224149 0.200224 0.608757
1220 4 0.248503 0.201532 0.614268
796 2 0.24339 0.24308 0.633775
798 4 0.24773 0.219696 0.626059
888 4 0.307937 0.170924 0.63498
1212 4 0.26436 0.206157 0.62832
1211 4 0.294731 0.172834 0.649951
1210 2 0.279545 0.189496 0.639135
904 2 0.442764 0.190668 0.580903
906 4 0.454144 0.180265 0.600587
1243 2 0.0444727 0.260225 0.645182
1244 4 0.0209186 0.26549 0.638649
1207 2 0.101205 0.257559 0.660251
1208 4 0.119135 0.274653 0.663642
948 4 0.182774 0.293708 0.66351
797 4 0.239049 0.266463 0.641491
3113 4 0.488877 0.317151 0.61538
3112 2 0.496523 0.293364 0.61443
3123 4 0.512151 0.259454 0.654134
897 4 0.167631 0.404639 0.588907
1191 4 0.219179 0.364712 0.595662
1189 2 0.243374 0.359532 0.592069
896 4 0.209424 0.377544 0.58445
895 2 0.188527 0.391092 0.586679
1190 4 0.26757 0.354351 0.588477
929 4 0.366439 0.345488 0.627193
930 4 0.395243 0.370364 0.594755
928 2 0.380841 0.357926 0.610974
1039 2 0.0760829 0.445677 0.592608
3262 2 0.0239495 0.429329 0.604505
3238 2 0.0155589 0.464217 0.649632
3239 4 0.00714566 0.450674 0.630371
3263 4 0.0111234 0.429064 0.625967
992 4 0.149435 0.408521 0.595121
1040 4 0.0979855 0.448897 0.604231
993 4 0.108568 0.433015 0.610308
991 2 0.129002 0.420768 0.602715
1188 4 0.191427 0.492421 0.66339
1173 4 0.273264 0.496136 0.602352
1172 4 0.292659 0.468601 0.639316
1171 2 0.282962 0.482369 0.620834
891 4 0.30595 0.461976 0.652968
1205 4 0.454723 0.419205 0.653428
1206 4 0.491141 0.413927 0.619566
1204 2 0.472932 0.416566 0.636497
3182 4 0.490199 0.428519 0.60326
3181 2 0.484615 0.452224 0.597594
3183 4 0.479031 0.475928 0.591929
2991 4 0.00423973 0.0161315 0.728403
1202 4 0.116273 0.0158685 0.74041
2400 4 0.348563 0.0493737 0.721225
2283 4 0.358072 0.00422505 0.673629
2398 2 0.352544 0.0562678 0.744927
43 3 0.461095 0.0544011 0.722253
846 4 0.448207 0.0407201 0.724138
41 1 0.474631 0.0731377 0.720224
844 2 0.433855 0.0343817 0.743607
45 3 0.496545 0.0669386 0.72031
944 4 0.0497413 0.0911057 0.670052
943 2 0.0709417 0.102932 0.676041
1076 4 0.0292869 0.0900227 0.676024
1075 2 0.0208158 0.0934604 0.699296
1077 4 0.0123446 0.0968981 0.722569
864 4 0.00401125 0.107528 0.736929
945 4 0.092142 0.114757 0.682031
908 4 0.209966 0.130203 0.68054
1227 4 0.199463 0.11853 0.694181
1226 4 0.198106 0.105113 0.742336
1225 2 0.198785 0.111821 0.718259
1005 4 0.328347 0.116225 0.743539
829 2 0.349543 0.122127 0.669298
831 4 0.346475 0.11198 0.691943
44 3 0.469667 0.0844037 0.700556
1143 4 0.456595 0.13644 0.669463
1263 4 0.447593 0.155376 0.673086
42 3 0.470651 0.08715 0.738028
1142 4 0.46195 0.0884202 0.682354
1141 2 0.459272 0.11243 0.675908
3426 4 0.49115 0.156041 0.724929
1261 2 0.44457 0.159551 0.697553
3270 4 0.475352 0.161345 0.73812
852 4 0.0642913 0.240036 0.667177
850 2 0.0605928 0.216389 0.674409
1179 4 0.00431907 0.172012 0.714908
1177 2 0.025943 0.182479 0.707979
1178 4 0.047567 0.192946 0.701049
851 4 0.0568942 0.192742 0.681641
1107 4 0.0641771 0.17988 0.698362
1105 2 0.0849902 0.185047 0.711218
1106 4 0.105803 0.190214 0.724075
1073 4 0.118545 0.188655 0.738664
1072 2 0.136108 0.200785 0.751686
1299 4 0.295912 0.214993 0.743417
1086 4 0.307884 0.198784 0.748597
1262 4 0.441547 0.163727 0.722019
1145 4 0.48904 0.225163 0.735568
1144 2 0.490144 0.200186 0.735214
1146 4 0.491248 0.17521 0.73486
816 4 0.0310913 0.320715 0.744665
946 2 0.160711 0.283095 0.668585
947 4 0.138648 0.272482 0.67366
820 2 0.120359 0.27994 0.708734
822 4 0.120197 0.272665 0.684813
821 4 0.120521 0.287215 0.732655
1242 4 0.1264 0.299461 0.746534
1098 4 0.327936 0.333267 0.717515
1065 4 0.253933 0.315156 0.682179
1096 2 0.333753 0.32095 0.738483
1063 2 0.262812 0.328202 0.701573
892 2 0.0558831 0.39858 0.724697
893 4 0.0634358 0.37495 0.72157
942 4 0.0780615 0.360903 0.728028
815 4 0.0590289 0.36159 0.73763
814 2 0.0450601 0.341153 0.741147
1067 4 0.13909 0.337949 0.707739
940 2 0.101583 0.353617 0.723689
941 4 0.125105 0.346331 0.719349
1066 2 0.153736 0.35818 0.706563
1068 4 0.168383 0.378411 0.705387
1028 4 0.16783 0.386653 0.686934
1139 4 0.217249 0.409222 0.683193
1029 4 0.213004 0.397213 0.668265
1027 2 0.190417 0.391933 0.677599
1064 4 0.271691 0.341248 0.720968
806 4 0.278241 0.353411 0.737234
805 2 0.292113 0.373177 0.743717
1236 4 0.264953 0.336469 0.741133
1099 2 0.436906 0.397664 0.687969
1101 4 0.425569 0.37996 0.701506
1100 4 0.448242 0.415367 0.674432
894 4 0.0483304 0.42221 0.727824
2172 4 0.0324606 0.496144 0.675509
1279 2 0.0448649 0.458041 0.699054
3276 4 0.0440656 0.441992 0.735148
1983 4 0.064602 0.436256 0.730414
1280 4 0.0498788 0.43921 0.714719
1281 4 0.039851 0.476873 0.683388
3240 4 0.0239721 0.47776 0.668893
1981 2 0.07639 0.454181 0.743256
3274 2 0.0211653 0.437886 0.744307
1176 4 0.192244 0.477991 0.729394
2016 4 0.189555 0.494854 0.740776
1138 2 0.231491 0.424358 0.697095
1174 2 0.191881 0.48644 0.705864
1175 4 0.191518 0.494888 0.682334
889 2 0.305649 0.477738 0.672376
1140 4 0.245732 0.439494 0.710997
890 4 0.305349 0.493501 0.691783
1269 4 0.464666 0.428339 0.670236
2169 4 0.476358 0.48 0.679654
1268 4 0.466731 0.470896 0.696415
1267 2 0.465698 0.449617 0.683325
1195 2 0.0809574 0.0134452 0.814427
1196 4 0.0850251 0.0333421 0.799841
911 4 0.096735 0.0508933 0.796157
1203 4 0.100937 0.0319484 0.785209