ITEM: TIMESTEP
2660000
ITEM: NUMBER OF ATOMS
4590
ITEM: BOX BOUNDS pp pp pp
-9.9985700000000008e+00 9.9985700000000008e+00
-9.9985700000000008e+00 9.9985700000000008e+00
-9.9985700000000008e+00 9.9985700000000008e+00
ITEM: ATOMS id type xs ys zs
1666 2 0.0729109 0.0537195 0.025942
1667 4 0.0645822 0.0770914 0.0228486
1668 4 0.0812395 0.0303477 0.0290353
423 4 0.159485 0.0765765 0.0147934
1475 4 0.213708 0.00704312 0.0390454
1474 2 0.191315 0.000781444 0.0482387
654 4 0.22566 0.0858893 0.0573185
490 2 0.279044 0.055065 0.019113
652 2 0.250272 0.0814934 0.0576106
491 4 0.284095 0.0694737 0.0389134
296 4 0.456983 0.0386166 0.0734702
591 4 0.0491843 0.0893093 0.0316747
702 4 0.0693876 0.0912052 0.0382924
589 2 0.0323778 0.104564 0.0211864
590 4 0.0155713 0.119819 0.0106981
3232 2 0.0127951 0.161116 0.0126591
3233 4 0.00871297 0.137632 0.0202111
421 2 0.149916 0.0955055 0.0280337
422 4 0.140347 0.114434 0.041274
700 2 0.0830047 0.100909 0.0568824
701 4 0.0966218 0.110613 0.0754725
448 2 0.139364 0.114206 0.0775988
450 4 0.163517 0.108358 0.0748419
236 4 0.0977218 0.123709 0.0924431
1133 4 0.186037 0.145262 0.00723653
653 4 0.274885 0.0770976 0.0579028
359 4 0.276338 0.140947 0.000369777
565 2 0.285143 0.111503 0.0281591
566 4 0.287441 0.13208 0.0141419
567 4 0.282846 0.0909254 0.0421763
556 2 0.385071 0.163207 0.0464098
557 4 0.379748 0.152409 0.0683247
987 4 0.495962 0.164777 0.00326219
913 2 0.142236 0.245803 0.0116101
915 4 0.128444 0.232814 0.995293
664 2 0.364453 0.170418 0.990059
558 4 0.390393 0.174004 0.0244949
666 4 0.381148 0.179935 0.00605454
571 2 0.369823 0.215328 0.0238955
572 4 0.379733 0.192375 0.0235425
573 4 0.359913 0.238281 0.0242485
623 4 0.401321 0.245362 0.0758849
324 4 0.413694 0.235146 0.0634628
322 2 0.435686 0.23432 0.051595
771 4 0.478273 0.239026 0.036141
518 4 0.473336 0.226197 0.0522913
517 2 0.490266 0.231098 0.0700254
323 4 0.457678 0.233494 0.0397273
1056 4 0.0131771 0.332043 0.00670057
914 4 0.156029 0.258792 0.027927
293 4 0.140376 0.32814 0.0567922
292 2 0.122335 0.331021 0.0738621
507 4 0.151004 0.322272 0.0392578
505 2 0.150777 0.299412 0.0291319
506 4 0.150551 0.276552 0.019006
294 4 0.104293 0.333903 0.090932
482 4 0.241661 0.312202 0.0730483
481 2 0.225885 0.325691 0.0591082
252 4 0.257263 0.326265 0.0778128
1071 4 0.376126 0.248686 0.0239715
1069 2 0.384296 0.265851 0.00773018
622 2 0.397845 0.269625 0.0808241
769 2 0.485153 0.253347 0.016834
1170 4 0.0168295 0.350895 0.00681668
1168 2 0.0123487 0.375204 0.00305389
1169 4 0.00786782 0.399514 0.999291
288 4 0.149825 0.343141 0.0447892
286 2 0.174111 0.347699 0.0409687
287 4 0.198397 0.352256 0.0371482
483 4 0.210108 0.33918 0.0451682
607 2 0.293255 0.392852 0.0719642
1047 4 0.412801 0.392508 0.0217105
37 3 0.357847 0.41713 0.995467
282 4 0.441347 0.345804 0.0187525
956 4 0.426192 0.335512 0.0120248
280 2 0.453624 0.350575 0.0400056
281 4 0.465901 0.355346 0.0612586
494 4 0.456551 0.351917 0.0801485
671 4 0.47794 0.348352 0.0783221
1045 2 0.425632 0.386273 0.0011763
551 4 0.00668095 0.418005 0.00969815
550 2 0.00646198 0.435742 0.0273192
552 4 0.00624301 0.45348 0.0449403
315 4 0.0246177 0.459522 0.0551474
313 2 0.045246 0.471567 0.0625344
620 4 0.00748299 0.453208 0.0667851
314 4 0.0658743 0.483612 0.0699215
1691 4 0.0819734 0.496212 0.0758224
1787 4 0.0857533 0.475725 0.0713141
1786 2 0.108527 0.477061 0.0815488
1788 4 0.131301 0.478398 0.0917836
241 2 0.23552 0.499185 0.0561977
608 4 0.285423 0.416075 0.0670097
626 4 0.277148 0.434368 0.0606652
243 4 0.259547 0.501127 0.0628394
627 4 0.27074 0.48331 0.0686832
625 2 0.273944 0.458839 0.0646742
244 2 0.320695 0.461092 0.0358273
245 4 0.316731 0.460473 0.060507
246 4 0.324659 0.461711 0.0111477
1440 4 0.257672 0.492567 0.082588
39 3 0.32222 0.418181 0.00739271
2386 2 0.389828 0.493191 0.0200321
40 3 0.34208 0.449951 0.00365866
2387 4 0.367732 0.503057 0.0137399
36 1 0.338317 0.429271 0.994892
563 4 0.426934 0.488791 0.0149313
2480 4 0.00660748 0.00551918 0.155762
16 1 0.00339428 0.0725756 0.112599
2479 2 0.00240794 0.0282234 0.146167
18 3 0.0122791 0.0535423 0.122458
20 3 0.0186886 0.0894424 0.11309
297 4 0.427878 0.0111196 0.10343
295 2 0.44243 0.0248681 0.0884498
449 4 0.115211 0.120055 0.0803557
235 2 0.0893057 0.146573 0.0868219
477 4 0.0613063 0.17187 0.0840318
475 2 0.061069 0.196823 0.0856014
476 4 0.0608317 0.221776 0.0871709
237 4 0.0808897 0.169436 0.0812007
339 4 0.0745891 0.233633 0.0950287
337 2 0.0914667 0.238699 0.112768
338 4 0.108344 0.243765 0.130506
461 4 0.287589 0.207166 0.10695
354 4 0.278955 0.221793 0.116328
460 2 0.311386 0.200645 0.102909
352 2 0.260133 0.237953 0.119458
462 4 0.335184 0.194124 0.0988684
254 4 0.385398 0.198908 0.129989
253 2 0.36675 0.189778 0.116057
255 4 0.348102 0.180649 0.102125
630 4 0.397343 0.213819 0.133554
28 3 0.358786 0.196553 0.160303
629 4 0.444419 0.20212 0.121402
628 2 0.420881 0.207969 0.127478
363 4 0.115097 0.260565 0.139157
456 4 0.0860059 0.327619 0.0977678
361 2 0.128143 0.27189 0.157232
738 4 0.196143 0.238936 0.155602
736 2 0.213757 0.25348 0.145434
737 4 0.231371 0.268025 0.135266
353 4 0.241312 0.254113 0.122589
756 4 0.245951 0.316826 0.0934685
755 4 0.234855 0.272992 0.114828
754 2 0.240403 0.294909 0.104148
741 4 0.396468 0.302479 0.104028
739 2 0.375732 0.316336 0.102239
624 4 0.39437 0.293888 0.0857633
454 2 0.0877026 0.336477 0.121088
455 4 0.0893993 0.345335 0.144409
537 4 0.0981811 0.354532 0.159194
250 2 0.273253 0.343885 0.085497
251 4 0.289242 0.361506 0.0931813
609 4 0.301086 0.369629 0.0769188
387 4 0.310911 0.367113 0.0967396
385 2 0.331303 0.355585 0.105484
740 4 0.354996 0.330193 0.10045
15 3 0.406029 0.354475 0.17006
386 4 0.351695 0.344057 0.114228
14 3 0.423998 0.350972 0.137158
11 1 0.408257 0.363127 0.149112
13 3 0.38783 0.362608 0.138118
12 3 0.415324 0.384964 0.150646
495 4 0.425412 0.357511 0.118876
493 2 0.440982 0.354714 0.0995121
670 2 0.494644 0.348486 0.0969269
595 2 0.461162 0.391564 0.145301
596 4 0.484956 0.395298 0.13859
597 4 0.437367 0.38783 0.152012
2652 4 0.49247 0.41409 0.131985
646 2 0.996601 0.487545 0.13875
647 4 0.0163866 0.474614 0.146906
263 4 0.008901 0.462547 0.160722
525 4 0.345036 0.457839 0.152439
523 2 0.356301 0.47785 0.142547
524 4 0.367565 0.497862 0.132656
659 4 0.333546 0.439858 0.157581
688 2 0.140116 0.0664529 0.240593
690 4 0.161371 0.0730875 0.229217
693 4 0.160222 0.0888022 0.218411
1700 4 0.205964 0.0430854 0.240972
1506 4 0.281282 0.00890454 0.221794
21 1 0.325851 0.0558925 0.24287
23 3 0.302884 0.0542073 0.240027
22 3 0.334334 0.0349994 0.247416
1785 4 0.349319 0.0322458 0.168618
1783 2 0.345806 0.037984 0.1927
25 3 0.335467 0.0639173 0.22385
1784 4 0.342293 0.0437222 0.216781
759 4 0.357069 0.0595202 0.222223
757 2 0.38084 0.0671406 0.223657
758 4 0.404611 0.0747611 0.225092
1749 4 0.494141 0.00486525 0.214991
312 4 0.424339 0.0841193 0.224521
744 4 0.419716 0.0694494 0.239875
511 2 0.0125733 0.126128 0.231091
513 4 0.0278576 0.136458 0.247968
691 2 0.161842 0.110521 0.206129
692 4 0.163462 0.132241 0.193848
723 4 0.178716 0.144591 0.196637
721 2 0.177104 0.16157 0.214921
285 4 0.284108 0.160441 0.239066
310 2 0.44214 0.0916402 0.208654
311 4 0.45994 0.0991611 0.192787
748 2 0.0422901 0.210389 0.205976
749 4 0.0258711 0.210879 0.187125
750 4 0.0587091 0.2099 0.224827
396 4 0.0622392 0.229074 0.230655
394 2 0.0598397 0.247161 0.247752
546 4 0.174134 0.179293 0.253337
722 4 0.175491 0.178549 0.233205
580 2 0.307085 0.184528 0.210275
582 4 0.296855 0.17224 0.229499
581 4 0.317314 0.196816 0.191052
30 3 0.332359 0.18536 0.184675
707 4 0.398263 0.171372 0.238154
27 3 0.359553 0.208273 0.196006
706 2 0.392508 0.168673 0.213972
708 4 0.386752 0.165974 0.18979
29 3 0.367511 0.17236 0.188285
26 1 0.354406 0.190544 0.182283
362 4 0.141188 0.283216 0.175308
372 4 0.147402 0.301665 0.177428
370 2 0.170013 0.299269 0.187829
371 4 0.192624 0.296873 0.198229
279 4 0.20552 0.29755 0.215619
277 2 0.214806 0.283883 0.234385
612 4 0.20973 0.310064 0.198976
610 2 0.220524 0.332154 0.194428
278 4 0.224093 0.270216 0.253151
345 4 0.239008 0.254639 0.255319
763 2 0.408278 0.326261 0.235065
765 4 0.429304 0.31369 0.230059
542 4 0.431035 0.304468 0.248311
541 2 0.440182 0.281547 0.244293
543 4 0.449329 0.258626 0.240275
535 2 0.107426 0.376229 0.167497
536 4 0.116672 0.397927 0.175799
300 4 0.150568 0.404461 0.260963
417 4 0.234712 0.371421 0.199882
611 4 0.231318 0.354244 0.189881
415 2 0.243484 0.376338 0.222775
416 4 0.252255 0.381255 0.245667
303 4 0.331141 0.389288 0.242258
436 2 0.297938 0.40985 0.245292
301 2 0.345751 0.393675 0.222447
660 4 0.346596 0.407157 0.193092
302 4 0.360361 0.398063 0.202636
644 4 0.421827 0.390785 0.216253
643 2 0.422858 0.394265 0.191515
764 4 0.387252 0.338832 0.24007
645 4 0.42389 0.397746 0.166776
447 4 0.42869 0.407961 0.222863
1467 4 0.0107284 0.499882 0.1731
262 2 0.0132225 0.453374 0.183577
1757 4 0.0323081 0.449879 0.218184
264 4 0.0175441 0.444201 0.206432
1756 2 0.0263459 0.46706 0.235343
603 4 0.142808 0.412422 0.24424
437 4 0.285149 0.430977 0.241383
637 2 0.266303 0.490251 0.166939
1436 4 0.265367 0.427719 0.248689
291 4 0.269356 0.424801 0.22801
638 4 0.280152 0.477568 0.183448
289 2 0.274901 0.441369 0.210125
290 4 0.280446 0.457938 0.192239
767 4 0.298313 0.466075 0.183301
766 2 0.317957 0.474547 0.196243
658 2 0.340071 0.423508 0.175336
768 4 0.337601 0.48302 0.209185
1574 4 0.35229 0.47682 0.221475
1573 2 0.369082 0.470028 0.238711
445 2 0.42967 0.420481 0.244484
673 2 0.0832524 0.0788479 0.272131
689 4 0.118861 0.0598182 0.251968
675 4 0.100762 0.063955 0.262292
1404 4 0.109902 0.998167 0.276046
1403 4 0.113299 0.0474461 0.268252
1402 2 0.1116 0.0228066 0.272149
1699 2 0.202264 0.0405196 0.265567
248 4 0.189447 0.0416424 0.309219
247 2 0.175076 0.0620948 0.308639
1701 4 0.198563 0.0379538 0.290162
605 4 0.210134 0.0348108 0.307896
604 2 0.226634 0.0205432 0.320118
249 4 0.160704 0.0825471 0.308058
24 3 0.330614 0.0699637 0.260695
1496 4 0.32892 0.0173919 0.255385
699 4 0.369566 0.0132137 0.305038
1495 2 0.33998 0.0107741 0.276811
697 2 0.381672 0.0278416 0.321306
1497 4 0.351041 0.00415635 0.298236
349 2 0.414325 0.0768929 0.315654
698 4 0.393779 0.0424694 0.337574
742 2 0.421349 0.0838442 0.260254
479 4 0.513308 0.0292342 0.31128
531 4 0.0101021 0.140069 0.316892
579 4 0.0325747 0.155865 0.255508
530 4 0.0250126 0.141267 0.269174
529 2 0.0175573 0.140668 0.293033
674 4 0.0657429 0.0937407 0.281969
398 4 0.023649 0.125705 0.326392
600 4 0.146576 0.152162 0.308129
545 4 0.163964 0.154978 0.295834
405 4 0.15054 0.138612 0.291573
403 2 0.160956 0.115948 0.293314
598 2 0.139511 0.158683 0.33121
404 4 0.171373 0.0932839 0.295054
350 4 0.422708 0.0959903 0.301863
333 4 0.409587 0.110395 0.29223
762 4 0.437734 0.16088 0.302667
743 4 0.422982 0.0982391 0.280632
332 4 0.425614 0.157544 0.287667
331 2 0.417601 0.13397 0.289949
577 2 0.0493548 0.17375 0.26038
578 4 0.0661349 0.191635 0.265252
391 2 0.0779013 0.20608 0.295571
392 4 0.081988 0.203389 0.320091
393 4 0.0738146 0.208771 0.271051
544 2 0.169049 0.167136 0.274586
275 4 0.172315 0.219765 0.313195
284 4 0.250708 0.19239 0.258157
344 4 0.242554 0.205754 0.245397
343 2 0.240781 0.230197 0.250358
276 4 0.208867 0.215797 0.347092
274 2 0.190591 0.217781 0.330144
283 2 0.267408 0.176415 0.248611
613 2 0.391452 0.226735 0.320286
614 4 0.406343 0.215284 0.303784
761 4 0.425683 0.208766 0.31057
760 2 0.431709 0.184823 0.306619
419 4 0.423893 0.219475 0.291998
520 2 0.486396 0.24309 0.254502
418 2 0.434776 0.230533 0.27239
420 4 0.445659 0.241591 0.252782
521 4 0.464406 0.243596 0.242613
442 2 0.0167318 0.283807 0.264337
395 4 0.0574402 0.265247 0.264849
444 4 0.0392411 0.274497 0.269979
309 4 0.241329 0.273814 0.265017
307 2 0.2457 0.28222 0.288156
308 4 0.25007 0.290626 0.311295
509 4 0.25682 0.291319 0.331505
497 4 0.25835 0.308701 0.319266
496 2 0.270123 0.330751 0.318648
298 2 0.153024 0.379608 0.26218
734 4 0.157795 0.349373 0.2823
733 2 0.159554 0.342528 0.306284
299 4 0.155479 0.354755 0.263397
735 4 0.161312 0.335683 0.330268
677 4 0.181278 0.339671 0.329395
498 4 0.281896 0.352801 0.31803
729 4 0.326281 0.390576 0.263499
438 4 0.310727 0.388724 0.2492
727 2 0.343853 0.400275 0.278411
728 4 0.361424 0.409975 0.293322
751 2 0.395321 0.389469 0.316666
753 4 0.376818 0.403228 0.306995
752 4 0.413824 0.37571 0.326336
561 4 0.434315 0.379803 0.329473
1758 4 0.0203837 0.484242 0.252501
775 2 0.0662864 0.453737 0.321439
777 4 0.0456949 0.439704 0.319376
601 2 0.136432 0.433521 0.256043
412 2 0.113229 0.474764 0.291412
602 4 0.130056 0.454621 0.267847
414 4 0.121839 0.472958 0.268008
413 4 0.104618 0.476571 0.314817
776 4 0.0868779 0.46777 0.323501
1545 4 0.0949576 0.487393 0.330983
1435 2 0.24125 0.433556 0.251768
1437 4 0.217133 0.439393 0.254847
435 4 0.327592 0.463422 0.338227
1575 4 0.385874 0.463236 0.255946
5 3 0.358419 0.474219 0.302933
1803 4 0.380811 0.418586 0.292852
1802 4 0.393707 0.463978 0.276302
1801 2 0.387259 0.441282 0.284577
1689 4 0.396125 0.480591 0.262648
1 1 0.355675 0.481454 0.324352
4 3 0.347528 0.464199 0.337555
3 3 0.375915 0.48902 0.332808
446 4 0.430651 0.433001 0.266105
231 4 0.493541 0.485483 0.298334
229 2 0.473917 0.495057 0.286153
713 4 0.446874 0.432969 0.276045
712 2 0.468973 0.430441 0.287466
714 4 0.491072 0.427914 0.298887
233 4 0.016769 0.0509536 0.373048
318 4 0.0736512 0.0481104 0.37622
234 4 0.0647679 0.0602707 0.362559
232 2 0.0407685 0.0556121 0.367804
316 2 0.0939723 0.040846 0.388848
317 4 0.114293 0.0335817 0.401476
428 4 0.117343 0.0166948 0.414265
606 4 0.243134 0.00627569 0.332339
632 4 0.315346 0.0531182 0.344567
631 2 0.319728 0.0300043 0.353036
682 2 0.293553 0.0746302 0.400094
683 4 0.313111 0.0761012 0.384585
684 4 0.273996 0.0731592 0.415603
351 4 0.405942 0.0577955 0.329445
256 2 0.412414 0.0520044 0.365791
257 4 0.396455 0.0608122 0.348676
425 4 0.423556 0.0471503 0.401741
258 4 0.428373 0.0431966 0.382906
452 4 0.490536 0.0773015 0.381493
451 2 0.466199 0.0743082 0.386385
453 4 0.441862 0.0713149 0.391276
515 4 0.426056 0.0668674 0.404089
2756 4 0.00407296 0.128921 0.334324
397 2 0.0462824 0.124081 0.336893
399 4 0.0689158 0.122457 0.347394
732 4 0.0717058 0.13965 0.359924
730 2 0.096334 0.143948 0.360313
599 4 0.132445 0.165204 0.354291
685 2 0.141758 0.156246 0.397413
686 4 0.131203 0.160187 0.375091
687 4 0.152312 0.152304 0.419734
731 4 0.120962 0.148247 0.360702
1151 4 0.165915 0.139221 0.41224
467 4 0.253905 0.160875 0.41821
514 2 0.410703 0.0852722 0.411211
575 4 0.394386 0.12176 0.408579
2654 4 0.0630712 0.199987 0.330075
2653 2 0.0432522 0.209685 0.341837
2655 4 0.0234332 0.219383 0.353598
617 4 0.0904662 0.239693 0.374082
389 4 0.146663 0.251035 0.346524
388 2 0.122677 0.245669 0.351109
390 4 0.0986902 0.240303 0.355695
474 4 0.226667 0.20686 0.346243
472 2 0.24868 0.206225 0.358083
473 4 0.270693 0.20559 0.369924
409 2 0.316124 0.202189 0.372901
466 2 0.264524 0.177339 0.402675
468 4 0.275143 0.193803 0.387139
410 4 0.291291 0.202432 0.375809
411 4 0.340957 0.201946 0.369994
716 4 0.378902 0.230977 0.355061
715 2 0.370821 0.235172 0.378348
615 4 0.376561 0.238186 0.336788
717 4 0.362741 0.239367 0.401635
267 4 0.354723 0.231655 0.41982
304 2 0.443161 0.187435 0.399343
269 4 0.449308 0.204037 0.361134
306 4 0.453022 0.200846 0.380686
268 2 0.441529 0.227774 0.362245
2814 4 0.999504 0.296665 0.414282
616 2 0.0913111 0.251955 0.395856
401 4 0.152395 0.268204 0.357105
347 4 0.113309 0.268105 0.422469
676 2 0.188475 0.340421 0.353328
400 2 0.171607 0.276973 0.370491
375 4 0.198044 0.290794 0.402225
402 4 0.190819 0.285741 0.383877
373 2 0.222155 0.287517 0.396468
374 4 0.246265 0.284241 0.390712
678 4 0.195672 0.341172 0.377262
510 4 0.263244 0.27801 0.379279
508 2 0.260032 0.284665 0.355392
378 4 0.261996 0.273505 0.40023
376 2 0.280861 0.283475 0.413264
2924 4 0.431854 0.266763 0.376189
488 4 0.350774 0.251769 0.414077
2923 2 0.424345 0.27443 0.398772
487 2 0.333985 0.270281 0.414857
270 4 0.43375 0.251511 0.363356
548 4 0.0177077 0.396692 0.359775
407 4 0.0131435 0.384074 0.374148
547 2 0.033335 0.411703 0.347298
650 4 0.213344 0.392571 0.399981
649 2 0.234127 0.384139 0.411033
651 4 0.25491 0.375707 0.422085
667 2 0.409169 0.405665 0.401814
669 4 0.389748 0.403121 0.417355
559 2 0.439331 0.391209 0.351151
560 4 0.444347 0.402615 0.372828
668 4 0.428591 0.408208 0.386273
549 4 0.0489622 0.426713 0.334822
1543 2 0.0987704 0.505835 0.347431
434 4 0.301203 0.423736 0.353372
433 2 0.314397 0.443579 0.345799
2 3 0.340559 0.498792 0.324615
119 3 0.486252 0.43273 0.350865
588 4 0.449674 0.407963 0.392903
586 2 0.466174 0.41829 0.408596
3990 4 0.486578 0.451925 0.351039
3988 2 0.48009 0.474341 0.360018
3989 4 0.473602 0.496756 0.368997
2236 2 0.0299377 0.00539955 0.455576
1127 4 0.0226458 0.0413181 0.475218
2238 4 0.0180435 0.0264755 0.461862
1781 4 0.121986 0.0366256 0.421321
1780 2 0.127265 0.049742 0.441943
1782 4 0.132544 0.0628585 0.462565
341 4 0.144765 0.0688235 0.480168
2430 4 0.134631 0.049816 0.479459
430 2 0.319372 0.0275888 0.467343
1180 2 0.273713 0.056788 0.449335
1181 4 0.285493 0.0416488 0.465373
1182 4 0.261933 0.0719273 0.433297
963 4 0.274929 0.0268905 0.476795
432 4 0.296475 0.0264942 0.477326
961 2 0.259971 0.0188624 0.495152
431 4 0.34227 0.0286833 0.457359
841 2 0.38345 0.0231364 0.459689
842 4 0.406669 0.0156401 0.454224
843 4 0.360231 0.0306328 0.465155
426 4 0.416428 0.0112465 0.435812
424 2 0.419992 0.0291984 0.418777
1217 4 0.426539 0.00690535 0.454339
1216 2 0.440865 0.0198779 0.470203
1218 4 0.455191 0.0328504 0.486067
457 2 0.0105511 0.113968 0.457873
719 4 0.0230128 0.104978 0.489735
459 4 0.0303756 0.107594 0.471712
368 4 0.104145 0.0970943 0.462247
340 2 0.163848 0.0831314 0.472665
367 2 0.110215 0.115653 0.446629
369 4 0.116285 0.134211 0.431011
939 4 0.127398 0.143785 0.445308
937 2 0.137555 0.164189 0.455588
342 4 0.182931 0.0974393 0.465161
1152 4 0.177647 0.114908 0.454335
1150 2 0.171781 0.127064 0.433287
320 4 0.266327 0.0910059 0.424446
321 4 0.257073 0.140106 0.422368
319 2 0.2617 0.115556 0.423407
899 4 0.268596 0.155218 0.432539
898 2 0.287178 0.158636 0.448916
900 4 0.305761 0.162053 0.465293
574 2 0.407821 0.142817 0.407451
516 4 0.39535 0.103677 0.418332
576 4 0.421257 0.163874 0.406323
938 4 0.147713 0.184593 0.465869
1034 4 0.164382 0.193353 0.47307
261 4 0.117846 0.224587 0.46765
1035 4 0.131589 0.229478 0.484038
1033 2 0.147986 0.211415 0.478554
695 4 0.11317 0.219613 0.488046
259 2 0.111197 0.236619 0.446764
813 4 0.389255 0.212986 0.472228
266 4 0.373332 0.208353 0.459963
265 2 0.364027 0.220004 0.439892
811 2 0.386111 0.220318 0.495924
305 4 0.4333 0.174024 0.418
2847 4 4.8444e-05 0.293108 0.476746
2801 4 0.015928 0.302601 0.424095
2802 4 0.0181518 0.286403 0.471354
2800 2 0.0170399 0.294502 0.447725
260 4 0.104547 0.248651 0.425879
618 4 0.0921561 0.264216 0.41763
346 2 0.125043 0.288949 0.429753
348 4 0.136776 0.309792 0.437036
10 3 0.136907 0.32036 0.454023
9 3 0.119425 0.308988 0.485371
6 1 0.130353 0.326591 0.474924
1259 4 0.136781 0.298141 0.483768
1258 2 0.143898 0.276301 0.493643
377 4 0.299726 0.293445 0.426299
489 4 0.317196 0.288793 0.415637
238 2 0.406219 0.316199 0.435191
2455 2 0.500002 0.306094 0.494092
239 4 0.416799 0.293604 0.436835
2925 4 0.416836 0.282096 0.421356
2456 4 0.478216 0.309945 0.482443
584 4 0.459656 0.308625 0.491787
680 4 0.0541275 0.392441 0.49042
679 2 0.0491247 0.413628 0.478121
8 3 0.148818 0.332992 0.487432
504 4 0.158122 0.385407 0.440324
7 3 0.115904 0.344419 0.473334
711 4 0.125057 0.362397 0.473021
709 2 0.132478 0.377861 0.454829
710 4 0.1399 0.393326 0.436637
503 4 0.200329 0.384185 0.413533
502 2 0.179225 0.384796 0.426929
240 4 0.39564 0.338795 0.433547
335 4 0.376213 0.343383 0.434567
334 2 0.386116 0.366221 0.432213
336 4 0.396019 0.389059 0.42986
382 2 0.0739585 0.467757 0.458063
539 4 0.0410554 0.453212 0.47595
538 2 0.0185716 0.463835 0.478561
681 4 0.044122 0.434814 0.465821
383 4 0.0598384 0.448996 0.466656
568 2 0.12014 0.503652 0.450612
384 4 0.0880787 0.486517 0.44947
569 4 0.10558 0.485035 0.458772
634 2 0.20114 0.482733 0.472207
774 4 0.231619 0.469404 0.464792
635 4 0.212794 0.462299 0.463733
772 2 0.249734 0.460774 0.449874
773 4 0.267849 0.452143 0.434956
926 4 0.476319 0.416217 0.498638
1910 4 0.43792 0.485253 0.478703
661 2 0.463451 0.455927 0.456366
2507 4 0.48916 0.424353 0.444598
663 4 0.474881 0.439898 0.440952
662 4 0.452022 0.471957 0.47178
587 4 0.482675 0.428617 0.424289
2428 2 0.143528 0.0351616 0.49766
2429 4 0.152425 0.0205072 0.515861
1284 4 0.178771 0.0731465 0.564346
1031 4 0.225466 0.026489 0.580424
1283 4 0.205987 0.0349096 0.581607
1282 2 0.192379 0.0540281 0.572976
1030 2 0.245884 0.0296427 0.566341
962 4 0.245012 0.0108342 0.513509
1032 4 0.266302 0.0327964 0.552257
1091 4 0.344367 0.0096722 0.572524
720 4 0.021928 0.116396 0.538409
718 2 0.0224704 0.110687 0.514072
1059 4 0.185334 0.0907717 0.574295
904 2 0.439853 0.166467 0.586313
810 4 0.461353 0.0859908 0.591216
327 4 0.0799425 0.231005 0.547982
877 2 0.116159 0.207973 0.562269
878 4 0.0946834 0.215607 0.551988
696 4 0.0967287 0.228671 0.534396
694 2 0.104949 0.224142 0.511221
879 4 0.137634 0.200339 0.572551
856 2 0.211956 0.234359 0.549705
858 4 0.222712 0.211896 0.54749
792 4 0.330594 0.251719 0.559016
953 4 0.38931 0.21886 0.537949
812 4 0.382966 0.227651 0.519621
791 4 0.370972 0.231053 0.537963
873 4 0.390634 0.240244 0.535041
790 2 0.350783 0.241386 0.548489
952 2 0.407121 0.205005 0.548719
954 4 0.424932 0.19115 0.559489
905 4 0.423108 0.173958 0.569324
982 2 0.0368559 0.299854 0.546918
984 4 0.0608012 0.29525 0.55245
326 4 0.062998 0.275951 0.561893
1136 4 0.0797322 0.289197 0.560718
325 2 0.0714702 0.253478 0.554938
983 4 0.0129105 0.304459 0.541387
2846 4 0.0077181 0.290541 0.526095
2845 2 0.00388327 0.291825 0.50142
1135 2 0.094193 0.309587 0.560143
1137 4 0.108654 0.329976 0.559569
1260 4 0.151014 0.25446 0.503518
857 4 0.2012 0.256822 0.551919
1239 4 0.327728 0.314479 0.560552
804 4 0.307708 0.31865 0.559592
1237 2 0.327394 0.290281 0.566841
1238 4 0.327059 0.266084 0.57313
802 2 0.290397 0.332841 0.570733
871 2 0.401428 0.262353 0.530584
929 4 0.384329 0.320526 0.573263
872 4 0.412221 0.284462 0.526128
585 4 0.414377 0.295892 0.508769
583 2 0.437016 0.302259 0.500278
936 4 0.0172447 0.403215 0.523757
3353 4 0.0048765 0.390648 0.534267
934 2 0.0312918 0.415892 0.540102
992 4 0.15311 0.387752 0.593657
880 2 0.362645 0.40543 0.577523
928 2 0.374865 0.34321 0.57785
925 2 0.482576 0.404658 0.519908
927 4 0.488833 0.3931 0.541179
1001 4 0.485434 0.403981 0.557059
1000 2 0.487097 0.417861 0.577789
3430 2 0.0357521 0.473848 0.557572
3431 4 0.0304022 0.498145 0.555074
935 4 0.0453389 0.428569 0.556446
3432 4 0.0411019 0.449552 0.56007
1041 4 0.0528417 0.438195 0.573792
3264 4 0.0319482 0.434344 0.57231
1159 2 0.115272 0.432242 0.528715
1161 4 0.116142 0.422632 0.551782
1160 4 0.114402 0.441853 0.505649
1039 2 0.0759395 0.429733 0.569312
1040 4 0.0990373 0.421272 0.564832
636 4 0.189486 0.503167 0.48068
1455 4 0.329839 0.472186 0.567857
1454 4 0.361658 0.43883 0.548476
1453 2 0.345748 0.455508 0.558167
881 4 0.363847 0.426212 0.563671
1909 2 0.45333 0.497862 0.493827
3183 4 0.457443 0.484464 0.589868
1183 2 0.0153836 0.0535763 0.663247
1184 4 0.00297874 0.0321508 0.659748
4338 4 0.00636846 0.0112532 0.661849
1892 4 0.00985275 0.0213002 0.64266
2131 2 0.213844 0.012663 0.620368
2132 4 0.212861 0.020704 0.596713
1060 2 0.493864 0.0322426 0.593306
1061 4 0.483574 0.0120509 0.603869
944 4 0.0457604 0.0855037 0.671936
1081 2 0.0162909 0.112011 0.648821
1082 4 0.0300485 0.0956923 0.661845
943 2 0.0678943 0.0942477 0.664267
3179 4 0.00691843 0.147662 0.63547
945 4 0.0900282 0.102992 0.656599
1057 2 0.185543 0.106821 0.593467
1058 4 0.185752 0.12287 0.612638
1155 4 0.173221 0.14023 0.618039
1153 2 0.1773 0.164893 0.617551
909 4 0.184897 0.130228 0.63269
907 2 0.197344 0.124751 0.653671
1194 4 0.386362 0.169198 0.636272
830 4 0.374991 0.15263 0.626349
829 2 0.382203 0.132983 0.64003
831 4 0.389415 0.113337 0.653711
808 2 0.485498 0.091694 0.594328
1026 4 0.475256 0.151761 0.651202
1024 2 0.474995 0.149765 0.62628
1025 4 0.474734 0.147768 0.601357
906 4 0.456599 0.158976 0.603303
1143 4 0.467092 0.131919 0.652356
1263 4 0.457712 0.148505 0.663425
1141 2 0.472914 0.11181 0.666027
1209 4 0.0699455 0.240264 0.647429
1245 4 0.0491237 0.244975 0.648583
852 4 0.0557168 0.224429 0.647207
1272 4 0.142205 0.216836 0.582683
1270 2 0.163366 0.213211 0.595499
1154 4 0.18138 0.189557 0.617063
1271 4 0.184527 0.209586 0.608315
1221 4 0.193438 0.204243 0.627511
1219 2 0.21786 0.207691 0.623407
1220 4 0.242282 0.211139 0.619302
798 4 0.260095 0.222686 0.62013
796 2 0.266283 0.246853 0.618448
1212 4 0.260856 0.202693 0.627256
888 4 0.317526 0.170003 0.627735
1211 4 0.297801 0.16911 0.624437
1210 2 0.279329 0.185902 0.625847
886 2 0.341553 0.168036 0.634371
887 4 0.365579 0.166068 0.641007
1192 2 0.406383 0.183677 0.632437
1193 4 0.426404 0.198156 0.628602
1243 2 0.0263491 0.247154 0.638496
1244 4 0.00357453 0.249334 0.628409
1207 2 0.0895192 0.250759 0.658914
948 4 0.15233 0.309072 0.65532
946 2 0.140066 0.290003 0.665862
1208 4 0.109093 0.261254 0.670399
797 4 0.272471 0.271021 0.616766
3112 2 0.498807 0.322395 0.620915
3114 4 0.483268 0.302975 0.618346
991 2 0.135882 0.402472 0.583089
897 4 0.161374 0.369101 0.588442
1191 4 0.222297 0.360993 0.61754
896 4 0.208234 0.369802 0.605887
895 2 0.184804 0.369452 0.597165
1189 2 0.243095 0.362493 0.603742
1190 4 0.263892 0.363993 0.589944
803 4 0.273086 0.347032 0.581874
882 4 0.361443 0.384649 0.591374
930 4 0.365401 0.365894 0.582437
3239 4 0.017995 0.443851 0.635827
3262 2 0.0255988 0.431539 0.596331
3238 2 0.0234183 0.457983 0.655728
3263 4 0.0192494 0.428734 0.620352
993 4 0.118653 0.417192 0.572522
1140 4 0.214251 0.460271 0.670499
2154 4 0.297868 0.486607 0.604938
1173 4 0.288667 0.466746 0.608423
1172 4 0.307403 0.459983 0.654292
1171 2 0.298035 0.463365 0.631357
2435 4 0.275392 0.483854 0.604974
2434 2 0.25458 0.497586 0.603109
1002 4 0.48876 0.431741 0.59852
1206 4 0.481705 0.433292 0.619144
1204 2 0.466643 0.428622 0.638548
1205 4 0.451582 0.423952 0.657952
3182 4 0.48887 0.450468 0.608771
3181 2 0.473157 0.467466 0.599319
3440 4 0.50268 0.434978 0.614668
1185 4 0.0277885 0.0750018 0.666747
4336 2 0.000954631 0.00299178 0.684819
1077 4 0.0273044 0.0831394 0.732228
1202 4 0.0987985 0.00357504 0.735906
2400 4 0.353405 0.06583 0.722957
2398 2 0.366692 0.0680976 0.744016
43 3 0.448862 0.0590719 0.712469
846 4 0.455206 0.0478859 0.728972
41 1 0.470087 0.0681708 0.710212
45 3 0.485769 0.0530571 0.716868
844 2 0.446662 0.0374562 0.750029
44 3 0.473802 0.0742258 0.688122
1076 4 0.0274886 0.0898571 0.682674
1075 2 0.0273965 0.0864983 0.707451
864 4 0.00921025 0.0883393 0.734487
908 4 0.209792 0.119275 0.674653
1227 4 0.208626 0.114071 0.693548
1226 4 0.222159 0.111574 0.741625
1225 2 0.215393 0.112823 0.717587
42 3 0.471573 0.0869459 0.723419
1142 4 0.478737 0.0917011 0.679698
1261 2 0.437066 0.158989 0.672859
3424 2 0.495582 0.157385 0.717912
3270 4 0.473811 0.17136 0.751351
850 2 0.052932 0.206397 0.664303
1177 2 0.0240875 0.182394 0.704172
1178 4 0.0468478 0.174281 0.697743
851 4 0.0501473 0.188365 0.681399
1107 4 0.0665494 0.182566 0.694089
1105 2 0.0899827 0.178793 0.701952
1106 4 0.113416 0.17502 0.709815
1073 4 0.116246 0.186518 0.726502
1072 2 0.128515 0.190763 0.747871
1086 4 0.315199 0.231022 0.741244
1299 4 0.298343 0.221249 0.738137
3426 4 0.480361 0.172251 0.731047
1262 4 0.41642 0.169473 0.682293
1146 4 0.491418 0.182384 0.74637
816 4 0.0272328 0.323738 0.73721
1242 4 0.0912201 0.299581 0.743253
821 4 0.0884681 0.30239 0.723378
947 4 0.127802 0.270934 0.676405
820 2 0.0985329 0.290961 0.703547
822 4 0.108598 0.279532 0.683717
1098 4 0.358322 0.285203 0.72762
1096 2 0.347839 0.294205 0.748459
892 2 0.0597293 0.396555 0.731345
893 4 0.0623006 0.37348 0.722065
815 4 0.046773 0.362075 0.711732
814 2 0.0370029 0.342906 0.724471
942 4 0.0669957 0.36141 0.704973
1067 4 0.125997 0.341035 0.691862
940 2 0.0883093 0.35448 0.693887
941 4 0.109623 0.347551 0.682802
1066 2 0.15071 0.344479 0.690251
1028 4 0.185416 0.355583 0.673494
1027 2 0.197097 0.377377 0.669782
1068 4 0.175422 0.347923 0.688639
1029 4 0.208778 0.39917 0.666071
1065 4 0.247276 0.365586 0.672474
1063 2 0.260759 0.361454 0.693121
1064 4 0.274242 0.357323 0.713769
806 4 0.283689 0.371413 0.726708
805 2 0.303255 0.374745 0.741916
1236 4 0.266978 0.359961 0.733565
1234 2 0.249678 0.349995 0.748616
1101 4 0.459524 0.379212 0.689124
1099 2 0.452864 0.402728 0.683851
3240 4 0.0288417 0.472115 0.675629
894 4 0.0571579 0.41963 0.740625
2172 4 0.0443648 0.485468 0.683545
1279 2 0.0477287 0.449564 0.706435
3276 4 0.040492 0.431781 0.745956
1983 4 0.0597356 0.440639 0.744543
1280 4 0.0489605 0.434643 0.72646
1281 4 0.0464968 0.464485 0.686409
1138 2 0.205641 0.436872 0.672374
1139 4 0.197031 0.413472 0.674249
1176 4 0.194306 0.488971 0.706832
2016 4 0.185676 0.494569 0.723541
891 4 0.313297 0.464479 0.672124
889 2 0.308787 0.48421 0.686805
2169 4 0.468068 0.49706 0.700533
1269 4 0.462757 0.437279 0.670654
1100 4 0.446205 0.426245 0.678578
1268 4 0.45823 0.479003 0.697844
1267 2 0.460494 0.458141 0.684249
1196 4 0.0874824 0.022358 0.799768
1203 4 0.0873968 0.02663 0.778792
1195 2 0.0884932 0.00267594 0.815155
911 4 0.0852672 0.0432173 0.793482
1201 2 0.0930976 0.0151025 0.757349
910 2 0.0923298 0.0663536 0.799808
1147 2 0.218949 0.0775448 0.770505
1149 4 0.220249 0.0554642 0.782164
1049 4 0.372089 0.0694492 0.785197
2399 4 0.37998 0.0703652 0.765075
1112 4 0.392129 0.0759831 0.781564
1111 2 0.406254 0.0553587 0.781027
1113 4 0.420379 0.0347342 0.78049
845 4 0.438118 0.0270265 0.771086
980 4 0.429107 0.0163564 0.788468
979 2 0.423747 0.0110167 0.812299
863 4 0.99558 0.11301 0.775794
862 2 0.00239512 0.100675 0.755141
1214 4 0.0728723 0.13512 0.795961
1213 2 0.0697546 0.148543 0.775097
33 3 0.07556 0.115136 0.803323
32 3 0.103433 0.101535 0.824555
912 4 0.0993924 0.0894899 0.806133
1287 4 0.119791 0.0904521 0.815711
31 1 0.0844832 0.114575 0.824735