ITEM: TIMESTEP
2900000
ITEM: NUMBER OF ATOMS
4590
ITEM: BOX BOUNDS pp pp pp
-9.9985700000000008e+00 9.9985700000000008e+00
-9.9985700000000008e+00 9.9985700000000008e+00
-9.9985700000000008e+00 9.9985700000000008e+00
ITEM: ATOMS id type xs ys zs
1666 2 0.0606897 0.0404321 0.03412
1667 4 0.0563306 0.0645976 0.0388327
1668 4 0.0650487 0.0162667 0.0294074
591 4 0.0509179 0.0845021 0.0455806
532 2 0.152057 0.0452467 0.0256194
533 4 0.14346 0.0289138 0.0424869
534 4 0.160653 0.0615797 0.00875188
1475 4 0.223621 0.0265356 0.0618807
1474 2 0.20633 0.00847495 0.0620066
490 2 0.281372 0.0759683 0.0385037
492 4 0.287585 0.0546358 0.0270365
702 4 0.0590955 0.0700758 0.0594511
589 2 0.0308577 0.0989362 0.0417828
590 4 0.0107974 0.11337 0.037985
3232 2 0.0238371 0.149246 0.0115349
3233 4 0.0154906 0.130749 0.0261417
700 2 0.0779904 0.0833098 0.0690957
3134 4 0.0439336 0.101342 0.996634
423 4 0.153217 0.0794816 0.00250295
701 4 0.0968854 0.0965438 0.0787403
448 2 0.138265 0.103347 0.0826084
236 4 0.0977774 0.116595 0.0700843
450 4 0.162611 0.0977243 0.0835106
421 2 0.166237 0.0967065 0.0151109
422 4 0.179257 0.113931 0.0277189
652 2 0.236836 0.110077 0.051692
654 4 0.212097 0.106466 0.0513749
491 4 0.275159 0.0973009 0.0499709
653 4 0.261576 0.113689 0.0520092
565 2 0.287281 0.128698 0.0285271
566 4 0.29189 0.140027 0.00671888
567 4 0.282673 0.117369 0.0503353
359 4 0.288025 0.124093 0.995525
556 2 0.382723 0.154065 0.0533692
557 4 0.402562 0.144941 0.065549
558 4 0.362883 0.163188 0.0411894
666 4 0.357445 0.167749 0.0207694
571 2 0.367982 0.201956 0.0308398
572 4 0.373878 0.177671 0.0300224
573 4 0.362087 0.226241 0.0316571
1071 4 0.354883 0.241918 0.0210126
324 4 0.413383 0.224299 0.0636231
322 2 0.435205 0.229215 0.0524516
771 4 0.470414 0.250805 0.0399352
518 4 0.475157 0.23391 0.0526143
517 2 0.493015 0.228464 0.0692453
323 4 0.457027 0.234132 0.04128
769 2 0.470501 0.247697 0.0151257
914 4 0.123517 0.270061 0.0124381
507 4 0.164148 0.322653 0.0290147
505 2 0.151902 0.302747 0.0201288
506 4 0.139657 0.28284 0.0112429
756 4 0.243994 0.306389 0.0782893
482 4 0.249189 0.32523 0.0693043
1069 2 0.365496 0.260215 0.00767949
955 2 0.412625 0.291599 0.0163207
1070 4 0.376108 0.278512 0.994346
956 4 0.430778 0.30297 0.0292185
282 4 0.442665 0.318204 0.032833
280 2 0.447269 0.326802 0.0558559
1056 4 0.0063105 0.348592 0.0169775
1168 2 0.0272993 0.37642 0.00737786
1169 4 0.0290817 0.401077 0.00362946
1170 4 0.0255169 0.351763 0.0111263
1054 2 0.987656 0.332797 0.0222416
293 4 0.150555 0.33189 0.0427975
292 2 0.139573 0.333841 0.0651752
288 4 0.161542 0.344 0.0289724
294 4 0.128591 0.335793 0.087553
481 2 0.237112 0.339551 0.0527443
286 2 0.18529 0.345833 0.0365779
287 4 0.209038 0.347667 0.0441833
483 4 0.225035 0.353872 0.0361843
607 2 0.295101 0.384119 0.0806841
39 3 0.321413 0.409608 0.0111006
281 4 0.451873 0.3354 0.0788789
671 4 0.469124 0.346974 0.0734686
551 4 0.0421185 0.417002 0.00995042
550 2 0.0351511 0.427003 0.0317821
552 4 0.0281838 0.437004 0.0536137
315 4 0.0255712 0.454766 0.0651315
313 2 0.0470664 0.463257 0.0746732
620 4 0.00850435 0.443658 0.0579531
314 4 0.0685617 0.471747 0.0842148
1691 4 0.0678359 0.490213 0.072102
241 2 0.240264 0.494793 0.0571414
242 4 0.221744 0.502043 0.041988
608 4 0.29315 0.407894 0.0731919
243 4 0.258784 0.487543 0.0722947
626 4 0.286716 0.422588 0.0841152
627 4 0.268447 0.468833 0.0787865
625 2 0.277581 0.445711 0.0814509
244 2 0.331289 0.464595 0.0283879
245 4 0.313293 0.471529 0.0443012
246 4 0.349285 0.45766 0.0124745
2387 4 0.363416 0.515234 0.0263735
16 1 0.00816625 0.0784096 0.12822
2479 2 0.0125111 0.022297 0.141884
18 3 0.0157602 0.0600873 0.140263
2481 4 0.020548 0.0433784 0.152662
1785 4 0.338034 0.0322558 0.152952
297 4 0.431081 0.0244208 0.101734
296 4 0.467564 0.0515703 0.0809338
295 2 0.449323 0.0379955 0.0913339
20 3 0.997465 0.0929437 0.142109
19 3 0.0260099 0.0890333 0.117869
449 4 0.113918 0.108969 0.0817063
235 2 0.0911524 0.138139 0.0809075
237 4 0.0845275 0.159683 0.0917307
476 4 0.0744125 0.210433 0.106612
339 4 0.0763226 0.230134 0.111488
477 4 0.0937458 0.164369 0.108865
475 2 0.0840791 0.187401 0.107738
337 2 0.0943409 0.240081 0.125685
461 4 0.289684 0.212063 0.103053
354 4 0.277956 0.222381 0.116402
460 2 0.312534 0.219924 0.0966324
352 2 0.266678 0.244286 0.120661
255 4 0.352265 0.218732 0.0968837
462 4 0.335385 0.227785 0.0902114
254 4 0.393753 0.198067 0.115656
253 2 0.373009 0.208399 0.10627
630 4 0.409604 0.21045 0.112031
28 3 0.354896 0.19304 0.153306
623 4 0.409526 0.236384 0.07909
629 4 0.442554 0.221086 0.148112
628 2 0.426079 0.215768 0.130071
338 4 0.112359 0.250029 0.139883
363 4 0.119258 0.268536 0.143157
361 2 0.136171 0.281794 0.155938
738 4 0.193839 0.254851 0.155393
736 2 0.216408 0.261813 0.147187
737 4 0.238978 0.268775 0.138982
353 4 0.255399 0.266192 0.124919
755 4 0.239855 0.280814 0.121062
754 2 0.241924 0.293601 0.0996757
252 4 0.254455 0.321928 0.0906063
622 2 0.410474 0.257902 0.0917893
624 4 0.411422 0.27942 0.104489
741 4 0.407524 0.298459 0.10009
739 2 0.386069 0.308335 0.0918869
740 4 0.364614 0.318212 0.0836836
456 4 0.109824 0.343436 0.0847935
454 2 0.102169 0.353543 0.106344
455 4 0.0945135 0.363651 0.127894
537 4 0.098754 0.356882 0.146867
535 2 0.109169 0.374931 0.160684
250 2 0.270338 0.339489 0.0986387
251 4 0.286222 0.35705 0.106671
609 4 0.297052 0.360344 0.0881764
387 4 0.30757 0.351434 0.104633
385 2 0.328641 0.340756 0.0964363
386 4 0.349712 0.330079 0.0882391
11 1 0.407782 0.356544 0.150612
13 3 0.393583 0.37483 0.149063
15 3 0.401553 0.343327 0.16808
494 4 0.461856 0.348081 0.0933634
14 3 0.407198 0.344367 0.130869
12 3 0.429243 0.364065 0.154077
495 4 0.426298 0.34543 0.128425
493 2 0.444077 0.346755 0.110894
670 2 0.492262 0.348935 0.0827404
595 2 0.471951 0.381671 0.154898
596 4 0.493597 0.39402 0.152874
597 4 0.450304 0.369321 0.156922
263 4 0.0244018 0.471227 0.1696
619 2 0.98952 0.442135 0.0741534
1787 4 0.086397 0.480784 0.0765859
1786 2 0.109662 0.47191 0.0788629
1788 4 0.132926 0.463035 0.0811398
1440 4 0.253718 0.478622 0.0909425
639 4 0.253189 0.503146 0.152512
1438 2 0.258341 0.485669 0.114483
1439 4 0.262964 0.492715 0.138024
525 4 0.347944 0.457877 0.138408
523 2 0.358217 0.477544 0.149933
659 4 0.355853 0.440383 0.141225
693 4 0.156339 0.0848573 0.238545
1700 4 0.187167 0.0447558 0.240852
1506 4 0.25595 0.00590458 0.221149
21 1 0.326379 0.0574911 0.237187
23 3 0.306854 0.0469318 0.230429
24 3 0.321484 0.0785388 0.245639
22 3 0.336272 0.044947 0.253738
25 3 0.340713 0.0593264 0.219585
1783 2 0.339128 0.0424096 0.175775
1784 4 0.340222 0.0525633 0.198598
759 4 0.358671 0.0617872 0.207
757 2 0.381374 0.0690725 0.214529
758 4 0.404077 0.0763577 0.222058
744 4 0.414656 0.0856746 0.238796
312 4 0.424195 0.0832755 0.219441
1749 4 0.435831 0.00627194 0.234591
1747 2 0.459457 0.00857118 0.242446
310 2 0.432602 0.0783483 0.196414
311 4 0.441009 0.0734211 0.173388
511 2 0.00838031 0.139614 0.231035
512 4 0.000937297 0.13531 0.207556
690 4 0.137557 0.0833183 0.234062
691 2 0.163029 0.102862 0.222537
692 4 0.169718 0.120867 0.206529
723 4 0.174911 0.140174 0.205933
721 2 0.178714 0.156542 0.224448
582 4 0.275274 0.1729 0.200693
707 4 0.39244 0.139605 0.230824
706 2 0.381807 0.155151 0.214379
748 2 0.0479462 0.216458 0.203236
750 4 0.0398587 0.213442 0.226703
396 4 0.0534881 0.221118 0.240296
394 2 0.0459784 0.239594 0.255376
749 4 0.0560336 0.219474 0.17977
722 4 0.182518 0.17291 0.242963
285 4 0.265319 0.169298 0.217821
580 2 0.299037 0.170667 0.193244
581 4 0.322801 0.168434 0.185795
30 3 0.342192 0.168123 0.178513
283 2 0.258758 0.184625 0.236455
27 3 0.343406 0.204388 0.187245
708 4 0.371174 0.170697 0.197934
29 3 0.375406 0.184903 0.18425
26 1 0.353944 0.187441 0.175804
362 4 0.153084 0.295052 0.168719
372 4 0.155207 0.297543 0.187559
370 2 0.173505 0.297802 0.204597
371 4 0.191804 0.298061 0.221635
279 4 0.211687 0.291479 0.217796
277 2 0.216066 0.286484 0.241901
612 4 0.20614 0.311735 0.213924
610 2 0.213238 0.335341 0.209737
765 4 0.409804 0.322523 0.223677
542 4 0.423892 0.308993 0.229055
541 2 0.437615 0.295081 0.244654
2693 4 0.989279 0.422869 0.207858
536 4 0.119584 0.392981 0.174501
603 4 0.131798 0.409754 0.244044
417 4 0.228635 0.363335 0.223366
611 4 0.220336 0.358948 0.205549
415 2 0.238671 0.38611 0.225765
416 4 0.248706 0.408886 0.228163
436 2 0.289743 0.406925 0.241139
303 4 0.324927 0.406035 0.232599
437 4 0.267561 0.416787 0.235151
763 2 0.391111 0.327151 0.239624
301 2 0.336312 0.412334 0.211248
302 4 0.347698 0.418633 0.189896
764 4 0.372417 0.331779 0.255571
644 4 0.431728 0.362226 0.223735
643 2 0.434703 0.36326 0.198931
645 4 0.437678 0.364295 0.174126
647 4 0.00368887 0.47852 0.169967
262 2 0.0278995 0.457498 0.190203
1757 4 0.0400837 0.460689 0.218729
264 4 0.0313972 0.443769 0.210805
1756 2 0.0445529 0.474346 0.239191
1467 4 0.0205607 0.491236 0.175765
1436 4 0.248809 0.427641 0.238075
637 2 0.263714 0.495135 0.173731
291 4 0.257945 0.425548 0.218184
638 4 0.27424 0.487125 0.194949
289 2 0.267987 0.447912 0.213265
290 4 0.278028 0.470276 0.208346
767 4 0.294348 0.482327 0.20182
766 2 0.319338 0.48193 0.20254
660 4 0.339672 0.407594 0.175338
658 2 0.347762 0.423988 0.158281
768 4 0.344328 0.481533 0.20326
1574 4 0.350495 0.48621 0.221874
1573 2 0.367225 0.478403 0.238736
1575 4 0.383955 0.470595 0.255598
673 2 0.0676385 0.0728899 0.268524
674 4 0.0435645 0.0785242 0.272249
688 2 0.122774 0.0806222 0.254047
1404 4 0.115489 0.00826696 0.282529
689 4 0.107991 0.077926 0.274031
675 4 0.0917125 0.0672556 0.264799
1403 4 0.109586 0.056711 0.271618
1402 2 0.112537 0.032489 0.277074
404 4 0.167157 0.0849123 0.315429
1699 2 0.184993 0.0355578 0.264001
248 4 0.188454 0.0325785 0.307733
247 2 0.182169 0.0539019 0.319178
1701 4 0.182819 0.0263599 0.287149
605 4 0.204112 0.0265086 0.292735
604 2 0.217869 0.0118001 0.307554
249 4 0.175885 0.0752254 0.330623
1497 4 0.372613 0.0111014 0.285535
1496 4 0.332297 0.0250956 0.259469
699 4 0.390554 0.019777 0.293797
1495 2 0.352455 0.0180985 0.272502
697 2 0.392052 0.0362772 0.312524
698 4 0.393551 0.0527774 0.33125
1748 4 0.483083 0.0108704 0.250301
480 4 0.489269 0.0200848 0.267701
513 4 0.0158233 0.143917 0.254513
531 4 0.00529334 0.118339 0.31899
579 4 0.0266134 0.157961 0.267267
530 4 0.0164487 0.140747 0.275698
529 2 0.010871 0.129543 0.297344
600 4 0.146927 0.146606 0.313224
545 4 0.165926 0.155541 0.309381
405 4 0.163375 0.134108 0.307292
403 2 0.165266 0.10951 0.31136
544 2 0.170684 0.162474 0.285834
349 2 0.400777 0.0919638 0.316275
742 2 0.406486 0.0917682 0.261628
333 4 0.402064 0.119212 0.281563
350 4 0.407714 0.109832 0.30022
743 4 0.398315 0.0978619 0.28446
331 2 0.407967 0.141567 0.29108
332 4 0.413869 0.163922 0.300597
577 2 0.0411422 0.178212 0.26527
578 4 0.0556711 0.198463 0.263272
391 2 0.0698573 0.20709 0.304004
393 4 0.0678539 0.204869 0.27918
392 4 0.0718607 0.209312 0.328828
395 4 0.0384688 0.25807 0.270457
546 4 0.175442 0.169406 0.262286
343 2 0.237553 0.239849 0.262816
274 2 0.187278 0.233877 0.338006
276 4 0.206809 0.220521 0.329924
344 4 0.245672 0.216404 0.265907
474 4 0.217357 0.204345 0.326068
284 4 0.252198 0.199953 0.255088
613 2 0.410085 0.226912 0.330366
614 4 0.422596 0.217831 0.310714
762 4 0.429903 0.167419 0.290474
761 4 0.43847 0.216447 0.295337
760 2 0.434186 0.191933 0.292906
419 4 0.420061 0.228652 0.291967
442 2 0.00785344 0.282806 0.254135
444 4 0.0233879 0.263754 0.258703
735 4 0.165739 0.320932 0.33078
278 4 0.220445 0.281489 0.266006
345 4 0.229433 0.263295 0.259725
309 4 0.232143 0.26975 0.279892
307 2 0.247042 0.283737 0.294299
308 4 0.261942 0.297723 0.308706
497 4 0.277739 0.305758 0.320821
496 2 0.280072 0.330628 0.32193
509 4 0.268 0.288062 0.327442
543 4 0.451337 0.281169 0.260253
418 2 0.430679 0.24525 0.276574
521 4 0.462023 0.263233 0.267585
420 4 0.441297 0.261848 0.261181
520 2 0.486536 0.262054 0.262801
300 4 0.126784 0.403828 0.261732
298 2 0.133513 0.384617 0.276251
734 4 0.148407 0.347626 0.292209
299 4 0.140242 0.365405 0.290771
733 2 0.157073 0.334279 0.311494
438 4 0.311926 0.397063 0.247126
729 4 0.330206 0.407491 0.253115
727 2 0.349014 0.409088 0.269512
751 2 0.407518 0.394189 0.301786
753 4 0.383736 0.399665 0.296344
447 4 0.426387 0.374058 0.238778
445 2 0.439196 0.391958 0.25064
752 4 0.431299 0.388712 0.307228
561 4 0.438089 0.388843 0.325318
1758 4 0.0490221 0.488002 0.259653
601 2 0.1227 0.43261 0.248516
412 2 0.110604 0.460353 0.296781
602 4 0.113602 0.455467 0.252988
414 4 0.107104 0.460061 0.272025
413 4 0.114104 0.460644 0.321537
1435 2 0.237407 0.434028 0.259392
1437 4 0.226005 0.440414 0.280708
435 4 0.310482 0.458458 0.325086
433 2 0.298438 0.439851 0.336659
2 3 0.336016 0.496042 0.322675
434 4 0.286394 0.421245 0.348231
728 4 0.367823 0.410686 0.285909
4 3 0.328376 0.459834 0.316097
5 3 0.349505 0.479602 0.292005
1803 4 0.385774 0.420941 0.292305
1802 4 0.394661 0.466667 0.274115
1801 2 0.390218 0.443804 0.28321
1689 4 0.403649 0.478104 0.258108
1 1 0.344412 0.47647 0.31398
3 3 0.363513 0.470607 0.325777
446 4 0.452005 0.409858 0.262502
713 4 0.459198 0.427288 0.270058
1687 2 0.42327 0.49263 0.26351
231 4 0.468364 0.491176 0.32733
712 2 0.481579 0.435905 0.277127
229 2 0.463192 0.501561 0.305181
1375 2 0.993358 0.0236191 0.396969
1376 4 0.00108285 0.0471194 0.393331
233 4 0.0163218 0.0583176 0.382278
318 4 0.074445 0.0548862 0.389586
234 4 0.0655021 0.0660253 0.377524
232 2 0.0409119 0.0621714 0.379901
316 2 0.088032 0.0435794 0.40727
317 4 0.101619 0.0322727 0.424954
633 4 0.332668 0.00609519 0.336531
632 4 0.309682 0.0478348 0.351701
631 2 0.321175 0.026965 0.344116
682 2 0.283682 0.06594 0.383071
683 4 0.296048 0.0572199 0.363165
684 4 0.271316 0.07466 0.402976
351 4 0.39384 0.0740952 0.33233
257 4 0.410427 0.0628016 0.339716
256 2 0.421776 0.0560686 0.360954
425 4 0.440532 0.0368831 0.398979
258 4 0.433125 0.0493357 0.382192
452 4 0.493261 0.0667219 0.370439
451 2 0.471899 0.0609009 0.382056
453 4 0.450537 0.0550798 0.393673
515 4 0.431033 0.0561351 0.403704
424 2 0.43532 0.0241989 0.419887
398 4 0.0185678 0.119868 0.335802
397 2 0.0381148 0.128923 0.348495
399 4 0.0576619 0.137977 0.361188
732 4 0.0676892 0.134612 0.377291
598 2 0.138103 0.155322 0.334935
730 2 0.0883162 0.146643 0.369878
599 4 0.129279 0.164038 0.356645
685 2 0.144419 0.154653 0.390827
686 4 0.125449 0.152984 0.374624
731 4 0.108943 0.158674 0.362464
687 4 0.163389 0.156322 0.407029
467 4 0.255824 0.142572 0.404945
466 2 0.252245 0.158151 0.385719
574 2 0.427211 0.13057 0.397941
576 4 0.441234 0.150721 0.393203
305 4 0.449128 0.155359 0.374827
2654 4 0.0628342 0.203037 0.346205
2653 2 0.0411141 0.21471 0.350345
2655 4 0.0193941 0.226384 0.354485
617 4 0.0907892 0.228704 0.383155
275 4 0.167747 0.247234 0.346087
388 2 0.124611 0.242931 0.358612
390 4 0.102997 0.240267 0.370897
389 4 0.146225 0.245595 0.346327
472 2 0.2371 0.195518 0.338617
473 4 0.256843 0.186691 0.351166
409 2 0.287623 0.197332 0.371303
468 4 0.248667 0.17373 0.366492
410 4 0.265161 0.186348 0.371361
411 4 0.310084 0.208316 0.371245
716 4 0.393232 0.244084 0.368565
715 2 0.381169 0.2421 0.390376
615 4 0.397574 0.235993 0.350018
717 4 0.369106 0.240115 0.412188
304 2 0.459059 0.178255 0.373306
269 4 0.454233 0.210927 0.380334
306 4 0.468991 0.201151 0.371786
268 2 0.440974 0.227948 0.39297
616 2 0.0838227 0.24228 0.402963
401 4 0.156376 0.252931 0.363508
677 4 0.169949 0.331709 0.347155
400 2 0.167251 0.275035 0.367792
375 4 0.194702 0.288183 0.379697
402 4 0.178125 0.297139 0.372077
373 2 0.218658 0.283616 0.385214
374 4 0.242613 0.279049 0.390731
510 4 0.256997 0.284912 0.376122
508 2 0.262499 0.286487 0.351782
378 4 0.263184 0.274865 0.39426
376 2 0.284605 0.277885 0.406798
2924 4 0.439664 0.255275 0.418491
2923 2 0.423335 0.271256 0.428647
270 4 0.427714 0.244968 0.405606
406 2 0.994628 0.364552 0.353057
548 4 0.0153677 0.398043 0.336253
407 4 0.0101232 0.379595 0.340455
676 2 0.184613 0.337729 0.366493
678 4 0.199276 0.343749 0.38583
650 4 0.205832 0.378029 0.412636
503 4 0.191793 0.38581 0.401557
498 4 0.282406 0.355498 0.323039
669 4 0.400794 0.385797 0.410099
336 4 0.380578 0.389586 0.412657
667 2 0.420715 0.389041 0.39534
559 2 0.448815 0.390823 0.347817
560 4 0.459541 0.392803 0.370316
668 4 0.440635 0.392285 0.380581
588 4 0.459025 0.39524 0.391437
586 2 0.47482 0.402565 0.409384
547 2 0.0288849 0.415865 0.347426
775 2 0.0797496 0.443256 0.344091
777 4 0.0608549 0.428916 0.352
549 4 0.0424022 0.433687 0.358599
776 4 0.0986443 0.457595 0.336182
1545 4 0.103242 0.477478 0.33012
1543 2 0.111093 0.49821 0.341683
593 4 0.46161 0.513794 0.373257
3989 4 0.468538 0.495629 0.371178
3990 4 0.481269 0.459863 0.338629
3988 2 0.474903 0.477746 0.354903
428 4 0.114485 0.0224944 0.438934
1781 4 0.0986005 0.0354479 0.446107
1780 2 0.117664 0.045338 0.458911
1782 4 0.136728 0.0552281 0.471715
341 4 0.156651 0.062763 0.471306
2430 4 0.153323 0.0422854 0.465148
368 4 0.115842 0.0827373 0.427369
340 2 0.171767 0.082062 0.466383
2428 2 0.168415 0.0272299 0.478214
2429 4 0.183508 0.0121744 0.491281
1180 2 0.279577 0.048889 0.437628
1181 4 0.290408 0.0321483 0.452715
1182 4 0.268746 0.0656297 0.422541
963 4 0.298911 0.0205785 0.468592
432 4 0.310776 0.025321 0.451516
961 2 0.286176 0.0223869 0.490033
430 2 0.333346 0.0355185 0.454951
431 4 0.355915 0.045716 0.458385
841 2 0.386181 0.0207217 0.453728
842 4 0.409198 0.0138206 0.446817
843 4 0.363164 0.0276228 0.460639
426 4 0.430108 0.0115148 0.440794
1217 4 0.423198 0.00324016 0.459521
1216 2 0.441262 0.0149381 0.472251
1218 4 0.459325 0.026636 0.484981
457 2 0.0254069 0.110875 0.455299
719 4 0.0445873 0.10165 0.483622
459 4 0.045029 0.098835 0.465054
367 2 0.110929 0.103923 0.439706
369 4 0.106016 0.125109 0.452043
939 4 0.123243 0.135381 0.453849
937 2 0.131943 0.155708 0.465523
1151 4 0.177277 0.145296 0.416357
342 4 0.186883 0.101361 0.461459
1152 4 0.175002 0.105883 0.447051
1150 2 0.17614 0.12559 0.431704
320 4 0.257105 0.0827364 0.416948
321 4 0.261862 0.132173 0.422792
319 2 0.259483 0.107454 0.41987
899 4 0.27315 0.14894 0.415293
898 2 0.281944 0.163777 0.433395
900 4 0.290738 0.178615 0.451498
575 4 0.413187 0.110419 0.402679
514 2 0.420377 0.077544 0.411003
516 4 0.409721 0.098953 0.418303
938 4 0.140643 0.176035 0.477198
1034 4 0.148229 0.192587 0.486213
261 4 0.0930805 0.233753 0.487945
1035 4 0.111714 0.22558 0.495096
1033 2 0.129971 0.209084 0.490655
695 4 0.0920635 0.215588 0.498938
259 2 0.0883811 0.243196 0.465275
267 4 0.357903 0.232046 0.428331
813 4 0.362879 0.212124 0.485772
266 4 0.357009 0.202823 0.468902
265 2 0.357456 0.217435 0.448617
488 4 0.355937 0.252569 0.423276
2847 4 0.0143297 0.275667 0.471538
2801 4 0.0284449 0.308315 0.417059
2802 4 0.0144838 0.294343 0.463
2800 2 0.0214644 0.301329 0.44003
618 4 0.0768562 0.255856 0.42277
2845 2 0.0128411 0.281054 0.495908
260 4 0.0836817 0.252638 0.442605
347 4 0.0756555 0.271571 0.437002
346 2 0.0905241 0.291539 0.434681
348 4 0.105393 0.311506 0.43236
10 3 0.121387 0.311028 0.444732
9 3 0.137413 0.301236 0.477365
6 1 0.137373 0.316591 0.459969
1259 4 0.124231 0.29081 0.488225
8 3 0.158209 0.317062 0.449771
377 4 0.306025 0.280906 0.419337
489 4 0.320597 0.286856 0.432012
487 2 0.338267 0.269713 0.427644
238 2 0.386968 0.318766 0.443031
2925 4 0.407006 0.287237 0.438803
239 4 0.388833 0.293874 0.444475
2456 4 0.487984 0.300517 0.485715
584 4 0.475077 0.303978 0.471084
583 2 0.450472 0.300373 0.468483
585 4 0.425866 0.296768 0.465883
872 4 0.422932 0.284756 0.482293
680 4 0.0788246 0.403183 0.484789
7 3 0.132787 0.337462 0.468484
504 4 0.149908 0.381575 0.428546
711 4 0.11792 0.350381 0.467688
709 2 0.126548 0.369596 0.454215
710 4 0.135176 0.388811 0.440741
649 2 0.227568 0.384733 0.402253
502 2 0.170851 0.383693 0.415051
651 4 0.249303 0.391437 0.391871
240 4 0.385104 0.343658 0.441586
335 4 0.373454 0.357851 0.450642
334 2 0.377016 0.373719 0.431649
679 2 0.0625439 0.421703 0.480649
382 2 0.0650929 0.475257 0.470096
539 4 0.0278953 0.452356 0.47614
538 2 0.00996879 0.46655 0.486258
681 4 0.0462631 0.440222 0.476509
383 4 0.0480532 0.461536 0.482202
384 4 0.0821326 0.488978 0.45799
772 2 0.213833 0.476234 0.450416
774 4 0.190972 0.479387 0.46004
634 2 0.172543 0.486976 0.487264
635 4 0.174555 0.489284 0.462449
773 4 0.236694 0.473082 0.440791
662 4 0.461023 0.47147 0.447059
587 4 0.490614 0.40989 0.42733
663 4 0.48423 0.429973 0.431565
1909 2 0.460354 0.490405 0.484398
661 2 0.472627 0.450722 0.439312
1910 4 0.46737 0.478918 0.463326
1284 4 0.205596 0.0766271 0.580621
1282 2 0.221326 0.0608835 0.592018
962 4 0.273441 0.0241954 0.511475
1091 4 0.363328 0.0171805 0.570122
2196 4 0.380172 0.013875 0.560339
810 4 0.473182 0.0886366 0.576096
1062 4 0.476579 0.0689327 0.575335
1060 2 0.479465 0.045084 0.58227
1061 4 0.482352 0.0212354 0.589205
720 4 0.0332065 0.102419 0.53231
718 2 0.0388969 0.102035 0.507966
1059 4 0.202309 0.0949037 0.574194
808 2 0.494659 0.101011 0.57938
327 4 0.0765621 0.239412 0.547619
877 2 0.114204 0.226976 0.570033
878 4 0.0942249 0.230008 0.555309
696 4 0.0782932 0.218002 0.546951
694 2 0.0851783 0.216795 0.522945
879 4 0.134184 0.223943 0.584757
856 2 0.219062 0.227501 0.546924
858 4 0.220301 0.228467 0.52197
857 4 0.217823 0.226535 0.571878
953 4 0.405953 0.244012 0.530627
812 4 0.388184 0.236423 0.521408
791 4 0.386976 0.255073 0.53182
952 2 0.424918 0.233488 0.543066
873 4 0.397894 0.254832 0.513573
811 2 0.375532 0.224273 0.50359
954 4 0.443884 0.222963 0.555505
905 4 0.437209 0.217246 0.573415
904 2 0.448289 0.196832 0.582673
982 2 0.0255022 0.298781 0.550656
984 4 0.0435284 0.295058 0.567578
326 4 0.0618321 0.28325 0.566645
1136 4 0.0630485 0.30438 0.569639
325 2 0.0691971 0.261331 0.557132
983 4 0.00747602 0.302504 0.533733
2846 4 0.0113525 0.286442 0.520279
1135 2 0.0672286 0.328241 0.57583
1260 4 0.141393 0.272618 0.531529
1258 2 0.132812 0.281714 0.509877
1239 4 0.319269 0.306113 0.5798
797 4 0.269958 0.273985 0.596964
1237 2 0.334735 0.286532 0.581406
804 4 0.297786 0.304071 0.581685
790 2 0.368017 0.258464 0.547764
1238 4 0.3502 0.266951 0.583012
792 4 0.349058 0.261855 0.563709
871 2 0.410413 0.269794 0.497933
929 4 0.386413 0.337397 0.556009
936 4 0.996923 0.403505 0.54042
934 2 0.0153914 0.415219 0.552539
993 4 0.120475 0.420427 0.562421
991 2 0.132495 0.405983 0.578915
802 2 0.288738 0.327321 0.580038
803 4 0.279689 0.350572 0.578391
880 2 0.361739 0.41428 0.563196
928 2 0.373945 0.357457 0.564216
882 4 0.350736 0.394516 0.57385
930 4 0.361478 0.377517 0.572422
925 2 0.472875 0.414833 0.526883
927 4 0.489117 0.409358 0.545086
1001 4 0.492848 0.402157 0.563722
926 4 0.456632 0.420308 0.508679
3430 2 0.0373271 0.463331 0.554418
3431 4 0.0266308 0.48326 0.543759
935 4 0.0338601 0.426934 0.564657
3432 4 0.0480234 0.443403 0.565077
1039 2 0.0752936 0.424378 0.570262
3264 4 0.0358023 0.43931 0.582494
1159 2 0.105466 0.436327 0.525254
1161 4 0.108788 0.420634 0.544434
1160 4 0.102144 0.45202 0.506074
1040 4 0.0993173 0.423138 0.563443
636 4 0.170532 0.484668 0.51208
1455 4 0.36895 0.489043 0.527861
1454 4 0.359188 0.448479 0.555428
1453 2 0.364069 0.468761 0.541644
881 4 0.372742 0.434044 0.552542
1000 2 0.491115 0.4204 0.580733
1183 2 0.0208774 0.0503519 0.659931
1184 4 0.0154504 0.02737 0.651712
1892 4 0.013764 0.00984984 0.639744
4338 4 0.00279653 0.0113659 0.658371
1185 4 0.0263045 0.0733338 0.66815
1031 4 0.257843 0.0395709 0.604914
1283 4 0.237055 0.0451399 0.603415
2131 2 0.226776 0.0265317 0.63568
2132 4 0.242923 0.0295265 0.616825
2133 4 0.210629 0.023537 0.654535
824 4 0.205398 0.00486962 0.663221
1030 2 0.278516 0.0521257 0.598575
1032 4 0.299188 0.0646804 0.592235
1090 2 0.353179 0.00590477 0.589997
1092 4 0.343029 0.994629 0.609873
944 4 0.043615 0.0850901 0.662138
1081 2 0.00818917 0.110314 0.652587
943 2 0.0676123 0.0915223 0.65932
1082 4 0.0242531 0.0944891 0.663389
1083 4 0.992125 0.12614 0.641784
945 4 0.0916095 0.0979545 0.656503
1057 2 0.191874 0.108449 0.592437
1058 4 0.181439 0.121994 0.61068
1155 4 0.178386 0.136809 0.625638
1153 2 0.177738 0.161801 0.625261
909 4 0.195922 0.123643 0.626531
907 2 0.213143 0.117328 0.643524
830 4 0.363043 0.138686 0.639004
829 2 0.362543 0.114681 0.632028
831 4 0.362043 0.0906751 0.625052
887 4 0.351084 0.154603 0.629406
1194 4 0.369798 0.160036 0.638678
1026 4 0.450867 0.142966 0.636063
1024 2 0.45856 0.149446 0.613172
1143 4 0.442059 0.12891 0.649574
1263 4 0.443666 0.149598 0.655716
1141 2 0.447113 0.112715 0.667941
1025 4 0.466253 0.155927 0.590281
1209 4 0.0626169 0.258574 0.667377
1245 4 0.0478749 0.247809 0.655737
1272 4 0.142147 0.223374 0.603135
1270 2 0.1635 0.210544 0.605284
1154 4 0.17709 0.186794 0.624884
1271 4 0.184853 0.197714 0.607433
1221 4 0.196116 0.196163 0.62576
1219 2 0.217327 0.207383 0.618733
1220 4 0.238539 0.218602 0.611706
888 4 0.307996 0.178772 0.621662
798 4 0.258546 0.22685 0.609159
796 2 0.264252 0.250418 0.603061
1212 4 0.251967 0.208982 0.598225
1211 4 0.288282 0.178644 0.614398
1210 2 0.270124 0.193813 0.606312
886 2 0.32954 0.166687 0.625534
1192 2 0.39479 0.160531 0.63809
1193 4 0.419781 0.161026 0.637502
1261 2 0.439976 0.173767 0.660952
906 4 0.459368 0.176418 0.59193
3123 4 0.487516 0.229787 0.658551
1243 2 0.0332626 0.266774 0.648527
1244 4 0.0186503 0.285739 0.641317
1207 2 0.0835428 0.272173 0.668914
946 2 0.138355 0.289607 0.653135
947 4 0.122436 0.297462 0.670744
948 4 0.154274 0.281751 0.635526
3112 2 0.47879 0.299933 0.617154
3114 4 0.455997 0.289655 0.616938
3113 4 0.501583 0.31021 0.61737
1137 4 0.0714087 0.352103 0.582022
992 4 0.144516 0.391539 0.595409
897 4 0.164257 0.392814 0.593707
1191 4 0.222439 0.364437 0.614938
896 4 0.208553 0.379084 0.612418
895 2 0.186405 0.385949 0.603063
1189 2 0.244371 0.357745 0.604969
1027 2 0.201967 0.379925 0.664998
1028 4 0.178187 0.372203 0.664753
1068 4 0.159931 0.372012 0.658333
1190 4 0.266303 0.351053 0.595
1041 4 0.0512699 0.425617 0.577082
3239 4 0.0106254 0.445429 0.645639
3262 2 0.0222731 0.440459 0.60349
3238 2 0.0252463 0.455668 0.663148
3263 4 0.00874397 0.441608 0.624486
1173 4 0.299791 0.488726 0.609746
1172 4 0.301833 0.453217 0.644898
1171 2 0.300812 0.470971 0.627322
2435 4 0.284636 0.503477 0.61449
891 4 0.308086 0.464014 0.662448
3183 4 0.450621 0.486111 0.583912
1002 4 0.489382 0.438643 0.597744
1206 4 0.481446 0.430975 0.616568
1204 2 0.469727 0.431536 0.638648
3182 4 0.473245 0.448774 0.6083
3181 2 0.461933 0.467442 0.596106
3440 4 0.493259 0.449318 0.616126
1205 4 0.458009 0.432098 0.660728
1202 4 0.102592 0.00431597 0.751733
2400 4 0.338047 0.0535281 0.730776
43 3 0.463415 0.062297 0.724519
846 4 0.460434 0.0603631 0.744764
44 3 0.458277 0.0774544 0.690048
1179 4 0.00458871 0.154046 0.720327
1077 4 0.0218289 0.0976486 0.728654
1075 2 0.0280153 0.0929089 0.704896
864 4 0.0141573 0.107599 0.742694
1076 4 0.0342016 0.0881691 0.681138
1177 2 0.0245078 0.166398 0.711618
908 4 0.230364 0.111013 0.660516
1227 4 0.220794 0.114206 0.676637
1226 4 0.21688 0.108039 0.726108
1225 2 0.218837 0.111122 0.701372
1130 4 0.217166 0.112274 0.746908
1148 4 0.20766 0.0944859 0.739644
41 1 0.468142 0.0804317 0.710837
45 3 0.490678 0.0827261 0.708487
1142 4 0.452168 0.0965196 0.686308
42 3 0.459554 0.0994654 0.720487
852 4 0.0585311 0.237928 0.67148
850 2 0.0542147 0.218567 0.686703
1178 4 0.0444269 0.178749 0.70291
851 4 0.0498984 0.199207 0.701925
1107 4 0.0641977 0.184277 0.708276
1105 2 0.0863713 0.176919 0.717185
1106 4 0.108545 0.169561 0.726094
1073 4 0.115979 0.181934 0.740852
1072 2 0.133612 0.170291 0.75422
1086 4 0.299659 0.236951 0.73898
1299 4 0.284274 0.225449 0.731121
1262 4 0.436286 0.197936 0.666188
3270 4 0.477315 0.164915 0.735742
3426 4 0.494419 0.176649 0.730813
1146 4 0.474258 0.184334 0.726368
1145 4 0.4698 0.233781 0.720383
1144 2 0.472029 0.209057 0.723375
816 4 0.0408839 0.327873 0.745941
1208 4 0.104469 0.285772 0.67045
1242 4 0.090919 0.297349 0.740696
821 4 0.0998253 0.31534 0.732974
820 2 0.105287 0.305364 0.710706
822 4 0.110749 0.295389 0.688439
1098 4 0.331702 0.303469 0.715528
1096 2 0.335109 0.30236 0.740274
892 2 0.0577165 0.403004 0.732182
893 4 0.0594867 0.380745 0.72093
815 4 0.0624902 0.36043 0.714733
814 2 0.0516871 0.344152 0.730337
894 4 0.0559464 0.425263 0.743433
942 4 0.0788214 0.374192 0.715188
1067 4 0.111898 0.35819 0.656737
940 2 0.0934334 0.367521 0.696027
941 4 0.108045 0.36085 0.676865
1066 2 0.135914 0.365101 0.657535
1029 4 0.225747 0.387648 0.665243
1139 4 0.240373 0.40108 0.670025
1065 4 0.251684 0.348208 0.692882
1063 2 0.25878 0.349636 0.716815
1064 4 0.265876 0.351064 0.740748
1101 4 0.426305 0.38192 0.67971
1099 2 0.441715 0.40161 0.679892
3240 4 0.0398671 0.465907 0.680657
2172 4 0.0543634 0.477792 0.690818
1279 2 0.0401147 0.459085 0.717622
3276 4 0.0347881 0.427459 0.746937
1280 4 0.0457395 0.442449 0.735421
1281 4 0.0344899 0.47572 0.699823
1140 4 0.232694 0.449992 0.677049
1138 2 0.236534 0.425536 0.673537
1176 4 0.188441 0.493991 0.716702
2016 4 0.174422 0.506289 0.724876
889 2 0.305347 0.481924 0.67968
2169 4 0.483061 0.49917 0.697049
1269 4 0.464645 0.441714 0.678542
1100 4 0.457124 0.4213 0.680073
1268 4 0.468811 0.491061 0.685489
1267 2 0.466728 0.466388 0.682015
1195 2 0.0821288 0.994024 0.820047
1196 4 0.0791612 0.00996256 0.801012
1203 4 0.0696072 0.021046 0.785391
911 4 0.0730868 0.0301255 0.804575
910 2 0.0838103 0.0508834 0.81348
1201 2 0.0860996 0.012681 0.768562
912 4 0.0945339 0.0716413 0.822385
1149 4 0.196046 0.0548446 0.767829
1147 2 0.201853 0.0746652 0.753737
974 4 0.338066 0.0199834 0.836853
2398 2 0.351908 0.0575135 0.7512
1049 4 0.382386 0.0722438 0.780479
1111 2 0.399675 0.0345823 0.780073
2399 4 0.365769 0.061499 0.771625
1112 4 0.380962 0.0510282 0.782202
1113 4 0.418388 0.0181365 0.777944
844 2 0.44895 0.0425881 0.758081
845 4 0.437465 0.024813 0.771397
980 4 0.435325 0.0165714 0.790888
979 2 0.437206 0.0182549 0.815764
1213 2 0.0821037 0.14405 0.780221
1215 4 0.0825914 0.165969 0.7682
33 3 0.0731494 0.110032 0.806065
1214 4 0.081616 0.122131 0.792242
31 1 0.0836718 0.10407 0.825867
32 3 0.102688 0.0921264 0.820879
1074 4 0.151244 0.158648 0.767588