ITEM: TIMESTEP
2020000
ITEM: NUMBER OF ATOMS
4590
ITEM: BOX BOUNDS pp pp pp
-9.9985700000000008e+00 9.9985700000000008e+00
-9.9985700000000008e+00 9.9985700000000008e+00
-9.9985700000000008e+00 9.9985700000000008e+00
ITEM: ATOMS id type xs ys zs
1666 2 0.0479365 0.0486404 0.0668435
1668 4 0.0384053 0.0296246 0.0799863
1667 4 0.0574677 0.0676563 0.0537007
702 4 0.0718477 0.0827757 0.0487787
423 4 0.148985 0.0757793 0.00377467
1475 4 0.232496 0.00411477 0.049628
490 2 0.30899 0.0632729 0.0180598
491 4 0.303643 0.0755946 0.0391491
653 4 0.288647 0.0826701 0.0526574
652 2 0.282848 0.0703472 0.0736265
295 2 0.402959 0.9994 0.0781117
296 4 0.420443 0.996658 0.0604492
591 4 0.0512764 0.087409 0.0464355
589 2 0.0302398 0.0954813 0.0355967
590 4 0.00920326 0.103553 0.0247578
3233 4 0.00346781 0.120606 0.013214
235 2 0.0749821 0.158538 0.0763952
3232 2 0.0152866 0.136987 0.998478
421 2 0.142142 0.0998276 0.00361401
422 4 0.135298 0.123876 0.00345335
700 2 0.0859077 0.101688 0.0571351
701 4 0.0999677 0.1206 0.0654915
236 4 0.0889577 0.138399 0.0714701
449 4 0.10927 0.139857 0.0649446
448 2 0.133078 0.147385 0.0662541
450 4 0.156885 0.154913 0.0675636
565 2 0.273236 0.104935 0.0262894
566 4 0.260886 0.125988 0.0208653
567 4 0.285587 0.0838821 0.0317135
665 4 0.315966 0.138395 0.0098001
359 4 0.268137 0.143181 0.0117161
664 2 0.329594 0.158025 0.0171579
557 4 0.395154 0.149026 0.0552632
556 2 0.377849 0.164492 0.0459616
987 4 0.43057 0.147673 0.0219178
237 4 0.0610065 0.178678 0.0813203
555 4 0.0208265 0.17108 0.993076
914 4 0.155015 0.244609 0.0129143
357 4 0.223551 0.233607 0.00449166
666 4 0.343221 0.177655 0.0245156
558 4 0.360544 0.179958 0.0366599
571 2 0.370475 0.210105 0.00962184
572 4 0.355072 0.195487 0.0228219
769 2 0.498455 0.210245 0.0292586
771 4 0.491186 0.228967 0.0441535
323 4 0.477862 0.24344 0.052886
1054 2 0.000225319 0.322921 0.012261
506 4 0.160487 0.254667 0.0302628
293 4 0.149467 0.316097 0.038664
292 2 0.138129 0.322299 0.0600684
507 4 0.159248 0.304223 0.0236796
505 2 0.159868 0.279445 0.0269712
288 4 0.16005 0.325681 0.0224254
294 4 0.12679 0.328502 0.0814729
286 2 0.183281 0.33291 0.0281885
482 4 0.245824 0.321747 0.0821457
1070 4 0.374486 0.281241 0.021701
1069 2 0.381527 0.262544 0.00666717
957 4 0.373344 0.298358 0.012019
955 2 0.362299 0.316089 0.0257586
956 4 0.351254 0.333821 0.0394983
322 2 0.455793 0.249148 0.0631599
324 4 0.433724 0.254856 0.0734339
280 2 0.467779 0.315508 0.024135
282 4 0.466073 0.30132 0.00361779
550 2 0.0334466 0.414636 0.0456657
551 4 0.0368433 0.405027 0.0228335
1170 4 0.0177314 0.348364 0.0115181
1168 2 0.0222004 0.372814 0.00879256
1169 4 0.0266693 0.397263 0.00606705
481 2 0.232084 0.334529 0.0656233
483 4 0.218343 0.347312 0.0491008
287 4 0.206513 0.340139 0.0339516
671 4 0.460926 0.348201 0.0484324
670 2 0.465222 0.344217 0.0727399
281 4 0.469485 0.329697 0.0446523
552 4 0.0300499 0.424245 0.0684979
315 4 0.0393637 0.441813 0.0778814
313 2 0.0488207 0.463274 0.0692114
314 4 0.0582777 0.484735 0.0605415
1787 4 0.079536 0.485627 0.0642562
1691 4 0.0711187 0.497364 0.0487125
1786 2 0.100286 0.47799 0.0759308
243 4 0.233366 0.4799 0.0745588
241 2 0.220624 0.500095 0.081975
1440 4 0.249146 0.485023 0.0843701
246 4 0.324923 0.45246 0.0216017
272 4 0.310158 0.462129 0.00745511
244 2 0.330004 0.451693 0.0460714
40 3 0.321585 0.444152 0.0013864
271 2 0.303354 0.486129 0.00575356
245 4 0.335086 0.450926 0.0705411
2388 4 0.401024 0.497572 0.0313028
563 4 0.410185 0.480021 0.0315188
39 3 0.355821 0.428549 0.00282517
562 2 0.432785 0.477782 0.0210595
564 4 0.455386 0.475544 0.0106002
854 4 0.475182 0.468758 0.0123008
18 3 0.00328653 0.0806619 0.129578
2481 4 0.00601038 0.0625913 0.139768
16 1 0.00268343 0.0847561 0.106746
2479 2 0.00443416 0.0397137 0.149733
2480 4 0.00285794 0.0168361 0.159699
654 4 0.27705 0.0580243 0.0945957
297 4 0.385475 0.00214238 0.0957742
19 3 0.0242539 0.0852099 0.0982072
311 4 0.417979 0.0818791 0.156328
477 4 0.0444637 0.186106 0.0904339
476 4 0.0633509 0.226745 0.112627
475 2 0.0539073 0.206426 0.10153
339 4 0.0673349 0.245951 0.114728
738 4 0.17704 0.236493 0.128655
736 2 0.200506 0.242265 0.122238
353 4 0.234553 0.241142 0.0982571
461 4 0.292845 0.216546 0.120043
354 4 0.273451 0.219698 0.121231
460 2 0.313978 0.21657 0.10668
352 2 0.254002 0.23042 0.109744
462 4 0.335112 0.216593 0.0933175
254 4 0.380522 0.191512 0.130185
630 4 0.399191 0.193141 0.123368
253 2 0.364076 0.196034 0.111903
255 4 0.347629 0.200555 0.0936207
628 2 0.420696 0.201435 0.133059
629 4 0.442201 0.20973 0.142749
337 2 0.0798803 0.262453 0.12871
338 4 0.0924257 0.278955 0.142691
363 4 0.112412 0.280669 0.144682
361 2 0.123626 0.274799 0.166245
456 4 0.135083 0.318567 0.0957348
737 4 0.223973 0.248037 0.115821
755 4 0.240244 0.259504 0.107555
754 2 0.246963 0.282714 0.101124
756 4 0.253682 0.305923 0.0946923
252 4 0.267985 0.319352 0.0837764
741 4 0.384403 0.295191 0.127774
739 2 0.373337 0.317488 0.130137
624 4 0.40293 0.289882 0.122813
623 4 0.430931 0.265343 0.0894288
622 2 0.416931 0.277613 0.106121
15 3 0.456405 0.324902 0.157343
11 1 0.433863 0.328128 0.157608
14 3 0.424897 0.323074 0.136811
528 4 0.478506 0.323854 0.0977457
495 4 0.422905 0.333512 0.11917
526 2 0.499469 0.320716 0.111007
454 2 0.12912 0.336292 0.112331
455 4 0.123156 0.354018 0.128927
537 4 0.131568 0.351649 0.147266
250 2 0.28157 0.338854 0.0915423
607 2 0.289115 0.400844 0.10707
251 4 0.295156 0.358355 0.0993081
609 4 0.297829 0.377669 0.11056
387 4 0.314454 0.36371 0.109151
740 4 0.362272 0.339785 0.1325
385 2 0.331702 0.356716 0.125847
386 4 0.34895 0.349721 0.142543
494 4 0.41183 0.363516 0.0807274
493 2 0.417368 0.348514 0.0999487
595 2 0.467364 0.372709 0.149591
12 3 0.429419 0.350169 0.162464
597 4 0.448125 0.358083 0.156004
2652 4 0.485102 0.403176 0.129474
596 4 0.486602 0.387336 0.143179
672 4 0.469517 0.340233 0.0970473
620 4 0.0239629 0.430517 0.0880366
648 4 0.0314509 0.435701 0.107195
646 2 0.0383494 0.443083 0.130067
647 4 0.045248 0.450464 0.152938
1788 4 0.121036 0.470352 0.0876054
627 4 0.213561 0.424044 0.0991359
625 2 0.238317 0.427468 0.0999082
626 4 0.263073 0.430893 0.100681
608 4 0.280401 0.424019 0.10358
1438 2 0.269925 0.481466 0.0978136
1439 4 0.290705 0.477908 0.111257
637 2 0.285144 0.474277 0.151033
639 4 0.281021 0.471123 0.126574
523 2 0.350128 0.487236 0.144227
525 4 0.345025 0.463696 0.150935
659 4 0.355003 0.446737 0.154248
674 4 0.067406 0.0856461 0.229211
688 2 0.13871 0.0539354 0.232098
690 4 0.1542 0.0536807 0.212472
693 4 0.155064 0.0718057 0.205862
675 4 0.101537 0.0575911 0.252635
673 2 0.0844716 0.0716186 0.240923
1506 4 0.263628 0.0170636 0.177377
23 3 0.314839 0.0263595 0.242228
1785 4 0.354709 0.999902 0.177921
21 1 0.333124 0.0404778 0.240048
25 3 0.338424 0.0429877 0.218043
759 4 0.356324 0.0558753 0.220066
1784 4 0.353635 0.0440168 0.201446
1783 2 0.354172 0.0219594 0.189684
757 2 0.37334 0.0741127 0.21833
1749 4 0.494383 0.0043402 0.230106
511 2 0.0176846 0.135738 0.238086
512 4 0.00859788 0.132698 0.214991
691 2 0.155617 0.0960497 0.199771
692 4 0.156171 0.120294 0.193679
723 4 0.16388 0.132582 0.206863
721 2 0.174455 0.143941 0.226467
722 4 0.18503 0.1553 0.246071
30 3 0.326652 0.160404 0.197582
758 4 0.390357 0.0923501 0.216595
28 3 0.358641 0.142591 0.188804
312 4 0.406345 0.0960544 0.202852
744 4 0.410209 0.0948113 0.223985
26 1 0.348909 0.158881 0.202158
29 3 0.35205 0.153683 0.224552
708 4 0.350943 0.171795 0.233432
310 2 0.412162 0.0889668 0.17959
742 2 0.41682 0.0972314 0.247977
748 2 0.0725791 0.211533 0.223334
749 4 0.0713841 0.208171 0.198586
750 4 0.073774 0.214895 0.248082
284 4 0.228877 0.203208 0.233006
283 2 0.242145 0.19006 0.216385
343 2 0.240682 0.241069 0.244444
344 4 0.241283 0.218147 0.234474
581 4 0.319489 0.177973 0.192364
285 4 0.255412 0.176912 0.199763
580 2 0.296054 0.173806 0.200022
582 4 0.27262 0.169639 0.20768
27 3 0.358954 0.179098 0.197737
362 4 0.134839 0.268929 0.187809
372 4 0.152274 0.278118 0.191723
370 2 0.173105 0.291946 0.191878
371 4 0.193937 0.305773 0.192032
279 4 0.21035 0.294544 0.19969
277 2 0.218777 0.28557 0.221453
612 4 0.211492 0.316028 0.198171
278 4 0.227205 0.276596 0.243216
13 3 0.424142 0.314753 0.173887
535 2 0.128654 0.349282 0.171986
536 4 0.125741 0.346915 0.196706
298 2 0.144258 0.393379 0.23157
299 4 0.145128 0.373218 0.246333
300 4 0.143387 0.41354 0.216807
610 2 0.208879 0.340743 0.195422
417 4 0.223907 0.375086 0.19423
415 2 0.225143 0.400058 0.194453
611 4 0.206266 0.365457 0.192672
301 2 0.319384 0.403155 0.210197
303 4 0.312117 0.400897 0.234015
302 4 0.326651 0.405414 0.18638
660 4 0.34864 0.406065 0.182638
447 4 0.425075 0.389594 0.228574
645 4 0.437519 0.367119 0.173926
643 2 0.425827 0.373777 0.195001
644 4 0.414135 0.380436 0.216075
263 4 0.0521925 0.458657 0.169831
262 2 0.0569122 0.462359 0.194104
1757 4 0.042702 0.469651 0.225108
264 4 0.0616319 0.466061 0.218378
1756 2 0.0309373 0.481159 0.243932
603 4 0.115902 0.432658 0.227124
416 4 0.226379 0.42503 0.194677
291 4 0.245972 0.426437 0.196387
289 2 0.261293 0.44563 0.191684
290 4 0.276613 0.464822 0.186982
638 4 0.289268 0.477431 0.175492
767 4 0.294229 0.473047 0.195735
766 2 0.315451 0.480257 0.206816
658 2 0.351821 0.426401 0.168443
768 4 0.336673 0.487468 0.217898
1574 4 0.343175 0.493015 0.236367
1573 2 0.357651 0.478937 0.251112
1403 4 0.110809 0.0368149 0.256172
689 4 0.12322 0.05419 0.251723
1402 2 0.111241 0.0134021 0.264938
1699 2 0.209127 0.00780485 0.276775
248 4 0.215969 0.0474691 0.299657
247 2 0.199498 0.0657469 0.304107
1701 4 0.212254 0.0305448 0.286689
605 4 0.227818 0.0297789 0.302004
604 2 0.233945 0.023612 0.325448
24 3 0.328337 0.061146 0.249446
633 4 0.32258 0.00593838 0.330344
631 2 0.334562 0.0266864 0.323195
632 4 0.346545 0.0474345 0.316045
22 3 0.351025 0.0312287 0.251146
699 4 0.377352 0.00292914 0.305272
1496 4 0.360908 0.013072 0.249988
697 2 0.391375 0.0212419 0.314925
698 4 0.405398 0.0395546 0.324578
351 4 0.409389 0.0603361 0.32779
349 2 0.415174 0.0770736 0.310139
2756 4 0.0113592 0.0953263 0.32969
579 4 0.0472091 0.145313 0.260299
513 4 0.0267713 0.138778 0.261181
577 2 0.0620324 0.161119 0.272773
530 4 0.0405171 0.135028 0.278578
529 2 0.0288362 0.121992 0.296433
531 4 0.0171554 0.108955 0.314287
600 4 0.164354 0.153847 0.322766
545 4 0.175759 0.148932 0.305103
544 2 0.175922 0.157956 0.281785
405 4 0.179567 0.138588 0.323557
249 4 0.183027 0.0840248 0.308557
403 2 0.177506 0.11371 0.324979
404 4 0.175445 0.088832 0.326401
546 4 0.176085 0.16698 0.258467
350 4 0.42096 0.0938112 0.292488
762 4 0.435989 0.161445 0.28743
332 4 0.448926 0.145562 0.295351
743 4 0.42343 0.0996515 0.271969
333 4 0.440632 0.0973998 0.28475
331 2 0.444779 0.121481 0.29005
396 4 0.0669345 0.218177 0.267267
578 4 0.0768557 0.176925 0.285248
394 2 0.0603675 0.239901 0.277761
391 2 0.065437 0.173599 0.328053
393 4 0.0705946 0.169925 0.303864
473 4 0.246897 0.230364 0.318902
706 2 0.358541 0.180441 0.255628
707 4 0.366138 0.189088 0.277825
613 2 0.410113 0.235874 0.320814
614 4 0.413921 0.220154 0.301747
760 2 0.430524 0.185834 0.286733
761 4 0.425059 0.210223 0.286036
418 2 0.443981 0.243846 0.276292
419 4 0.43048 0.230188 0.292302
442 2 0.0172582 0.284353 0.279313
395 4 0.0538005 0.261624 0.288255
444 4 0.0383748 0.271025 0.280584
345 4 0.240081 0.263991 0.254413
309 4 0.237153 0.284382 0.260552
307 2 0.251221 0.298117 0.275998
308 4 0.265289 0.311852 0.291445
497 4 0.281693 0.318308 0.303775
508 2 0.261455 0.310596 0.329868
496 2 0.303585 0.313135 0.29286
509 4 0.26175 0.323767 0.308617
498 4 0.325477 0.307961 0.281944
763 2 0.388591 0.310809 0.270471
764 4 0.36786 0.296869 0.271527
765 4 0.409321 0.324749 0.269415
520 2 0.498833 0.258116 0.260358
420 4 0.457483 0.257504 0.260282
521 4 0.475936 0.268084 0.261605
543 4 0.458028 0.278149 0.254615
541 2 0.440424 0.295619 0.257788
542 4 0.42282 0.313089 0.260961
408 4 0.0279075 0.345168 0.314861
406 2 0.0266988 0.369241 0.32151
407 4 0.0254901 0.393314 0.328158
734 4 0.131872 0.370538 0.26063
733 2 0.142472 0.359166 0.280212
735 4 0.153072 0.347794 0.299795
677 4 0.166942 0.35609 0.310847
676 2 0.188693 0.347517 0.31971
729 4 0.317314 0.392006 0.249223
727 2 0.330133 0.397367 0.27001
728 4 0.342952 0.402728 0.290797
753 4 0.359335 0.377853 0.31136
751 2 0.375458 0.394866 0.320064
752 4 0.391582 0.411879 0.328768
445 2 0.438905 0.394192 0.248891
446 4 0.452734 0.398789 0.269208
713 4 0.469796 0.393246 0.27731
1758 4 0.0191726 0.492667 0.262756
412 2 0.107758 0.449351 0.309841
602 4 0.122192 0.443008 0.275643
601 2 0.119047 0.437833 0.251383
414 4 0.113006 0.43357 0.29117
413 4 0.102509 0.465132 0.328512
1435 2 0.224931 0.444136 0.297663
1436 4 0.240035 0.424212 0.297347
1437 4 0.209827 0.464059 0.297979
438 4 0.286098 0.42275 0.255689
437 4 0.259161 0.42884 0.297378
436 2 0.27263 0.425795 0.276534
433 2 0.317241 0.429432 0.318091
435 4 0.304845 0.446187 0.331903
434 4 0.329636 0.412676 0.304278
1575 4 0.372127 0.464858 0.265857
1802 4 0.381632 0.451976 0.275987
1801 2 0.364424 0.437437 0.286835
1803 4 0.347216 0.422898 0.297683
712 2 0.482131 0.414534 0.281766
714 4 0.494466 0.435821 0.286222
233 4 0.0064757 0.057398 0.399932
318 4 0.0745697 0.0582544 0.382496
234 4 0.0533103 0.0570789 0.382407
232 2 0.029893 0.0572384 0.391169
316 2 0.0892434 0.045229 0.397995
317 4 0.103917 0.0322036 0.413493
368 4 0.135561 0.0660287 0.407549
606 4 0.240073 0.0174452 0.348892
441 4 0.237321 0.00580003 0.364352
439 2 0.258691 0.99981 0.375868
682 2 0.283521 0.0572696 0.413151
683 4 0.291235 0.0445897 0.393029
256 2 0.424376 0.0415976 0.361578
257 4 0.422042 0.0452209 0.336948
425 4 0.419142 0.0410997 0.405483
258 4 0.426709 0.0379742 0.386207
2643 4 0.484297 0.0767019 0.363574
452 4 0.467294 0.0712709 0.374278
2641 2 0.497705 0.0691768 0.343857
398 4 0.0322331 0.100261 0.326537
397 2 0.0534143 0.0981643 0.339657
399 4 0.0745955 0.0960673 0.352777
732 4 0.0770724 0.115679 0.349437
731 4 0.11175 0.148775 0.36368
730 2 0.0944111 0.132227 0.356559
686 4 0.131951 0.152337 0.369674
599 4 0.124475 0.161514 0.351948
598 2 0.144415 0.15768 0.337357
685 2 0.140024 0.142621 0.391251
687 4 0.148098 0.132904 0.412828
514 2 0.398412 0.110773 0.391219
516 4 0.379602 0.125978 0.397559
575 4 0.382469 0.142441 0.408481
574 2 0.394046 0.162875 0.417062
515 4 0.417222 0.0955689 0.384879
453 4 0.434106 0.104207 0.392012
451 2 0.4507 0.0877388 0.383145
2653 2 0.0323825 0.1756 0.378092
2655 4 0.0231827 0.16832 0.400172
2654 4 0.0415823 0.182881 0.356012
392 4 0.0602794 0.177272 0.352241
390 4 0.0949981 0.256738 0.33836
472 2 0.237113 0.219703 0.339293
275 4 0.178365 0.21489 0.396051
274 2 0.192891 0.210448 0.37619
474 4 0.227329 0.209043 0.359684
276 4 0.207416 0.206007 0.356329
411 4 0.230873 0.216036 0.399599
409 2 0.24735 0.20066 0.410429
467 4 0.314251 0.173589 0.378933
466 2 0.29355 0.174154 0.392945
468 4 0.272849 0.174719 0.406956
615 4 0.406306 0.251595 0.339881
576 4 0.405622 0.183309 0.425642
269 4 0.4523 0.227118 0.367843
306 4 0.444786 0.216774 0.384539
304 2 0.434843 0.20225 0.402297
2812 2 0.0136836 0.337424 0.397516
2814 4 0.0146701 0.31374 0.405471
618 4 0.0840552 0.272799 0.405774
389 4 0.143625 0.267537 0.333941
401 4 0.150528 0.28527 0.325727
388 2 0.119312 0.262137 0.336151
617 4 0.0932388 0.261663 0.357895
616 2 0.088647 0.267231 0.381834
347 4 0.0940904 0.287888 0.418184
260 4 0.101594 0.267493 0.417391
400 2 0.170802 0.289272 0.339803
375 4 0.194686 0.299415 0.372357
402 4 0.191075 0.293274 0.35388
373 2 0.219256 0.297541 0.368112
374 4 0.243825 0.295668 0.363867
378 4 0.259528 0.309155 0.369702
489 4 0.296438 0.274137 0.406463
376 2 0.272584 0.290504 0.380039
377 4 0.28564 0.271853 0.390375
510 4 0.261161 0.297425 0.35112
487 2 0.320073 0.266312 0.404156
716 4 0.397845 0.257643 0.356403
715 2 0.380021 0.256618 0.373909
717 4 0.362198 0.255592 0.391415
488 4 0.343708 0.258486 0.401849
268 2 0.449107 0.251239 0.373602
270 4 0.445914 0.27536 0.37936
2924 4 0.43754 0.267193 0.396845
2923 2 0.432925 0.277034 0.419362
548 4 0.0150972 0.402611 0.342864
2813 4 0.0126972 0.361107 0.38956
680 4 0.0538848 0.412584 0.408691
710 4 0.165717 0.398347 0.40158
678 4 0.210445 0.338945 0.328573
504 4 0.184568 0.397377 0.398535
502 2 0.209354 0.398847 0.401482
503 4 0.23414 0.400317 0.40443
650 4 0.251394 0.399691 0.416733
649 2 0.263288 0.377752 0.415191
651 4 0.275183 0.355813 0.413649
561 4 0.404376 0.39855 0.338032
667 2 0.404073 0.40956 0.409639
559 2 0.419189 0.40211 0.357858
668 4 0.420862 0.415917 0.392235
560 4 0.434002 0.40567 0.377684
588 4 0.441637 0.413386 0.396317
586 2 0.458726 0.419191 0.413622
547 2 0.0198873 0.426974 0.345807
549 4 0.0246774 0.451337 0.348751
775 2 0.0595066 0.470518 0.334801
777 4 0.0358052 0.466826 0.341857
776 4 0.0832079 0.47421 0.327744
1545 4 0.100656 0.486137 0.331693
773 4 0.186511 0.488978 0.391359
772 2 0.185713 0.47847 0.414033
2 3 0.33029 0.490959 0.352576
4 3 0.319016 0.456139 0.344026
1 1 0.333323 0.468658 0.35733
3 3 0.328499 0.465041 0.379736
5 3 0.354941 0.462941 0.353014
2238 4 0.0148337 0.996791 0.473811
1127 4 0.00711708 0.99651 0.493655
1781 4 0.122314 0.00533628 0.437726
428 4 0.112542 0.0135963 0.420799
1780 2 0.133724 0.0129822 0.45862
1782 4 0.145133 0.0206281 0.479514
341 4 0.153136 0.038577 0.470527
2430 4 0.155079 0.0351045 0.491657
340 2 0.160069 0.0598882 0.459438
1180 2 0.290108 0.0589936 0.469588
1181 4 0.288275 0.0454703 0.490538
1182 4 0.291942 0.072517 0.448637
684 4 0.275807 0.0699494 0.433273
963 4 0.283462 0.0254114 0.498717
961 2 0.262268 0.0123472 0.496404
843 4 0.351929 0.00133878 0.479554
431 4 0.345224 0.00916463 0.496569
426 4 0.396488 0.0017634 0.426463
424 2 0.407815 0.0214316 0.415973
1217 4 0.409161 0.00154919 0.443568
1216 2 0.424627 0.999363 0.463093
1218 4 0.440092 0.997176 0.482617
457 2 0.0111804 0.110287 0.459757
719 4 0.039705 0.11647 0.474562
459 4 0.0356405 0.105378 0.458087
718 2 0.0604595 0.108416 0.485945
720 4 0.0812141 0.100363 0.497328
367 2 0.127257 0.0876716 0.416919
369 4 0.118953 0.109314 0.42629
939 4 0.125955 0.123508 0.438365
937 2 0.126071 0.146736 0.447616
342 4 0.167001 0.0811995 0.44835
1151 4 0.167477 0.124379 0.418235
1152 4 0.178807 0.0946978 0.456853
1150 2 0.173142 0.109538 0.437544
321 4 0.299798 0.131968 0.453405
320 4 0.277495 0.0879758 0.445162
319 2 0.288646 0.109972 0.449283
899 4 0.297536 0.145078 0.469939
898 2 0.282854 0.165254 0.468342
938 4 0.126187 0.169965 0.456868
1034 4 0.141896 0.179453 0.453391
261 4 0.107912 0.231935 0.45198
1035 4 0.127155 0.226849 0.459481
1033 2 0.134526 0.203151 0.456436
695 4 0.115623 0.24182 0.469268
694 2 0.109055 0.244792 0.49321
410 4 0.263826 0.185284 0.421259
900 4 0.268172 0.185429 0.466746
813 4 0.349022 0.228033 0.476832
266 4 0.356668 0.230759 0.458125
265 2 0.358339 0.239317 0.434691
2656 2 0.495274 0.188922 0.446748
305 4 0.4249 0.187725 0.420056
2657 4 0.481612 0.193881 0.426403
2801 4 0.0170052 0.295386 0.410212
2800 2 0.00323071 0.294128 0.431041
2847 4 0.999575 0.284018 0.46634
259 2 0.104753 0.249714 0.434685
346 2 0.104804 0.305856 0.43188
348 4 0.115517 0.323824 0.445576
10 3 0.116003 0.317142 0.46402
9 3 0.13467 0.314098 0.496576
6 1 0.126519 0.32876 0.480546
267 4 0.360011 0.247874 0.411257
238 2 0.393339 0.307487 0.451168
240 4 0.371001 0.318358 0.448337
239 4 0.415677 0.296616 0.453998
2925 4 0.42831 0.286876 0.441879
2456 4 0.490949 0.309895 0.460225
584 4 0.477446 0.297146 0.4698
583 2 0.459598 0.289624 0.485613
872 4 0.421847 0.277836 0.498607
679 2 0.0707788 0.417539 0.426445
7 3 0.111494 0.343056 0.490498
8 3 0.143939 0.341216 0.471614
711 4 0.15398 0.410497 0.448647
709 2 0.159849 0.404422 0.425114
335 4 0.371378 0.338303 0.444545
669 4 0.387284 0.403202 0.427043
334 2 0.375286 0.361719 0.436697
336 4 0.379194 0.385135 0.428848
926 4 0.457483 0.349786 0.491545
681 4 0.0876727 0.422494 0.4442
568 2 0.113953 0.493147 0.433056
384 4 0.131696 0.456443 0.44668
569 4 0.117914 0.469263 0.439307
382 2 0.113603 0.44096 0.4543
383 4 0.095509 0.425476 0.46192
774 4 0.184916 0.467962 0.436707
635 4 0.186131 0.46658 0.457878
634 2 0.185289 0.473347 0.481933
587 4 0.475814 0.424995 0.430927
2507 4 0.486724 0.42924 0.449101
663 4 0.466545 0.435862 0.447219
662 4 0.45406 0.460149 0.489111
661 2 0.460303 0.448006 0.468165
1910 4 0.471856 0.46561 0.496238
2428 2 0.155045 0.0438678 0.515074
2429 4 0.155011 0.0526311 0.538492
1032 4 0.273912 0.0654429 0.581122
432 4 0.302897 0.0350646 0.502759
430 2 0.32406 0.0221146 0.499664
808 2 0.480195 0.083893 0.5699
810 4 0.457474 0.0788817 0.560744
469 2 0.998135 0.227205 0.515605
471 4 0.0149652 0.225638 0.49718
879 4 0.130603 0.221402 0.566478
1272 4 0.146146 0.220437 0.579032
877 2 0.115234 0.235198 0.552384
696 4 0.102487 0.247764 0.517152
878 4 0.0998655 0.248994 0.53829
857 4 0.182218 0.210697 0.543294
856 2 0.200958 0.218771 0.528844
858 4 0.219697 0.226845 0.514394
811 2 0.358333 0.235956 0.498642
952 2 0.392175 0.232402 0.557418
812 4 0.367645 0.24388 0.520453
954 4 0.407264 0.222764 0.574871
953 4 0.377087 0.24204 0.539965
905 4 0.426607 0.227289 0.571773
904 2 0.435749 0.204583 0.576879
982 2 0.0167908 0.29634 0.539996
984 4 0.0385959 0.306149 0.547311
326 4 0.0572603 0.296324 0.542339
1136 4 0.0553292 0.308029 0.560525
325 2 0.0742059 0.280006 0.533869
327 4 0.0911516 0.263688 0.525398
1258 2 0.140874 0.288664 0.521789
1260 4 0.153764 0.268759 0.529714
1259 4 0.127983 0.308569 0.513864
1238 4 0.322641 0.277504 0.579006
792 4 0.335455 0.281369 0.563386
790 2 0.352691 0.271364 0.548287
791 4 0.369928 0.261359 0.533188
873 4 0.386842 0.252546 0.523822
871 2 0.404344 0.265191 0.511215
3113 4 0.502753 0.273309 0.576134
585 4 0.44175 0.282102 0.501425
1135 2 0.0563297 0.333013 0.560617
936 4 0.0363317 0.394651 0.547139
934 2 0.0323266 0.412009 0.564684
3353 4 0.0288949 0.39056 0.529082
3352 2 0.00979514 0.384207 0.514249
1137 4 0.0573301 0.357996 0.560709
1191 4 0.219373 0.400374 0.570634
1189 2 0.233818 0.380515 0.575344
896 4 0.20016 0.401924 0.567704
895 2 0.177922 0.40062 0.579061
1454 4 0.343774 0.412237 0.537543
880 2 0.352395 0.383475 0.569118
881 4 0.342758 0.396185 0.549862
925 2 0.461087 0.36333 0.512251
927 4 0.464691 0.376874 0.532958
1001 4 0.472415 0.394068 0.541395
1000 2 0.469524 0.408211 0.561811
539 4 0.0489618 0.491037 0.517169
538 2 0.0344561 0.472855 0.507993
3430 2 0.0244136 0.474418 0.579031
540 4 0.0199503 0.454674 0.498817
935 4 0.0283216 0.429366 0.58223
4434 4 0.0028123 0.498255 0.563292
3431 4 0.0227395 0.498362 0.572027
1160 4 0.157334 0.427536 0.56252
1159 2 0.136 0.42985 0.549687
1161 4 0.114666 0.432164 0.536854
1395 4 0.182698 0.493741 0.520328
636 4 0.184448 0.480115 0.505989
2154 4 0.2981 0.497322 0.575028
1173 4 0.28898 0.481516 0.58396
1453 2 0.354048 0.434394 0.542899
1455 4 0.364321 0.456552 0.548256
3440 4 0.494175 0.450949 0.583888
1909 2 0.469402 0.489631 0.502728
1892 4 0.0100155 0.020029 0.655178
1891 2 0.00796277 0.00290421 0.637075
1284 4 0.171816 0.0633388 0.591878
1059 4 0.159152 0.0739345 0.60405
1283 4 0.214701 0.0376669 0.590275
2133 4 0.214803 0.0191669 0.656677
1282 2 0.193259 0.0505029 0.591077
2132 4 0.223013 0.0370157 0.61069
1031 4 0.235899 0.0355122 0.593768
2131 2 0.218908 0.0280913 0.633684
1030 2 0.254905 0.0504776 0.587445
2282 4 0.317508 0.00166067 0.632645
2281 2 0.329014 0.0160491 0.64955
2283 4 0.340519 0.0304375 0.666455
1092 4 0.332828 0.00310986 0.618973
1062 4 0.47158 0.0239375 0.597835
1060 2 0.488331 0.00649745 0.604194
1083 4 0.00389077 0.124519 0.628273
1081 2 0.0195784 0.114314 0.644855
1082 4 0.0352661 0.10411 0.661436
945 4 0.0913513 0.109836 0.663581
1057 2 0.166524 0.0975979 0.607346
1058 4 0.173897 0.121261 0.610642
1153 2 0.176893 0.161941 0.62446
1155 4 0.169341 0.138131 0.623351
909 4 0.187805 0.127014 0.625975
907 2 0.204019 0.11751 0.642466
908 4 0.220233 0.108007 0.658957
886 2 0.320714 0.153781 0.648544
1193 4 0.392089 0.121961 0.598116
887 4 0.343132 0.14518 0.641571
1194 4 0.358871 0.133155 0.633781
1192 2 0.37548 0.127558 0.615948
830 4 0.355243 0.132962 0.655296
1026 4 0.432159 0.159974 0.644026
1143 4 0.442293 0.142616 0.650813
1263 4 0.435067 0.156127 0.665531
1024 2 0.438207 0.163989 0.620099
852 4 0.0627804 0.23942 0.657993
1270 2 0.161939 0.211164 0.596054
1154 4 0.184446 0.185751 0.625568
1271 4 0.177733 0.201891 0.613076
1221 4 0.198745 0.199833 0.617791
1219 2 0.221891 0.205064 0.625669
1220 4 0.245037 0.210294 0.633548
798 4 0.257212 0.227832 0.631955
1212 4 0.26392 0.211215 0.644186
888 4 0.298295 0.162383 0.655517
1211 4 0.291296 0.169878 0.637666
1210 2 0.277608 0.190547 0.640926
3114 4 0.491378 0.240249 0.611889
906 4 0.444891 0.181878 0.581985
1025 4 0.444255 0.168004 0.596173
1244 4 0.0218721 0.290791 0.668568
1243 2 0.0359917 0.272594 0.658837
1245 4 0.0501113 0.254398 0.649106
1209 4 0.0705712 0.258988 0.653465
946 2 0.158141 0.282535 0.659093
1207 2 0.0920376 0.268203 0.662379
948 4 0.182468 0.284252 0.653578
1237 2 0.308596 0.294579 0.590683
796 2 0.262165 0.24701 0.647216
1239 4 0.294551 0.311654 0.602361
804 4 0.275762 0.30391 0.598861
802 2 0.260872 0.32355 0.594646
797 4 0.267118 0.266187 0.662476
3112 2 0.497066 0.256779 0.594012
897 4 0.155685 0.399316 0.590417
992 4 0.145041 0.407663 0.605025
1190 4 0.248262 0.360657 0.580054
803 4 0.245983 0.343189 0.590431
882 4 0.362031 0.370765 0.588373
929 4 0.365455 0.346063 0.633863
930 4 0.38047 0.370413 0.592846
928 2 0.372963 0.358238 0.613354
1099 2 0.431424 0.400489 0.663864
3432 4 0.0260877 0.450474 0.586035
3264 4 0.0124142 0.436538 0.594647
1041 4 0.0327436 0.437896 0.601864
1039 2 0.0570247 0.436545 0.607676
3262 2 0.000374945 0.434859 0.616496
3240 4 0.0227708 0.473201 0.66693
3238 2 0.999866 0.477126 0.657704
1040 4 0.0813059 0.435193 0.613488
993 4 0.100561 0.430001 0.609842
991 2 0.122801 0.418832 0.607434
1186 2 0.224902 0.489736 0.655808
1172 4 0.282526 0.454689 0.625666
1171 2 0.285753 0.468102 0.604813
891 4 0.283954 0.464804 0.642677
889 2 0.291377 0.473763 0.664809
1206 4 0.475349 0.427907 0.600945
1100 4 0.450883 0.415976 0.66128
1002 4 0.466633 0.422353 0.582227
1204 2 0.471544 0.425401 0.62553
3183 4 0.457553 0.498917 0.61024
3181 2 0.475644 0.483789 0.601932
3182 4 0.493735 0.46866 0.593625
1205 4 0.46774 0.422895 0.650115
1183 2 0.0226843 0.061832 0.667231
1184 4 0.0195288 0.037168 0.664602
4338 4 0.0079774 0.0235705 0.676174
824 4 0.219232 0.0315585 0.670712
823 2 0.209852 0.0151793 0.687111
825 4 0.200473 0.9988 0.70351
2400 4 0.360161 0.0647052 0.733404
43 3 0.440643 0.0752322 0.728992
846 4 0.430218 0.0586441 0.734716
45 3 0.477516 0.0804208 0.723416
1185 4 0.0258397 0.086496 0.66986
943 2 0.0687639 0.100715 0.66922
944 4 0.0461764 0.0915941 0.674858
1076 4 0.0299473 0.103194 0.682563
1075 2 0.0158847 0.102465 0.703224
1077 4 0.00182203 0.101736 0.723885
1179 4 0.00784561 0.163459 0.706054
864 4 0.012514 0.114419 0.736601
1227 4 0.235208 0.106728 0.672882
1226 4 0.234369 0.124564 0.719592
1225 2 0.234788 0.115646 0.696237
1148 4 0.215316 0.120806 0.728345
1130 4 0.223913 0.140908 0.728717
1129 2 0.215958 0.15758 0.745568
1147 2 0.204358 0.102485 0.741362
1005 4 0.318646 0.0834559 0.734276
829 2 0.366716 0.129442 0.677231
831 4 0.378189 0.125921 0.699166
41 1 0.456741 0.0886657 0.719052
44 3 0.453241 0.0895827 0.696132
42 3 0.455056 0.10992 0.727688
1142 4 0.448432 0.10312 0.680865
1141 2 0.445362 0.122868 0.665839
3426 4 0.490846 0.162606 0.726383
3270 4 0.478739 0.152329 0.741056
850 2 0.0630534 0.217679 0.67034
1177 2 0.0274073 0.172526 0.693392
1178 4 0.0469689 0.181592 0.680731
851 4 0.0633265 0.195939 0.682688
1107 4 0.065945 0.175076 0.688161
1105 2 0.080071 0.180792 0.707984
1106 4 0.0941971 0.186508 0.727807
1073 4 0.103639 0.180377 0.745534
977 4 0.244196 0.230063 0.745999
1299 4 0.304683 0.200496 0.730577
1298 4 0.263942 0.222595 0.749353
1297 2 0.284313 0.211545 0.739965
1086 4 0.324225 0.200141 0.720266
1084 2 0.342531 0.186257 0.730129
1262 4 0.410566 0.189053 0.694101
1085 4 0.360838 0.172373 0.739992
1261 2 0.422816 0.17259 0.679816
1145 4 0.464235 0.213788 0.727231
1144 2 0.466777 0.188922 0.726583
1146 4 0.469319 0.164057 0.725935
3123 4 0.493485 0.245907 0.705747
1208 4 0.113504 0.277418 0.671293
820 2 0.127383 0.274865 0.708908
822 4 0.129828 0.271902 0.684201
947 4 0.133814 0.280817 0.664609
821 4 0.124939 0.277828 0.733615
1242 4 0.116569 0.292014 0.745226
1065 4 0.240464 0.322352 0.693735
1063 2 0.252374 0.328102 0.714954
1098 4 0.310592 0.328153 0.742143
1064 4 0.264283 0.333852 0.736174
892 2 0.0429052 0.391457 0.735206
893 4 0.0516156 0.369395 0.743117
942 4 0.0722632 0.374153 0.739704
940 2 0.0948819 0.373347 0.729077
941 4 0.117501 0.372542 0.718451
1067 4 0.118116 0.369295 0.698388
1066 2 0.142883 0.365868 0.698266
1068 4 0.167651 0.362442 0.698145
1139 4 0.221637 0.403124 0.696935
1029 4 0.215218 0.403588 0.715852
1028 4 0.172186 0.378535 0.711234
1027 2 0.193702 0.391062 0.713543
1138 2 0.246636 0.403358 0.696557
1140 4 0.271636 0.403591 0.69618
806 4 0.276504 0.350968 0.731407
805 2 0.289314 0.371932 0.736055
807 4 0.302124 0.392896 0.740704
1101 4 0.411964 0.385003 0.666448
1250 4 0.453021 0.411461 0.745213
894 4 0.0341947 0.413518 0.727295
2172 4 0.0371761 0.485098 0.677514
1279 2 0.0261355 0.450741 0.70159
3276 4 0.0176114 0.426074 0.73341
1983 4 0.037493 0.433927 0.733868
1280 4 0.0278603 0.429768 0.715093
1981 2 0.0514835 0.447998 0.749081
1281 4 0.0244107 0.471715 0.688088
1174 2 0.200537 0.486334 0.71618
1188 4 0.215508 0.481747 0.67756
1176 4 0.189285 0.479975 0.737583
1175 4 0.21179 0.492694 0.694776
890 4 0.2988 0.482721 0.686941
1988 4 0.286565 0.486302 0.704426
1987 2 0.306515 0.496621 0.715413
1088 4 0.28399 0.499296 0.687773
1269 4 0.457489 0.436946 0.66293
2169 4 0.470197 0.486288 0.681621
1268 4 0.450821 0.484498 0.676897
1267 2 0.454155 0.460722 0.669914
1249 2 0.455664 0.435166 0.752712
1196 4 0.060773 0.0366569 0.823502
911 4 0.0764941 0.0513222 0.823906
1203 4 0.0775407 0.0345096 0.810573
1201 2 0.0907442 0.0319585 0.789493
1202 4 0.103948 0.0294074 0.768414
2049 4 0.108773 0.00906112 0.764688
910 2 0.089236 0.0715516 0.831227
1049 4 0.322583 0.0578779 0.790967