ITEM: TIMESTEP
2340000
ITEM: NUMBER OF ATOMS
4590
ITEM: BOX BOUNDS pp pp pp
-9.9985700000000008e+00 9.9985700000000008e+00
-9.9985700000000008e+00 9.9985700000000008e+00
-9.9985700000000008e+00 9.9985700000000008e+00
ITEM: ATOMS id type xs ys zs
1666 2 0.0689369 0.0541864 0.045129
1667 4 0.074259 0.0750218 0.032372
1668 4 0.0636148 0.033351 0.0578859
534 4 0.153955 0.0674849 0.000702085
423 4 0.14773 0.0753011 0.0182979
1475 4 0.203584 0.0476423 0.0549693
1474 2 0.194643 0.0291955 0.0692852
533 4 0.185444 0.0286463 0.99987
532 2 0.169699 0.0480656 0.000286021
490 2 0.305173 0.0721799 0.0112548
653 4 0.279761 0.079057 0.0441106
652 2 0.273393 0.0595855 0.0584454
491 4 0.28396 0.0776165 0.0233236
654 4 0.267025 0.0401139 0.0727803
492 4 0.326385 0.0667433 0.999186
297 4 0.405111 0.0323005 0.0782583
295 2 0.429425 0.0370276 0.0816754
591 4 0.0603645 0.0898708 0.0387341
702 4 0.0808393 0.094946 0.0356058
589 2 0.0375359 0.098963 0.0341115
590 4 0.0147074 0.108055 0.0294888
3232 2 0.0089784 0.141849 0.0111358
421 2 0.15104 0.0999053 0.0153213
422 4 0.154349 0.12451 0.0123447
700 2 0.0932612 0.11214 0.048843
701 4 0.105683 0.129335 0.0620803
236 4 0.106252 0.133759 0.0827939
449 4 0.121746 0.121643 0.0743448
1133 4 0.167131 0.159694 0.00148852
565 2 0.270459 0.116741 0.0382873
566 4 0.270097 0.140545 0.0459327
567 4 0.270822 0.0929382 0.0306419
359 4 0.260881 0.153492 0.03309
665 4 0.327474 0.1422 0.999803
358 2 0.248704 0.162029 0.0129895
866 4 0.309765 0.136735 0.00745857
664 2 0.340935 0.158577 0.0130597
556 2 0.381508 0.156809 0.0510013
558 4 0.374548 0.166781 0.0291541
557 4 0.388468 0.146836 0.0728484
987 4 0.459972 0.144844 0.0296763
985 2 0.46402 0.135108 0.00700435
914 4 0.163988 0.240958 0.0239348
913 2 0.152877 0.237434 0.00181439
357 4 0.232743 0.232912 0.00799821
666 4 0.354397 0.174954 0.0263166
571 2 0.367453 0.210298 0.0334603
572 4 0.37162 0.187546 0.0239654
1071 4 0.375649 0.239123 0.0288586
573 4 0.363287 0.23305 0.0429551
623 4 0.409548 0.239822 0.0748209
324 4 0.427807 0.238776 0.0703671
771 4 0.492098 0.254179 0.0519083
518 4 0.48121 0.256622 0.0703483
2835 4 0.00589743 0.261182 0.080396
293 4 0.144501 0.315911 0.0515775
292 2 0.13093 0.320604 0.0720461
507 4 0.157359 0.302912 0.0402584
288 4 0.15596 0.32372 0.0354772
505 2 0.155693 0.278032 0.0384173
506 4 0.154027 0.253152 0.0365763
756 4 0.240344 0.311285 0.0866112
482 4 0.242017 0.331904 0.0814471
955 2 0.397559 0.323673 0.0114861
1069 2 0.383932 0.260547 0.0189816
957 4 0.399636 0.299796 0.00436422
1070 4 0.392216 0.281971 0.00910453
323 4 0.470845 0.255502 0.0511664
322 2 0.449326 0.247139 0.0607668
282 4 0.449807 0.327508 0.0297195
1056 4 0.00463782 0.347893 0.00555417
1170 4 0.00914404 0.359978 0.0205599
1168 2 0.0132034 0.384604 0.0190462
1169 4 0.0172628 0.409229 0.0175325
286 2 0.177326 0.33219 0.0453218
287 4 0.198693 0.34066 0.0551664
481 2 0.227508 0.341213 0.0633362
483 4 0.212999 0.350522 0.0452253
608 4 0.284699 0.404154 0.0669774
607 2 0.290759 0.387533 0.0846459
956 4 0.395481 0.347551 0.0186079
280 2 0.452828 0.338944 0.0517484
281 4 0.455848 0.35038 0.0737774
671 4 0.475919 0.357244 0.0788369
1047 4 0.424094 0.395959 0.00348152
551 4 0.0118604 0.42913 0.0116625
550 2 0.0143599 0.437221 0.0351884
552 4 0.0168594 0.445312 0.0587142
315 4 0.0313514 0.457277 0.0690901
313 2 0.0520757 0.470793 0.0726949
620 4 0.0144156 0.44989 0.0798133
314 4 0.0728 0.48431 0.0762997
1691 4 0.0865958 0.497126 0.0660609
1787 4 0.0936611 0.482534 0.080641
1786 2 0.116625 0.473927 0.0757649
1788 4 0.139588 0.46532 0.0708888
241 2 0.234162 0.487073 0.0473979
626 4 0.268504 0.415526 0.0647661
243 4 0.254964 0.476351 0.0562005
627 4 0.246338 0.457942 0.0502659
625 2 0.257421 0.436734 0.057516
1440 4 0.261557 0.492793 0.0680788
244 2 0.32951 0.451238 0.0382119
272 4 0.328653 0.47578 0.00585799
245 4 0.324363 0.446397 0.0621962
246 4 0.334657 0.45608 0.0142276
2386 2 0.397475 0.497569 0.0182141
2388 4 0.415221 0.486811 0.00426735
19 3 0.0328286 0.0825434 0.100345
2481 4 0.00552833 0.0470354 0.133677
16 1 0.0123778 0.0788708 0.110674
2479 2 0.01342 0.0315829 0.15168
18 3 0.00998 0.0563485 0.115713
1476 4 0.185702 0.0107487 0.0836012
296 4 0.453738 0.0417548 0.0850925
20 3 0.0109462 0.0912883 0.129711
235 2 0.0894449 0.151629 0.0876278
448 2 0.143975 0.122234 0.0857774
450 4 0.166204 0.122826 0.09721
237 4 0.0726381 0.169499 0.0924616
477 4 0.0561549 0.177406 0.098344
476 4 0.0565361 0.227396 0.0996147
475 2 0.0563455 0.202401 0.0989793
339 4 0.0706645 0.24113 0.106932
337 2 0.0937496 0.239332 0.116367
338 4 0.116835 0.237535 0.125802
363 4 0.118322 0.235292 0.146204
361 2 0.135597 0.24986 0.156906
738 4 0.177799 0.236052 0.130939
353 4 0.23653 0.244129 0.109925
461 4 0.287557 0.219006 0.13886
354 4 0.267952 0.21697 0.137778
460 2 0.311094 0.214456 0.131755
352 2 0.252241 0.230549 0.123852
462 4 0.334631 0.209905 0.12465
254 4 0.404191 0.19839 0.121593
253 2 0.379379 0.201225 0.122822
255 4 0.354567 0.204059 0.124051
629 4 0.455209 0.180915 0.139668
630 4 0.418626 0.197561 0.109914
628 2 0.436917 0.189238 0.124791
517 2 0.495477 0.249548 0.0896255
362 4 0.152872 0.264428 0.167608
736 2 0.19898 0.246938 0.123323
737 4 0.220161 0.257825 0.115706
755 4 0.238013 0.265191 0.105864
754 2 0.239178 0.288238 0.0962374
252 4 0.259746 0.320888 0.0877217
386 4 0.33581 0.322296 0.138264
741 4 0.383395 0.287709 0.104127
739 2 0.365493 0.298007 0.118222
624 4 0.378483 0.268276 0.101765
622 2 0.394016 0.254049 0.0882932
740 4 0.347591 0.308304 0.132317
495 4 0.411673 0.339143 0.129515
526 2 0.49525 0.321386 0.147476
527 4 0.489959 0.30507 0.165668
294 4 0.117358 0.325298 0.0925147
456 4 0.126425 0.339797 0.103033
454 2 0.137521 0.346529 0.124404
455 4 0.148617 0.35326 0.145776
537 4 0.134249 0.366266 0.152798
250 2 0.279345 0.335196 0.0937528
251 4 0.298943 0.349504 0.0997839
609 4 0.29682 0.370911 0.102314
387 4 0.309521 0.358694 0.116247
385 2 0.322666 0.340495 0.127255
14 3 0.41025 0.344521 0.148302
493 2 0.425126 0.342173 0.108658
494 4 0.438579 0.345203 0.0878012
670 2 0.486079 0.357074 0.101682
528 4 0.500541 0.337703 0.129284
595 2 0.45503 0.392778 0.14685
596 4 0.467059 0.398229 0.125619
672 4 0.49624 0.356904 0.124528
597 4 0.443 0.387327 0.168081
2652 4 0.486214 0.402645 0.118465
12 3 0.424269 0.374938 0.165357
645 4 0.422849 0.397532 0.166383
619 2 0.00330607 0.431121 0.0920392
646 2 0.0254979 0.467656 0.128283
647 4 0.0184305 0.467106 0.15226
263 4 0.0353784 0.47007 0.162844
648 4 0.0325653 0.468206 0.104305
1438 2 0.274915 0.493878 0.0891872
1439 4 0.288273 0.494964 0.110296
637 2 0.278903 0.478478 0.150161
639 4 0.280785 0.483635 0.125768
525 4 0.324287 0.459098 0.155985
523 2 0.337113 0.473389 0.139971
659 4 0.33714 0.447653 0.165346
2480 4 0.0213117 0.0161304 0.169683
688 2 0.123541 0.0583854 0.223747
690 4 0.137776 0.0594808 0.20322
689 4 0.109306 0.0572899 0.244274
693 4 0.152839 0.0722117 0.199379
675 4 0.10796 0.07295 0.25919
21 1 0.322275 0.0500596 0.24725
25 3 0.330315 0.0498211 0.225944
1784 4 0.336884 0.0478802 0.204833
1785 4 0.313081 0.0189002 0.171754
1783 2 0.324983 0.0333902 0.188293
759 4 0.344422 0.0647835 0.217304
757 2 0.367776 0.0732973 0.214606
312 4 0.410861 0.0786522 0.204675
758 4 0.391131 0.0818112 0.211908
744 4 0.406899 0.0795452 0.22616
311 4 0.454535 0.0576839 0.19228
310 2 0.432698 0.0681681 0.198478
1747 2 0.493542 0.0134142 0.248146
1749 4 0.479159 0.0121282 0.227734
511 2 0.0144223 0.135614 0.237519
512 4 0.99845 0.128909 0.219488
691 2 0.156836 0.0968842 0.198695
692 4 0.160834 0.121557 0.19801
723 4 0.17 0.138639 0.202497
721 2 0.172594 0.151055 0.224045
722 4 0.175188 0.163471 0.245592
580 2 0.310045 0.165818 0.20746
582 4 0.288013 0.169852 0.218574
581 4 0.332076 0.161784 0.196346
706 2 0.372018 0.162881 0.242126
742 2 0.414734 0.0847545 0.249326
748 2 0.0595405 0.194753 0.214347
749 4 0.0625641 0.183349 0.192302
750 4 0.0565169 0.206157 0.236392
284 4 0.232734 0.2043 0.234165
344 4 0.217297 0.212978 0.242813
343 2 0.222236 0.234808 0.253959
285 4 0.268681 0.171674 0.222162
283 2 0.250708 0.187987 0.228164
30 3 0.340396 0.175669 0.184259
708 4 0.354855 0.175862 0.229393
27 3 0.361681 0.206285 0.185847
28 3 0.377459 0.173048 0.178166
29 3 0.364225 0.180441 0.213018
26 1 0.360818 0.183734 0.190303
372 4 0.157647 0.278428 0.181824
370 2 0.178821 0.289122 0.18973
371 4 0.199994 0.299816 0.197636
279 4 0.214791 0.297264 0.213999
277 2 0.225277 0.284894 0.233031
612 4 0.210148 0.317213 0.206375
765 4 0.415031 0.298473 0.240213
542 4 0.434843 0.296034 0.23887
543 4 0.459031 0.252926 0.246443
541 2 0.446937 0.27448 0.242656
535 2 0.119571 0.371853 0.172254
536 4 0.104893 0.37744 0.19171
298 2 0.151747 0.387585 0.249229
300 4 0.151264 0.408814 0.236029
610 2 0.222733 0.333035 0.191662
417 4 0.230438 0.368159 0.171968
415 2 0.230252 0.38955 0.184913
611 4 0.235319 0.348857 0.17695
416 4 0.230066 0.410941 0.197858
301 2 0.330321 0.398131 0.223371
302 4 0.331151 0.398106 0.198381
291 4 0.250655 0.414943 0.201104
303 4 0.329492 0.398156 0.248361
660 4 0.33072 0.399706 0.178018
13 3 0.396739 0.35556 0.182066
644 4 0.42234 0.414734 0.213335
447 4 0.428613 0.405622 0.230142
15 3 0.431369 0.341046 0.179279
643 2 0.422595 0.406133 0.189859
11 1 0.415717 0.353867 0.168824
262 2 0.0436733 0.460699 0.18449
1757 4 0.0379278 0.45651 0.218889
264 4 0.0519681 0.451328 0.206136
1756 2 0.0519357 0.465368 0.237611
603 4 0.131518 0.415954 0.236678
638 4 0.277021 0.473321 0.174555
289 2 0.263513 0.434408 0.192107
290 4 0.276371 0.453873 0.18311
767 4 0.285783 0.470001 0.193705
766 2 0.309126 0.473028 0.20214
658 2 0.33393 0.423679 0.171682
768 4 0.332468 0.476055 0.210575
1574 4 0.350519 0.468447 0.208628
1573 2 0.363342 0.468352 0.230093
1404 4 0.111625 0.0218237 0.298522
1403 4 0.0983425 0.0541028 0.262712
1402 2 0.104984 0.0379633 0.280617
1799 4 0.112685 0.0042639 0.28905
1700 4 0.199833 0.0201985 0.261553
1699 2 0.208938 0.0307419 0.282316
248 4 0.203144 0.043814 0.318344
247 2 0.192304 0.0625727 0.330825
1701 4 0.218044 0.0412854 0.303079
605 4 0.215667 0.0264949 0.318177
249 4 0.181463 0.0813314 0.343306
604 2 0.233485 0.0171682 0.333033
23 3 0.301994 0.0388247 0.248185
632 4 0.30911 0.0408258 0.310172
631 2 0.315067 0.0225153 0.326123
24 3 0.319541 0.0719525 0.254436
22 3 0.337274 0.0394963 0.261127
1495 2 0.359383 0.0132388 0.28927
1496 4 0.346362 0.0263531 0.272428
697 2 0.400605 0.0080895 0.327286
351 4 0.414062 0.0437972 0.32227
1497 4 0.372404 0.000124454 0.306111
349 2 0.419301 0.0634398 0.307713
350 4 0.42454 0.0830824 0.293157
513 4 0.0303945 0.142318 0.25555
674 4 0.0817405 0.115284 0.263779
579 4 0.0449042 0.139572 0.271546
577 2 0.0669914 0.147086 0.28054
530 4 0.0253091 0.130528 0.272981
529 2 0.0126738 0.129745 0.294543
531 4 3.84808e-05 0.128962 0.316105
578 4 0.0890786 0.1546 0.289533
673 2 0.0948504 0.094117 0.261485
393 4 0.0911854 0.170275 0.302507
600 4 0.153242 0.164917 0.330468
405 4 0.161396 0.145142 0.32698
545 4 0.167024 0.16183 0.313867
544 2 0.170589 0.160565 0.289151
403 2 0.165795 0.12114 0.332432
404 4 0.170194 0.0971384 0.337884
546 4 0.174154 0.159299 0.264435
707 4 0.38918 0.1499 0.254859
743 4 0.42257 0.0899638 0.272492
332 4 0.404399 0.141373 0.311089
333 4 0.427751 0.103479 0.288298
331 2 0.416075 0.122426 0.299693
762 4 0.417676 0.156379 0.308062
396 4 0.055434 0.223342 0.246452
394 2 0.0483796 0.240626 0.263086
391 2 0.0838974 0.183281 0.32258
472 2 0.229676 0.215663 0.338217
474 4 0.205512 0.214243 0.331949
276 4 0.189683 0.225517 0.330061
613 2 0.403431 0.235782 0.325274
614 4 0.410352 0.216509 0.310928
761 4 0.428324 0.205203 0.309957
520 2 0.493975 0.235988 0.265494
760 2 0.423 0.180791 0.309009
418 2 0.439678 0.230902 0.280392
419 4 0.427627 0.224665 0.301393
420 4 0.45173 0.237139 0.259391
521 4 0.472362 0.237564 0.25302
442 2 0.0168226 0.293041 0.278261
395 4 0.0413251 0.257909 0.27972
444 4 0.0359148 0.276965 0.279753
278 4 0.235762 0.272523 0.252063
345 4 0.227176 0.256638 0.265104
309 4 0.240159 0.271507 0.273324
307 2 0.252752 0.287238 0.288126
308 4 0.265345 0.30297 0.302929
497 4 0.281607 0.316395 0.300477
496 2 0.305865 0.312148 0.304798
509 4 0.276402 0.309138 0.31998
498 4 0.330124 0.307901 0.309119
763 2 0.407042 0.306412 0.262536
764 4 0.399054 0.314352 0.284859
408 4 0.0273364 0.347923 0.330633
734 4 0.139549 0.363149 0.277147
733 2 0.155346 0.357552 0.295702
677 4 0.167606 0.338205 0.328438
299 4 0.15223 0.366355 0.262429
735 4 0.171143 0.351955 0.314257
729 4 0.328524 0.379312 0.25885
438 4 0.311695 0.392303 0.259057
436 2 0.288064 0.39734 0.265492
437 4 0.264434 0.402376 0.271927
727 2 0.344754 0.388925 0.275262
728 4 0.360984 0.398538 0.291674
753 4 0.363305 0.407308 0.311787
751 2 0.385217 0.40223 0.322709
445 2 0.429943 0.405039 0.255104
446 4 0.431273 0.404455 0.280065
713 4 0.448402 0.402727 0.289498
712 2 0.469642 0.414403 0.295639
1758 4 0.0659437 0.474225 0.256332
601 2 0.124935 0.435835 0.250338
412 2 0.113393 0.452565 0.304062
602 4 0.118352 0.455716 0.263997
414 4 0.126268 0.456089 0.28292
413 4 0.100517 0.449041 0.325204
1545 4 0.10098 0.4682 0.335602
1435 2 0.239553 0.439336 0.269378
1437 4 0.221388 0.456412 0.267473
1436 4 0.257718 0.42226 0.271284
1575 4 0.376164 0.468257 0.251558
1803 4 0.373845 0.415373 0.295168
1802 4 0.38233 0.449564 0.259676
1801 2 0.378088 0.432469 0.277422
5 3 0.330984 0.479203 0.32263
1689 4 0.394347 0.466931 0.262805
1687 2 0.40502 0.488964 0.267888
231 4 0.480583 0.491958 0.293307
714 4 0.490883 0.426078 0.30178
233 4 0.00998919 0.0462084 0.39267
318 4 0.0781929 0.0576543 0.387334
234 4 0.0580552 0.0549611 0.382004
232 2 0.0340222 0.0505847 0.387337
316 2 0.0961131 0.0460384 0.400338
317 4 0.114033 0.0344224 0.413343
1464 4 0.137194 0.00196204 0.345241
606 4 0.251303 0.00784145 0.347889
682 2 0.271423 0.0589176 0.413997
683 4 0.281793 0.0496454 0.393221
633 4 0.321024 0.00420489 0.342073
698 4 0.418364 0.0251398 0.331655
425 4 0.404559 0.0427839 0.408183
258 4 0.398569 0.0472514 0.390057
256 2 0.407582 0.0450464 0.366839
257 4 0.416595 0.0428413 0.343621
452 4 0.480849 0.0659736 0.383132
451 2 0.464842 0.082891 0.392229
2641 2 0.491479 0.051704 0.355345
2643 4 0.479469 0.0467586 0.376711
398 4 0.00768608 0.123273 0.335791
397 2 0.0269605 0.13447 0.347118
399 4 0.046235 0.145666 0.358446
732 4 0.0606922 0.133626 0.362787
368 4 0.0924331 0.0995556 0.395264
731 4 0.106219 0.150451 0.374825
730 2 0.0834555 0.142038 0.368806
599 4 0.117772 0.166577 0.365679
598 2 0.135507 0.165747 0.348074
685 2 0.131172 0.156508 0.403745
686 4 0.1149 0.165471 0.387011
367 2 0.10741 0.10361 0.414871
467 4 0.285053 0.156535 0.39183
515 4 0.431945 0.0871289 0.403765
453 4 0.448835 0.0998084 0.401326
392 4 0.0766094 0.196287 0.342652
2653 2 0.0558831 0.201064 0.371537
2655 4 0.0533274 0.203694 0.39627
2654 4 0.0584388 0.198433 0.346804
275 4 0.158222 0.204678 0.362874
274 2 0.173952 0.215098 0.346468
473 4 0.253839 0.217083 0.344485
409 2 0.281334 0.233197 0.383331
466 2 0.294262 0.17803 0.382978
468 4 0.303472 0.199524 0.374126
410 4 0.290146 0.209811 0.384097
305 4 0.402996 0.180148 0.408595
576 4 0.387763 0.178225 0.422033
269 4 0.4396 0.216491 0.366567
306 4 0.437159 0.206468 0.383279
304 2 0.420077 0.193308 0.395937
268 2 0.445231 0.239807 0.373629
617 4 0.0847925 0.270855 0.367085
616 2 0.0826883 0.269948 0.391983
2814 4 0.00838618 0.321216 0.395964
2801 4 0.014463 0.325716 0.413922
389 4 0.139871 0.281455 0.340483
388 2 0.116921 0.284039 0.350064
401 4 0.157082 0.288249 0.347887
390 4 0.0939708 0.286622 0.359646
400 2 0.169863 0.289902 0.369313
375 4 0.201206 0.288541 0.399068
402 4 0.182645 0.291555 0.390739
373 2 0.222002 0.299486 0.390529
374 4 0.242797 0.310432 0.381989
678 4 0.214451 0.324786 0.339675
411 4 0.272522 0.256584 0.382565
510 4 0.259149 0.307724 0.366895
508 2 0.267776 0.308431 0.343437
378 4 0.261281 0.300019 0.386557
489 4 0.309017 0.276926 0.417213
376 2 0.276674 0.293162 0.405029
487 2 0.330694 0.264783 0.414419
615 4 0.396511 0.255056 0.33962
716 4 0.389963 0.260203 0.357096
715 2 0.378651 0.252025 0.37784
717 4 0.367339 0.243846 0.398584
488 4 0.352371 0.252639 0.411625
270 4 0.450862 0.263122 0.38069
2924 4 0.442112 0.278654 0.39
548 4 0.0265729 0.395494 0.363912
406 2 0.0263012 0.362659 0.350806
407 4 0.025266 0.377395 0.370979
547 2 0.0329842 0.418442 0.356333
504 4 0.159111 0.397064 0.417247
676 2 0.191028 0.331496 0.334057
502 2 0.184073 0.396017 0.418233
503 4 0.209035 0.394971 0.419218
650 4 0.225064 0.403706 0.410028
649 2 0.243531 0.392482 0.397451
434 4 0.32385 0.39393 0.356075
651 4 0.261998 0.381258 0.384875
752 4 0.407129 0.397153 0.333631
667 2 0.417978 0.408977 0.411079
561 4 0.418731 0.413993 0.333721
559 2 0.429571 0.408981 0.355688
560 4 0.440411 0.40397 0.377655
668 4 0.439181 0.403346 0.399084
588 4 0.457787 0.40838 0.38918
586 2 0.473938 0.419033 0.405018
775 2 0.0610736 0.461872 0.334865
777 4 0.0387125 0.461691 0.34605
549 4 0.0393954 0.441391 0.348753
776 4 0.0834348 0.462054 0.323679
1543 2 0.105919 0.490123 0.346564
433 2 0.31838 0.416336 0.346419
2 3 0.321437 0.484894 0.358258
435 4 0.312909 0.438741 0.336762
4 3 0.328573 0.449995 0.346267
1 1 0.334464 0.472329 0.344061
3 3 0.35676 0.475243 0.349787
3990 4 0.503582 0.447718 0.346237
119 3 0.50517 0.427032 0.34802
3988 2 0.492334 0.468612 0.354119
3989 4 0.481087 0.489505 0.362002
2238 4 0.0356243 0.0120258 0.486245
1127 4 0.0172246 0.0137755 0.478166
428 4 0.111806 0.0194545 0.429127
1781 4 0.11459 0.0402159 0.435061
1780 2 0.125184 0.0540513 0.452992
1782 4 0.135779 0.0678867 0.470923
341 4 0.153144 0.0649305 0.482705
2430 4 0.13479 0.0536755 0.487487
340 2 0.171236 0.0798483 0.474027
1180 2 0.266922 0.0448603 0.470382
1181 4 0.26252 0.0283871 0.48867
1182 4 0.271323 0.0613335 0.452095
684 4 0.261053 0.0681898 0.434774
963 4 0.258093 0.0088985 0.495841
430 2 0.301385 0.00515071 0.485845
432 4 0.278153 0.0133671 0.490082
1217 4 0.406384 0.00334414 0.464616
841 2 0.361685 0.00578663 0.468058
842 4 0.385247 0.00144762 0.460901
426 4 0.397702 0.0136543 0.448247
424 2 0.401131 0.0282191 0.428215
843 4 0.338124 0.0101256 0.475215
1216 2 0.428176 0.0116121 0.473668
1218 4 0.449968 0.01988 0.48272
458 4 0.00425596 0.139904 0.432395
457 2 0.0163351 0.125817 0.449154
719 4 0.0321015 0.115683 0.485694
459 4 0.0284142 0.111731 0.465913
687 4 0.147445 0.147544 0.420478
369 4 0.122388 0.107663 0.434478
939 4 0.11195 0.120519 0.444607
937 2 0.117747 0.141395 0.457089
938 4 0.123545 0.16227 0.469571
342 4 0.189328 0.0947661 0.465349
1151 4 0.166539 0.143894 0.420652
1152 4 0.181828 0.103715 0.446199
1150 2 0.174183 0.123804 0.433425
320 4 0.270658 0.0824744 0.447789
321 4 0.269983 0.132459 0.449122
319 2 0.270321 0.107467 0.448455
899 4 0.266301 0.150764 0.443373
516 4 0.409626 0.116225 0.437765
574 2 0.393163 0.154245 0.426612
575 4 0.398563 0.130265 0.43119
514 2 0.420786 0.101677 0.420765
1034 4 0.135584 0.175205 0.458851
261 4 0.0882097 0.220493 0.453763
1035 4 0.106561 0.215391 0.465444
1033 2 0.121072 0.195298 0.462148
695 4 0.0906898 0.227433 0.474039
259 2 0.0929465 0.238644 0.437232
694 2 0.0963704 0.228477 0.498367
898 2 0.269067 0.175607 0.443944
900 4 0.271832 0.200451 0.444515
813 4 0.383757 0.228025 0.468325
266 4 0.395007 0.223819 0.45305
265 2 0.383811 0.237832 0.43563
811 2 0.390717 0.232552 0.491909
2656 2 0.485181 0.186534 0.446869
2657 4 0.462415 0.196621 0.449138
2802 4 0.00602357 0.29431 0.451911
2847 4 0.0193146 0.295701 0.468004
2800 2 0.0102433 0.310013 0.432916
2845 2 0.00674949 0.293234 0.48948
618 4 0.0805841 0.269041 0.416881
347 4 0.0948415 0.275367 0.431426
260 4 0.0976833 0.256796 0.420701
346 2 0.112252 0.292018 0.438118
348 4 0.129663 0.308669 0.44481
10 3 0.123946 0.320493 0.460778
9 3 0.142259 0.320092 0.493674
8 3 0.161297 0.315755 0.461068
6 1 0.143304 0.326222 0.471319
377 4 0.292068 0.286304 0.4235
267 4 0.372616 0.251846 0.41821
238 2 0.400679 0.331656 0.444006
2925 4 0.417073 0.303217 0.425642
2923 2 0.429593 0.290935 0.407821
239 4 0.418665 0.314469 0.441502
2455 2 0.500676 0.310337 0.496525
584 4 0.464328 0.323631 0.476666
583 2 0.446032 0.313944 0.490688
2456 4 0.478406 0.310984 0.485175
680 4 0.0457755 0.376468 0.440521
679 2 0.0491772 0.397439 0.453705
681 4 0.052579 0.41841 0.466889
7 3 0.146204 0.349002 0.469982
711 4 0.133441 0.363875 0.466819
709 2 0.138901 0.37491 0.445056
710 4 0.14436 0.385945 0.423294
669 4 0.396775 0.414608 0.423075
240 4 0.382693 0.348844 0.44651
335 4 0.365776 0.355786 0.435631
334 2 0.374482 0.379034 0.432646
336 4 0.383188 0.402282 0.42966
383 4 0.0641122 0.433956 0.465417
540 4 0.0171928 0.460397 0.466364
538 2 0.0307711 0.471055 0.484453
382 2 0.0817045 0.451342 0.461754
568 2 0.119954 0.501811 0.436512
384 4 0.0992967 0.468728 0.458091
569 4 0.104055 0.485699 0.447132
635 4 0.187533 0.462185 0.478066
772 2 0.220345 0.469391 0.458358
774 4 0.206856 0.468067 0.479369
773 4 0.233834 0.470716 0.437346
634 2 0.182473 0.472319 0.500356
587 4 0.490089 0.429686 0.420856
663 4 0.477611 0.436685 0.437723
2507 4 0.488777 0.418319 0.438898
662 4 0.470429 0.475206 0.468792
1909 2 0.484543 0.497807 0.489527
1910 4 0.488944 0.483496 0.469501
661 2 0.47402 0.455945 0.453258
2428 2 0.131735 0.0543105 0.512295
2429 4 0.12868 0.0549455 0.537104
1030 2 0.23724 0.0380485 0.564733
1032 4 0.250462 0.0582061 0.558097
1283 4 0.211335 0.0296082 0.583903
1031 4 0.224018 0.017891 0.571369
720 4 0.0272529 0.0905869 0.528675
718 2 0.0296772 0.103135 0.507185
327 4 0.0943813 0.240239 0.540187
879 4 0.120256 0.205891 0.587099
877 2 0.112467 0.213475 0.564582
878 4 0.104678 0.221058 0.542066
696 4 0.102051 0.229521 0.522694
857 4 0.177416 0.206151 0.540122
856 2 0.199287 0.213317 0.549893
858 4 0.221158 0.220484 0.559665
952 2 0.412176 0.212603 0.544002
953 4 0.39759 0.231574 0.536756
812 4 0.397678 0.237079 0.515494
791 4 0.380247 0.240768 0.527241
873 4 0.398067 0.252231 0.530882
954 4 0.426763 0.193632 0.551249
905 4 0.426959 0.180644 0.565585
982 2 0.0259121 0.283169 0.541941
984 4 0.046646 0.281868 0.555855
326 4 0.0665602 0.281053 0.547995
1136 4 0.0585227 0.299963 0.553884
1135 2 0.075176 0.318411 0.551143
983 4 0.0051782 0.28447 0.528027
325 2 0.0804707 0.260646 0.544091
1258 2 0.148892 0.302829 0.52806
1259 4 0.13496 0.316656 0.512571
1260 4 0.162825 0.289003 0.543548
1238 4 0.327687 0.277982 0.55087
1237 2 0.319722 0.301682 0.551072
1239 4 0.311758 0.325382 0.551275
792 4 0.338852 0.26404 0.542913
790 2 0.35955 0.252404 0.535077
871 2 0.409885 0.273896 0.526859
872 4 0.421702 0.29556 0.522836
585 4 0.427737 0.304257 0.50471
936 4 0.030851 0.405869 0.529021
3353 4 0.0212469 0.39961 0.511977
3352 2 0.99937 0.388108 0.515756
1137 4 0.0918294 0.336859 0.548402
1160 4 0.0999092 0.398415 0.535813
804 4 0.309373 0.341574 0.562429
803 4 0.267063 0.355441 0.585194
802 2 0.288218 0.348507 0.573812
925 2 0.466298 0.38965 0.529931
927 4 0.462076 0.397277 0.553365
1001 4 0.471662 0.387886 0.568642
1000 2 0.485734 0.400024 0.585369
926 4 0.470519 0.382022 0.506496
934 2 0.0374323 0.420472 0.548221
3430 2 0.0285923 0.474202 0.56447
539 4 0.0443494 0.481713 0.502542
3431 4 0.0122073 0.492259 0.558935
935 4 0.0440136 0.435075 0.56742
3432 4 0.0449773 0.456144 0.570006
1041 4 0.0588594 0.443484 0.580638
1159 2 0.107192 0.418331 0.54906
1161 4 0.114474 0.438248 0.562307
1395 4 0.193099 0.494279 0.524398
636 4 0.177413 0.482454 0.522647
1455 4 0.33022 0.452388 0.535956
1453 2 0.336534 0.438692 0.555899
1454 4 0.342849 0.424996 0.575843
881 4 0.361607 0.424609 0.584959
1183 2 0.0264317 0.0472347 0.658162
1184 4 0.015866 0.024957 0.654009
1185 4 0.0369974 0.0695125 0.662315
1059 4 0.181016 0.0641073 0.610636
1284 4 0.16974 0.0479309 0.604758
1282 2 0.190538 0.0387695 0.594331
2132 4 0.222062 0.0125127 0.592299
2281 2 0.33691 0.00158555 0.660611
1060 2 0.495625 0.0139762 0.605745
1083 4 0.0138241 0.117919 0.621141
1081 2 0.0204789 0.103815 0.640685
1082 4 0.0271337 0.0897114 0.660229
944 4 0.048543 0.0879948 0.664041
3179 4 0.00593973 0.135581 0.622001
943 2 0.0695276 0.100472 0.66944
945 4 0.0905122 0.112949 0.674839
1057 2 0.17865 0.0881244 0.617175
1058 4 0.176283 0.112141 0.623713
1155 4 0.178495 0.133517 0.624947
1153 2 0.187633 0.155909 0.618599
909 4 0.183813 0.121551 0.641726
907 2 0.193181 0.12571 0.664532
886 2 0.330804 0.156753 0.6291
888 4 0.30883 0.168451 0.626759
1193 4 0.408743 0.123293 0.606361
887 4 0.352778 0.145056 0.631441
1194 4 0.374391 0.146423 0.634392
1192 2 0.391567 0.134858 0.620376
830 4 0.360576 0.14594 0.651468
810 4 0.456454 0.0842725 0.592127
808 2 0.477553 0.0972569 0.588748
809 4 0.498652 0.110241 0.585369
1026 4 0.441524 0.142247 0.653466
1024 2 0.451421 0.15116 0.632305
852 4 0.0695253 0.234507 0.658416
850 2 0.0655699 0.213343 0.671128
1272 4 0.141156 0.207216 0.588693
1270 2 0.164539 0.199908 0.593692
1154 4 0.19677 0.1783 0.61225
1271 4 0.187923 0.192599 0.598691
1221 4 0.208999 0.192377 0.601227
1219 2 0.227889 0.199795 0.615832
1220 4 0.24678 0.207213 0.630437
796 2 0.248359 0.249083 0.642431
798 4 0.255021 0.226955 0.632884
1212 4 0.260838 0.211162 0.646055
1211 4 0.296221 0.176071 0.641884
1210 2 0.278529 0.193617 0.643969
1025 4 0.461318 0.160073 0.611144
904 2 0.440298 0.179823 0.586717
906 4 0.453638 0.179001 0.60785
1209 4 0.0776578 0.245867 0.641724
1245 4 0.0564248 0.244652 0.644248
1243 2 0.0428716 0.264944 0.638794
1244 4 0.0293184 0.285235 0.633341
946 2 0.154754 0.281244 0.659801
1207 2 0.097578 0.253971 0.654479
948 4 0.176507 0.286264 0.648541
797 4 0.241698 0.271212 0.651978
3114 4 0.495541 0.263117 0.619917
897 4 0.172228 0.411341 0.599161
1191 4 0.214686 0.362278 0.593535
1189 2 0.239226 0.366885 0.594856
896 4 0.205535 0.377262 0.583998
895 2 0.188881 0.394302 0.59158
1190 4 0.263766 0.371492 0.596177
929 4 0.362964 0.334168 0.619982
880 2 0.376446 0.405849 0.592242
882 4 0.391285 0.387088 0.599524
930 4 0.380072 0.37306 0.593611
928 2 0.371518 0.353614 0.606797
1002 4 0.499807 0.412163 0.602096
1205 4 0.457471 0.41619 0.657056
1206 4 0.493282 0.41524 0.622165
1204 2 0.475376 0.415715 0.639611
3264 4 0.0372687 0.444407 0.586107
1039 2 0.0770644 0.44369 0.597776
3262 2 0.0208259 0.440439 0.604521
3238 2 0.0162357 0.468006 0.653749
3239 4 0.00663929 0.453201 0.636032
3263 4 0.00438305 0.436471 0.622934
992 4 0.156978 0.424024 0.601546
1040 4 0.0952694 0.443896 0.614914
993 4 0.111735 0.433253 0.620745
991 2 0.134356 0.428639 0.611145
1188 4 0.200883 0.496384 0.667387
1173 4 0.275667 0.487703 0.59396
1172 4 0.290434 0.459214 0.632314
1171 2 0.283051 0.473458 0.613137
891 4 0.296334 0.467873 0.650084
3182 4 0.496508 0.432251 0.608573
3181 2 0.488316 0.453688 0.598648
3183 4 0.480124 0.475126 0.588724
2049 4 0.118675 0.990708 0.7407
1202 4 0.109413 0.00789073 0.741509
2400 4 0.352068 0.0589171 0.719265
2283 4 0.344925 0.0136622 0.680985
2398 2 0.353874 0.0537186 0.743655
43 3 0.459771 0.0596457 0.727183
846 4 0.448407 0.0426202 0.72792
41 1 0.471937 0.0787966 0.722321
44 3 0.463902 0.088559 0.702865
844 2 0.438561 0.0293935 0.746716
1076 4 0.0342754 0.0824993 0.679355
1075 2 0.0213541 0.0962129 0.695792
1077 4 0.00843285 0.109926 0.712228
1179 4 0.0191565 0.167197 0.716923
908 4 0.202548 0.12987 0.687338
1227 4 0.195702 0.111559 0.691812
1226 4 0.205193 0.098866 0.739242
1225 2 0.200447 0.105213 0.715527
1130 4 0.201828 0.117179 0.750838
829 2 0.35906 0.136451 0.674552
831 4 0.357545 0.126962 0.697635
1143 4 0.444385 0.131524 0.67213
1263 4 0.44855 0.152541 0.670803
42 3 0.469555 0.0937219 0.739663
1142 4 0.463744 0.0869001 0.683733
1141 2 0.454065 0.109212 0.677932
3426 4 0.497404 0.160798 0.729526
1261 2 0.446827 0.161708 0.694001
1177 2 0.0384049 0.181847 0.710593
1178 4 0.0576532 0.196496 0.704262
851 4 0.0616145 0.192178 0.68384
1107 4 0.074062 0.183588 0.699646
1105 2 0.0925613 0.179466 0.715954
1106 4 0.111061 0.175344 0.732263
1073 4 0.124741 0.189356 0.735009
1298 4 0.248912 0.219126 0.748231
1299 4 0.293383 0.199464 0.736549
1297 2 0.271147 0.209295 0.74239
1086 4 0.309457 0.207044 0.744441
3270 4 0.485367 0.168377 0.745413
1262 4 0.445104 0.170876 0.7172
1145 4 0.46983 0.226909 0.730186
1144 2 0.480857 0.204469 0.730327
1146 4 0.491883 0.182028 0.730469
947 4 0.133001 0.276225 0.671061
1208 4 0.117498 0.262075 0.667234
820 2 0.120369 0.274304 0.70964
822 4 0.11662 0.274922 0.684926
821 4 0.124118 0.273686 0.734353
1067 4 0.133128 0.330171 0.713211
1098 4 0.328417 0.32643 0.724078
1065 4 0.255241 0.319879 0.677784
1096 2 0.335602 0.326245 0.748027
892 2 0.0528483 0.396163 0.72701
893 4 0.0570679 0.371692 0.729936
942 4 0.0758048 0.361092 0.733997
815 4 0.0589338 0.359512 0.747286
940 2 0.0983713 0.350954 0.730369
941 4 0.120938 0.340816 0.726741
1066 2 0.149813 0.348057 0.708028
1068 4 0.166498 0.365944 0.702845
1028 4 0.166892 0.382954 0.690762
1139 4 0.222185 0.405967 0.675366
1029 4 0.210809 0.390088 0.667935
1027 2 0.18885 0.386521 0.679349
1063 2 0.258983 0.333619 0.698335
1064 4 0.262726 0.34736 0.718887
806 4 0.27665 0.359706 0.729843
805 2 0.295041 0.371543 0.741961
1236 4 0.264563 0.345473 0.740264
1099 2 0.432977 0.398763 0.689825
1101 4 0.421305 0.382616 0.704933
1100 4 0.444648 0.414909 0.674717
894 4 0.0486286 0.420634 0.724083
2172 4 0.0342782 0.491827 0.688771
1279 2 0.0324384 0.457532 0.707118
3276 4 0.0405601 0.42958 0.741851
1983 4 0.0598517 0.435585 0.734433
1280 4 0.0419202 0.441186 0.723491
1281 4 0.0229566 0.473879 0.690746
3240 4 0.0258321 0.482812 0.671465
1981 2 0.0695468 0.453492 0.748943
1176 4 0.200116 0.481823 0.728165
2016 4 0.183761 0.488886 0.74128
1138 2 0.236623 0.422595 0.687208
1174 2 0.200883 0.480424 0.703213
1175 4 0.201651 0.479026 0.67826
889 2 0.296492 0.479505 0.672217
1140 4 0.251061 0.439223 0.69905
890 4 0.296651 0.491136 0.69435
1269 4 0.455133 0.432978 0.670322
2169 4 0.475091 0.488734 0.669906
1268 4 0.479459 0.473902 0.685627
1267 2 0.467296 0.45344 0.677974
2988 4 0.413691 0.495342 0.751181
1195 2 0.0869776 0.017101 0.820993
1196 4 0.100557 0.0317497 0.805954
911 4 0.102733 0.0504279 0.795769
1203 4 0.107583 0.0319305 0.78532
1201 2 0.108498 0.0199106 0.763414
910 2 0.111198 0.0730928 0.802079
1147 2 0.230542 0.0823785 0.75822