ITEM: TIMESTEP
1430000
ITEM: NUMBER OF ATOMS
4590
ITEM: BOX BOUNDS pp pp pp
-9.9985700000000008e+00 9.9985700000000008e+00
-9.9985700000000008e+00 9.9985700000000008e+00
-9.9985700000000008e+00 9.9985700000000008e+00
ITEM: ATOMS id type xs ys zs
1668 4 0.065745 0.0458782 0.0561903
1666 2 0.0681308 0.0707607 0.0567814
3290 4 0.982994 0.991949 0.00518466
421 2 0.151306 0.0796764 0.990055
1804 2 0.0823658 0.00726192 0.0764813
1475 4 0.235106 0.000659484 0.0445308
1474 2 0.223121 0.990463 0.0639616
534 4 0.191103 0.00999087 0.999369
490 2 0.290692 0.043438 0.0195895
491 4 0.282584 0.0545924 0.0404465
653 4 0.281495 0.0446466 0.0584342
652 2 0.294708 0.0546906 0.0771344
492 4 0.298801 0.0322837 0.998732
297 4 0.38725 0.0251222 0.0490247
295 2 0.388849 0.038792 0.0698996
987 4 0.404366 0.0461579 0.0126859
2974 2 0.495063 0.05654 0.011085
747 4 0.470055 0.073498 0.989783
589 2 0.0382527 0.112121 0.0370239
590 4 0.0193684 0.112307 0.0206371
591 4 0.057137 0.111935 0.0534107
1667 4 0.0705166 0.0956431 0.0573726
1248 4 0.00681272 0.0987423 0.00974921
702 4 0.0775211 0.116064 0.0587111
422 4 0.147352 0.0968045 0.00783657
700 2 0.100723 0.119301 0.0674502
701 4 0.123925 0.122539 0.0761894
236 4 0.133559 0.135605 0.0906693
449 4 0.138593 0.114762 0.0900519
567 4 0.25572 0.142113 0.0744505
565 2 0.251293 0.15489 0.053419
359 4 0.259233 0.158962 0.0192782
566 4 0.246866 0.167668 0.0323874
557 4 0.370666 0.137581 0.0293719
556 2 0.382665 0.156583 0.0403315
558 4 0.394663 0.175586 0.051291
746 4 0.451212 0.118439 0.00100851
745 2 0.460633 0.0959685 0.995396
477 4 0.0685617 0.189452 0.068921
914 4 0.149755 0.237595 0.0186309
506 4 0.144025 0.248972 0.00351288
913 2 0.141428 0.216029 0.00910433
915 4 0.1331 0.194464 0.999578
571 2 0.363504 0.212723 0.0182727
573 4 0.360001 0.23508 0.0289055
666 4 0.346894 0.187373 0.0104614
572 4 0.367006 0.190365 0.00763983
1071 4 0.362359 0.243526 0.0117852
769 2 0.45748 0.240917 0.033955
770 4 0.449767 0.218473 0.0260857
292 2 0.145998 0.294772 0.0638426
293 4 0.159219 0.29296 0.0426981
294 4 0.132776 0.296585 0.084987
288 4 0.166188 0.309901 0.0316245
507 4 0.16376 0.291255 0.0214981
505 2 0.153893 0.270114 0.0125055
286 2 0.181234 0.328709 0.0383368
1069 2 0.368368 0.267745 0.0102075
957 4 0.369075 0.308807 0.999693
1070 4 0.374376 0.291965 0.00862977
771 4 0.465193 0.263362 0.0418243
323 4 0.459371 0.267115 0.0626928
518 4 0.476929 0.256006 0.0582047
322 2 0.447818 0.26922 0.0847669
551 4 0.0664403 0.387555 0.0448718
621 4 0.99552 0.380041 0.0883263
481 2 0.227794 0.340889 0.0653242
483 4 0.215436 0.343316 0.0437245
287 4 0.196279 0.347518 0.0450492
280 2 0.450154 0.359123 0.0236552
282 4 0.457487 0.367201 0.00115738
281 4 0.442821 0.351045 0.046153
671 4 0.445747 0.347872 0.0655197
670 2 0.464373 0.336954 0.0781303
552 4 0.0596244 0.436257 0.0539504
550 2 0.0630324 0.411906 0.0494111
315 4 0.0621125 0.43792 0.0733949
627 4 0.237629 0.471127 0.0420252
625 2 0.250832 0.459365 0.0597035
626 4 0.264035 0.447603 0.0773818
246 4 0.32041 0.479269 0.0277898
272 4 0.315279 0.491205 0.0126333
244 2 0.325122 0.455062 0.0319158
245 4 0.329834 0.430856 0.0360418
563 4 0.420742 0.482251 0.0193307
562 2 0.437158 0.472773 0.00302603
18 3 0.0178091 0.0813795 0.144079
2481 4 0.0139641 0.0781945 0.163376
1805 4 0.0736265 0.0193673 0.0965378
19 3 0.0513474 0.0771963 0.126698
2479 2 0.0111948 0.0545736 0.171093
1476 4 0.211135 0.980266 0.0833924
654 4 0.307922 0.0647346 0.0958347
296 4 0.390448 0.0524617 0.0907744
476 4 0.0715569 0.158287 0.107914
17 3 0.0313602 0.108693 0.122101
16 1 0.037096 0.092247 0.137128
20 3 0.047543 0.101731 0.155004
448 2 0.149552 0.0938723 0.0983397
450 4 0.160512 0.0729826 0.106627
581 4 0.288691 0.144753 0.161261
630 4 0.41287 0.161282 0.134778
254 4 0.39551 0.153345 0.140481
253 2 0.374213 0.16629 0.138465
475 2 0.0700593 0.173869 0.0884175
235 2 0.138791 0.160045 0.0899709
339 4 0.106589 0.197946 0.113431
337 2 0.107265 0.21781 0.128602
338 4 0.10794 0.237675 0.143772
237 4 0.144024 0.184485 0.0892726
363 4 0.120223 0.251864 0.149624
738 4 0.213145 0.232731 0.138052
461 4 0.314342 0.226103 0.103631
354 4 0.301208 0.237315 0.113748
460 2 0.325655 0.207163 0.115399
352 2 0.278118 0.246359 0.110544
255 4 0.352916 0.179234 0.136448
462 4 0.336969 0.188224 0.127166
628 2 0.428703 0.178631 0.126204
629 4 0.444536 0.19598 0.11763
704 4 0.999137 0.325305 0.1634
454 2 0.134932 0.312817 0.122841
456 4 0.128825 0.309858 0.0987755
455 4 0.141039 0.315777 0.146906
537 4 0.131294 0.319275 0.163716
736 2 0.224162 0.249476 0.123106
737 4 0.23518 0.266221 0.10816
756 4 0.250055 0.326875 0.102634
754 2 0.251917 0.301985 0.104119
755 4 0.25378 0.277095 0.105605
353 4 0.255028 0.255402 0.10734
741 4 0.374537 0.315291 0.115363
622 2 0.405094 0.28978 0.11936
624 4 0.381636 0.297399 0.115251
739 2 0.358944 0.334345 0.11101
740 4 0.343351 0.3534 0.106656
324 4 0.436264 0.271325 0.106841
623 4 0.428551 0.282161 0.123469
526 2 0.506439 0.322322 0.111175
528 4 0.485348 0.335513 0.108658
672 4 0.482999 0.326036 0.0907409
527 4 0.52753 0.30913 0.113691
619 2 0.0068397 0.383165 0.110401
620 4 0.0181597 0.386289 0.132475
648 4 0.0281021 0.396739 0.147232
646 2 0.0339793 0.416437 0.161466
482 4 0.240153 0.338461 0.0869238
252 4 0.237076 0.343988 0.10745
607 2 0.267249 0.413331 0.0941025
251 4 0.270838 0.380288 0.114016
250 2 0.253957 0.362138 0.110733
609 4 0.275193 0.389642 0.0950382
387 4 0.290834 0.386293 0.109854
385 2 0.309038 0.369639 0.11391
386 4 0.327241 0.352985 0.117966
494 4 0.377942 0.404659 0.11751
493 2 0.392904 0.384807 0.120196
495 4 0.407866 0.364955 0.122883
14 3 0.419593 0.354541 0.13557
15 3 0.457017 0.355831 0.139502
11 1 0.437222 0.354279 0.150655
595 2 0.468435 0.401095 0.154815
12 3 0.435109 0.372236 0.164875
2652 4 0.499118 0.408907 0.12981
597 4 0.45199 0.386513 0.166735
596 4 0.484881 0.415677 0.142896
314 4 0.0612852 0.458132 0.119128
313 2 0.0616988 0.448026 0.0962613
1438 2 0.244813 0.492701 0.1088
608 4 0.259304 0.437021 0.0931668
1439 4 0.263033 0.47564 0.107349
637 2 0.267392 0.46138 0.149412
639 4 0.271897 0.469835 0.126316
525 4 0.361921 0.457874 0.171067
523 2 0.355754 0.473261 0.152349
659 4 0.349285 0.45301 0.187281
2480 4 0.00842545 0.0309526 0.178811
674 4 0.0806026 0.070292 0.238588
673 2 0.0954552 0.050192 0.237835
675 4 0.110308 0.030092 0.237082
1403 4 0.119607 0.0138299 0.224418
689 4 0.129701 0.0344832 0.228086
688 2 0.153738 0.0411929 0.226542
693 4 0.17243 0.0663767 0.219942
690 4 0.177775 0.0479025 0.224997
23 3 0.331198 0.0345662 0.218301
21 1 0.349686 0.0395756 0.231397
25 3 0.368784 0.0338323 0.220401
759 4 0.383749 0.0443954 0.207901
1784 4 0.365352 0.0353182 0.198442
1783 2 0.369352 0.0189206 0.179995
24 3 0.349941 0.0622308 0.236405
757 2 0.402518 0.0552034 0.220395
758 4 0.421286 0.0660114 0.23289
744 4 0.439974 0.0752733 0.23847
312 4 0.429233 0.0822937 0.221494
511 2 0.0206417 0.135284 0.236781
512 4 0.00744784 0.131542 0.215875
722 4 0.156334 0.159688 0.237703
721 2 0.164209 0.144669 0.219329
723 4 0.172084 0.12965 0.200956
692 4 0.182353 0.113618 0.206884
691 2 0.177392 0.0899973 0.213413
582 4 0.263501 0.162995 0.20042
580 2 0.276096 0.153874 0.180841
30 3 0.308308 0.13817 0.220862
27 3 0.327737 0.158963 0.196715
26 1 0.328416 0.148143 0.217003
29 3 0.332869 0.163684 0.233648
28 3 0.345207 0.132139 0.216411
708 4 0.344849 0.173427 0.246971
311 4 0.441936 0.108134 0.180608
310 2 0.435584 0.0952136 0.201051
546 4 0.141807 0.162435 0.253083
343 2 0.25153 0.249023 0.238894
344 4 0.251484 0.224033 0.238062
285 4 0.27052 0.169598 0.218034
284 4 0.263131 0.218842 0.222622
283 2 0.266825 0.19422 0.220328
395 4 0.98708 0.28741 0.238272
394 2 0.00766837 0.273331 0.240032
396 4 0.0282565 0.259252 0.241791
750 4 0.0469075 0.268002 0.240392
361 2 0.123667 0.26433 0.171023
372 4 0.145301 0.276804 0.199737
362 4 0.127111 0.276796 0.192422
370 2 0.160599 0.290348 0.214149
371 4 0.175896 0.303892 0.228562
279 4 0.193275 0.311058 0.23873
277 2 0.211883 0.294435 0.237119
612 4 0.186787 0.320212 0.219907
278 4 0.230491 0.277812 0.235508
345 4 0.251576 0.274013 0.239726
2692 2 0.0213938 0.378638 0.248993
535 2 0.112032 0.330093 0.175427
536 4 0.0927697 0.34091 0.187137
300 4 0.141696 0.42446 0.205388
298 2 0.149378 0.403325 0.216319
299 4 0.15706 0.38219 0.227249
610 2 0.199871 0.339892 0.211742
417 4 0.226975 0.36598 0.189688
415 2 0.226794 0.390525 0.19445
611 4 0.212956 0.359572 0.203577
303 4 0.317512 0.370756 0.224816
729 4 0.322772 0.386611 0.234018
301 2 0.320548 0.38128 0.20234
302 4 0.323584 0.391805 0.179863
13 3 0.436678 0.334724 0.163134
645 4 0.432282 0.390376 0.176805
643 2 0.433065 0.389461 0.20178
644 4 0.433848 0.388545 0.226754
447 4 0.424016 0.383685 0.24306
647 4 0.0398564 0.436135 0.175701
263 4 0.0469614 0.438461 0.193991
262 2 0.0350773 0.456276 0.206897
1757 4 0.0345048 0.491795 0.223018
264 4 0.0231932 0.474091 0.219804
416 4 0.226612 0.415071 0.199211
291 4 0.223232 0.427279 0.214173
289 2 0.239045 0.443078 0.20297
660 4 0.322047 0.411778 0.179618
290 4 0.254858 0.458877 0.191767
638 4 0.262887 0.452925 0.172507
767 4 0.275613 0.461867 0.187368
768 4 0.317171 0.486379 0.200514
766 2 0.296392 0.474123 0.193941
1574 4 0.333537 0.495934 0.198561
658 2 0.335666 0.432394 0.18345
1573 2 0.348977 0.487206 0.216185
1575 4 0.364417 0.478477 0.233809
1802 4 0.376374 0.463272 0.242419
234 4 0.0316206 0.0304378 0.331928
1699 2 0.211705 0.0101434 0.259839
248 4 0.193823 0.0405616 0.27901
247 2 0.179045 0.0589211 0.287359
1701 4 0.199925 0.0200884 0.279523
605 4 0.207108 0.0340237 0.29492
604 2 0.224219 0.0303482 0.312778
249 4 0.164266 0.0772807 0.295707
631 2 0.312997 0.0741429 0.303504
632 4 0.317502 0.0531065 0.290762
1495 2 0.36045 0.99743 0.273823
1496 4 0.344919 0.00808158 0.257376
22 3 0.348356 0.0276377 0.251015
697 2 0.393047 0.0175664 0.314621
698 4 0.399432 0.0403713 0.322643
349 2 0.428717 0.0609471 0.319781
350 4 0.440747 0.0770614 0.304923
742 2 0.444443 0.0802855 0.262555
743 4 0.448912 0.0852976 0.28664
579 4 0.0480305 0.129087 0.270344
513 4 0.0338356 0.139027 0.257688
577 2 0.0623125 0.142978 0.285452
530 4 0.026784 0.131528 0.276496
529 2 0.0117255 0.114761 0.287326
398 4 0.0695404 0.0788172 0.338243
578 4 0.0765946 0.156868 0.30056
545 4 0.168023 0.149137 0.293538
405 4 0.1624 0.13667 0.309007
403 2 0.170175 0.113183 0.305392
404 4 0.177949 0.0896951 0.301777
633 4 0.308492 0.0951793 0.316246
333 4 0.441803 0.0985659 0.302469
331 2 0.439154 0.12306 0.306735
332 4 0.436504 0.147554 0.311002
762 4 0.420199 0.156359 0.318396
393 4 0.0791022 0.180096 0.330742
544 2 0.154915 0.155786 0.27331
764 4 0.383004 0.217767 0.256254
763 2 0.370062 0.234803 0.269195
707 4 0.369924 0.176121 0.290153
706 2 0.357386 0.174774 0.268562
765 4 0.357121 0.251839 0.282135
761 4 0.419917 0.206323 0.316335
760 2 0.420058 0.181341 0.317366
418 2 0.441785 0.237709 0.302639
419 4 0.429408 0.225641 0.320704
520 2 0.49522 0.236357 0.275577
614 4 0.409575 0.220995 0.328764
364 2 0.0134758 0.328175 0.274579
748 2 0.0580392 0.252149 0.256201
749 4 0.069171 0.236295 0.27201
442 2 0.00243281 0.287561 0.31695
444 4 0.01151 0.27817 0.338272
389 4 0.155328 0.296966 0.328179
309 4 0.243839 0.293247 0.244469
308 4 0.280415 0.315055 0.270685
307 2 0.262127 0.304151 0.257577
497 4 0.290352 0.33181 0.27218
508 2 0.275346 0.329982 0.322714
420 4 0.454162 0.249777 0.284574
521 4 0.475732 0.251038 0.281042
543 4 0.465827 0.266991 0.291502
541 2 0.467116 0.283486 0.272755
542 4 0.468405 0.29998 0.254008
2694 4 0.0357508 0.36267 0.261803
366 4 0.031612 0.344559 0.269307
408 4 0.0743534 0.369987 0.338312
734 4 0.148132 0.370238 0.242204
733 2 0.15321 0.373912 0.266409
735 4 0.158288 0.377586 0.290614
677 4 0.165091 0.36795 0.306955
496 2 0.305583 0.349673 0.280791
498 4 0.320814 0.367535 0.289402
509 4 0.281753 0.3423 0.30192
727 2 0.330679 0.401705 0.252316
438 4 0.281745 0.403207 0.255595
728 4 0.338585 0.4168 0.270614
753 4 0.378227 0.348118 0.317344
751 2 0.397546 0.36364 0.320665
445 2 0.438414 0.395656 0.25963
446 4 0.452811 0.407627 0.276201
752 4 0.416864 0.379163 0.323987
777 4 0.0613231 0.484694 0.334333
603 4 0.0838439 0.41974 0.278267
413 4 0.123213 0.496193 0.317236
412 2 0.127833 0.48189 0.297255
602 4 0.119584 0.453885 0.270687
601 2 0.101714 0.436812 0.274477
414 4 0.132454 0.467587 0.277274
775 2 0.08609 0.488123 0.334181
437 4 0.268658 0.419516 0.30102
436 2 0.275202 0.411361 0.278308
1437 4 0.260733 0.473427 0.325378
1435 2 0.258477 0.45376 0.310103
1436 4 0.256221 0.434094 0.294829
434 4 0.342986 0.422804 0.290563
433 2 0.343875 0.431913 0.313832
1801 2 0.364985 0.447627 0.258253
1803 4 0.353597 0.431982 0.274087
712 2 0.4889 0.41978 0.281564
713 4 0.467991 0.417509 0.268042
231 4 0.427646 0.493416 0.291625
318 4 0.052381 0.0288565 0.330497
232 2 0.0111152 0.0296916 0.346217
316 2 0.0659242 0.0283106 0.351508
317 4 0.0794673 0.0277647 0.372519
428 4 0.0869325 0.019478 0.389297
606 4 0.241329 0.0266728 0.330636
441 4 0.259364 0.0240619 0.340141
724 2 0.321914 0.996534 0.375999
726 4 0.297016 0.994416 0.375115
440 4 0.276294 0.998541 0.379673
439 2 0.267829 0.0113017 0.359907
683 4 0.310486 0.0820135 0.391004
725 4 0.346812 0.998653 0.376883
257 4 0.396523 0.0501901 0.341552
256 2 0.395439 0.0395576 0.364156
258 4 0.394354 0.0289251 0.38676
425 4 0.408072 0.0367045 0.397978
351 4 0.416686 0.0448327 0.33464
424 2 0.397501 0.0222827 0.415455
452 4 0.427066 0.082057 0.382964
2655 4 0.00201458 0.138704 0.387108
397 2 0.0777972 0.0884581 0.359785
399 4 0.0860539 0.0980991 0.381327
2653 2 0.0224659 0.149597 0.377713
2654 4 0.0429172 0.16049 0.368318
392 4 0.0577033 0.148479 0.36304
732 4 0.0796567 0.1128 0.392114
731 4 0.118408 0.144253 0.39523
730 2 0.0990326 0.128526 0.393672
686 4 0.138951 0.146543 0.389971
599 4 0.12382 0.15991 0.381933
685 2 0.15726 0.137554 0.404433
687 4 0.17557 0.128565 0.418895
682 2 0.294094 0.0823911 0.409881
467 4 0.326779 0.148038 0.427133
453 4 0.407864 0.126439 0.395703
515 4 0.390496 0.120506 0.404099
451 2 0.417465 0.104248 0.389333
391 2 0.0684028 0.164287 0.346891
598 2 0.12045 0.181976 0.370668
600 4 0.11708 0.204042 0.359403
260 4 0.101877 0.234023 0.402671
275 4 0.16547 0.198851 0.390713
474 4 0.217858 0.194377 0.353292
276 4 0.198461 0.199051 0.353133
472 2 0.239593 0.192094 0.36544
274 2 0.181966 0.198951 0.371923
473 4 0.261328 0.18981 0.377588
468 4 0.293532 0.176643 0.403109
466 2 0.310156 0.16234 0.415121
613 2 0.410228 0.238216 0.34688
615 4 0.410882 0.255437 0.364996
269 4 0.477315 0.228059 0.402186
306 4 0.464482 0.211605 0.404322
268 2 0.467276 0.2458 0.387707
388 2 0.132309 0.293938 0.337461
390 4 0.10929 0.290911 0.346742
616 2 0.0878388 0.294685 0.379357
618 4 0.0817236 0.305669 0.40097
617 4 0.0939539 0.2837 0.357744
401 4 0.174907 0.289979 0.333325
400 2 0.186376 0.293497 0.355263
375 4 0.19287 0.306604 0.393923
402 4 0.197844 0.297014 0.377201
373 2 0.185761 0.292493 0.413302
378 4 0.277564 0.298521 0.341571
489 4 0.301693 0.272251 0.398671
376 2 0.284865 0.291916 0.364554
377 4 0.292166 0.285311 0.387538
487 2 0.324294 0.277349 0.408071
510 4 0.268939 0.317664 0.343508
716 4 0.395092 0.263742 0.375262
715 2 0.38192 0.27278 0.394498
270 4 0.457237 0.263541 0.373228
2924 4 0.446238 0.27915 0.376498
2923 2 0.444586 0.29584 0.395043
2925 4 0.442933 0.31253 0.413587
406 2 0.0557555 0.386507 0.340841
407 4 0.0371577 0.403027 0.34337
680 4 0.0282825 0.410846 0.414411
676 2 0.172734 0.381812 0.32631
678 4 0.180377 0.395674 0.345664
651 4 0.302003 0.374005 0.395129
649 2 0.289865 0.376959 0.416788
559 2 0.43042 0.390517 0.362464
561 4 0.430607 0.380279 0.339654
560 4 0.430234 0.400755 0.385275
549 4 0.0554665 0.46591 0.341619
548 4 0.0350395 0.421235 0.350981
547 2 0.045253 0.443572 0.3463
2 3 0.304529 0.473993 0.350713
3 3 0.313339 0.458464 0.383787
1 1 0.32187 0.466114 0.363611
435 4 0.344764 0.441022 0.3371
4 3 0.332316 0.448736 0.352329
5 3 0.336707 0.482983 0.367345
668 4 0.42042 0.411744 0.401014
593 4 0.472659 0.489017 0.366536
588 4 0.440178 0.40479 0.404806
720 4 0.0424193 0.0906145 0.51473
368 4 0.0942442 0.0694572 0.4154
367 2 0.107192 0.0856624 0.429361
340 2 0.171929 0.0808647 0.491242
1180 2 0.29304 0.0701462 0.467578
1181 4 0.295207 0.0589589 0.489834
426 4 0.38693 0.00786086 0.432932
841 2 0.373532 0.0293463 0.495723
843 4 0.353081 0.0418919 0.488687
458 4 0.00271358 0.156925 0.462779
457 2 0.0261458 0.148677 0.465623
719 4 0.0526531 0.121964 0.477138
459 4 0.049578 0.140429 0.468466
718 2 0.0475362 0.106289 0.495934
369 4 0.120141 0.101868 0.443322
939 4 0.118506 0.121605 0.440921
937 2 0.121947 0.145193 0.448468
938 4 0.125389 0.16878 0.456016
342 4 0.189973 0.0981539 0.492064
1151 4 0.191993 0.118662 0.426526
1150 2 0.193393 0.112795 0.450791
1152 4 0.194794 0.106927 0.475056
1182 4 0.290873 0.0813336 0.445322
684 4 0.277703 0.0827687 0.428759
321 4 0.279784 0.14729 0.457369
320 4 0.282871 0.100628 0.439653
319 2 0.281328 0.123959 0.448511
899 4 0.300377 0.149983 0.458739
898 2 0.314955 0.166455 0.470628
516 4 0.385871 0.150142 0.444112
514 2 0.388184 0.135324 0.424106
259 2 0.109442 0.235494 0.426457
1034 4 0.131575 0.176659 0.473244
261 4 0.117007 0.236965 0.450244
1035 4 0.111241 0.221341 0.463713
1033 2 0.121408 0.199 0.468478
695 4 0.118979 0.239886 0.471954
694 2 0.115343 0.249688 0.494667
857 4 0.187432 0.201605 0.497614
410 4 0.283079 0.178265 0.41982
411 4 0.252047 0.215221 0.432935
409 2 0.267563 0.196743 0.426378
900 4 0.329533 0.182927 0.482516
575 4 0.385136 0.166848 0.454424
813 4 0.378939 0.252044 0.486011
574 2 0.407933 0.176975 0.452709
266 4 0.386439 0.253752 0.468338
304 2 0.456854 0.196944 0.423084
305 4 0.449225 0.182282 0.441847
576 4 0.43073 0.187101 0.450993
347 4 0.0892987 0.308229 0.41959
346 2 0.105582 0.310706 0.438402
348 4 0.121865 0.313183 0.457215
10 3 0.136665 0.315142 0.469926
6 1 0.129638 0.324697 0.489368
7 3 0.109555 0.315354 0.495576
374 4 0.178652 0.278383 0.43268
717 4 0.368749 0.281817 0.413733
488 4 0.346896 0.282446 0.417471
265 2 0.372846 0.262 0.44904
267 4 0.359253 0.270248 0.429743
872 4 0.460943 0.252876 0.505637
2456 4 0.488637 0.307796 0.469161
584 4 0.477692 0.290739 0.465786
585 4 0.474621 0.248238 0.491957
583 2 0.476157 0.269489 0.478871
239 4 0.432103 0.321157 0.42823
2812 2 0.010001 0.340001 0.416352
2813 4 0.0317989 0.3519 0.413444
679 2 0.0479647 0.422685 0.424291
8 3 0.126685 0.347514 0.48636
504 4 0.235497 0.398029 0.478917
709 2 0.197706 0.390458 0.475971
711 4 0.177775 0.375849 0.479784
710 4 0.217637 0.405066 0.472159
502 2 0.252541 0.397462 0.460632
503 4 0.269584 0.396894 0.442346
650 4 0.277727 0.379913 0.438447
238 2 0.414445 0.326876 0.444983
669 4 0.38082 0.402347 0.430069
334 2 0.374549 0.364677 0.44391
240 4 0.396787 0.332595 0.461736
335 4 0.380075 0.343379 0.455786
336 4 0.369023 0.385975 0.432034
667 2 0.40062 0.407046 0.415541
681 4 0.0676468 0.434525 0.434171
383 4 0.078456 0.44884 0.441423
384 4 0.125055 0.466598 0.437699
569 4 0.138298 0.481374 0.439069
382 2 0.101756 0.457719 0.439561
568 2 0.151133 0.502359 0.43459
1161 4 0.136485 0.447027 0.49196
634 2 0.187887 0.468368 0.489456
635 4 0.194386 0.452585 0.471185
773 4 0.248939 0.444539 0.434105
772 2 0.22693 0.45079 0.44419
774 4 0.204921 0.457041 0.454276
662 4 0.443162 0.461763 0.494464
661 2 0.451916 0.451178 0.473571
1910 4 0.447571 0.481607 0.493693
587 4 0.46916 0.424741 0.440341
663 4 0.460669 0.440592 0.452678
586 2 0.454669 0.414766 0.422574
2507 4 0.480454 0.433245 0.456221
2428 2 0.113235 0.0799682 0.499066
2429 4 0.0900296 0.0891881 0.500355
2430 4 0.136441 0.0707483 0.497777
341 4 0.153885 0.0635754 0.490419
962 4 0.251431 0.00871464 0.507235
961 2 0.264153 0.0295693 0.501905
963 4 0.276875 0.0504239 0.496575
430 2 0.320035 0.039493 0.504515
432 4 0.295251 0.0405659 0.501388
431 4 0.344819 0.0384201 0.507642
842 4 0.393984 0.0168007 0.502759
1217 4 0.407229 0.00294729 0.500834
1091 4 0.359238 0.00498947 0.575964
1060 2 0.49393 0.0189768 0.576394
810 4 0.469734 0.063322 0.525412
808 2 0.465755 0.0717646 0.548609
809 4 0.461776 0.0802072 0.571805
641 4 0.504794 0.13723 0.542722
640 2 0.501082 0.116684 0.528965
469 2 0.0303228 0.201874 0.522079
470 4 0.0112309 0.198546 0.537877
1199 4 0.999391 0.215079 0.536074
471 4 0.0494147 0.205203 0.50628
877 2 0.120255 0.228178 0.548364
879 4 0.126622 0.207166 0.560328
878 4 0.113887 0.249189 0.536399
1272 4 0.125522 0.204266 0.580313
858 4 0.180851 0.247694 0.515867
856 2 0.184142 0.22465 0.506741
811 2 0.382722 0.256425 0.510336
2657 4 0.47063 0.182477 0.516999
982 2 0.0413228 0.312737 0.536266
983 4 0.0179595 0.313722 0.527414
984 4 0.0646861 0.311752 0.545118
326 4 0.0843038 0.308956 0.537385
1136 4 0.0810406 0.311525 0.558797
696 4 0.111707 0.25949 0.51738
327 4 0.0958267 0.260566 0.532251
325 2 0.0900653 0.284761 0.534818
1258 2 0.164479 0.309136 0.537911
1259 4 0.163149 0.31462 0.513553
9 3 0.145199 0.320867 0.506148
1260 4 0.165808 0.303653 0.56227
802 2 0.236057 0.332481 0.571478
803 4 0.213961 0.343287 0.566984
1239 4 0.277837 0.313118 0.576884
1237 2 0.302183 0.307748 0.578779
1238 4 0.32653 0.302379 0.580674
804 4 0.258152 0.321674 0.575973
792 4 0.339026 0.288637 0.573581
812 4 0.386505 0.260806 0.53466
790 2 0.353651 0.275076 0.558502
791 4 0.368276 0.261515 0.543423
953 4 0.403734 0.265962 0.544737
952 2 0.407302 0.250933 0.564398
873 4 0.420894 0.263013 0.533815
871 2 0.440918 0.257945 0.519726
934 2 0.0244169 0.416718 0.552344
936 4 0.0225035 0.403288 0.53134
3353 4 0.00700439 0.39107 0.533486
1190 4 0.200256 0.348572 0.553591
1189 2 0.188339 0.366733 0.565975
1455 4 0.329597 0.403992 0.496271
880 2 0.357128 0.385679 0.569127
881 4 0.344984 0.398303 0.551286
930 4 0.386991 0.368043 0.592351
928 2 0.409837 0.362513 0.583826
925 2 0.466028 0.36837 0.539488
926 4 0.466762 0.34383 0.534748
927 4 0.465295 0.392909 0.544228
1001 4 0.463006 0.397252 0.564987
929 4 0.432682 0.356982 0.575301
935 4 0.0263303 0.430148 0.573347
539 4 0.0570587 0.450409 0.519751
538 2 0.0718902 0.469932 0.524657
540 4 0.0867216 0.489454 0.529563
3432 4 0.0161626 0.446603 0.564354
3430 2 0.00645288 0.469201 0.568855
1159 2 0.129928 0.430221 0.509272
1160 4 0.123371 0.413414 0.526585
636 4 0.181388 0.484152 0.507727
1453 2 0.327341 0.4023 0.521115
1454 4 0.325086 0.400607 0.545959
1909 2 0.463129 0.498463 0.503643
1284 4 0.159644 0.0614422 0.606704
1031 4 0.225738 0.054096 0.586642
1282 2 0.183166 0.0572544 0.599329
1283 4 0.206687 0.0530666 0.591953
2133 4 0.207176 0.00214692 0.625278
1030 2 0.245117 0.0694558 0.582937
949 2 0.281713 0.00296926 0.595244
951 4 0.268965 0.0221883 0.604904
2281 2 0.382409 0.995733 0.649156
2282 4 0.388809 0.0157795 0.635651
1092 4 0.383305 0.0204761 0.616972
1090 2 0.371272 0.0127328 0.596468
1061 4 0.477339 0.00963261 0.592599
3008 4 0.465086 0.0847703 0.591243
89 3 0.477265 0.00190595 0.611579
1083 4 0.0258265 0.129247 0.647015
1081 2 0.0287136 0.109176 0.661643
3179 4 0.00884497 0.134755 0.637017
1059 4 0.155367 0.0810111 0.604418
1058 4 0.153673 0.118903 0.637007
1057 2 0.15452 0.0999571 0.620713
1155 4 0.151445 0.13991 0.642715
909 4 0.155199 0.125119 0.657788
1153 2 0.156937 0.164221 0.640719
1032 4 0.264495 0.0848157 0.579232
886 2 0.31513 0.148374 0.66637
1194 4 0.353731 0.149582 0.658665
1192 2 0.358443 0.162142 0.637564
1193 4 0.363156 0.174702 0.616464
830 4 0.358497 0.141149 0.67858
1026 4 0.435613 0.161207 0.662631
3007 2 0.481292 0.0890733 0.609791
1270 2 0.14076 0.199425 0.599536
1154 4 0.162429 0.188533 0.638722
1271 4 0.155999 0.194585 0.618759
1221 4 0.176916 0.193504 0.623413
1219 2 0.20043 0.199783 0.629144
1220 4 0.223944 0.206062 0.634874
1212 4 0.245109 0.202253 0.63436
798 4 0.236747 0.222857 0.631568
796 2 0.231902 0.241786 0.615967
1211 4 0.278364 0.170395 0.65385
1210 2 0.261737 0.186324 0.644105
888 4 0.291716 0.155589 0.661378
904 2 0.409804 0.212319 0.609472
906 4 0.404496 0.188345 0.614188
905 4 0.415111 0.236294 0.604757
1024 2 0.42866 0.169274 0.640009
1025 4 0.421708 0.177341 0.617387
1145 4 0.463058 0.2341 0.666441
1135 2 0.0831397 0.322226 0.581298
1243 2 0.0317079 0.26522 0.656413
1244 4 0.00824736 0.273271 0.653257
1137 4 0.0852388 0.332927 0.603798
948 4 0.168244 0.261126 0.669345
797 4 0.227056 0.260716 0.600367
954 4 0.41087 0.235903 0.58406
3113 4 0.49808 0.265455 0.593231
3123 4 0.49629 0.286807 0.676775
3264 4 0.0211319 0.418517 0.591069
3262 2 0.0133176 0.40012 0.606091
3263 4 0.00550319 0.381723 0.621114
895 2 0.172516 0.402012 0.602136
992 4 0.137215 0.408587 0.615776
897 4 0.155979 0.403913 0.620793
1191 4 0.176422 0.384893 0.578358
896 4 0.189054 0.400111 0.583479
882 4 0.369272 0.373054 0.586969
1000 2 0.453059 0.407095 0.585707
1206 4 0.439455 0.425991 0.625236
1041 4 0.0400897 0.428981 0.589614
1039 2 0.0645534 0.430054 0.594669
2172 4 0.0368788 0.50668 0.635243
3240 4 0.00131513 0.441473 0.652575
1281 4 0.0091656 0.43791 0.670371
1040 4 0.0890171 0.431127 0.599725
993 4 0.106307 0.44159 0.594419
991 2 0.121761 0.425088 0.605098
2154 4 0.300205 0.485524 0.583136
1140 4 0.286921 0.420154 0.676448
1173 4 0.285264 0.480058 0.595475
1172 4 0.265723 0.467194 0.639672
1171 2 0.275493 0.473626 0.617574
891 4 0.282189 0.466844 0.652982
889 2 0.298798 0.452645 0.665137
3182 4 0.475122 0.433147 0.589796
1204 2 0.435764 0.431906 0.649248
1002 4 0.443111 0.416938 0.606428
3183 4 0.471696 0.482938 0.592931
3181 2 0.473409 0.458043 0.591364
1268 4 0.475677 0.493753 0.677498
1205 4 0.432072 0.437821 0.673259
3440 4 0.494604 0.430201 0.59605
2169 4 0.477554 0.508418 0.663927
1892 4 0.0266262 0.0150785 0.671655
1183 2 0.03236 0.0511466 0.689745
1184 4 0.0250929 0.0272289 0.689191
4338 4 0.00906897 0.0140882 0.684314
1185 4 0.0396271 0.0750644 0.6903
943 2 0.0765407 0.0832009 0.686
2049 4 0.107264 0.0149134 0.739197
945 4 0.100136 0.0782931 0.692661
1202 4 0.106832 0.0317137 0.749444
825 4 0.196302 0.008063 0.685388
2254 2 0.195724 0.00658811 0.71813
2256 4 0.210277 0.00418863 0.73832
2255 4 0.181172 0.0089876 0.69794
2400 4 0.343775 0.00696047 0.7334
2398 2 0.339754 0.0302756 0.741488
42 3 0.409862 0.0825405 0.733155
2399 4 0.335732 0.0535908 0.749575
41 1 0.431475 0.0845365 0.725536
44 3 0.431264 0.0957593 0.705228
43 3 0.440442 0.0633157 0.722766
846 4 0.445834 0.0453253 0.729416
1082 4 0.0316007 0.0891043 0.676272
944 4 0.0529457 0.0881086 0.679339
1076 4 0.039954 0.0962065 0.694897
1075 2 0.0369064 0.109739 0.7157
1077 4 0.0338587 0.123272 0.736502
1179 4 0.00174394 0.156919 0.680146
907 2 0.176608 0.118675 0.668982
1226 4 0.238521 0.127708 0.728065
908 4 0.198017 0.112231 0.680176
1225 2 0.22785 0.119439 0.707019
1227 4 0.217179 0.11117 0.685973
1148 4 0.245303 0.125178 0.748111
1130 4 0.237081 0.144182 0.741976
1005 4 0.280083 0.100727 0.733842
1003 2 0.291338 0.121222 0.742699
1004 4 0.302593 0.141717 0.751557
887 4 0.338543 0.141159 0.671363
831 4 0.371742 0.0973525 0.698758
829 2 0.36512 0.119251 0.688669
1143 4 0.429218 0.147312 0.677921
45 3 0.443741 0.0962304 0.740749
1142 4 0.438877 0.0991013 0.687039
1141 2 0.434048 0.123207 0.68248
1263 4 0.43627 0.167234 0.683968
1178 4 0.0445583 0.182754 0.680624
1177 2 0.0231511 0.169836 0.680385
850 2 0.0481481 0.219238 0.685094
851 4 0.0450646 0.197174 0.696445
1107 4 0.0632389 0.18954 0.688348
1105 2 0.0790473 0.176955 0.703075
852 4 0.0512316 0.241302 0.673742
1106 4 0.0948557 0.164371 0.717803
1073 4 0.101151 0.180131 0.729354
1072 2 0.113886 0.199336 0.739058
978 4 0.232385 0.208209 0.736353
976 2 0.254587 0.217032 0.728976
977 4 0.276789 0.225855 0.7216
1299 4 0.322948 0.178023 0.725511
1298 4 0.296434 0.220356 0.727882
1297 2 0.309691 0.199189 0.726697
918 4 0.286392 0.236476 0.737532
1084 2 0.356903 0.173679 0.751556
1086 4 0.336024 0.171402 0.737989
1262 4 0.410823 0.18499 0.723184
1261 2 0.423546 0.176112 0.703576
1144 2 0.47742 0.217652 0.678622
3426 4 0.492392 0.183009 0.702375
1146 4 0.491782 0.201203 0.690802
1245 4 0.0551684 0.257169 0.659569
1209 4 0.0649302 0.257197 0.678507
1208 4 0.111257 0.273173 0.688474
1207 2 0.0880935 0.265185 0.68349
821 4 0.132086 0.309448 0.746161
820 2 0.125245 0.296127 0.726138
822 4 0.118404 0.282806 0.706114
947 4 0.127985 0.265141 0.698736
1242 4 0.147483 0.315718 0.757887
946 2 0.148114 0.263133 0.684041
1065 4 0.274174 0.320946 0.723564
892 2 0.0495784 0.403721 0.735268
893 4 0.0642978 0.38383 0.738852
940 2 0.103473 0.384806 0.74654
941 4 0.126917 0.391262 0.740718
1067 4 0.128867 0.375558 0.72837
1066 2 0.146564 0.378986 0.711043
1029 4 0.228479 0.407452 0.682329
1068 4 0.164262 0.382414 0.693716
1139 4 0.243299 0.395721 0.677367
1028 4 0.181805 0.392527 0.692306
1027 2 0.205142 0.39999 0.687317
1138 2 0.26511 0.407937 0.676908
1063 2 0.261953 0.336638 0.738717
1064 4 0.249733 0.352329 0.753869
806 4 0.262385 0.369194 0.749437
805 2 0.278459 0.387656 0.754529
1101 4 0.447099 0.393749 0.713779
894 4 0.034859 0.423613 0.731684
1279 2 0.0205932 0.437813 0.69261
3276 4 0.0212286 0.440425 0.733267
1983 4 0.0424899 0.443877 0.732951
1981 2 0.0507801 0.467356 0.735228
1280 4 0.0320208 0.437716 0.714849
1982 4 0.0590703 0.490836 0.737505
1188 4 0.231131 0.494471 0.680422
1175 4 0.234216 0.490537 0.699731
890 4 0.315407 0.438447 0.677291
1088 4 0.305768 0.48855 0.6899
1988 4 0.323301 0.484253 0.698033
1987 2 0.346307 0.47879 0.706161
1989 4 0.369313 0.473326 0.714289
1267 2 0.459958 0.474308 0.677602
1269 4 0.44424 0.454863 0.677706
1100 4 0.443428 0.438435 0.691635
1099 2 0.445263 0.416092 0.702707
1195 2 0.0806857 0.0212855 0.822618
1203 4 0.0870523 0.0416725 0.794281
1196 4 0.0755553 0.0438214 0.813079
1201 2 0.0969422 0.0366931 0.771862
911 4 0.0945528 0.0532898 0.810373
910 2 0.0985208 0.0768875 0.817624
1048 2 0.338087 0.0629921 0.787281
1050 4 0.343714 0.0780681 0.806418
1257 4 0.331644 0.09153 0.814023
1049 4 0.33246 0.0479161 0.768144
1112 4 0.388072 0.0269353 0.801918
1111 2 0.411675 0.0303668 0.794414
1113 4 0.435277 0.0337984 0.786909
844 2 0.450393 0.0385708 0.753055
845 4 0.454951 0.0318162 0.776693
980 4 0.453026 0.0423064 0.795138
979 2 0.463795 0.0319988 0.815212
864 4 0.0185616 0.115763 0.747937
862 2 0.00512319 0.102058 0.76396
34 3 0.0619217 0.122507 0.8132