ITEM: TIMESTEP
1940000
ITEM: NUMBER OF ATOMS
4590
ITEM: BOX BOUNDS pp pp pp
-9.9985700000000008e+00 9.9985700000000008e+00
-9.9985700000000008e+00 9.9985700000000008e+00
-9.9985700000000008e+00 9.9985700000000008e+00
ITEM: ATOMS id type xs ys zs
1666 2 0.046052 0.0474784 0.0557753
1668 4 0.0375677 0.0240473 0.0578188
1667 4 0.0545362 0.0709096 0.0537318
1804 2 0.0856161 0.995382 0.0875181
1806 4 0.105729 0.00492346 0.0761328
534 4 0.15153 0.031879 0.99297
490 2 0.295766 0.0624672 0.0129385
491 4 0.290465 0.0733944 0.0347941
653 4 0.28742 0.0738258 0.0560296
652 2 0.268296 0.0684955 0.0712295
297 4 0.376394 0.00910845 0.0811281
295 2 0.401031 0.0119111 0.0779075
296 4 0.425667 0.0147138 0.074687
591 4 0.0494921 0.0916029 0.0527396
589 2 0.0332393 0.097772 0.0347682
590 4 0.0169866 0.103941 0.0167969
702 4 0.068607 0.0852477 0.0606223
3232 2 0.0146686 0.144422 0.00232213
3233 4 0.0074491 0.120796 0.00617869
3234 4 0.0218882 0.168048 0.998466
235 2 0.0850143 0.158681 0.0652124
421 2 0.145095 0.0893377 0.0117871
422 4 0.125528 0.103172 0.0189242
700 2 0.0864437 0.102456 0.063924
701 4 0.10428 0.119665 0.0672257
236 4 0.103406 0.141757 0.0659217
449 4 0.122912 0.130265 0.0637684
448 2 0.141165 0.14389 0.0740821
423 4 0.164661 0.0755031 0.00465009
565 2 0.281594 0.11317 0.0362357
566 4 0.271892 0.13416 0.0267255
567 4 0.291296 0.0921792 0.0457459
665 4 0.309196 0.140171 0.0138984
359 4 0.259907 0.13186 0.0103945
664 2 0.326062 0.156256 0.0229522
557 4 0.379357 0.161369 0.0756613
556 2 0.371473 0.169821 0.0534895
237 4 0.0666227 0.175605 0.064503
477 4 0.0730042 0.187138 0.0795276
357 4 0.227786 0.237881 0.00540177
666 4 0.342927 0.172342 0.0320061
558 4 0.36359 0.178272 0.0313177
571 2 0.354745 0.21312 0.0161939
572 4 0.348582 0.193688 0.030672
1071 4 0.364483 0.251167 0.0056546
573 4 0.360909 0.232551 0.0017158
769 2 0.49154 0.219041 0.0418594
771 4 0.482311 0.237519 0.0559512
914 4 0.145573 0.250857 0.0260609
506 4 0.160096 0.261281 0.0174288
293 4 0.169279 0.309923 0.0475939
292 2 0.150574 0.313847 0.0637152
507 4 0.183204 0.303058 0.0323083
505 2 0.17165 0.28217 0.0248686
288 4 0.169932 0.319842 0.0287938
481 2 0.231387 0.330423 0.0658729
482 4 0.248283 0.315196 0.0762573
1070 4 0.362881 0.295307 0.0291024
1069 2 0.363682 0.273237 0.0173785
957 4 0.374088 0.309527 0.0230172
955 2 0.359138 0.329569 0.0230419
518 4 0.488693 0.253737 0.0681487
323 4 0.477505 0.258582 0.0506495
322 2 0.453145 0.262493 0.0547129
324 4 0.428786 0.266404 0.0587763
623 4 0.425287 0.265973 0.078824
282 4 0.446368 0.321355 0.999667
550 2 0.0343519 0.410313 0.0453405
551 4 0.0362196 0.402041 0.0218191
1170 4 0.0291357 0.342857 0.00527398
1168 2 0.0277345 0.367804 0.00617697
1169 4 0.0263334 0.392752 0.00707996
552 4 0.0324842 0.418586 0.0688619
483 4 0.214491 0.345651 0.0554885
286 2 0.188663 0.33584 0.0330826
287 4 0.207395 0.351837 0.0373714
956 4 0.344189 0.349612 0.0230665
280 2 0.460679 0.332818 0.0166658
670 2 0.493161 0.346214 0.0649021
671 4 0.479056 0.358356 0.0482043
281 4 0.474989 0.344282 0.033665
315 4 0.0301917 0.439638 0.0716515
313 2 0.0476289 0.457532 0.0706986
314 4 0.0650661 0.475427 0.0697457
1787 4 0.0839401 0.48058 0.0752509
1786 2 0.102253 0.466307 0.0659709
1788 4 0.120565 0.452034 0.0566909
1691 4 0.0852981 0.501455 0.0661959
243 4 0.233264 0.487825 0.0852311
246 4 0.320696 0.450911 0.0210167
272 4 0.312215 0.464854 0.00434428
244 2 0.327376 0.45391 0.0449242
245 4 0.334055 0.456909 0.0688318
271 2 0.307415 0.489393 0.00433927
2388 4 0.400714 0.49077 0.999958
563 4 0.41535 0.483654 0.0121505
562 2 0.439728 0.48082 0.016929
564 4 0.464106 0.477985 0.0217075
854 4 0.478787 0.464519 0.0192622
18 3 0.022809 0.0669237 0.123244
2481 4 0.0123728 0.062672 0.139932
16 1 0.0117024 0.0785414 0.106508
2479 2 0.0157719 0.0471934 0.159272
654 4 0.249172 0.0631653 0.0864295
19 3 0.0267372 0.0850869 0.0900914
450 4 0.159418 0.157515 0.0843957
476 4 0.065638 0.21115 0.12277
475 2 0.0693211 0.199144 0.101149
339 4 0.0653613 0.230716 0.124445
337 2 0.0795598 0.249534 0.132779
738 4 0.178936 0.230269 0.11502
736 2 0.199918 0.243111 0.110549
353 4 0.237579 0.243489 0.111098
461 4 0.28761 0.224881 0.110262
354 4 0.274959 0.2106 0.106432
460 2 0.310088 0.218474 0.101381
352 2 0.256269 0.227044 0.108765
462 4 0.332566 0.212067 0.0924993
254 4 0.383391 0.192282 0.122785
630 4 0.396567 0.196429 0.137423
253 2 0.360859 0.193845 0.112058
255 4 0.338328 0.195407 0.101332
628 2 0.420443 0.18912 0.138721
629 4 0.44432 0.181811 0.14002
294 4 0.131869 0.31777 0.0798365
338 4 0.0937582 0.268353 0.141112
363 4 0.112756 0.259684 0.138069
361 2 0.128269 0.268709 0.155478
737 4 0.220901 0.255954 0.106078
755 4 0.240797 0.263773 0.104618
754 2 0.252568 0.283018 0.0938346
756 4 0.264339 0.302262 0.0830512
252 4 0.26254 0.322141 0.0904787
741 4 0.40564 0.305776 0.126947
739 2 0.383469 0.313253 0.13576
740 4 0.361297 0.320731 0.144573
386 4 0.347087 0.332309 0.137327
624 4 0.414373 0.28892 0.121894
622 2 0.41983 0.277446 0.100359
15 3 0.453952 0.306749 0.156755
11 1 0.443022 0.325743 0.150556
14 3 0.441095 0.326584 0.127448
454 2 0.135895 0.342603 0.111535
455 4 0.144721 0.351798 0.133046
456 4 0.127069 0.333409 0.0900237
537 4 0.137427 0.337343 0.145114
250 2 0.279574 0.33961 0.0959419
607 2 0.290627 0.398689 0.101431
251 4 0.296607 0.35708 0.101405
609 4 0.302356 0.377795 0.108575
387 4 0.310181 0.360147 0.118255
385 2 0.328634 0.346228 0.127791
626 4 0.259231 0.412407 0.0904739
494 4 0.40821 0.380653 0.104159
493 2 0.415991 0.358891 0.113701
495 4 0.423772 0.337129 0.123243
595 2 0.469188 0.38037 0.13969
12 3 0.454994 0.344044 0.15769
597 4 0.452798 0.362682 0.1463
2652 4 0.487237 0.418383 0.13939
596 4 0.485578 0.398058 0.13308
620 4 0.0275666 0.426555 0.0885768
648 4 0.0346309 0.41704 0.106566
646 2 0.0424164 0.431828 0.125164
647 4 0.0502018 0.446617 0.143761
263 4 0.0462032 0.446229 0.165143
627 4 0.212436 0.428762 0.097071
625 2 0.235834 0.420584 0.0937725
1440 4 0.245184 0.47309 0.0926385
608 4 0.278898 0.419583 0.0942863
1438 2 0.267176 0.477243 0.103786
1439 4 0.289169 0.481395 0.114934
637 2 0.282976 0.48151 0.158182
639 4 0.28191 0.486053 0.133618
523 2 0.356213 0.484872 0.139544
525 4 0.365906 0.461827 0.13912
659 4 0.361873 0.445094 0.150049
658 2 0.347884 0.427427 0.160883
1422 4 0.0195878 0.0115364 0.179982
2480 4 0.019171 0.0317147 0.178612
688 2 0.135401 0.0557523 0.232091
690 4 0.157052 0.0589721 0.220007
693 4 0.151106 0.0685722 0.203735
1700 4 0.194174 0.00863359 0.239224
1506 4 0.257855 0.999756 0.160833
23 3 0.307968 0.0461547 0.232169
21 1 0.330317 0.0494041 0.237497
25 3 0.343377 0.0446459 0.219457
759 4 0.355002 0.0597035 0.208507
1784 4 0.361287 0.0379153 0.207602
1783 2 0.352453 0.0191793 0.193597
757 2 0.373017 0.0754523 0.215762
1785 4 0.34362 0.000443352 0.179593
24 3 0.333754 0.0713537 0.24419
311 4 0.429675 0.0976999 0.170367
1747 2 0.497892 0.00676466 0.249906
511 2 0.0218527 0.137908 0.242824
381 4 0.997297 0.137914 0.215745
512 4 0.00839821 0.151054 0.226351
691 2 0.163328 0.0901904 0.200827
692 4 0.175549 0.111809 0.197918
723 4 0.176955 0.130534 0.204028
721 2 0.179814 0.143125 0.225439
722 4 0.182673 0.155717 0.246851
30 3 0.340015 0.154748 0.189528
758 4 0.391032 0.091201 0.223016
28 3 0.374345 0.142788 0.199327
312 4 0.409057 0.0842239 0.213888
744 4 0.408826 0.0879967 0.234986
26 1 0.358074 0.158973 0.202744
29 3 0.351682 0.159195 0.225049
708 4 0.362212 0.169035 0.238333
310 2 0.419366 0.0909619 0.192127
748 2 0.051563 0.200463 0.229514
749 4 0.049157 0.19077 0.206591
284 4 0.238744 0.212219 0.238957
581 4 0.330714 0.172014 0.194314
283 2 0.25169 0.195586 0.225506
285 4 0.264637 0.178953 0.212055
580 2 0.306814 0.17689 0.199808
582 4 0.282914 0.181766 0.205302
27 3 0.366796 0.179552 0.197303
362 4 0.143782 0.277735 0.172887
372 4 0.147011 0.291303 0.187211
370 2 0.16681 0.301947 0.198161
371 4 0.186608 0.312592 0.209111
279 4 0.204522 0.313679 0.220545
277 2 0.217429 0.295238 0.231431
612 4 0.204014 0.321213 0.200326
278 4 0.230336 0.276796 0.242316
13 3 0.421965 0.326295 0.160287
2693 4 0.00175286 0.392587 0.218759
535 2 0.140009 0.345929 0.168455
536 4 0.142592 0.354515 0.191795
298 2 0.14808 0.4047 0.234273
300 4 0.148589 0.419155 0.213878
610 2 0.201848 0.346105 0.199395
417 4 0.20784 0.378559 0.215999
415 2 0.228097 0.392747 0.212323
611 4 0.199682 0.370997 0.198463
416 4 0.248355 0.406934 0.208646
301 2 0.322874 0.392069 0.211322
302 4 0.326632 0.398058 0.187339
729 4 0.329116 0.376667 0.251731
303 4 0.319116 0.386079 0.235305
660 4 0.333896 0.40976 0.171718
645 4 0.452083 0.362769 0.168406
643 2 0.441231 0.37246 0.188741
644 4 0.43038 0.382152 0.209076
447 4 0.426822 0.386376 0.228493
262 2 0.0559503 0.457507 0.185218
1757 4 0.0614314 0.476616 0.223284
264 4 0.0656975 0.468785 0.205292
1467 4 0.0206092 0.492131 0.182993
1756 2 0.0525086 0.476463 0.24664
603 4 0.104654 0.43634 0.237808
291 4 0.251624 0.419742 0.194785
289 2 0.26375 0.44158 0.195909
290 4 0.275876 0.463417 0.197033
638 4 0.284042 0.476967 0.182746
767 4 0.296551 0.460325 0.190913
766 2 0.31005 0.468083 0.210477
768 4 0.32355 0.475842 0.23004
438 4 0.283394 0.441959 0.246159
1573 2 0.347499 0.490825 0.24165
1403 4 0.109352 0.036895 0.258054
689 4 0.113749 0.0525326 0.244175
1402 2 0.104474 0.0124775 0.260329
675 4 0.0948216 0.052305 0.255235
673 2 0.0871703 0.0685346 0.272648
1699 2 0.203044 0.0188636 0.260244
248 4 0.219702 0.0493061 0.28364
247 2 0.201559 0.0657907 0.288564
1701 4 0.211913 0.0290935 0.281265
605 4 0.219158 0.0357651 0.300104
604 2 0.232736 0.0297461 0.320219
606 4 0.246314 0.0237271 0.340333
631 2 0.320299 0.0211848 0.316916
632 4 0.308256 0.0374748 0.302261
633 4 0.332343 0.00489475 0.331571
1496 4 0.339082 0.0210049 0.267796
22 3 0.335944 0.0353742 0.254836
697 2 0.400231 0.0101256 0.316398
1495 2 0.358365 0.00904657 0.278301
351 4 0.413916 0.0496663 0.319923
698 4 0.409466 0.0303599 0.32782
1497 4 0.377647 0.997088 0.288806
349 2 0.421525 0.0668163 0.303395
674 4 0.079519 0.0847642 0.290062
579 4 0.0554323 0.132756 0.264684
513 4 0.0353071 0.124763 0.259297
577 2 0.0644271 0.152241 0.277514
530 4 0.0420632 0.126875 0.280502
529 2 0.0281277 0.117739 0.299144
531 4 0.0141922 0.108604 0.317786
545 4 0.157466 0.156152 0.299928
544 2 0.1623 0.161714 0.276035
600 4 0.149455 0.152692 0.319716
405 4 0.164979 0.140182 0.311882
249 4 0.183416 0.0822753 0.293489
403 2 0.173395 0.116659 0.310879
404 4 0.181812 0.0931362 0.309876
546 4 0.167133 0.167276 0.252142
742 2 0.424441 0.0922062 0.254055
762 4 0.436358 0.160121 0.299199
332 4 0.44886 0.145273 0.305092
350 4 0.429134 0.0839664 0.286868
743 4 0.440057 0.0964157 0.273124
333 4 0.44463 0.0965886 0.294479
331 2 0.446745 0.120931 0.299785
750 4 0.053969 0.210155 0.252437
396 4 0.0647681 0.225656 0.256095
393 4 0.0824667 0.166046 0.306308
578 4 0.0734219 0.171726 0.290344
394 2 0.058016 0.249677 0.257712
391 2 0.0720973 0.17293 0.327994
343 2 0.237911 0.24178 0.258112
344 4 0.246475 0.218387 0.255971
706 2 0.354119 0.174154 0.26143
707 4 0.346025 0.179272 0.284527
613 2 0.408215 0.238879 0.321595
614 4 0.414255 0.227379 0.30023
760 2 0.43028 0.184339 0.297897
761 4 0.424202 0.208558 0.296595
418 2 0.442696 0.244527 0.274522
419 4 0.430495 0.225981 0.286026
520 2 0.496507 0.245149 0.25717
442 2 0.018085 0.288735 0.273393
395 4 0.0512639 0.273697 0.259329
444 4 0.0429394 0.286219 0.272344
389 4 0.125188 0.282485 0.327441
401 4 0.142254 0.273716 0.333477
388 2 0.10707 0.270151 0.339473
345 4 0.229347 0.265174 0.260253
309 4 0.236214 0.286223 0.260435
307 2 0.250631 0.296541 0.278066
308 4 0.265048 0.306859 0.295698
497 4 0.282563 0.314541 0.285145
508 2 0.268387 0.320162 0.324552
496 2 0.298702 0.323582 0.268323
509 4 0.273637 0.325972 0.300806
498 4 0.314841 0.332622 0.251501
763 2 0.394843 0.304384 0.280342
764 4 0.370712 0.29926 0.284423
765 4 0.418973 0.309508 0.276262
420 4 0.454898 0.263073 0.263017
521 4 0.475159 0.256629 0.263308
543 4 0.47054 0.277553 0.261241
541 2 0.454349 0.296168 0.265307
542 4 0.438158 0.314782 0.269373
408 4 0.0593599 0.37585 0.324276
299 4 0.147571 0.390245 0.254669
734 4 0.142364 0.370994 0.260762
733 2 0.145608 0.365462 0.284929
735 4 0.148852 0.35993 0.309096
677 4 0.167277 0.361957 0.311709
678 4 0.210713 0.344088 0.328877
676 2 0.188995 0.353023 0.320293
727 2 0.33055 0.397533 0.265433
728 4 0.331983 0.418398 0.279135
753 4 0.374728 0.364785 0.299913
751 2 0.382934 0.382451 0.31559
752 4 0.391141 0.400116 0.331267
445 2 0.439548 0.38731 0.249996
446 4 0.452274 0.388244 0.271499
713 4 0.471325 0.387782 0.277131
712 2 0.488986 0.404532 0.282851
1758 4 0.0435859 0.47631 0.269997
412 2 0.103295 0.466957 0.314058
602 4 0.120414 0.445667 0.284341
601 2 0.112534 0.441004 0.261075
414 4 0.107629 0.447517 0.298942
413 4 0.0989621 0.486397 0.329174
1435 2 0.23549 0.456555 0.320351
1436 4 0.24929 0.440845 0.30664
437 4 0.256749 0.438011 0.288292
436 2 0.270072 0.439985 0.267226
433 2 0.322513 0.426072 0.322194
434 4 0.333039 0.4189 0.300677
1575 4 0.365279 0.488507 0.259076
1802 4 0.369568 0.47051 0.268053
1801 2 0.357025 0.451677 0.278691
1803 4 0.344482 0.432844 0.289328
233 4 0.00338045 0.0453096 0.376077
318 4 0.0655457 0.0637341 0.37934
234 4 0.0491866 0.0639731 0.368716
232 2 0.0262835 0.0546414 0.372396
316 2 0.0780439 0.0472489 0.393384
317 4 0.090542 0.0307638 0.407427
428 4 0.102773 0.0157094 0.413684
441 4 0.239915 0.00576406 0.345739
725 4 0.328357 0.00417289 0.350484
724 2 0.310302 0.00134737 0.367548
440 4 0.271096 0.00125939 0.384575
439 2 0.255505 0.00351173 0.365157
682 2 0.279685 0.078948 0.398204
258 4 0.405991 0.0382691 0.387484
256 2 0.404255 0.0430659 0.363007
257 4 0.402518 0.0478626 0.338529
425 4 0.418551 0.0239204 0.392893
2643 4 0.488421 0.0664059 0.37894
452 4 0.451855 0.0705237 0.383336
2641 2 0.494435 0.0583574 0.356044
398 4 0.0186178 0.104682 0.338217
397 2 0.0402105 0.10393 0.350801
2653 2 0.0340155 0.161723 0.373991
399 4 0.0618032 0.103178 0.363386
732 4 0.0776814 0.109444 0.35126
2655 4 0.0116744 0.154306 0.38242
731 4 0.112722 0.134114 0.377034
730 2 0.0952015 0.121779 0.364147
686 4 0.133822 0.136386 0.378527
599 4 0.123889 0.145795 0.362137
598 2 0.136672 0.149244 0.340926
685 2 0.151424 0.13356 0.396058
687 4 0.169027 0.130735 0.413589
683 4 0.277844 0.0793886 0.373272
453 4 0.414585 0.10386 0.382697
515 4 0.395365 0.0980397 0.379948
514 2 0.386195 0.119774 0.388235
516 4 0.377024 0.141509 0.396523
575 4 0.381345 0.151994 0.413575
451 2 0.43322 0.0871917 0.383016
2654 4 0.0563567 0.16914 0.365562
392 4 0.061728 0.179815 0.349679
275 4 0.171825 0.207042 0.384287
274 2 0.194229 0.200855 0.37507
474 4 0.222635 0.213034 0.359642
276 4 0.216633 0.194668 0.365853
472 2 0.229206 0.226379 0.339545
409 2 0.24195 0.204022 0.406585
411 4 0.223208 0.220104 0.402672
473 4 0.235776 0.239725 0.319447
466 2 0.287285 0.173389 0.391937
467 4 0.311385 0.174603 0.385386
468 4 0.263186 0.172175 0.398487
410 4 0.260691 0.187941 0.410498
615 4 0.402176 0.25038 0.34296
716 4 0.394812 0.242288 0.360164
574 2 0.398457 0.168935 0.420313
269 4 0.460629 0.230139 0.370119
306 4 0.445776 0.220087 0.379789
268 2 0.461665 0.25444 0.375911
304 2 0.439241 0.205366 0.398914
617 4 0.0733636 0.254763 0.363833
2812 2 0.00923141 0.331623 0.388955
616 2 0.082019 0.260507 0.386577
2814 4 0.00344872 0.3093 0.398619
390 4 0.0889511 0.257817 0.351505
400 2 0.166047 0.275084 0.341041
618 4 0.0906744 0.266251 0.40932
260 4 0.112375 0.262971 0.414191
375 4 0.192 0.295655 0.345246
402 4 0.189839 0.276452 0.348606
373 2 0.208654 0.302575 0.362564
374 4 0.225309 0.309496 0.379882
378 4 0.27478 0.308286 0.363066
489 4 0.313319 0.286566 0.405058
376 2 0.284917 0.293978 0.380889
377 4 0.295055 0.27967 0.398713
510 4 0.263137 0.314352 0.348297
487 2 0.335319 0.274688 0.405348
715 2 0.384192 0.24538 0.382588
717 4 0.373573 0.248472 0.405013
488 4 0.35732 0.262811 0.405637
270 4 0.462702 0.278741 0.381703
2924 4 0.450606 0.275947 0.397104
2923 2 0.435224 0.281697 0.415959
406 2 0.0383509 0.384056 0.335068
407 4 0.0173419 0.392262 0.34586
548 4 0.0103152 0.408777 0.355443
2813 4 0.0150141 0.353947 0.379292
680 4 0.0525734 0.417691 0.407768
504 4 0.188064 0.413683 0.405842
502 2 0.209052 0.402734 0.413894
650 4 0.2481 0.383686 0.417278
561 4 0.401589 0.39371 0.345852
559 2 0.410958 0.407415 0.364549
668 4 0.409883 0.414442 0.400943
560 4 0.420326 0.42112 0.383246
547 2 0.0158336 0.432784 0.351153
549 4 0.021352 0.45679 0.346862
775 2 0.0620069 0.471248 0.34949
777 4 0.0387493 0.463915 0.355012
776 4 0.0852645 0.47858 0.343967
1545 4 0.0931992 0.498404 0.347528
773 4 0.187983 0.483247 0.40039
1437 4 0.221691 0.472264 0.334061
2 3 0.325613 0.480812 0.366143
435 4 0.311988 0.433243 0.343711
4 3 0.323667 0.445167 0.354383
1 1 0.337369 0.461139 0.364158
5 3 0.355722 0.464649 0.35114
3 3 0.343879 0.454126 0.385296
588 4 0.430932 0.418336 0.401519
1780 2 0.145577 0.00784406 0.46446
368 4 0.123355 0.0671566 0.409043
1782 4 0.160291 0.0263527 0.472589
341 4 0.146262 0.0421499 0.477992
2430 4 0.153408 0.0284978 0.492756
340 2 0.149728 0.0661483 0.471889
367 2 0.123737 0.0865956 0.424765
1180 2 0.292527 0.0579778 0.460486
1181 4 0.300137 0.0407285 0.476909
963 4 0.289058 0.0295297 0.491369
432 4 0.309386 0.0350838 0.49531
961 2 0.265473 0.021401 0.493057
1182 4 0.284917 0.0752271 0.444063
684 4 0.281527 0.0785073 0.423136
842 4 0.399352 0.00429763 0.453398
430 2 0.333325 0.0279497 0.494211
841 2 0.377273 0.00814137 0.464484
843 4 0.355193 0.0119851 0.47557
431 4 0.357264 0.0208157 0.493112
426 4 0.413799 0.000616953 0.436883
424 2 0.416175 0.0122687 0.414888
457 2 0.0158152 0.121402 0.451217
719 4 0.0538333 0.108775 0.46625
459 4 0.0403981 0.117572 0.453705
718 2 0.0694475 0.107057 0.485703
369 4 0.124118 0.106035 0.440486
939 4 0.130558 0.117374 0.456724
937 2 0.135083 0.141885 0.458704
938 4 0.139609 0.166396 0.460684
342 4 0.153194 0.0901467 0.465786
1151 4 0.181592 0.114483 0.413783
1152 4 0.170467 0.0976455 0.459537
1150 2 0.176029 0.106064 0.43666
321 4 0.274642 0.135503 0.464965
320 4 0.277223 0.0938514 0.437412
319 2 0.275933 0.114677 0.451188
899 4 0.270635 0.155291 0.467211
1034 4 0.145427 0.179429 0.473607
259 2 0.114077 0.248093 0.434215
261 4 0.115778 0.233215 0.454238
1035 4 0.123464 0.224342 0.472544
1033 2 0.134445 0.201885 0.473075
695 4 0.1071 0.238571 0.473747
694 2 0.0996945 0.245418 0.496626
857 4 0.161359 0.220105 0.510092
898 2 0.284859 0.174835 0.473604
900 4 0.299083 0.194379 0.479996
813 4 0.363807 0.222055 0.478255
266 4 0.369625 0.221382 0.460274
576 4 0.415569 0.185875 0.42705
265 2 0.367567 0.238417 0.442088
2656 2 0.498508 0.175647 0.458458
305 4 0.432707 0.190645 0.418039
2657 4 0.475745 0.174767 0.44815
2800 2 0.00177138 0.301422 0.434513
2802 4 0.00442378 0.285714 0.453784
2847 4 0.00762053 0.297976 0.469872
347 4 0.101884 0.281548 0.419612
346 2 0.0981027 0.302398 0.432884
348 4 0.094322 0.323249 0.446157
10 3 0.108873 0.323645 0.461061
9 3 0.137209 0.313794 0.483814
1259 4 0.142166 0.297102 0.493788
267 4 0.365509 0.255452 0.423901
238 2 0.389798 0.291361 0.444386
240 4 0.372703 0.308689 0.450102
335 4 0.377042 0.327862 0.444903
239 4 0.406893 0.274034 0.438669
2925 4 0.419842 0.287446 0.434814
2456 4 0.481763 0.31878 0.480201
584 4 0.470327 0.302341 0.474808
583 2 0.454254 0.287202 0.486541
679 2 0.0671065 0.418566 0.428095
6 1 0.127571 0.331092 0.471718
7 3 0.121803 0.347992 0.486218
681 4 0.0816397 0.419441 0.448422
8 3 0.142752 0.339348 0.456234
711 4 0.147107 0.393739 0.458087
709 2 0.159794 0.400858 0.437751
503 4 0.230039 0.391785 0.421945
710 4 0.17248 0.407977 0.417415
649 2 0.26932 0.370629 0.419374
651 4 0.290541 0.357572 0.421469
667 2 0.398026 0.404275 0.420469
669 4 0.386169 0.394108 0.439994
334 2 0.376715 0.352598 0.441268
336 4 0.376388 0.377334 0.437633
2507 4 0.488763 0.41911 0.44165
926 4 0.445507 0.345259 0.49042
384 4 0.121217 0.464271 0.459175
569 4 0.120775 0.477352 0.442738
382 2 0.111047 0.441505 0.45731
383 4 0.100877 0.41874 0.455444
772 2 0.187912 0.478594 0.424956
634 2 0.192871 0.493829 0.481121
635 4 0.191172 0.471964 0.469112
774 4 0.187841 0.473941 0.449523
587 4 0.47123 0.425591 0.430227
586 2 0.451081 0.421964 0.415873
663 4 0.470424 0.423758 0.451408
662 4 0.446545 0.453848 0.483426
661 2 0.458485 0.438803 0.467417
1910 4 0.45248 0.467902 0.493572
2428 2 0.146891 0.0304189 0.516819
2429 4 0.140374 0.0323401 0.540881
962 4 0.241888 0.0132722 0.494746
1032 4 0.262734 0.0709834 0.579225
1091 4 0.369507 0.0024919 0.564999
2196 4 0.375311 0.010419 0.54836
1062 4 0.459711 0.0221713 0.565669
808 2 0.48088 0.0794715 0.563342
810 4 0.462982 0.08012 0.545894
720 4 0.0850616 0.105338 0.505156
1193 4 0.384903 0.117123 0.586371
469 2 0.0100269 0.22664 0.517704
471 4 0.0271798 0.235173 0.501637
879 4 0.1319 0.221902 0.568417
1272 4 0.143597 0.227962 0.585372
877 2 0.117938 0.236165 0.553356
856 2 0.185818 0.217532 0.505585
858 4 0.210277 0.214958 0.501079
811 2 0.367806 0.237235 0.497716
952 2 0.391574 0.245374 0.557491
812 4 0.371805 0.252415 0.517177
953 4 0.37824 0.253133 0.537814
905 4 0.419008 0.226382 0.568798
3114 4 0.462231 0.23855 0.587025
982 2 0.0167785 0.29774 0.54909
984 4 0.0380382 0.298256 0.562241
326 4 0.0578469 0.290482 0.560225
1136 4 0.0546453 0.311674 0.562553
325 2 0.0763426 0.280012 0.547054
983 4 0.995519 0.297225 0.535939
1135 2 0.0652516 0.334245 0.560754
696 4 0.0922886 0.252264 0.519506
878 4 0.103976 0.250428 0.538296
327 4 0.0948382 0.269543 0.533883
1258 2 0.140577 0.293702 0.518509
1260 4 0.138987 0.290302 0.543229
1237 2 0.312567 0.303982 0.570348
1238 4 0.330903 0.302273 0.553435
1239 4 0.294231 0.30569 0.587261
792 4 0.351088 0.31057 0.552401
790 2 0.357832 0.289255 0.541205
791 4 0.364575 0.267939 0.530009
873 4 0.385575 0.26764 0.523975
871 2 0.407256 0.277456 0.516309
872 4 0.428937 0.287271 0.508644
3112 2 0.482501 0.253123 0.585651
585 4 0.438181 0.272063 0.498274
936 4 0.0235823 0.387071 0.555841
934 2 0.0236957 0.409161 0.567553
3353 4 0.0171379 0.378942 0.538344
3352 2 0.0103712 0.376682 0.51438
1137 4 0.075858 0.356816 0.558956
1191 4 0.197222 0.387356 0.583097
1189 2 0.21756 0.373079 0.580325
1454 4 0.345005 0.410211 0.545914
880 2 0.36516 0.382546 0.571126
881 4 0.353532 0.402691 0.561954
925 2 0.447809 0.352103 0.514359
927 4 0.450111 0.358946 0.538297
1001 4 0.452995 0.373159 0.551357
1000 2 0.462229 0.388595 0.568725
539 4 0.0633859 0.479946 0.516031
538 2 0.0397475 0.477877 0.523913
3430 2 0.0229389 0.475112 0.577023
3432 4 0.0310035 0.451749 0.580806
3431 4 0.0148743 0.498475 0.57324
540 4 0.0161091 0.475808 0.531795
1160 4 0.154278 0.442016 0.571254
1159 2 0.148459 0.443035 0.546959
1161 4 0.14264 0.444053 0.522663
2154 4 0.306695 0.489717 0.579622
1453 2 0.348386 0.434633 0.541754
1455 4 0.351766 0.459055 0.537594
1909 2 0.463512 0.48971 0.49885
1185 4 0.0271058 0.0817451 0.669022
1892 4 0.00451394 0.0152022 0.663503
945 4 0.0921986 0.0884727 0.649191
1030 2 0.247143 0.055314 0.590912
1059 4 0.163139 0.0751278 0.608296
1284 4 0.172 0.0621353 0.595589
1283 4 0.212688 0.0330959 0.594205
2133 4 0.233241 0.0324504 0.660044
1282 2 0.192344 0.0476156 0.594897
2132 4 0.220219 0.0245435 0.612414
1031 4 0.231553 0.0396447 0.602599
2131 2 0.22673 0.028497 0.636229
2282 4 0.335368 0.00829263 0.612948
2281 2 0.337182 0.0199654 0.634985
1092 4 0.334128 0.9938 0.599255
1090 2 0.351818 0.998146 0.582127
1081 2 0.0108161 0.105837 0.638102
1082 4 0.0279735 0.0967008 0.653828
943 2 0.0688031 0.0906519 0.657739
1057 2 0.170647 0.0965489 0.618782
1153 2 0.179538 0.156476 0.612832
1155 4 0.181024 0.131516 0.612753
1058 4 0.178154 0.11797 0.629268
909 4 0.197703 0.119724 0.620792
907 2 0.218128 0.123122 0.634809
908 4 0.238553 0.126519 0.648826
1227 4 0.235017 0.119411 0.666513
886 2 0.327226 0.157804 0.640525
887 4 0.347314 0.14297 0.639264
1194 4 0.356974 0.129089 0.626089
1192 2 0.370938 0.123106 0.60623
830 4 0.361393 0.129438 0.64788
1026 4 0.446657 0.15726 0.647436
1143 4 0.437345 0.138367 0.651501
1263 4 0.427661 0.156568 0.657047
852 4 0.061769 0.24808 0.66589
1270 2 0.156399 0.21415 0.60182
1154 4 0.178052 0.181435 0.612911
1271 4 0.1692 0.200339 0.618269
1221 4 0.187526 0.194518 0.627321
1219 2 0.209878 0.204182 0.632993
1220 4 0.23223 0.213847 0.638665
798 4 0.245792 0.227844 0.647344
1212 4 0.250106 0.206987 0.648125
888 4 0.307137 0.172638 0.641785
1211 4 0.291165 0.182923 0.632769
1210 2 0.270635 0.194955 0.640447
954 4 0.404908 0.237615 0.577168
1024 2 0.444718 0.165461 0.623896
906 4 0.441045 0.194471 0.600371
904 2 0.430027 0.210426 0.584585
1025 4 0.442778 0.173663 0.600355
1244 4 0.0193822 0.292206 0.649862
1243 2 0.0390402 0.276757 0.649624
1245 4 0.0586982 0.261308 0.649386
946 2 0.152095 0.285951 0.652547
948 4 0.170149 0.288488 0.635437
796 2 0.249486 0.24982 0.658684
797 4 0.25318 0.271795 0.670025
804 4 0.275149 0.309558 0.593984
802 2 0.257093 0.326742 0.592019
1190 4 0.237898 0.358801 0.577552
895 2 0.17079 0.404077 0.59136
896 4 0.179143 0.386014 0.576223
803 4 0.239037 0.343926 0.590054
882 4 0.376788 0.362401 0.580298
929 4 0.364174 0.363656 0.647976
930 4 0.374543 0.357966 0.599388
928 2 0.369359 0.360811 0.623682
1101 4 0.404115 0.398115 0.661579
1002 4 0.471464 0.404031 0.586093
1206 4 0.477882 0.410746 0.604457
1099 2 0.421384 0.415357 0.65613
935 4 0.0238091 0.431252 0.579265
3264 4 0.0313302 0.438882 0.598149
1041 4 0.0449529 0.435008 0.582316
1039 2 0.0646238 0.441027 0.596528
3262 2 0.0137812 0.438243 0.615948
1040 4 0.0842947 0.447047 0.610741
3240 4 0.00716026 0.480278 0.664547
897 4 0.162437 0.42214 0.606497
992 4 0.145705 0.418867 0.615399
993 4 0.103425 0.442906 0.603768
991 2 0.124565 0.430886 0.609584
1186 2 0.228339 0.491833 0.657907
1173 4 0.289863 0.490589 0.588968
1172 4 0.278482 0.473002 0.634376
1171 2 0.284172 0.481795 0.611672
891 4 0.276161 0.462502 0.651583
1204 2 0.468709 0.419438 0.626032
3183 4 0.456565 0.48343 0.616708
3181 2 0.47471 0.472758 0.603216
3182 4 0.492856 0.462085 0.589725
1205 4 0.459535 0.42813 0.647607
1100 4 0.438653 0.432598 0.650681
1269 4 0.45275 0.435521 0.666739
1183 2 0.0210209 0.057494 0.668832
1184 4 0.0149361 0.0332428 0.668643
4338 4 0.0161253 0.0165697 0.6817
4336 2 0.00682122 0.000812109 0.698738
824 4 0.232142 0.0252434 0.680222
823 2 0.21421 0.00980998 0.68831
2283 4 0.338995 0.0316382 0.657022
2400 4 0.371771 0.0560612 0.744593
43 3 0.450379 0.084276 0.73246
846 4 0.444267 0.0674925 0.74417
41 1 0.467026 0.0844058 0.716296
45 3 0.471366 0.0631264 0.70944
944 4 0.0454076 0.0928311 0.666288
1179 4 0.01394 0.16594 0.70185
1076 4 0.0279253 0.102227 0.67514
1075 2 0.0178711 0.110324 0.696553
1077 4 0.00781689 0.118422 0.717967
864 4 0.00187753 0.109828 0.735655
1226 4 0.233615 0.132821 0.714668
1225 2 0.234316 0.126116 0.690591
1148 4 0.221921 0.124446 0.731505
1130 4 0.219818 0.145224 0.725196
1129 2 0.220751 0.161605 0.744063
1147 2 0.227893 0.101662 0.739895
829 2 0.373375 0.122822 0.668805
831 4 0.385357 0.116207 0.68973
1261 2 0.419896 0.166917 0.678443
44 3 0.460408 0.0973541 0.698214
42 3 0.486118 0.0934904 0.725356
1142 4 0.458259 0.102731 0.679669
1141 2 0.447802 0.120549 0.665585
3426 4 0.495523 0.155146 0.731055
850 2 0.0623443 0.223807 0.671863
1177 2 0.0324862 0.174229 0.687272
1178 4 0.0510323 0.182519 0.672695
851 4 0.0629196 0.199534 0.677836
1107 4 0.0713462 0.179958 0.678722
1105 2 0.0863712 0.176996 0.698487
1106 4 0.101396 0.174034 0.718252
1073 4 0.103036 0.190709 0.728243
1072 2 0.111549 0.206047 0.74606
977 4 0.247715 0.232524 0.745295
1299 4 0.300265 0.192941 0.736055
1298 4 0.267914 0.231006 0.738337
1297 2 0.28409 0.211974 0.737196
1086 4 0.320708 0.195275 0.736154
1084 2 0.341465 0.182634 0.742032
1262 4 0.412132 0.177266 0.699839
1085 4 0.362222 0.169994 0.74791
3270 4 0.487223 0.164382 0.748791
1145 4 0.457149 0.212484 0.714343
1144 2 0.471008 0.193196 0.722159
1146 4 0.484867 0.173909 0.729975
1209 4 0.07283 0.266208 0.664455
816 4 0.0563229 0.312126 0.75205
1208 4 0.121251 0.267188 0.676913
1207 2 0.0970403 0.266698 0.670684
820 2 0.134457 0.27384 0.713042
822 4 0.138242 0.273846 0.688327
947 4 0.13404 0.283414 0.669658
821 4 0.130673 0.273834 0.737757
1242 4 0.114347 0.285385 0.738652
1063 2 0.271462 0.328786 0.708449
1065 4 0.279289 0.324563 0.68508
1064 4 0.263635 0.333009 0.731817
1098 4 0.32104 0.323419 0.736441
3123 4 0.495834 0.267006 0.704164
892 2 0.0398008 0.388073 0.72222
893 4 0.0470681 0.364379 0.725527
815 4 0.0542901 0.361683 0.745671
942 4 0.0679023 0.36735 0.730111
814 2 0.0553065 0.336904 0.748861
894 4 0.0325335 0.411768 0.718913
940 2 0.0920963 0.373577 0.731136
941 4 0.11629 0.379804 0.732162
1067 4 0.118608 0.380744 0.712136
1066 2 0.139448 0.371953 0.701479
1068 4 0.160289 0.363163 0.690822
1139 4 0.22986 0.394891 0.691034
1029 4 0.223589 0.379447 0.700402
1028 4 0.179595 0.356463 0.694316
1027 2 0.201592 0.367955 0.697359
1236 4 0.260049 0.339874 0.752169
1140 4 0.270389 0.410895 0.71557
1138 2 0.250124 0.402893 0.703302
806 4 0.263678 0.353735 0.736483
805 2 0.276482 0.373988 0.743629
807 4 0.289285 0.394241 0.750775
1250 4 0.466972 0.396149 0.747673
2172 4 0.0222677 0.48705 0.677839
1279 2 0.0172695 0.448213 0.695189
3276 4 0.0167589 0.422274 0.728625
1983 4 0.0357866 0.432475 0.724632
1280 4 0.0226241 0.427477 0.708093
1981 2 0.0510589 0.446254 0.738847
1281 4 0.0119149 0.468949 0.682284
1188 4 0.225076 0.48546 0.681864
1176 4 0.181927 0.498512 0.732512
889 2 0.282282 0.477633 0.670524
890 4 0.288404 0.492764 0.689465
1988 4 0.29427 0.488684 0.709461
1987 2 0.317195 0.491139 0.719136
1989 4 0.34012 0.493594 0.728812
2169 4 0.471834 0.487351 0.683031
1268 4 0.479116 0.470722 0.690538
1267 2 0.465933 0.453122 0.678638
1196 4 0.0636456 0.0323653 0.829489
911 4 0.0811865 0.0443921 0.832355
1203 4 0.0808625 0.0294929 0.816766
1201 2 0.0921451 0.0246146 0.794993
1202 4 0.103428 0.0197362 0.773219
2049 4 0.102891 0.00244907 0.764831
910 2 0.0945451 0.0654204 0.834486
1050 4 0.325666 0.0840327 0.827129
1049 4 0.329949 0.0600633 0.783451
1048 2 0.327808 0.072048 0.80529
2398 2 0.350397 0.0509855 0.756534
2399 4 0.329023 0.0459098 0.768474
1112 4 0.373337 0.0721184 0.801968