ITEM: TIMESTEP
3490000
ITEM: NUMBER OF ATOMS
4590
ITEM: BOX BOUNDS pp pp pp
-9.9985700000000008e+00 9.9985700000000008e+00
-9.9985700000000008e+00 9.9985700000000008e+00
-9.9985700000000008e+00 9.9985700000000008e+00
ITEM: ATOMS id type xs ys zs
1667 4 0.0640997 0.0598741 0.0643885
591 4 0.0543418 0.0716623 0.0486062
702 4 0.0723136 0.0788051 0.0592207
533 4 0.145795 0.0161349 0.040478
1476 4 0.145728 0.0216325 0.0618134
1605 4 0.139814 0.0012646 0.0550376
532 2 0.16695 0.025899 0.0314055
534 4 0.188105 0.0356631 0.022333
423 4 0.1894 0.0546563 0.0173969
421 2 0.200676 0.0756815 0.0248778
490 2 0.272599 0.0671439 0.0509169
492 4 0.272036 0.0425589 0.0554382
296 4 0.434862 0.0716523 0.0767467
589 2 0.0394959 0.0912792 0.0441393
590 4 0.02465 0.110896 0.0396724
3232 2 0.0360232 0.146263 0.0130875
3233 4 0.0267215 0.126928 0.0259262
1248 4 0.00861916 0.115842 0.0265447
700 2 0.0875465 0.0959633 0.0691572
235 2 0.12108 0.147281 0.0829388
422 4 0.211952 0.0967067 0.0323587
652 2 0.241677 0.113949 0.0356081
654 4 0.217083 0.116709 0.0320483
491 4 0.273163 0.0917288 0.0463956
653 4 0.266272 0.111188 0.0391678
565 2 0.298351 0.121109 0.0296016
566 4 0.31111 0.132601 0.0114265
567 4 0.285593 0.109618 0.0477767
866 4 0.321858 0.151638 0.0102041
665 4 0.329967 0.136695 0.0236736
556 2 0.399868 0.149442 0.0562806
664 2 0.347731 0.149229 0.036024
666 4 0.365494 0.161763 0.0483744
557 4 0.415583 0.130003 0.056887
297 4 0.429494 0.115775 0.0538319
295 2 0.432178 0.0937136 0.0652893
237 4 0.120653 0.172145 0.0803293
255 4 0.320243 0.241177 0.0840764
558 4 0.384154 0.168881 0.0556742
571 2 0.379151 0.191992 0.0197626
572 4 0.378508 0.17262 0.0355578
573 4 0.379793 0.211364 0.00396746
1071 4 0.378776 0.231429 0.00230365
518 4 0.491548 0.232289 0.0528151
771 4 0.499065 0.238752 0.032503
323 4 0.483473 0.25026 0.0429715
292 2 0.143678 0.317708 0.0591131
507 4 0.15627 0.313503 0.0180941
293 4 0.154201 0.30744 0.0388889
294 4 0.133155 0.327975 0.0793373
288 4 0.169918 0.320455 0.0328498
483 4 0.224686 0.330209 0.0530831
481 2 0.235022 0.324403 0.0750975
1069 2 0.380406 0.256354 0.00343253
957 4 0.382427 0.297103 0.0180566
1070 4 0.382035 0.281279 0.00456142
955 2 0.402678 0.311229 0.0219985
956 4 0.42293 0.325354 0.0259405
622 2 0.400764 0.253844 0.0839887
322 2 0.459075 0.251238 0.0483494
324 4 0.434676 0.252216 0.0537272
623 4 0.419951 0.254738 0.0679816
1168 2 0.00565322 0.386615 0.0346953
1170 4 0.00308779 0.363142 0.0429184
1169 4 0.00821864 0.410088 0.0264722
286 2 0.192185 0.33121 0.0365462
287 4 0.214452 0.341966 0.0402425
607 2 0.29375 0.384816 0.0799214
608 4 0.28544 0.401958 0.0637269
626 4 0.278165 0.412922 0.0790892
245 4 0.367563 0.400795 0.0606516
244 2 0.352026 0.407198 0.0421374
40 3 0.346037 0.407858 0.00457716
282 4 0.438543 0.338103 0.0240352
280 2 0.442978 0.348681 0.0462525
281 4 0.447412 0.35926 0.0684699
494 4 0.449119 0.379076 0.0763048
671 4 0.464203 0.364961 0.0811851
330 4 0.0220602 0.425716 0.0217625
551 4 0.0129865 0.42418 0.0419816
550 2 0.0140942 0.44049 0.0609009
552 4 0.0152019 0.4568 0.0798202
328 2 0.00946549 0.435915 0.00272175
1788 4 0.102044 0.417126 0.079769
241 2 0.242193 0.486737 0.0585248
243 4 0.258438 0.478891 0.0758366
625 2 0.272863 0.436828 0.0740309
627 4 0.267561 0.460733 0.0689726
1440 4 0.277589 0.472796 0.0837792
246 4 0.336489 0.413601 0.0236232
272 4 0.352105 0.426569 0.0140309
271 2 0.362505 0.447722 0.00568794
273 4 0.372905 0.468874 0.997345
1666 2 0.0593101 0.0438596 0.0829834
1668 4 0.0545205 0.027845 0.101578
2481 4 0.995878 0.0222951 0.123244
2479 2 0.999207 0.999569 0.133123
16 1 0.0114977 0.0619132 0.125773
19 3 0.0331238 0.0599401 0.133948
20 3 0.998276 0.0722234 0.141185
17 3 0.0119419 0.0745105 0.106531
1474 2 0.15258 0.0282264 0.0849382
1475 4 0.159431 0.0348203 0.108063
450 4 0.163803 0.0891573 0.0879391
236 4 0.121507 0.122418 0.0855482
701 4 0.102779 0.113121 0.0790938
448 2 0.139864 0.0960156 0.0901971
449 4 0.115926 0.102874 0.092455
477 4 0.10398 0.183508 0.0871844
476 4 0.11988 0.230721 0.0915187
339 4 0.116211 0.232504 0.110332
475 2 0.11193 0.207115 0.0893515
337 2 0.116778 0.248198 0.129789
352 2 0.246689 0.234083 0.144656
461 4 0.26797 0.22744 0.121713
354 4 0.258997 0.215061 0.134079
460 2 0.284249 0.232659 0.103466
462 4 0.300527 0.237878 0.085219
253 2 0.341727 0.243519 0.0966516
630 4 0.379532 0.252603 0.121589
628 2 0.38087 0.232487 0.136378
629 4 0.382208 0.21237 0.151167
537 4 0.071499 0.313372 0.134506
535 2 0.0698059 0.329623 0.153433
455 4 0.0915956 0.312792 0.130583
456 4 0.117433 0.332826 0.0927446
338 4 0.117346 0.263891 0.149246
363 4 0.11702 0.26861 0.169018
454 2 0.104514 0.322809 0.111664
353 4 0.234381 0.253104 0.155233
737 4 0.215501 0.262541 0.152431
755 4 0.232882 0.270486 0.142875
482 4 0.245359 0.318598 0.097112
754 2 0.242516 0.28774 0.127556
756 4 0.252151 0.304993 0.112236
252 4 0.263406 0.322957 0.108845
386 4 0.35183 0.316822 0.0895526
254 4 0.363211 0.245861 0.109227
624 4 0.381577 0.252951 0.0999959
741 4 0.406103 0.301848 0.100371
739 2 0.381862 0.306713 0.1041
740 4 0.357622 0.311578 0.107828
609 4 0.302061 0.367674 0.096116
387 4 0.317973 0.353159 0.0953885
250 2 0.28359 0.337667 0.110037
251 4 0.303773 0.352377 0.111228
385 2 0.334901 0.33499 0.0924705
11 1 0.405088 0.405622 0.135904
15 3 0.386373 0.392646 0.136082
14 3 0.415419 0.404332 0.115167
495 4 0.41088 0.404406 0.0962262
12 3 0.419704 0.39806 0.151977
493 2 0.429999 0.391741 0.0862655
595 2 0.460796 0.401014 0.12874
596 4 0.482648 0.399901 0.116639
597 4 0.438944 0.402126 0.14084
670 2 0.488989 0.363731 0.0842428
645 4 0.438797 0.400646 0.163797
315 4 0.022151 0.461313 0.0996536
620 4 0.00128294 0.461532 0.0953589
313 2 0.0460714 0.468504 0.0985174
314 4 0.0699918 0.475694 0.0973811
1467 4 0.0193548 0.492279 0.163188
1786 2 0.0940966 0.43991 0.0863201
1787 4 0.0861496 0.462694 0.0928711
1691 4 0.0883758 0.483866 0.0897613
1438 2 0.272916 0.48275 0.106235
1439 4 0.268244 0.492705 0.128691
637 2 0.262986 0.497769 0.166268
639 4 0.254102 0.495296 0.143027
525 4 0.370458 0.46709 0.135807
523 2 0.354435 0.485645 0.140726
13 3 0.399498 0.427644 0.140613
659 4 0.361855 0.457382 0.150828
2652 4 0.486878 0.417776 0.124722
688 2 0.133203 0.0833192 0.22341
689 4 0.114489 0.069299 0.232264
1402 2 0.109203 0.0339177 0.236151
1404 4 0.102478 0.013203 0.223869
675 4 0.104723 0.0725703 0.251583
23 3 0.321398 0.0833057 0.243959
22 3 0.336501 0.0504868 0.233592
1496 4 0.342303 0.030971 0.230795
1785 4 0.343199 0.0479795 0.163697
21 1 0.340963 0.0727429 0.237321
1783 2 0.346834 0.0664609 0.180141
757 2 0.391529 0.07433 0.215637
758 4 0.414975 0.0700472 0.223195
759 4 0.368084 0.0786127 0.208078
25 3 0.348739 0.0821578 0.218097
1495 2 0.357987 0.0194377 0.246485
312 4 0.433623 0.060371 0.219493
744 4 0.432738 0.0762576 0.233666
310 2 0.446709 0.0614907 0.198216
311 4 0.459795 0.0626103 0.17694
690 4 0.151917 0.0973395 0.214556
693 4 0.145508 0.104272 0.196695
691 2 0.15555 0.126996 0.199514
692 4 0.165593 0.14972 0.202332
723 4 0.18175 0.144212 0.213613
721 2 0.186442 0.149206 0.237659
1784 4 0.35047 0.0849422 0.196585
707 4 0.340724 0.135922 0.191852
706 2 0.350734 0.158812 0.190854
749 4 0.0505907 0.223244 0.179052
748 2 0.0639635 0.239556 0.192478
582 4 0.281296 0.179509 0.204744
285 4 0.282397 0.182098 0.224482
581 4 0.327059 0.195233 0.192125
580 2 0.304177 0.187371 0.198435
283 2 0.264716 0.194669 0.236913
30 3 0.340655 0.210629 0.186849
28 3 0.370524 0.230661 0.175703
27 3 0.367432 0.219245 0.211379
708 4 0.360744 0.181703 0.189857
29 3 0.374295 0.193881 0.184504
26 1 0.363081 0.213567 0.189516
750 4 0.0773363 0.255869 0.205904
396 4 0.0620387 0.264611 0.216658
394 2 0.0458345 0.272619 0.233934
442 2 0.00677467 0.307569 0.25017
361 2 0.124372 0.289242 0.181079
362 4 0.131723 0.309873 0.19314
372 4 0.14652 0.319485 0.20251
736 2 0.196399 0.27644 0.160626
738 4 0.177298 0.290339 0.16882
370 2 0.1707 0.318246 0.208753
371 4 0.19488 0.317006 0.214996
279 4 0.210521 0.303583 0.220566
612 4 0.214452 0.324454 0.218922
277 2 0.21998 0.297928 0.24301
765 4 0.379479 0.304491 0.221
763 2 0.363247 0.320642 0.231041
764 4 0.347015 0.336794 0.241081
542 4 0.384746 0.29149 0.235243
541 2 0.403848 0.277216 0.242763
536 4 0.0681128 0.345873 0.17236
300 4 0.119088 0.396673 0.248119
603 4 0.128329 0.410127 0.235997
610 2 0.225833 0.343478 0.207358
611 4 0.237214 0.362501 0.195793
417 4 0.250743 0.375769 0.203249
415 2 0.256256 0.398176 0.212878
438 4 0.322322 0.410969 0.243253
303 4 0.34192 0.400993 0.242895
301 2 0.346792 0.40174 0.218382
660 4 0.356962 0.416661 0.17944
302 4 0.351663 0.402488 0.193869
644 4 0.450058 0.392901 0.211901
643 2 0.444428 0.396773 0.187849
447 4 0.443577 0.39216 0.230838
445 2 0.43338 0.410853 0.243943
263 4 0.0178091 0.48294 0.182794
262 2 0.0262929 0.461562 0.1926
1757 4 0.0451496 0.436264 0.217245
264 4 0.0347767 0.440183 0.202407
1756 2 0.0425359 0.428791 0.240963
601 2 0.137273 0.43104 0.246383
1430 4 0.164328 0.488261 0.234361
1435 2 0.236194 0.444078 0.246749
1436 4 0.257466 0.438421 0.234887
436 2 0.299753 0.420679 0.238609
416 4 0.261768 0.420583 0.222507
437 4 0.277185 0.430389 0.233965
291 4 0.269125 0.439611 0.216458
289 2 0.275884 0.462023 0.207671
290 4 0.282642 0.484435 0.198884
658 2 0.359408 0.437022 0.165134
1802 4 0.402961 0.474303 0.247723
673 2 0.080414 0.0779686 0.253848
1403 4 0.115928 0.0546325 0.248433
249 4 0.158557 0.0727437 0.335501
604 2 0.212319 0.0010728 0.320713
1700 4 0.232027 0.060535 0.274837
1699 2 0.225234 0.0527141 0.297593
248 4 0.197973 0.0435175 0.325862
247 2 0.178265 0.0581306 0.330682
1701 4 0.218441 0.0448932 0.32035
605 4 0.209986 0.0255113 0.325456
1497 4 0.373671 0.00790441 0.262175
699 4 0.370318 0.0042077 0.282805
697 2 0.375865 0.0228634 0.298501
698 4 0.381413 0.0415192 0.314198
349 2 0.397063 0.0788485 0.304445
351 4 0.384424 0.06222 0.31819
24 3 0.356969 0.0744874 0.254029
257 4 0.392289 0.0475774 0.331758
478 2 0.490863 0.0613173 0.280845
1747 2 0.455889 0.012588 0.272259
1748 4 0.460331 0.0371658 0.271083
480 4 0.474112 0.0510226 0.265398
674 4 0.0561054 0.0833669 0.256113
398 4 0.00882616 0.147475 0.327426
397 2 0.0327402 0.146579 0.334672
545 4 0.161918 0.141918 0.320236
405 4 0.146845 0.133326 0.332555
544 2 0.17037 0.15074 0.298421
546 4 0.178823 0.159562 0.276605
722 4 0.191134 0.1542 0.261705
332 4 0.397487 0.156493 0.284383
331 2 0.401003 0.132248 0.279381
350 4 0.409702 0.095477 0.2907
333 4 0.404518 0.108003 0.274378
762 4 0.396023 0.165542 0.302485
742 2 0.428744 0.0885192 0.255087
743 4 0.42475 0.100781 0.276509
577 2 0.0192413 0.178997 0.258807
578 4 0.040216 0.192605 0.258579
391 2 0.0560232 0.208657 0.295691
393 4 0.0422848 0.200152 0.27661
392 4 0.0697617 0.217161 0.314773
2654 4 0.0628375 0.229273 0.329183
343 2 0.245821 0.249655 0.259248
284 4 0.247035 0.207241 0.249344
344 4 0.252572 0.226021 0.254659
614 4 0.390523 0.231777 0.310124
613 2 0.382991 0.241615 0.331841
760 2 0.399197 0.190341 0.3028
419 4 0.412046 0.233486 0.311198
761 4 0.402372 0.21514 0.303115
444 4 0.0307905 0.300626 0.249714
395 4 0.0296303 0.280627 0.251211
278 4 0.229438 0.292272 0.265454
309 4 0.225523 0.277294 0.279987
345 4 0.239069 0.273288 0.263837
307 2 0.238988 0.28772 0.298294
308 4 0.252453 0.298147 0.316602
497 4 0.264309 0.293825 0.333795
418 2 0.41982 0.246191 0.291115
2682 4 0.492827 0.243315 0.28213
521 4 0.440257 0.272159 0.258396
543 4 0.42295 0.262942 0.250283
520 2 0.462829 0.262302 0.262702
522 4 0.4854 0.252445 0.267008
420 4 0.427593 0.258895 0.271031
407 4 0.0212745 0.384317 0.330362
548 4 0.0145669 0.392752 0.314129
547 2 0.0313691 0.411192 0.312449
298 2 0.118727 0.378354 0.265132
734 4 0.135837 0.354675 0.280617
299 4 0.118367 0.360035 0.282146
733 2 0.142126 0.346296 0.30332
735 4 0.148415 0.337917 0.326023
729 4 0.332017 0.406941 0.262119
752 4 0.425312 0.402221 0.309872
561 4 0.433152 0.408807 0.327873
1758 4 0.0399222 0.421319 0.26468
777 4 0.0589979 0.442852 0.321027
775 2 0.079989 0.45622 0.318612
549 4 0.0481713 0.429632 0.310769
412 2 0.129418 0.451339 0.297356
413 4 0.115527 0.45428 0.317937
776 4 0.10098 0.469589 0.316198
414 4 0.14331 0.448397 0.276776
602 4 0.146216 0.451952 0.256769
1545 4 0.120325 0.473743 0.325338
1437 4 0.214923 0.449734 0.25861
435 4 0.334635 0.452359 0.32641
2 3 0.32334 0.480916 0.283465
727 2 0.35098 0.416448 0.275355
1575 4 0.386741 0.487959 0.245706
751 2 0.407206 0.417764 0.302405
4 3 0.339539 0.469006 0.31522
753 4 0.3891 0.433308 0.294938
728 4 0.369943 0.425955 0.288591
1 1 0.343339 0.479131 0.294691
5 3 0.357761 0.466533 0.282364
1803 4 0.381494 0.438673 0.275478
1801 2 0.392227 0.456488 0.2616
3 3 0.352095 0.500386 0.297841
1689 4 0.404209 0.493467 0.256916
446 4 0.423183 0.429547 0.257049
2862 4 0.495249 0.442138 0.280741
713 4 0.43273 0.443487 0.268775
712 2 0.455432 0.449348 0.277461
714 4 0.478135 0.455209 0.286146
231 4 0.460539 0.472819 0.327772
229 2 0.449293 0.493252 0.318762
119 3 0.475971 0.457574 0.32816
120 3 0.498944 0.454736 0.298465
233 4 0.0135564 0.0552969 0.378441
318 4 0.069916 0.0677796 0.391383
234 4 0.057863 0.0564398 0.4016
232 2 0.0357097 0.0558683 0.390021
1376 4 0.998111 0.0449449 0.367597
1464 4 0.133898 0.0154225 0.34846
316 2 0.0899028 0.0594413 0.40388
427 2 0.103109 0.00604773 0.416255
428 4 0.101204 0.0309752 0.416666
684 4 0.268558 0.076232 0.396944
632 4 0.279838 0.0411228 0.340001
631 2 0.297797 0.0254267 0.347504
682 2 0.268099 0.0633782 0.375502
683 4 0.267639 0.0505243 0.35406
633 4 0.315756 0.00973062 0.355007
1182 4 0.27578 0.0762891 0.417008
256 2 0.408069 0.0445184 0.35091
2643 4 0.500029 0.0480854 0.352267
258 4 0.423849 0.0414594 0.370063
424 2 0.425806 0.0148542 0.408154
514 2 0.423766 0.0743536 0.398018
425 4 0.422608 0.0313794 0.389665
452 4 0.490186 0.0413894 0.369
451 2 0.466109 0.0382051 0.374944
453 4 0.442032 0.0350208 0.380889
515 4 0.430816 0.0522336 0.388734
399 4 0.0566542 0.145684 0.341917
732 4 0.0598057 0.141983 0.360884
730 2 0.0813456 0.147846 0.372146
600 4 0.150647 0.154033 0.334978
403 2 0.158502 0.111224 0.333454
598 2 0.130412 0.156285 0.349492
685 2 0.123923 0.166152 0.403325
731 4 0.102886 0.153709 0.383409
599 4 0.110177 0.158537 0.364006
404 4 0.170159 0.0891224 0.334353
319 2 0.264927 0.111214 0.408317
467 4 0.267732 0.148213 0.387886
321 4 0.271632 0.135052 0.404857
899 4 0.266608 0.155662 0.408025
320 4 0.258223 0.0873762 0.411777
516 4 0.416717 0.0964736 0.407302
574 2 0.429178 0.129995 0.399133
576 4 0.43318 0.147782 0.382021
305 4 0.443746 0.154427 0.36765
575 4 0.425175 0.112209 0.416244
2653 2 0.0444965 0.239964 0.342393
617 4 0.083408 0.241388 0.388107
686 4 0.114946 0.171154 0.380531
388 2 0.11402 0.228963 0.366279
390 4 0.0895959 0.231923 0.370738
389 4 0.138444 0.226003 0.36182
275 4 0.148101 0.229509 0.342587
401 4 0.146142 0.245388 0.356685
274 2 0.16498 0.211234 0.340073
276 4 0.181859 0.19296 0.337559
474 4 0.189432 0.183826 0.354243
472 2 0.213174 0.18974 0.359393
473 4 0.236916 0.195654 0.364543
410 4 0.253186 0.209195 0.366182
468 4 0.257455 0.189027 0.36088
466 2 0.262593 0.16862 0.374383
409 2 0.261025 0.225466 0.383473
411 4 0.268865 0.241737 0.400764
717 4 0.354569 0.246181 0.411511
615 4 0.375458 0.251454 0.353558
715 2 0.360833 0.241402 0.387782
716 4 0.367098 0.236623 0.364052
488 4 0.334408 0.245779 0.419744
304 2 0.448456 0.178551 0.363063
269 4 0.440614 0.215179 0.366785
306 4 0.453167 0.202675 0.358477
268 2 0.43104 0.224651 0.387852
270 4 0.421466 0.234122 0.408918
616 2 0.0784134 0.25434 0.408903
2655 4 0.0261554 0.250654 0.355603
400 2 0.156482 0.263844 0.370013
402 4 0.166822 0.282299 0.383342
375 4 0.17781 0.278159 0.400218
373 2 0.200453 0.288683 0.40152
374 4 0.223097 0.299208 0.402822
510 4 0.23459 0.296889 0.384465
378 4 0.244491 0.298835 0.403336
508 2 0.239795 0.299934 0.3602
509 4 0.245001 0.302978 0.335934
498 4 0.309446 0.315331 0.332832
496 2 0.286878 0.304578 0.333313
376 2 0.256285 0.277708 0.409639
377 4 0.26808 0.256581 0.415942
406 2 0.00295047 0.37634 0.345387
677 4 0.161976 0.347656 0.337263
502 2 0.145027 0.402567 0.411252
676 2 0.158047 0.364542 0.35528
503 4 0.157606 0.39362 0.391582
678 4 0.154119 0.381428 0.373296
650 4 0.173483 0.381083 0.382369
649 2 0.195688 0.375037 0.392144
651 4 0.217893 0.368991 0.40192
669 4 0.396413 0.382739 0.407527
336 4 0.382462 0.379262 0.39239
334 2 0.372131 0.361971 0.407205
667 2 0.418218 0.391204 0.39869
559 2 0.44258 0.402815 0.350242
560 4 0.452009 0.396824 0.372611
668 4 0.440022 0.399669 0.389853
588 4 0.461393 0.39713 0.391747
586 2 0.479141 0.408715 0.405012
3959 4 0.00697315 0.500018 0.339523
1543 2 0.121822 0.488149 0.34572
433 2 0.312264 0.453216 0.337544
434 4 0.289893 0.454073 0.348678
3990 4 0.467712 0.465179 0.347529
593 4 0.466435 0.499729 0.404139
3989 4 0.476955 0.496026 0.385788
3988 2 0.472333 0.480602 0.366658
317 4 0.10989 0.0511031 0.416378
1781 4 0.116999 0.036347 0.429926
1780 2 0.138637 0.0372199 0.442424
1782 4 0.160276 0.0380928 0.454921
368 4 0.131628 0.0824055 0.478137
2430 4 0.170832 0.0387667 0.473642
341 4 0.172641 0.0549942 0.45926
2428 2 0.176869 0.0337672 0.497385
340 2 0.176563 0.0793744 0.455336
1180 2 0.287972 0.0667242 0.436631
1181 4 0.300165 0.0571594 0.456253
963 4 0.285256 0.0470742 0.468056
432 4 0.306352 0.0418337 0.470333
961 2 0.282464 0.0421261 0.492405
430 2 0.330622 0.0386638 0.465227
842 4 0.410714 0.00228428 0.438557
431 4 0.354893 0.0354939 0.46012
841 2 0.38853 0.0099449 0.447181
843 4 0.366346 0.0176055 0.455805
426 4 0.429005 0.998329 0.426644
1216 2 0.439487 0.012226 0.469338
1218 4 0.448925 0.0211728 0.490694
1217 4 0.43005 0.00327919 0.447982
457 2 0.0156781 0.152432 0.456823
719 4 0.0286811 0.124247 0.472539
459 4 0.0362475 0.139883 0.463501
938 4 0.0783098 0.163225 0.485807
939 4 0.0946731 0.130597 0.451626
937 2 0.0864914 0.146911 0.468717
687 4 0.132901 0.161151 0.426119
367 2 0.115593 0.0961717 0.464776
369 4 0.0995569 0.109938 0.451415
1151 4 0.144674 0.158487 0.44199
1150 2 0.1593 0.138364 0.43948
342 4 0.180486 0.103755 0.451412
1152 4 0.173926 0.11824 0.43697
898 2 0.267617 0.164137 0.431526
261 4 0.0777819 0.239312 0.493525
259 2 0.0743968 0.252482 0.472543
1035 4 0.081735 0.21916 0.500542
1033 2 0.0880009 0.195015 0.49882
1034 4 0.0942667 0.170871 0.497098
900 4 0.268625 0.172612 0.455028
487 2 0.30952 0.244051 0.418087
489 4 0.284631 0.242322 0.416429
267 4 0.350773 0.237791 0.430825
813 4 0.384541 0.214468 0.477202
266 4 0.376188 0.207238 0.461178
265 2 0.363481 0.222515 0.446002
811 2 0.382982 0.224851 0.499894
2924 4 0.423757 0.246622 0.424922
2847 4 0.000908952 0.29052 0.473203
618 4 0.0734187 0.267292 0.429699
260 4 0.0710117 0.265652 0.451561
347 4 0.0877934 0.276476 0.443018
346 2 0.106219 0.292824 0.447313
348 4 0.124644 0.309171 0.451607
10 3 0.136186 0.323006 0.459537
9 3 0.164001 0.33414 0.482341
1259 4 0.167212 0.314452 0.489713
238 2 0.366687 0.311169 0.441313
2925 4 0.391738 0.276723 0.448785
239 4 0.376536 0.288292 0.443508
2923 2 0.407748 0.261673 0.436853
584 4 0.459439 0.330286 0.476204
2456 4 0.476636 0.327115 0.48643
583 2 0.443034 0.316735 0.489336
2814 4 0.00617784 0.338246 0.41735
6 1 0.148687 0.340823 0.46624
8 3 0.159807 0.349984 0.448051
7 3 0.134851 0.356802 0.475316
504 4 0.132448 0.411514 0.430921
711 4 0.138979 0.375154 0.477842
709 2 0.13239 0.395089 0.464263
710 4 0.125802 0.415024 0.450685
335 4 0.3618 0.34468 0.42202
240 4 0.356839 0.334046 0.439118
539 4 0.042743 0.456237 0.490004
383 4 0.0471536 0.471668 0.475139
382 2 0.0547197 0.495321 0.47223
681 4 0.0570357 0.452799 0.474685
679 2 0.0741984 0.436169 0.48204
680 4 0.091361 0.41954 0.489394
634 2 0.211339 0.49252 0.485716
635 4 0.197184 0.478777 0.470356
772 2 0.182875 0.452408 0.45466
773 4 0.18625 0.433742 0.438371
774 4 0.1795 0.471075 0.47095
1910 4 0.477324 0.463459 0.486206
663 4 0.486957 0.437524 0.427481
661 2 0.4784 0.444428 0.449937
662 4 0.469844 0.451331 0.472394
587 4 0.49689 0.4203 0.418277
1909 2 0.474279 0.485731 0.497155
2429 4 0.182905 0.0287677 0.521128
1059 4 0.21614 0.0785094 0.584495
962 4 0.279672 0.037178 0.516755
1090 2 0.334159 0.00535798 0.57642
1091 4 0.347409 0.0128965 0.556601
2196 4 0.347046 0.0280047 0.543687
2194 2 0.348729 0.0131092 0.523675
1060 2 0.487129 0.0267286 0.562466
810 4 0.479701 0.0664082 0.55062
1062 4 0.478122 0.050044 0.561811
1061 4 0.496137 0.00341319 0.563121
720 4 0.0302587 0.110137 0.520488
718 2 0.0294699 0.117192 0.496513
327 4 0.0622509 0.24589 0.574374
696 4 0.0773704 0.244296 0.558538
695 4 0.0900262 0.236545 0.510784
694 2 0.0836983 0.24042 0.534661
857 4 0.216094 0.232928 0.519945
796 2 0.247548 0.240965 0.576785
953 4 0.391452 0.242549 0.539952
812 4 0.381422 0.235234 0.522587
791 4 0.369776 0.243042 0.539431
952 2 0.408663 0.227678 0.550336
954 4 0.425874 0.212807 0.56072
905 4 0.438088 0.199705 0.571117
904 2 0.448968 0.180316 0.582558
3066 4 0.495586 0.247752 0.515491
878 4 0.0830989 0.25166 0.57765
982 2 0.0102412 0.296069 0.550995
984 4 0.032697 0.295021 0.561941
326 4 0.0441711 0.2922 0.579782
1136 4 0.0525077 0.303044 0.563207
325 2 0.053211 0.269045 0.577078
1135 2 0.0688888 0.320425 0.55581
856 2 0.202089 0.252823 0.525708
1260 4 0.193614 0.291712 0.52558
858 4 0.188083 0.272718 0.531472
797 4 0.245477 0.261957 0.56336
1258 2 0.180413 0.303082 0.507647
1238 4 0.321226 0.277965 0.572701
792 4 0.331082 0.264714 0.562536
1237 2 0.325448 0.30157 0.579783
873 4 0.380952 0.256476 0.52709
790 2 0.350429 0.253878 0.550984
871 2 0.395241 0.274826 0.51791
872 4 0.409531 0.293175 0.508729
2455 2 0.493476 0.336582 0.502302
585 4 0.426629 0.303183 0.502467
3353 4 0.00119037 0.382806 0.545438
936 4 0.0185959 0.38162 0.556033
934 2 0.0287867 0.401492 0.567277
1137 4 0.0852699 0.337807 0.548412
991 2 0.139775 0.393739 0.579179
993 4 0.123096 0.410001 0.570094
1159 2 0.110836 0.409893 0.524817
1040 4 0.102092 0.412244 0.563645
1161 4 0.117303 0.410028 0.548969
929 4 0.320084 0.344332 0.594297
928 2 0.33875 0.357294 0.58387
882 4 0.358109 0.387476 0.564605
930 4 0.357416 0.370257 0.573443
880 2 0.356916 0.412449 0.564867
925 2 0.480323 0.402667 0.535511
926 4 0.462574 0.389289 0.524059
1039 2 0.0805105 0.419243 0.574154
3430 2 0.038944 0.459951 0.575445
3431 4 0.0348211 0.480058 0.561166
935 4 0.0389775 0.421364 0.578522
4434 4 0.0140402 0.48518 0.559928
538 2 0.0275495 0.450408 0.508988
4251 4 0.0277103 0.493215 0.545178
540 4 0.0123559 0.44458 0.527971
1041 4 0.0589291 0.426241 0.584663
1160 4 0.104369 0.409758 0.500664
1455 4 0.332015 0.490409 0.530532
1453 2 0.338085 0.471621 0.545872
1454 4 0.344155 0.452832 0.561212
881 4 0.355723 0.437423 0.565129
4086 4 0.47807 0.500905 0.577916
927 4 0.498073 0.416046 0.546963
1183 2 0.0236389 0.07046 0.652125
1891 2 0.0138667 0.0256254 0.616584
1184 4 0.00945207 0.0505861 0.646746
1893 4 0.0286094 0.0135871 0.600369
945 4 0.0955529 0.0906308 0.639015
1284 4 0.217141 0.0677943 0.600726
1282 2 0.233905 0.0494222 0.603297
2131 2 0.245335 0.0240399 0.650488
1032 4 0.306634 0.00933879 0.608817
1283 4 0.250669 0.0310501 0.605868
2132 4 0.253374 0.0245249 0.626817
1031 4 0.267504 0.039275 0.617381
1030 2 0.287069 0.0243069 0.613099
1185 4 0.0378257 0.090334 0.657505
1081 2 0.0205677 0.126743 0.652819
943 2 0.0742458 0.0977193 0.650012
944 4 0.0529386 0.104808 0.661009
1083 4 0.00832113 0.143794 0.639237
1082 4 0.0328142 0.109692 0.666401
1057 2 0.203043 0.0964517 0.595971
1058 4 0.189945 0.114394 0.607448
1155 4 0.181406 0.126659 0.622829
1153 2 0.182909 0.150902 0.616895
909 4 0.196846 0.111524 0.627384
907 2 0.202275 0.11146 0.651791
831 4 0.359612 0.0972685 0.613874
830 4 0.346742 0.143956 0.626339
829 2 0.353177 0.120612 0.620106
887 4 0.338615 0.156809 0.641726
1194 4 0.350973 0.140391 0.647279
1026 4 0.454534 0.143378 0.658323
1024 2 0.456171 0.146284 0.633543
1143 4 0.447785 0.125733 0.668539
1025 4 0.457809 0.14919 0.608763
906 4 0.459847 0.160927 0.593998
1209 4 0.0457224 0.242982 0.662453
1245 4 0.0313032 0.22745 0.666008
1243 2 0.00826282 0.236196 0.661785
877 2 0.0956473 0.233825 0.589883
1272 4 0.128737 0.214316 0.606391
1270 2 0.151412 0.204077 0.608873
879 4 0.108196 0.215991 0.602116
948 4 0.140967 0.236312 0.662478
1154 4 0.184413 0.175144 0.61096
1271 4 0.174088 0.193838 0.611355
1221 4 0.19571 0.193154 0.610618
1219 2 0.219406 0.196656 0.603447
1220 4 0.243102 0.200158 0.596276
1212 4 0.263486 0.20312 0.590047
886 2 0.319985 0.167036 0.628554
798 4 0.249619 0.219973 0.590209
888 4 0.301354 0.177263 0.615382
1211 4 0.291488 0.16398 0.603636
1210 2 0.277487 0.18355 0.596841
804 4 0.311116 0.325076 0.598942
1239 4 0.32967 0.325175 0.586864
992 4 0.156453 0.377476 0.588264
1068 4 0.153161 0.361011 0.649424
1066 2 0.129111 0.361176 0.65626
1067 4 0.105061 0.361341 0.663096
897 4 0.161847 0.370445 0.607055
1028 4 0.169754 0.357257 0.659852
1191 4 0.214196 0.342565 0.622332
896 4 0.209252 0.35456 0.608089
895 2 0.18555 0.362502 0.607572
1189 2 0.236801 0.353205 0.623315
802 2 0.291107 0.338129 0.606322
803 4 0.271099 0.351181 0.613702
1190 4 0.259407 0.363845 0.624297
3113 4 0.503674 0.369635 0.646661
3432 4 0.0430669 0.439844 0.589724
3494 4 0.999858 0.438885 0.638742
3264 4 0.0440676 0.421163 0.5997
3263 4 0.0140066 0.422531 0.63964
3239 4 0.0142993 0.438082 0.654271
3262 2 0.0290371 0.421847 0.61967
3238 2 0.0275278 0.455941 0.665727
1187 4 0.250987 0.497016 0.596889
2436 4 0.255608 0.478445 0.593178
1173 4 0.322802 0.486084 0.605127
1171 2 0.324709 0.474335 0.627116
2435 4 0.305214 0.484764 0.59313
2434 2 0.280411 0.481605 0.593154
891 4 0.32189 0.458817 0.667824
1172 4 0.326616 0.462587 0.649105
3183 4 0.463975 0.492626 0.591628
1204 2 0.491033 0.438003 0.638221
3181 2 0.482238 0.477098 0.598736
1205 4 0.479333 0.432908 0.659723
1269 4 0.474534 0.453574 0.662911
2255 4 0.173476 0.0102897 0.722065
2133 4 0.237297 0.0235549 0.67416
824 4 0.220251 0.0149613 0.673106
825 4 0.185809 0.00226071 0.707064
823 2 0.20303 0.00861099 0.690085
42 3 0.491848 0.0376909 0.703669
43 3 0.45742 0.044749 0.716994
846 4 0.451191 0.0604192 0.728212
44 3 0.47605 0.0711284 0.696958
41 1 0.471968 0.0484063 0.699292
45 3 0.463045 0.0400982 0.680057
844 2 0.442252 0.0530114 0.750357
1076 4 0.0436146 0.0953684 0.677878
1077 4 0.0381883 0.114651 0.723698
1075 2 0.0409014 0.10501 0.700788
864 4 0.0214321 0.122745 0.729977
1105 2 0.0703695 0.162229 0.720504
1072 2 0.128822 0.144329 0.713586
1074 4 0.148695 0.149286 0.699245
1073 4 0.108949 0.139373 0.727928
1106 4 0.0929873 0.154804 0.728151
1215 4 0.0952867 0.140317 0.7455
908 4 0.207704 0.111396 0.676198
1227 4 0.220249 0.120636 0.68874
1226 4 0.229846 0.114398 0.737419
1225 2 0.225047 0.117517 0.71308
1130 4 0.216755 0.130611 0.743926
1148 4 0.209627 0.110177 0.742573
1192 2 0.363256 0.150115 0.666766
1193 4 0.375538 0.159839 0.686254
1262 4 0.394774 0.162384 0.679595
1142 4 0.465411 0.0864524 0.693976
1263 4 0.441443 0.144874 0.675574
1141 2 0.456598 0.106093 0.681257
3424 2 0.492603 0.15572 0.706017
1261 2 0.418109 0.153629 0.677584
852 4 0.0516924 0.224313 0.671484
1107 4 0.0477518 0.169655 0.712856
1177 2 0.0140773 0.168585 0.701723
1178 4 0.0349429 0.182355 0.701288
850 2 0.0537554 0.20303 0.684445
851 4 0.0558183 0.181747 0.697405
946 2 0.120798 0.246282 0.673386
1298 4 0.226711 0.250013 0.746853
1084 2 0.299584 0.240495 0.741291
1085 4 0.31217 0.219597 0.74677
3270 4 0.473496 0.19468 0.722829
3426 4 0.48282 0.177317 0.713958
1146 4 0.475357 0.193928 0.701511
1145 4 0.490766 0.230839 0.671497
1144 2 0.483061 0.212384 0.686504
3268 2 0.457724 0.188375 0.741178
1207 2 0.0663043 0.255939 0.668257
821 4 0.0757312 0.289747 0.738696
1208 4 0.0868862 0.268895 0.674062
947 4 0.100629 0.256252 0.684294
820 2 0.0808032 0.278284 0.717062
822 4 0.0858752 0.266821 0.695428
1242 4 0.0912504 0.283439 0.750338
1297 2 0.248343 0.257451 0.736758
1086 4 0.286998 0.261394 0.735812
1299 4 0.269975 0.26489 0.726664
1096 2 0.328768 0.328296 0.740711
1098 4 0.33482 0.321951 0.717295
816 4 0.000350198 0.38426 0.705883
892 2 0.070554 0.408214 0.736429
893 4 0.0682721 0.38504 0.727323
815 4 0.0491954 0.385672 0.716506
814 2 0.0247728 0.384966 0.711194
942 4 0.0661264 0.374059 0.709332
940 2 0.0764309 0.364374 0.688712
941 4 0.0867354 0.354688 0.668092
1027 2 0.189895 0.362487 0.673714
1029 4 0.210037 0.367717 0.687576
1139 4 0.230255 0.374545 0.687658
1063 2 0.230339 0.3568 0.727199
1065 4 0.222069 0.366006 0.705473
1138 2 0.236763 0.398615 0.689525
1064 4 0.238608 0.347594 0.748926
1101 4 0.433064 0.408181 0.697865
894 4 0.0728358 0.431389 0.745535
3240 4 0.0407563 0.4738 0.677184
2172 4 0.0538332 0.484244 0.691028
1279 2 0.0477307 0.454778 0.717865
1280 4 0.055122 0.441386 0.737643
1281 4 0.0403394 0.46817 0.698086
1140 4 0.24327 0.422685 0.691392
2016 4 0.191818 0.490477 0.735155
1176 4 0.189265 0.494697 0.714057
890 4 0.310756 0.500218 0.693568
889 2 0.316323 0.479517 0.680696
1099 2 0.449855 0.423328 0.687196
1100 4 0.466646 0.438474 0.676527
1267 2 0.474706 0.474624 0.676403
1268 4 0.474879 0.495674 0.689896
1201 2 0.0726116 0.0113138 0.760444
1196 4 0.0738201 0.0136153 0.796969
1195 2 0.0772994 0.00475231 0.820089
1203 4 0.0687297 0.0261014 0.780229
911 4 0.085973 0.0307096 0.792332
910 2 0.101424 0.0501018 0.795555
912 4 0.116875 0.0694939 0.798778
1287 4 0.133386 0.0729618 0.813568
1285 2 0.144607 0.0793343 0.834984
2400 4 0.324277 0.0273806 0.768864
2398 2 0.338032 0.0478086 0.773185
1049 4 0.362907 0.0700726 0.796517
1111 2 0.395722 0.0533956 0.782949
2399 4 0.351787 0.0682365 0.777507
1112 4 0.373358 0.0636223 0.778428
1113 4 0.418086 0.0431689 0.787471
845 4 0.433313 0.0456037 0.772502
980 4 0.438201 0.0468137 0.793355
979 2 0.438075 0.0341173 0.814895
981 4 0.43795 0.0214209 0.836435
152 3 0.0155881 0.154739 0.829555
34 3 0.0808289 0.0897121 0.805977
1214 4 0.106218 0.138069 0.794246
33 3 0.100866 0.12199 0.804944
1213 2 0.100753 0.139193 0.769873
31 1 0.0991731 0.100976 0.814638
32 3 0.118212 0.0890035 0.809807
1149 4 0.182438 0.0884419 0.778476
1147 2 0.196032 0.0993097 0.760525
1129 2 0.223509 0.14943 0.758938
1005 4 0.272175 0.136665 0.766939
1003 2 0.2899 0.152989 0.773612
838 2 0.283815 0.129164 0.824027