ITEM: TIMESTEP
1410000
ITEM: NUMBER OF ATOMS
4590
ITEM: BOX BOUNDS pp pp pp
-9.9985700000000008e+00 9.9985700000000008e+00
-9.9985700000000008e+00 9.9985700000000008e+00
-9.9985700000000008e+00 9.9985700000000008e+00
ITEM: ATOMS id type xs ys zs
1668 4 0.0713748 0.0455611 0.061229
1666 2 0.0744109 0.0697476 0.0556636
3290 4 0.992742 0.991433 0.995497
421 2 0.153016 0.0861362 0.996835
1804 2 0.0822723 0.0120912 0.0798311
1475 4 0.235299 0.999786 0.0476449
1474 2 0.22329 0.990808 0.067654
534 4 0.191777 0.0172878 0.00610366
490 2 0.293144 0.0399765 0.0195027
491 4 0.285132 0.0412319 0.0431543
653 4 0.277026 0.0551995 0.0548938
652 2 0.293547 0.0609391 0.0727624
492 4 0.301157 0.0387212 0.995851
297 4 0.382525 0.0293653 0.0646904
295 2 0.388958 0.0497353 0.0776846
987 4 0.400713 0.0341028 0.0101401
2974 2 0.496554 0.0526116 0.00577077
747 4 0.467806 0.0749669 0.00408253
589 2 0.0398014 0.109155 0.034451
590 4 0.0176942 0.109626 0.0227794
591 4 0.0619087 0.108684 0.0461225
1667 4 0.0774469 0.0939341 0.0500981
1248 4 0.00103164 0.101127 0.0127173
702 4 0.0799371 0.1142 0.0566183
422 4 0.156575 0.104579 0.0133383
700 2 0.101772 0.116732 0.068535
701 4 0.123607 0.119264 0.0804517
236 4 0.136919 0.135787 0.0839923
449 4 0.144675 0.115613 0.0801971
567 4 0.250011 0.140202 0.0733769
565 2 0.253842 0.156193 0.0545405
359 4 0.261915 0.161589 0.0190314
566 4 0.257672 0.172183 0.0357041
557 4 0.374742 0.136008 0.018066
556 2 0.390567 0.148509 0.0328466
558 4 0.406392 0.161011 0.0476271
746 4 0.442265 0.117513 0.0102619
745 2 0.455036 0.0962402 0.00717219
477 4 0.0673514 0.193696 0.0808645
914 4 0.152888 0.233452 0.0126125
506 4 0.153626 0.248134 0.999307
913 2 0.142973 0.211276 0.00668893
915 4 0.133059 0.1891 0.000765325
571 2 0.359855 0.213424 0.0141793
573 4 0.360303 0.235926 0.0250715
666 4 0.348496 0.176311 0.012266
572 4 0.359406 0.190922 0.00328707
1071 4 0.363355 0.245071 0.00774208
769 2 0.46125 0.239184 0.037546
770 4 0.446671 0.221534 0.0274904
292 2 0.143489 0.292832 0.0603441
293 4 0.154089 0.294356 0.0377499
294 4 0.132889 0.291307 0.0829384
288 4 0.164737 0.311262 0.0305257
507 4 0.160763 0.294183 0.0174518
505 2 0.157195 0.271159 0.00837927
286 2 0.180861 0.329979 0.0343781
1069 2 0.36802 0.269294 0.00365771
957 4 0.363774 0.31134 0.00143986
1070 4 0.372685 0.293516 0.999573
771 4 0.475829 0.256834 0.0476016
323 4 0.461361 0.260155 0.0650778
518 4 0.482159 0.252931 0.0685901
322 2 0.44885 0.264395 0.0863067
551 4 0.0619645 0.390589 0.0309874
621 4 0.994075 0.374955 0.0890597
481 2 0.223144 0.337281 0.0695508
483 4 0.212529 0.340358 0.0471226
287 4 0.196986 0.348696 0.0382305
280 2 0.449514 0.364251 0.0278498
282 4 0.46126 0.3676 0.0060328
281 4 0.437767 0.360902 0.0496669
671 4 0.452939 0.346809 0.0559871
670 2 0.463509 0.338241 0.0769642
552 4 0.0679513 0.432684 0.0573101
550 2 0.0649579 0.411637 0.0441488
315 4 0.0695911 0.447145 0.0724956
627 4 0.234012 0.468225 0.045115
625 2 0.249862 0.459659 0.0624515
626 4 0.265713 0.451093 0.0797881
246 4 0.315767 0.481585 0.0276929
272 4 0.326089 0.493191 0.0165367
244 2 0.323594 0.458634 0.03379
245 4 0.331421 0.435683 0.0398872
563 4 0.422597 0.48726 0.0177816
562 2 0.439986 0.476912 0.00309552
18 3 0.0223138 0.0790078 0.145921
2481 4 0.0208205 0.0805892 0.165783
1805 4 0.0794903 0.0180675 0.10395
19 3 0.0509097 0.0793414 0.12089
2479 2 0.0125491 0.0571637 0.168612
1476 4 0.21128 0.981831 0.0876631
654 4 0.310069 0.0666787 0.090631
296 4 0.395392 0.0701053 0.0906788
476 4 0.0787776 0.149171 0.100553
17 3 0.0243109 0.10587 0.119708
16 1 0.0367218 0.0924861 0.133708
20 3 0.048894 0.10561 0.147789
448 2 0.154514 0.0946171 0.0895547
450 4 0.164353 0.0736215 0.0989123
581 4 0.281712 0.142373 0.162705
630 4 0.411444 0.160233 0.145294
254 4 0.393273 0.153206 0.147116
253 2 0.371509 0.162716 0.139303
475 2 0.0730645 0.171433 0.0907089
235 2 0.139426 0.160194 0.0888088
339 4 0.105227 0.20208 0.114312
337 2 0.107976 0.218479 0.132986
338 4 0.110724 0.234877 0.15166
237 4 0.141933 0.184601 0.0936254
363 4 0.1208 0.250896 0.155402
738 4 0.204573 0.238522 0.13509
461 4 0.311346 0.214843 0.101146
354 4 0.300201 0.230711 0.105882
460 2 0.330161 0.200035 0.108351
352 2 0.279775 0.245085 0.104725
255 4 0.349744 0.172227 0.13149
462 4 0.348976 0.185227 0.115555
628 2 0.424887 0.176879 0.132356
629 4 0.43833 0.193526 0.119419
704 4 0.998733 0.318576 0.152161
454 2 0.130193 0.3074 0.122138
456 4 0.130552 0.306366 0.0971584
455 4 0.129833 0.308433 0.147118
537 4 0.13028 0.324618 0.160608
736 2 0.222312 0.251913 0.123636
737 4 0.240052 0.265304 0.112183
756 4 0.247018 0.326753 0.107238
754 2 0.252073 0.302456 0.110285
755 4 0.257128 0.27816 0.113332
353 4 0.259349 0.259459 0.103568
741 4 0.382733 0.313773 0.108107
622 2 0.404336 0.290349 0.116645
624 4 0.379861 0.295425 0.116013
739 2 0.360381 0.324976 0.108355
740 4 0.338029 0.336179 0.108603
324 4 0.436338 0.268635 0.107536
623 4 0.42881 0.285274 0.117277
526 2 0.500636 0.312496 0.115579
528 4 0.483285 0.330495 0.115914
672 4 0.47408 0.329674 0.0979413
527 4 0.517988 0.294496 0.115243
619 2 0.00363684 0.379033 0.1118
620 4 0.0131991 0.38311 0.13454
648 4 0.0224572 0.399994 0.140982
646 2 0.0343834 0.414245 0.157711
482 4 0.233759 0.334204 0.091979
252 4 0.238437 0.346233 0.109356
607 2 0.276173 0.412111 0.0925649
251 4 0.278049 0.37672 0.110811
250 2 0.258243 0.361477 0.110083
609 4 0.282823 0.388008 0.0925053
387 4 0.295825 0.388766 0.109321
385 2 0.31152 0.369766 0.113542
386 4 0.327215 0.350765 0.117764
494 4 0.369531 0.399189 0.116193
493 2 0.390749 0.386408 0.119602
495 4 0.411967 0.373627 0.123011
14 3 0.423638 0.360058 0.131222
15 3 0.458909 0.358348 0.144287
11 1 0.436959 0.359648 0.150217
595 2 0.467125 0.404794 0.148159
12 3 0.433472 0.378994 0.162164
2652 4 0.495119 0.40631 0.118507
597 4 0.45143 0.393904 0.164291
596 4 0.48282 0.415684 0.132026
314 4 0.0354202 0.453044 0.108527
313 2 0.0525056 0.450095 0.0905114
1438 2 0.243828 0.493743 0.112918
608 4 0.269523 0.436214 0.0926244
1439 4 0.255055 0.471589 0.115809
637 2 0.265916 0.459883 0.152561
639 4 0.26965 0.466711 0.128799
525 4 0.36458 0.456012 0.163188
523 2 0.356868 0.476187 0.150592
659 4 0.366989 0.443842 0.179517
2480 4 0.00427769 0.0337381 0.171441
674 4 0.0843153 0.0641333 0.234074
673 2 0.10077 0.0464229 0.227689
675 4 0.117225 0.0287125 0.221305
1403 4 0.129982 0.0125225 0.227287
689 4 0.132766 0.0328298 0.235607
688 2 0.154815 0.0446159 0.235946
693 4 0.183182 0.070835 0.223837
690 4 0.176864 0.056402 0.236285
23 3 0.336686 0.0438539 0.216796
21 1 0.350749 0.0416852 0.235125
25 3 0.370527 0.0324067 0.22869
759 4 0.383233 0.0423043 0.214101
1784 4 0.367474 0.0248711 0.208997
1783 2 0.370696 0.0114617 0.188141
24 3 0.354509 0.062471 0.244728
757 2 0.403822 0.0547699 0.220871
758 4 0.424412 0.0672355 0.227642
744 4 0.436591 0.0828067 0.238595
312 4 0.442571 0.0754729 0.218908
511 2 0.0252761 0.138685 0.237453
512 4 0.0147155 0.134231 0.215231
722 4 0.153876 0.166024 0.236536
721 2 0.16101 0.149 0.21967
723 4 0.168144 0.131976 0.202804
692 4 0.174375 0.119448 0.216096
691 2 0.178779 0.0951415 0.219966
582 4 0.271434 0.17025 0.202929
580 2 0.276573 0.156312 0.182817
30 3 0.3014 0.143439 0.217356
27 3 0.328434 0.15741 0.19575
26 1 0.323645 0.148197 0.216276
29 3 0.329296 0.163432 0.232839
28 3 0.336035 0.128746 0.218843
708 4 0.343082 0.167076 0.245451
311 4 0.440431 0.101448 0.17623
310 2 0.441501 0.0884604 0.197569
546 4 0.14449 0.176449 0.249769
343 2 0.254791 0.249764 0.243387
344 4 0.255385 0.225148 0.247732
285 4 0.253903 0.16769 0.211385
284 4 0.25653 0.21352 0.23122
283 2 0.255217 0.190605 0.221302
395 4 0.995921 0.294706 0.232213
394 2 0.0117232 0.27546 0.234459
396 4 0.0275258 0.256214 0.236705
750 4 0.0429034 0.260937 0.247416
361 2 0.122988 0.26495 0.175966
372 4 0.143774 0.284629 0.193352
362 4 0.125176 0.279004 0.196531
370 2 0.162909 0.294588 0.205993
371 4 0.182045 0.304548 0.218635
279 4 0.193453 0.307307 0.236494
277 2 0.213633 0.292997 0.240124
612 4 0.186935 0.324712 0.22566
278 4 0.233813 0.278687 0.243753
345 4 0.254196 0.27438 0.239041
2692 2 0.0216768 0.374543 0.252286
535 2 0.113409 0.333455 0.176809
536 4 0.096539 0.342292 0.19301
300 4 0.144771 0.418694 0.214187
298 2 0.147411 0.395403 0.222892
299 4 0.150051 0.372113 0.231597
610 2 0.198518 0.339526 0.20918
417 4 0.214534 0.371421 0.183259
415 2 0.22576 0.39137 0.193319
611 4 0.2101 0.35434 0.192701
303 4 0.315626 0.373196 0.223191
729 4 0.315547 0.386656 0.23867
301 2 0.320496 0.383369 0.200876
302 4 0.325365 0.393543 0.178561
13 3 0.431258 0.341497 0.1635
645 4 0.434028 0.390954 0.180172
643 2 0.428925 0.391083 0.204649
644 4 0.423823 0.391212 0.229126
447 4 0.42829 0.389795 0.248449
647 4 0.0463095 0.428497 0.17444
263 4 0.0430527 0.440311 0.191012
262 2 0.0402711 0.460833 0.205023
1757 4 0.021971 0.494082 0.219152
264 4 0.0374895 0.481355 0.219033
416 4 0.236987 0.411319 0.203378
291 4 0.228351 0.426015 0.214108
289 2 0.240079 0.445049 0.202911
660 4 0.331195 0.410336 0.189355
290 4 0.251807 0.464082 0.191714
638 4 0.262182 0.453056 0.176323
767 4 0.272959 0.462349 0.192198
768 4 0.315238 0.48833 0.198379
766 2 0.294098 0.475339 0.195288
1574 4 0.329532 0.502552 0.203539
658 2 0.349092 0.427089 0.184436
1573 2 0.347889 0.488519 0.213093
1575 4 0.366246 0.474486 0.222646
1802 4 0.372492 0.464452 0.238366
234 4 0.0332573 0.0220338 0.337453
1699 2 0.210455 0.012527 0.262874
248 4 0.202343 0.0427968 0.285556
247 2 0.187586 0.0616576 0.292745
1701 4 0.198976 0.021389 0.283242
605 4 0.214573 0.0287958 0.296515
604 2 0.230603 0.032212 0.315398
249 4 0.172829 0.0805184 0.299934
631 2 0.319281 0.0618557 0.29868
632 4 0.325433 0.0395713 0.308205
1495 2 0.365727 0.999595 0.271545
1496 4 0.349643 0.0106341 0.255904
22 3 0.340672 0.0280316 0.250655
697 2 0.394182 0.017412 0.317127
698 4 0.397532 0.0390168 0.329259
349 2 0.432911 0.0590125 0.320519
350 4 0.447632 0.0742593 0.307253
742 2 0.443282 0.0815412 0.262654
743 4 0.449973 0.0802757 0.286712
579 4 0.0445357 0.126872 0.270476
513 4 0.0358367 0.143139 0.259675
577 2 0.0631557 0.139383 0.281519
530 4 0.0265482 0.135796 0.278081
529 2 0.0103956 0.118938 0.287031
398 4 0.0762016 0.0816316 0.339005
578 4 0.0817757 0.151893 0.292563
545 4 0.159869 0.155652 0.292567
405 4 0.165041 0.137977 0.301466
403 2 0.173615 0.115371 0.295093
404 4 0.182189 0.0927643 0.288719
633 4 0.313128 0.0841402 0.289154
333 4 0.4466 0.095016 0.301881
331 2 0.440479 0.119169 0.303967
332 4 0.434358 0.143322 0.306053
762 4 0.42063 0.157079 0.309555
393 4 0.0729301 0.181908 0.324639
544 2 0.152179 0.16605 0.271168
764 4 0.383189 0.215719 0.260137
763 2 0.373053 0.23624 0.270203
707 4 0.372073 0.184851 0.282115
706 2 0.357577 0.175963 0.263783
765 4 0.362917 0.256761 0.28027
761 4 0.415375 0.206763 0.311684
760 2 0.418003 0.181921 0.31062
418 2 0.439182 0.239044 0.30083
419 4 0.420687 0.227449 0.313023
520 2 0.490115 0.237802 0.273278
614 4 0.403862 0.219979 0.323714
364 2 0.0127926 0.325267 0.278106
748 2 0.0592068 0.257828 0.266117
749 4 0.0755103 0.254719 0.284817
442 2 0.999988 0.288206 0.317178
444 4 0.0117092 0.283605 0.33878
389 4 0.163312 0.28946 0.329618
309 4 0.249713 0.288399 0.254834
308 4 0.288546 0.316491 0.269103
307 2 0.269129 0.302445 0.261968
497 4 0.285017 0.335154 0.262789
508 2 0.274085 0.320956 0.320209
420 4 0.457678 0.250638 0.288637
521 4 0.471802 0.254824 0.272981
543 4 0.460337 0.270868 0.282357
541 2 0.468848 0.289764 0.268367
542 4 0.47736 0.308659 0.254378
2694 4 0.0377102 0.358474 0.262768
366 4 0.028964 0.344172 0.2756
408 4 0.0652126 0.362624 0.329163
734 4 0.142791 0.366908 0.247935
733 2 0.154565 0.369633 0.269824
735 4 0.166339 0.372358 0.291713
677 4 0.173423 0.369473 0.310414
496 2 0.303189 0.349133 0.272767
498 4 0.321361 0.363111 0.282744
509 4 0.282509 0.332993 0.299977
727 2 0.326922 0.400072 0.25644
438 4 0.277592 0.412294 0.244402
728 4 0.338297 0.413488 0.274211
753 4 0.386016 0.342258 0.312506
751 2 0.400852 0.36041 0.321199
445 2 0.439584 0.403673 0.265914
446 4 0.450878 0.417552 0.283378
752 4 0.415688 0.378562 0.329893
777 4 0.0589279 0.490611 0.337782
603 4 0.0886448 0.419635 0.267936
413 4 0.121037 0.504147 0.316166
412 2 0.121639 0.489401 0.295983
602 4 0.12465 0.454148 0.271572
601 2 0.106647 0.436891 0.269754
414 4 0.122242 0.474656 0.275799
775 2 0.0834181 0.494768 0.334932
437 4 0.267213 0.432123 0.289122
436 2 0.272403 0.422208 0.266762
1437 4 0.270851 0.478715 0.318549
1435 2 0.260098 0.458681 0.308147
1436 4 0.249345 0.438648 0.297744
434 4 0.345047 0.4301 0.286356
433 2 0.341591 0.43605 0.310394
1801 2 0.361193 0.446699 0.251868
1803 4 0.349894 0.428945 0.26537
712 2 0.491583 0.421663 0.282072
713 4 0.467915 0.421063 0.274031
231 4 0.428425 0.48966 0.283586
318 4 0.0522821 0.0293471 0.336202
232 2 0.0113483 0.0291178 0.3472
316 2 0.0659521 0.0210912 0.355441
317 4 0.0796221 0.0128353 0.374681
428 4 0.0959092 0.00504156 0.385398
606 4 0.246632 0.0356282 0.334281
441 4 0.252109 0.0245641 0.350593
724 2 0.328849 0.00358734 0.373895
726 4 0.305259 0.997585 0.379611
440 4 0.283547 0.999443 0.380279
439 2 0.267828 0.0120036 0.365436
683 4 0.313049 0.0741742 0.3928
725 4 0.352439 0.00958919 0.36818
257 4 0.402266 0.0549973 0.34258
256 2 0.397175 0.0493706 0.366404
258 4 0.392084 0.0437438 0.390228
425 4 0.409737 0.0378245 0.398076
351 4 0.41819 0.0437658 0.333786
424 2 0.402078 0.0228731 0.416596
452 4 0.426294 0.0883641 0.383341
2655 4 0.0076921 0.136564 0.381245
397 2 0.074755 0.086687 0.363449
399 4 0.0733084 0.0917424 0.387894
2653 2 0.0312772 0.144782 0.380065
2654 4 0.0548623 0.153 0.378884
392 4 0.0574049 0.150068 0.359936
732 4 0.0866657 0.102598 0.398395
731 4 0.1127 0.14474 0.391543
730 2 0.0996828 0.123669 0.394969
686 4 0.133044 0.143388 0.385465
599 4 0.121479 0.161361 0.381187
685 2 0.154813 0.136801 0.395853
687 4 0.176582 0.130214 0.406241
682 2 0.297766 0.082853 0.410584
467 4 0.334579 0.14272 0.411154
453 4 0.412725 0.129627 0.40812
515 4 0.400742 0.118241 0.419435
451 2 0.419509 0.108995 0.395731
391 2 0.0651675 0.165988 0.342287
598 2 0.12078 0.179352 0.363836
600 4 0.120081 0.197342 0.346486
260 4 0.111259 0.236938 0.405849
275 4 0.161746 0.196975 0.393366
474 4 0.214517 0.195307 0.357958
276 4 0.195577 0.203209 0.357071
472 2 0.23507 0.183439 0.365827
274 2 0.178661 0.200092 0.375218
473 4 0.255623 0.171571 0.373696
468 4 0.300473 0.179267 0.412482
466 2 0.317526 0.160994 0.411818
613 2 0.406136 0.233772 0.344445
615 4 0.40841 0.247564 0.365176
269 4 0.472782 0.220019 0.388376
306 4 0.458093 0.217518 0.401907
268 2 0.46765 0.24355 0.381659
388 2 0.140407 0.290596 0.339579
390 4 0.117501 0.291733 0.34954
616 2 0.092821 0.305288 0.379606
618 4 0.0864022 0.314308 0.402025
617 4 0.0992398 0.296269 0.357187
401 4 0.177771 0.280444 0.341663
400 2 0.192826 0.291784 0.358092
375 4 0.201866 0.302724 0.39259
402 4 0.207881 0.303125 0.374522
373 2 0.189111 0.29499 0.412657
378 4 0.284608 0.307869 0.347217
489 4 0.305007 0.265402 0.396449
376 2 0.289572 0.29133 0.3653
377 4 0.294535 0.274791 0.383383
487 2 0.32599 0.269863 0.409295
510 4 0.265662 0.30892 0.340441
716 4 0.39141 0.250636 0.375847
715 2 0.379732 0.260314 0.395725
270 4 0.462517 0.267081 0.374942
2924 4 0.448251 0.280796 0.378727
2923 2 0.43934 0.298191 0.394322
2925 4 0.430429 0.315586 0.409917
406 2 0.0544286 0.383676 0.337268
407 4 0.0436445 0.404728 0.345373
680 4 0.0443863 0.410053 0.405431
676 2 0.179495 0.381611 0.331414
678 4 0.185566 0.393749 0.352414
651 4 0.305005 0.366882 0.399652
649 2 0.298138 0.384347 0.416174
559 2 0.429658 0.394917 0.363157
561 4 0.426278 0.39249 0.338502
560 4 0.433039 0.397344 0.387812
549 4 0.050668 0.471601 0.336245
548 4 0.050994 0.423037 0.348167
547 2 0.050831 0.447319 0.342206
2 3 0.304309 0.474199 0.357571
3 3 0.322184 0.457511 0.386114
1 1 0.324908 0.46759 0.365392
435 4 0.338136 0.441999 0.334432
4 3 0.334135 0.452486 0.350388
5 3 0.338399 0.485835 0.367339
668 4 0.419269 0.411809 0.396895
593 4 0.460205 0.485363 0.373455
588 4 0.439913 0.41052 0.40393
720 4 0.0454842 0.085016 0.500123
368 4 0.0893414 0.0655599 0.426722
367 2 0.10589 0.0830201 0.433539
340 2 0.172619 0.0835132 0.492829
1180 2 0.289401 0.0690479 0.4676
1181 4 0.291615 0.0534101 0.486984
426 4 0.39442 0.00792167 0.435116
841 2 0.375268 0.0285138 0.496885
843 4 0.354688 0.0422685 0.493356
458 4 0.997176 0.159399 0.471445
457 2 0.0214867 0.15459 0.474766
719 4 0.0490885 0.129836 0.47824
459 4 0.0457978 0.149782 0.478087
718 2 0.0472864 0.107426 0.489181
369 4 0.122439 0.10048 0.440355
939 4 0.118087 0.119554 0.447132
937 2 0.12006 0.143909 0.452433
938 4 0.122033 0.168264 0.457733
342 4 0.18981 0.101312 0.489239
1151 4 0.180407 0.118264 0.423443
1150 2 0.1868 0.110812 0.446438
1152 4 0.193193 0.103359 0.469433
1182 4 0.287187 0.0846856 0.448216
684 4 0.282483 0.0915318 0.428368
321 4 0.282292 0.142918 0.469103
320 4 0.27264 0.100028 0.44527
319 2 0.277466 0.121473 0.457187
899 4 0.302344 0.140691 0.47109
898 2 0.314314 0.162544 0.469
516 4 0.382445 0.157591 0.444284
514 2 0.391594 0.137916 0.43186
259 2 0.109464 0.237991 0.430766
1034 4 0.12284 0.173431 0.478033
261 4 0.10767 0.239043 0.455683
1035 4 0.115414 0.220603 0.463185
1033 2 0.119127 0.197017 0.470609
695 4 0.117684 0.239101 0.47444
694 2 0.115502 0.249659 0.497
857 4 0.191427 0.19687 0.484519
410 4 0.287503 0.191401 0.417679
411 4 0.253438 0.213284 0.447029
409 2 0.27047 0.202343 0.432354
900 4 0.326284 0.184397 0.46691
575 4 0.386869 0.171866 0.459287
813 4 0.392287 0.25002 0.488328
574 2 0.409516 0.181969 0.456094
266 4 0.382677 0.249151 0.471023
304 2 0.453231 0.203771 0.422218
305 4 0.44837 0.190024 0.44253
576 4 0.432164 0.192073 0.452901
347 4 0.0887935 0.301099 0.415682
346 2 0.101809 0.304917 0.436687
348 4 0.114824 0.308736 0.457692
10 3 0.131287 0.303295 0.467863
6 1 0.125681 0.318611 0.483757
7 3 0.10523 0.313087 0.492724
374 4 0.176357 0.287255 0.432724
717 4 0.368054 0.269993 0.415603
488 4 0.346973 0.274323 0.42214
265 2 0.3733 0.263805 0.453065
267 4 0.363923 0.27846 0.435107
872 4 0.461123 0.252866 0.502279
2456 4 0.49424 0.313162 0.472941
584 4 0.480252 0.298318 0.467925
585 4 0.467992 0.252287 0.483141
583 2 0.474122 0.275302 0.475533
239 4 0.43136 0.314825 0.431438
2812 2 0.00857582 0.345754 0.424624
2813 4 0.0296665 0.356214 0.433047
679 2 0.0568557 0.422164 0.423403
8 3 0.124244 0.339727 0.474246
504 4 0.239899 0.39018 0.477464
709 2 0.202524 0.391623 0.480039
711 4 0.180144 0.380593 0.478411
710 4 0.224904 0.402652 0.481667
502 2 0.257775 0.393781 0.460356
503 4 0.275651 0.397382 0.443249
650 4 0.29127 0.401812 0.432696
238 2 0.413141 0.329005 0.441039
669 4 0.382187 0.395524 0.426228
334 2 0.375431 0.372283 0.452277
240 4 0.394923 0.343186 0.45064
335 4 0.377515 0.348289 0.458994
336 4 0.373348 0.396277 0.44556
667 2 0.400728 0.403666 0.411561
681 4 0.0693251 0.434276 0.441375
383 4 0.0774788 0.452608 0.440988
384 4 0.126317 0.462316 0.436376
569 4 0.133166 0.479859 0.442921
382 2 0.101898 0.457462 0.438682
568 2 0.144928 0.501712 0.439881
1161 4 0.127746 0.440841 0.487787
634 2 0.185534 0.471385 0.491107
635 4 0.192153 0.455036 0.473385
773 4 0.25511 0.45494 0.447253
772 2 0.230877 0.456223 0.453278
774 4 0.206645 0.457506 0.459303
662 4 0.437607 0.467416 0.479751
661 2 0.450025 0.450439 0.466232
1910 4 0.446089 0.480442 0.490829
587 4 0.474299 0.423031 0.438015
663 4 0.462443 0.433463 0.452713
586 2 0.457106 0.416775 0.420973
2507 4 0.482352 0.427885 0.457562
2428 2 0.111992 0.0749567 0.493641
2429 4 0.0876982 0.0803178 0.49114
2430 4 0.136286 0.0695957 0.496142
341 4 0.155429 0.0657147 0.496419
962 4 0.242033 0.0212698 0.506482
961 2 0.25987 0.0386947 0.504644
963 4 0.277707 0.0561196 0.502806
430 2 0.321772 0.0440743 0.509321
432 4 0.298274 0.0523769 0.507297
431 4 0.34527 0.0357717 0.511345
842 4 0.395848 0.0147592 0.500415
1217 4 0.411017 0.00459904 0.491428
1091 4 0.372696 0.00307242 0.574799
1060 2 0.492719 0.0174359 0.572733
810 4 0.476571 0.0671769 0.532641
808 2 0.471476 0.0765393 0.555259
809 4 0.466382 0.0859018 0.577877
641 4 0.495751 0.126232 0.546807
640 2 0.497983 0.112996 0.525712
469 2 0.0316482 0.200517 0.52113
470 4 0.00778771 0.20716 0.524555
1199 4 0.00430758 0.218756 0.540584
471 4 0.0555088 0.193875 0.517706
877 2 0.118783 0.224763 0.548064
879 4 0.122929 0.207551 0.56572
878 4 0.114637 0.241976 0.530409
1272 4 0.120847 0.207099 0.586271
858 4 0.176544 0.23069 0.518215
856 2 0.183986 0.21378 0.501367
811 2 0.387952 0.259755 0.510947
2657 4 0.468925 0.171445 0.508177
982 2 0.0403864 0.318382 0.531865
983 4 0.0172805 0.32212 0.523072
984 4 0.0634924 0.314644 0.540658
326 4 0.0807676 0.302186 0.539176
1136 4 0.0756898 0.311862 0.558078
696 4 0.11332 0.260216 0.519561
327 4 0.099308 0.255925 0.53506
325 2 0.0900378 0.279055 0.537118
1258 2 0.155351 0.305158 0.539974
1259 4 0.148512 0.309579 0.516334
9 3 0.141543 0.318615 0.500693
1260 4 0.16219 0.300737 0.563614
802 2 0.234447 0.32509 0.569015
803 4 0.211371 0.33339 0.564139
1239 4 0.27627 0.319091 0.582793
1237 2 0.299877 0.310982 0.581336
1238 4 0.323484 0.302873 0.579879
804 4 0.257523 0.316789 0.573892
792 4 0.337602 0.289751 0.574183
812 4 0.383617 0.26949 0.533566
790 2 0.349954 0.279427 0.555051
791 4 0.362306 0.269103 0.535919
953 4 0.404426 0.267118 0.539253
952 2 0.408738 0.261205 0.563161
873 4 0.424325 0.260289 0.535316
871 2 0.442724 0.256578 0.518797
934 2 0.018973 0.418518 0.555637
936 4 0.0162452 0.408078 0.533082
3353 4 0.00681135 0.389524 0.531593
1190 4 0.192429 0.33762 0.558179
1189 2 0.186347 0.361076 0.564345
1455 4 0.317828 0.410796 0.50277
880 2 0.359937 0.388994 0.572014
881 4 0.346175 0.401901 0.555606
930 4 0.388423 0.363462 0.595689
928 2 0.411619 0.361962 0.586477
925 2 0.463837 0.37215 0.539646
926 4 0.470574 0.348185 0.537309
927 4 0.4571 0.396115 0.541983
1001 4 0.458762 0.406851 0.557921
929 4 0.434815 0.360463 0.577264
935 4 0.0217007 0.428958 0.578193
539 4 0.0599399 0.454959 0.525158
538 2 0.0744293 0.475335 0.525378
540 4 0.0889187 0.495712 0.525598
3432 4 0.0154505 0.447841 0.570494
3430 2 0.00368484 0.469819 0.568566
1159 2 0.127953 0.426167 0.50803
1160 4 0.128161 0.411492 0.528274
636 4 0.178915 0.487733 0.50883
1453 2 0.32256 0.409664 0.527296
1454 4 0.327293 0.408531 0.551821
1909 2 0.461168 0.495489 0.50392
1284 4 0.156954 0.062383 0.600968
1031 4 0.227023 0.0572408 0.595028
1282 2 0.181749 0.0596859 0.599208
1283 4 0.206545 0.0569888 0.597449
2133 4 0.209526 0.0039287 0.632216
1030 2 0.244968 0.0702505 0.583457
949 2 0.281513 0.99919 0.597116
951 4 0.273034 0.0226564 0.598724
2281 2 0.385824 0.0019103 0.648495
2282 4 0.382619 0.0219067 0.63383
1092 4 0.368131 0.0218733 0.620912
1090 2 0.370413 0.0124729 0.597855
1061 4 0.475366 0.00559156 0.586289
3008 4 0.46372 0.0749873 0.594861
89 3 0.466652 0.995559 0.601524
1083 4 0.0264916 0.130624 0.6461
1081 2 0.0306176 0.110102 0.659773
3179 4 0.0128305 0.142082 0.634502
1059 4 0.151292 0.0806664 0.606228
1058 4 0.149767 0.115881 0.641701
1057 2 0.15053 0.0982736 0.623965
1155 4 0.154347 0.137007 0.643655
909 4 0.159658 0.122953 0.659081
1153 2 0.160242 0.160559 0.637677
1032 4 0.262913 0.0832601 0.571885
886 2 0.313968 0.155998 0.663772
1194 4 0.358342 0.142984 0.661203
1192 2 0.36136 0.149585 0.637276
1193 4 0.364378 0.156187 0.613349
830 4 0.347324 0.130107 0.674385
1026 4 0.435229 0.153052 0.662528
3007 2 0.479961 0.0886955 0.608032
1270 2 0.139858 0.202815 0.601937
1154 4 0.166138 0.18411 0.631698
1271 4 0.158869 0.198531 0.617603
1221 4 0.17923 0.191904 0.616861
1219 2 0.200817 0.20219 0.624167
1220 4 0.222404 0.212477 0.631472
1212 4 0.241625 0.202823 0.633756
798 4 0.241207 0.223488 0.628213
796 2 0.238452 0.242796 0.612567
1211 4 0.273629 0.167785 0.64953
1210 2 0.257627 0.185304 0.641643
888 4 0.290636 0.164041 0.659759
904 2 0.415173 0.213846 0.601316
906 4 0.422728 0.191209 0.608777
905 4 0.407619 0.236484 0.593856
1024 2 0.428913 0.163136 0.640538
1025 4 0.422596 0.17322 0.618547
1145 4 0.464212 0.21831 0.659576
1135 2 0.0782669 0.320124 0.581536
1243 2 0.0348213 0.27634 0.66191
1244 4 0.0134201 0.281179 0.649921
1137 4 0.080844 0.328385 0.604995
948 4 0.168158 0.262227 0.667423
797 4 0.235698 0.262104 0.596921
954 4 0.41305 0.255292 0.58707
3113 4 0.496147 0.259795 0.595968
3123 4 0.493802 0.283151 0.682249
3264 4 0.0180882 0.411338 0.590179
3262 2 0.00848713 0.396498 0.607864
3263 4 0.998886 0.381657 0.625549
895 2 0.172009 0.407391 0.596756
992 4 0.136187 0.419153 0.606862
897 4 0.154557 0.416571 0.612131
1191 4 0.180264 0.384531 0.570511
896 4 0.18946 0.398211 0.581382
882 4 0.373699 0.376088 0.588422
1000 2 0.45116 0.410398 0.581475
1206 4 0.446269 0.412044 0.624689
1041 4 0.0386906 0.418124 0.585881
1039 2 0.0601518 0.430178 0.590273
2172 4 0.0304764 0.49978 0.633333
3240 4 0.999446 0.447212 0.65501
1281 4 0.00603563 0.434169 0.669171
1040 4 0.081613 0.442232 0.594665
993 4 0.0992438 0.451618 0.597811
991 2 0.117716 0.435386 0.602337
2154 4 0.298767 0.491887 0.5896
1140 4 0.284865 0.423566 0.662158
1173 4 0.283473 0.491371 0.601719
1172 4 0.263678 0.467301 0.640828
1171 2 0.273576 0.479336 0.621274
891 4 0.280225 0.459553 0.648282
889 2 0.301849 0.452995 0.658987
3182 4 0.477726 0.436334 0.594034
1204 2 0.442274 0.425698 0.645251
1002 4 0.443557 0.413946 0.605029
3183 4 0.464031 0.484421 0.594947
3181 2 0.470878 0.460378 0.59449
1268 4 0.478483 0.485262 0.669915
1205 4 0.438279 0.439351 0.665812
3440 4 0.491363 0.428281 0.605419
2169 4 0.49126 0.49683 0.660765
1892 4 0.036022 0.0100694 0.670386
1183 2 0.0377113 0.0500512 0.687678
1184 4 0.0366336 0.0250918 0.686655
4338 4 0.0178671 0.0118981 0.682483
1185 4 0.038789 0.0750106 0.6887
943 2 0.0800676 0.0867739 0.68304
2049 4 0.110973 0.0213608 0.738364
945 4 0.104863 0.088196 0.685924
1202 4 0.113816 0.025119 0.757305
825 4 0.193141 0.00430637 0.681822
2254 2 0.19662 0.00998663 0.720967
2256 4 0.20744 0.00464003 0.742865
2255 4 0.1858 0.0153332 0.699069
2400 4 0.340084 0.0118824 0.723723
2398 2 0.340931 0.0338119 0.735705
42 3 0.40792 0.0765036 0.737042
2399 4 0.341778 0.0557415 0.747686
41 1 0.428163 0.0812285 0.727192
44 3 0.425022 0.0835149 0.704316
43 3 0.442841 0.063773 0.731466
846 4 0.455201 0.049413 0.735578
1082 4 0.0347437 0.0895786 0.673447
944 4 0.0552717 0.0853518 0.680155
1076 4 0.0417622 0.0960842 0.6931
1075 2 0.0352672 0.10725 0.714508
1077 4 0.0287721 0.118417 0.735916
1179 4 0.0107198 0.150113 0.67588
907 2 0.182358 0.116182 0.667081
1226 4 0.234399 0.131473 0.730158
908 4 0.205059 0.109411 0.675082
1225 2 0.226247 0.126618 0.707025
1227 4 0.218095 0.121763 0.683891
1148 4 0.237278 0.122766 0.749481
1130 4 0.24309 0.143478 0.745497
1005 4 0.296025 0.101768 0.726181
1003 2 0.298847 0.125228 0.734357
1004 4 0.301669 0.148688 0.742533
887 4 0.3373 0.147955 0.667786
831 4 0.37537 0.0925195 0.691746
829 2 0.361347 0.111313 0.683066
1143 4 0.425894 0.140466 0.676954
45 3 0.436393 0.100605 0.73588
1142 4 0.431389 0.0919063 0.687559
1141 2 0.428642 0.116186 0.682257
1263 4 0.434764 0.158443 0.683963
1178 4 0.0387799 0.18943 0.688824
1177 2 0.0247498 0.169772 0.682352
850 2 0.0533388 0.226376 0.680575
851 4 0.0557869 0.201992 0.685534
1107 4 0.0584277 0.181431 0.691889
1105 2 0.0753349 0.17539 0.709291
852 4 0.0508906 0.25076 0.675617
1106 4 0.0922421 0.169348 0.726693
1073 4 0.0979918 0.185062 0.738345
1072 2 0.113999 0.20165 0.748031
978 4 0.227318 0.212744 0.745495
976 2 0.250728 0.218164 0.738584
977 4 0.274139 0.223583 0.731673
1299 4 0.323643 0.180734 0.720971
1298 4 0.290223 0.212606 0.740152
1297 2 0.306933 0.19667 0.730561
918 4 0.292758 0.23419 0.736961
1084 2 0.356291 0.172709 0.746976
1086 4 0.342069 0.176094 0.726692
1262 4 0.419199 0.199018 0.708703
1261 2 0.426982 0.17873 0.696333
1144 2 0.478362 0.211538 0.679046
3426 4 0.492049 0.183264 0.699062
1146 4 0.492513 0.204765 0.698516
1245 4 0.0562226 0.271502 0.6739
1209 4 0.0715244 0.25678 0.67496
1208 4 0.113622 0.27082 0.698013
1207 2 0.092573 0.2638 0.686487
821 4 0.129769 0.31745 0.73692
820 2 0.130741 0.299023 0.720048
822 4 0.131714 0.280595 0.703176
947 4 0.131241 0.259326 0.701031
1242 4 0.140202 0.326058 0.750994
946 2 0.149699 0.260777 0.684227
1065 4 0.275854 0.322865 0.715478
892 2 0.0480803 0.405149 0.732938
893 4 0.0552292 0.382437 0.74057
940 2 0.0980206 0.376501 0.74275
941 4 0.121608 0.372327 0.735583
1067 4 0.126003 0.364309 0.717612
1066 2 0.147046 0.369742 0.705249
1029 4 0.220367 0.403849 0.675375
1068 4 0.168089 0.375174 0.692886
1139 4 0.240937 0.405492 0.677789
1028 4 0.177962 0.391829 0.698998
1027 2 0.199165 0.397839 0.687186
1138 2 0.262901 0.414529 0.669974
1063 2 0.264253 0.338543 0.731124
1064 4 0.252652 0.354221 0.746771
806 4 0.251829 0.375531 0.751407
805 2 0.273225 0.388435 0.752368
1101 4 0.453898 0.397584 0.72017
894 4 0.0409315 0.42786 0.725306
1279 2 0.0188404 0.438361 0.690234
3276 4 0.0210537 0.435521 0.728998
1983 4 0.0379583 0.448539 0.731951
1981 2 0.0462882 0.472112 0.73169
1280 4 0.0316452 0.442553 0.711297
1982 4 0.0546181 0.495686 0.731429
1188 4 0.239268 0.489553 0.678764
1175 4 0.237598 0.498913 0.697602
890 4 0.323472 0.446438 0.669692
1088 4 0.313875 0.48841 0.690033
1988 4 0.330309 0.478466 0.696213
1987 2 0.353311 0.476266 0.705766
1989 4 0.376313 0.474065 0.715319
1267 2 0.461164 0.468377 0.67625
1269 4 0.443845 0.451492 0.682584
1100 4 0.440253 0.430487 0.685071
1099 2 0.447075 0.414035 0.70262
1195 2 0.0802836 0.0251874 0.820557
1203 4 0.0812085 0.0523199 0.783716
1196 4 0.0782345 0.041774 0.801959
1201 2 0.0975124 0.0387195 0.770511
911 4 0.0950008 0.0557046 0.800295
910 2 0.0997453 0.0775379 0.811519
1048 2 0.331823 0.062701 0.785501
1050 4 0.327988 0.0768829 0.805734
1257 4 0.331525 0.0871993 0.822843
1049 4 0.335657 0.0485192 0.765269
1112 4 0.39125 0.0419122 0.801768
1111 2 0.414702 0.0333138 0.80065
1113 4 0.438154 0.0247154 0.799532
844 2 0.451267 0.039293 0.758101
845 4 0.447332 0.0291731 0.780624
980 4 0.45531 0.037564 0.799049
979 2 0.468234 0.0278958 0.818146
864 4 0.0130801 0.106414 0.737749
862 2 0.000224591 0.0960009 0.756497
34 3 0.0632811 0.127757 0.808407
31 1 0.0804259 0.132032 0.823446