ITEM: TIMESTEP
2360000
ITEM: NUMBER OF ATOMS
4590
ITEM: BOX BOUNDS pp pp pp
-9.9985700000000008e+00 9.9985700000000008e+00
-9.9985700000000008e+00 9.9985700000000008e+00
-9.9985700000000008e+00 9.9985700000000008e+00
ITEM: ATOMS id type xs ys zs
1666 2 0.0667214 0.0513207 0.0466921
1667 4 0.0698949 0.0726537 0.0340425
1668 4 0.0635479 0.0299878 0.0593417
534 4 0.150142 0.063059 0.0158713
423 4 0.145039 0.0813543 0.0198091
1475 4 0.201176 0.0472666 0.0496567
1474 2 0.191527 0.0305391 0.06554
533 4 0.176745 0.027191 0.993366
532 2 0.163444 0.045125 0.00461847
490 2 0.302507 0.0728726 0.0105433
653 4 0.280294 0.0808742 0.0482895
652 2 0.275822 0.0625056 0.0646531
491 4 0.285981 0.0802178 0.0278099
654 4 0.271349 0.0441369 0.0810167
492 4 0.319032 0.0655274 0.993277
297 4 0.403508 0.0326824 0.0797172
295 2 0.427969 0.0370235 0.0825451
591 4 0.0593561 0.0870837 0.0454654
702 4 0.076234 0.0930257 0.0325068
589 2 0.0371321 0.0974867 0.0406645
590 4 0.0149081 0.10789 0.0358636
3232 2 0.0129227 0.138093 0.00392279
421 2 0.150871 0.104067 0.0111312
422 4 0.156704 0.126779 0.00245323
700 2 0.0899618 0.110344 0.0442028
701 4 0.103689 0.127663 0.0558987
236 4 0.0967002 0.134708 0.0750182
449 4 0.116762 0.126224 0.0735129
1133 4 0.17168 0.162409 0.00239931
565 2 0.272607 0.117502 0.037307
566 4 0.275337 0.142144 0.0405469
567 4 0.269876 0.0928601 0.034067
359 4 0.263137 0.155824 0.0322889
665 4 0.329476 0.149832 0.995121
358 2 0.252292 0.160881 0.0103348
866 4 0.319249 0.132853 0.001852
664 2 0.344997 0.164352 0.00829151
556 2 0.377077 0.160127 0.054094
558 4 0.375417 0.165753 0.0297882
557 4 0.378738 0.154501 0.0783997
987 4 0.461624 0.144861 0.0298787
985 2 0.463438 0.1376 0.00602132
914 4 0.159211 0.243582 0.0274369
913 2 0.149059 0.237133 0.00551619
357 4 0.235284 0.232784 0.0109613
666 4 0.360517 0.178872 0.0214618
571 2 0.367433 0.210245 0.0342076
572 4 0.375467 0.186611 0.0356498
1071 4 0.377307 0.240305 0.0244108
573 4 0.359399 0.233879 0.0327654
623 4 0.408131 0.23705 0.0827608
324 4 0.425627 0.234603 0.0730992
771 4 0.488306 0.247632 0.044041
518 4 0.491516 0.248663 0.0650489
2835 4 0.00264625 0.257257 0.0753571
293 4 0.135783 0.319952 0.0464615
292 2 0.123786 0.324755 0.0678664
507 4 0.152443 0.307749 0.052212
288 4 0.155757 0.325087 0.0404139
505 2 0.155305 0.285263 0.0416578
506 4 0.158168 0.262778 0.0311037
756 4 0.245483 0.30875 0.078711
482 4 0.241295 0.328155 0.0868982
955 2 0.393356 0.322116 0.00921244
1069 2 0.381323 0.264435 0.0192352
957 4 0.398911 0.298676 0.00251384
1070 4 0.38534 0.288565 0.0140597
323 4 0.471341 0.246627 0.0567787
322 2 0.448484 0.240615 0.064939
282 4 0.447603 0.326542 0.037036
1056 4 0.00184934 0.343686 0.00164636
1170 4 0.0129533 0.352508 0.0166056
1168 2 0.0144273 0.377192 0.0129039
1169 4 0.0159014 0.401876 0.00920209
286 2 0.177088 0.336511 0.0467107
287 4 0.19842 0.347935 0.0530075
481 2 0.229399 0.337862 0.0671639
483 4 0.217504 0.34757 0.0474297
608 4 0.279482 0.408551 0.0730265
607 2 0.287565 0.389436 0.0869712
956 4 0.3878 0.345556 0.015911
280 2 0.449995 0.341129 0.0572019
281 4 0.452387 0.355717 0.0773679
671 4 0.468167 0.367928 0.0815127
1047 4 0.414918 0.39605 0.00083811
551 4 0.0124106 0.42289 0.0116287
550 2 0.0138873 0.434877 0.0335218
552 4 0.015364 0.446865 0.0554149
315 4 0.0255849 0.456654 0.0712599
313 2 0.0483311 0.466955 0.0699675
620 4 0.00402139 0.45619 0.0714602
314 4 0.0710773 0.477256 0.0686751
1691 4 0.0815264 0.496324 0.0675043
1787 4 0.092182 0.477718 0.0650324
1786 2 0.116228 0.473675 0.0705655
1788 4 0.140274 0.469632 0.0760985
241 2 0.232019 0.487063 0.0517397
626 4 0.271004 0.420855 0.0599341
243 4 0.25583 0.482611 0.0579353
627 4 0.267464 0.468852 0.0463533
625 2 0.269234 0.444854 0.0531437
1440 4 0.25212 0.489114 0.0778296
244 2 0.328735 0.453539 0.0377919
272 4 0.33553 0.480727 0.0023948
245 4 0.319235 0.442621 0.058181
246 4 0.338236 0.464457 0.0174028
2386 2 0.400728 0.497449 0.016744
2388 4 0.423806 0.491467 0.00920842
19 3 0.0347715 0.0829436 0.101722
2481 4 0.00873944 0.0434221 0.130124
16 1 0.0143134 0.0785698 0.111759
2479 2 0.0184188 0.0270702 0.146375
18 3 0.0117717 0.0557259 0.114937
1476 4 0.181879 0.0138117 0.0814233
296 4 0.45243 0.0413645 0.085373
20 3 0.012997 0.0893903 0.131755
235 2 0.0837329 0.152986 0.0861063
448 2 0.137936 0.122939 0.086399
450 4 0.15911 0.119654 0.0992851
237 4 0.0707656 0.171264 0.0971944
477 4 0.0531507 0.182113 0.100803
476 4 0.0595787 0.230918 0.0920014
475 2 0.0563647 0.206516 0.0964021
339 4 0.0782395 0.233794 0.101036
337 2 0.0995716 0.235859 0.113915
338 4 0.120904 0.237924 0.126793
363 4 0.121522 0.248431 0.143889
361 2 0.133968 0.255787 0.164289
738 4 0.182239 0.243606 0.12164
353 4 0.240949 0.249052 0.116715
461 4 0.290558 0.221065 0.145771
354 4 0.272723 0.215376 0.135612
460 2 0.311781 0.213485 0.134939
352 2 0.256836 0.232214 0.126163
462 4 0.333004 0.205905 0.124108
254 4 0.397348 0.209528 0.128239
253 2 0.373679 0.207224 0.120515
255 4 0.35001 0.204921 0.112791
629 4 0.459833 0.194296 0.129857
630 4 0.41219 0.203241 0.117575
628 2 0.436012 0.198768 0.123716
517 2 0.499747 0.245618 0.0884617
362 4 0.146414 0.263143 0.184689
736 2 0.20503 0.25382 0.122822
737 4 0.227822 0.264035 0.124003
755 4 0.241229 0.26857 0.108177
754 2 0.243356 0.28866 0.0934438
252 4 0.262071 0.321792 0.0812631
386 4 0.340818 0.327169 0.131665
741 4 0.368444 0.290961 0.0964661
739 2 0.362057 0.303358 0.117219
624 4 0.375496 0.271829 0.0977965
622 2 0.391813 0.25444 0.0902787
740 4 0.35567 0.315756 0.137972
495 4 0.407066 0.338182 0.123466
526 2 0.491067 0.323723 0.140174
527 4 0.490769 0.313819 0.16313
294 4 0.111789 0.329559 0.0892713
456 4 0.116879 0.34019 0.104119
454 2 0.132394 0.346982 0.122513
455 4 0.14791 0.353775 0.140906
537 4 0.143199 0.357013 0.160031
250 2 0.279192 0.335617 0.0931343
251 4 0.296312 0.349443 0.105005
609 4 0.295648 0.37032 0.100916
387 4 0.308489 0.362563 0.117422
385 2 0.324654 0.344866 0.124544
14 3 0.404645 0.350901 0.139293
493 2 0.425976 0.342868 0.107793
494 4 0.444885 0.347555 0.0921195
670 2 0.48021 0.360251 0.102035
528 4 0.491365 0.333626 0.117217
595 2 0.457924 0.386196 0.14558
596 4 0.475805 0.393626 0.129761
672 4 0.492254 0.352574 0.122558
597 4 0.440043 0.378766 0.161399
2652 4 0.489781 0.402001 0.119327
12 3 0.418079 0.377171 0.162574
645 4 0.428422 0.394875 0.171321
619 2 0.996772 0.438981 0.0880883
646 2 0.0250977 0.477501 0.129438
647 4 0.025296 0.486318 0.152834
263 4 0.0369058 0.473342 0.162083
648 4 0.0248994 0.468684 0.106041
1438 2 0.271156 0.492877 0.0935991
1439 4 0.290191 0.49664 0.109369
637 2 0.284905 0.486176 0.151424
639 4 0.289442 0.497807 0.129761
525 4 0.325433 0.465058 0.155416
523 2 0.340027 0.474321 0.137349
659 4 0.332952 0.448348 0.162864
2480 4 0.0280982 0.0107183 0.162626
688 2 0.136273 0.0617678 0.228909
690 4 0.145827 0.0647358 0.205995
689 4 0.126719 0.0587999 0.251824
693 4 0.153133 0.0803655 0.196182
675 4 0.120521 0.073986 0.265311
21 1 0.323375 0.0499457 0.24761
25 3 0.329626 0.0517404 0.225784
1784 4 0.342078 0.0422979 0.209165
1785 4 0.31354 0.0272022 0.170976
1783 2 0.327809 0.0347501 0.19007
759 4 0.339826 0.0648317 0.210326
757 2 0.364214 0.0703037 0.21099
312 4 0.409397 0.0813871 0.203262
758 4 0.388603 0.0757758 0.211654
744 4 0.405037 0.0780732 0.22609
311 4 0.457259 0.0671672 0.200475
310 2 0.433328 0.0742772 0.201869
1747 2 0.505644 0.0148811 0.246371
1749 4 0.492268 0.0240881 0.227358
511 2 0.0120805 0.141217 0.237841
512 4 0.994767 0.136166 0.220523
691 2 0.15483 0.105064 0.199687
692 4 0.156526 0.129763 0.203192
723 4 0.156783 0.150497 0.204919
721 2 0.167736 0.157887 0.226147
722 4 0.178689 0.165277 0.247374
580 2 0.307405 0.159607 0.207644
582 4 0.282755 0.160602 0.211717
581 4 0.332054 0.158612 0.203571
706 2 0.377436 0.166866 0.241663
742 2 0.406588 0.0878741 0.249041
748 2 0.0558381 0.200397 0.20571
749 4 0.0577657 0.183954 0.186973
750 4 0.0539104 0.21684 0.224447
284 4 0.24122 0.201029 0.244047
344 4 0.222959 0.208149 0.243228
343 2 0.226494 0.230724 0.253379
285 4 0.27652 0.169075 0.228765
283 2 0.25887 0.185052 0.236406
30 3 0.335535 0.167613 0.186503
708 4 0.356129 0.17445 0.231001
27 3 0.353582 0.200178 0.183906
28 3 0.371982 0.168126 0.177067
29 3 0.361199 0.176922 0.212433
26 1 0.355465 0.178071 0.189979
372 4 0.154498 0.281668 0.182361
370 2 0.176275 0.288719 0.192422
371 4 0.198052 0.29577 0.202484
279 4 0.21517 0.297099 0.215026
277 2 0.224887 0.284191 0.234108
612 4 0.20317 0.314581 0.211129
765 4 0.419836 0.307124 0.247355
542 4 0.429531 0.29192 0.240427
543 4 0.452701 0.247608 0.240981
541 2 0.441116 0.269764 0.240704
535 2 0.125513 0.361677 0.177079
536 4 0.107828 0.366341 0.194127
298 2 0.145317 0.385581 0.246609
300 4 0.141176 0.407594 0.235497
610 2 0.215931 0.331137 0.197409
417 4 0.222183 0.367331 0.180537
415 2 0.228608 0.390717 0.186619
611 4 0.228691 0.347694 0.18369
416 4 0.235033 0.414103 0.1927
301 2 0.325684 0.401029 0.224536
302 4 0.327858 0.413648 0.20306
291 4 0.247285 0.426483 0.203457
303 4 0.323511 0.38841 0.246012
660 4 0.336506 0.404661 0.186938
13 3 0.397006 0.349333 0.176489
644 4 0.418717 0.40899 0.218303
447 4 0.419725 0.40317 0.237769
15 3 0.431842 0.342507 0.16394
643 2 0.42357 0.401932 0.194812
11 1 0.412985 0.354827 0.160586
262 2 0.0444898 0.460777 0.182326
1757 4 0.0475565 0.453077 0.221838
264 4 0.0520739 0.448212 0.202569
1756 2 0.0512381 0.465628 0.243148
603 4 0.134581 0.426514 0.233103
638 4 0.280368 0.474545 0.173088
289 2 0.264497 0.442822 0.195585
290 4 0.281709 0.459161 0.187714
767 4 0.287602 0.479287 0.19264
766 2 0.309382 0.47555 0.204337
658 2 0.334729 0.426505 0.174901
768 4 0.331162 0.471812 0.216035
1574 4 0.348807 0.464427 0.209536
1573 2 0.361017 0.465306 0.231339
1404 4 0.108578 0.020561 0.301914
1403 4 0.110057 0.0548747 0.265567
1402 2 0.109317 0.0377179 0.283741
1799 4 0.112136 0.00807158 0.287573
1700 4 0.208445 0.0342115 0.257851
1699 2 0.20468 0.0352023 0.28255
248 4 0.193707 0.0371304 0.327621
247 2 0.185991 0.060842 0.329462
1701 4 0.200914 0.0361931 0.307248
605 4 0.213004 0.0294311 0.323407
249 4 0.178274 0.0845537 0.331304
604 2 0.234495 0.0173701 0.327632
23 3 0.300987 0.0440011 0.24897
632 4 0.309511 0.0458241 0.316637
631 2 0.315488 0.0256894 0.330204
24 3 0.326895 0.0701103 0.258537
22 3 0.336026 0.0336586 0.2578
1495 2 0.362565 0.0144316 0.284094
1496 4 0.351004 0.0221186 0.263298
697 2 0.401019 0.0173114 0.320491
351 4 0.42038 0.0579902 0.326799
1497 4 0.374126 0.00674457 0.304889
349 2 0.420409 0.0712193 0.305582
350 4 0.420437 0.0844485 0.284365
513 4 0.0293936 0.146269 0.255159
674 4 0.0991635 0.116784 0.279904
579 4 0.0388286 0.142267 0.273731
577 2 0.0628248 0.147695 0.278193
530 4 0.0203413 0.132604 0.268673
529 2 0.0100871 0.128888 0.291173
531 4 0.999833 0.125172 0.313672
578 4 0.0868209 0.153123 0.282654
673 2 0.109842 0.0953849 0.272608
393 4 0.0870828 0.166618 0.298306
600 4 0.14457 0.162717 0.324169
405 4 0.160271 0.149955 0.330858
545 4 0.163168 0.162255 0.313332
544 2 0.171861 0.166203 0.290223
403 2 0.167723 0.126393 0.334661
404 4 0.175174 0.10283 0.338464
546 4 0.180553 0.17015 0.267114
707 4 0.398743 0.159282 0.252324
743 4 0.408139 0.097675 0.271991
332 4 0.404555 0.148695 0.309101
333 4 0.41995 0.106235 0.287632
331 2 0.412253 0.127465 0.298366
762 4 0.422283 0.155304 0.312622
396 4 0.0454105 0.225105 0.241301
394 2 0.0403826 0.238468 0.261828
391 2 0.083366 0.183798 0.316088
472 2 0.230667 0.216331 0.340541
474 4 0.207479 0.214854 0.331306
276 4 0.188468 0.221829 0.326592
613 2 0.40545 0.239436 0.325208
614 4 0.409418 0.225347 0.304937
761 4 0.41263 0.203892 0.305781
520 2 0.491142 0.238391 0.262638
760 2 0.417456 0.179598 0.309202
418 2 0.438457 0.230251 0.280244
419 4 0.42911 0.21726 0.299455
420 4 0.447804 0.243242 0.261034
521 4 0.46809 0.244636 0.255238
442 2 0.0149308 0.289523 0.277056
395 4 0.0353547 0.25183 0.282355
444 4 0.0320845 0.27192 0.281644
278 4 0.234605 0.271283 0.253191
345 4 0.230029 0.253299 0.26353
309 4 0.246463 0.265917 0.27052
307 2 0.252456 0.280767 0.289722
308 4 0.258448 0.295617 0.308925
497 4 0.271998 0.310175 0.301013
496 2 0.296607 0.312845 0.297484
509 4 0.276298 0.30237 0.320314
498 4 0.321216 0.315515 0.293955
763 2 0.413228 0.315126 0.270104
764 4 0.406621 0.323128 0.292852
408 4 0.0235952 0.352298 0.336664
734 4 0.143791 0.368029 0.277745
733 2 0.15843 0.360733 0.296657
677 4 0.17221 0.354571 0.335693
299 4 0.149458 0.363568 0.25772
735 4 0.173069 0.353436 0.315568
729 4 0.328604 0.37878 0.264383
438 4 0.308687 0.377486 0.257191
436 2 0.290894 0.392692 0.265989
437 4 0.273102 0.407897 0.274787
727 2 0.348485 0.385284 0.27808
728 4 0.368366 0.391787 0.291778
753 4 0.361203 0.40694 0.305504
751 2 0.379006 0.403744 0.322768
445 2 0.423956 0.407171 0.262085
446 4 0.428186 0.411172 0.286401
713 4 0.442982 0.414241 0.298952
712 2 0.467763 0.417559 0.29914
1758 4 0.0549197 0.478178 0.264458
601 2 0.122965 0.442742 0.248166
412 2 0.113664 0.455597 0.301225
602 4 0.111348 0.45897 0.263228
414 4 0.124366 0.455734 0.278628
413 4 0.102962 0.45546 0.323823
1545 4 0.101996 0.475111 0.332631
1435 2 0.239768 0.4363 0.270551
1437 4 0.218073 0.448684 0.271622
1436 4 0.261462 0.423915 0.26948
1575 4 0.373226 0.466185 0.253141
1803 4 0.365782 0.412495 0.285276
1802 4 0.383359 0.456594 0.269559
1801 2 0.374571 0.434545 0.277417
5 3 0.347681 0.469468 0.32507
1689 4 0.394094 0.470223 0.256127
1687 2 0.407486 0.490771 0.260987
231 4 0.475265 0.490736 0.305019
714 4 0.492545 0.420877 0.299328
233 4 0.0170049 0.0405022 0.375029
318 4 0.0790994 0.05874 0.391948
234 4 0.0594748 0.0620725 0.390252
232 2 0.0382398 0.0512873 0.38264
316 2 0.0986767 0.0465862 0.401653
317 4 0.118254 0.0344324 0.411358
1464 4 0.135919 0.00804411 0.347352
606 4 0.255986 0.00530915 0.331856
682 2 0.27623 0.0595663 0.409401
683 4 0.286689 0.0533656 0.387553
633 4 0.321465 0.00555466 0.34377
698 4 0.415205 0.0378571 0.321841
425 4 0.403608 0.0453182 0.407978
258 4 0.403995 0.0526672 0.389339
256 2 0.411103 0.0478788 0.36585
257 4 0.418211 0.0430904 0.342361
452 4 0.481988 0.070327 0.37906
451 2 0.461087 0.0823573 0.385664
2641 2 0.498025 0.0551802 0.353745
2643 4 0.48456 0.0514528 0.37448
398 4 0.0148247 0.120776 0.329255
397 2 0.0313947 0.132122 0.34415
399 4 0.0479647 0.143469 0.359046
732 4 0.0595931 0.128462 0.359741
368 4 0.0832934 0.0974214 0.411137
731 4 0.103192 0.149345 0.372538
730 2 0.0813925 0.138904 0.36614
599 4 0.112217 0.165641 0.362187
598 2 0.128394 0.164179 0.343178
685 2 0.135886 0.150723 0.39873
686 4 0.12279 0.156653 0.378273
367 2 0.104584 0.100905 0.423777
467 4 0.276697 0.159082 0.402165
515 4 0.432466 0.0851263 0.409573
453 4 0.440186 0.0943875 0.392267
392 4 0.0796492 0.200979 0.333869
2653 2 0.0573656 0.202734 0.371771
2655 4 0.0477217 0.201081 0.39478
2654 4 0.0670095 0.204387 0.348761
275 4 0.162843 0.204471 0.36587
274 2 0.175656 0.21315 0.346231
473 4 0.253856 0.217808 0.349777
409 2 0.289079 0.233065 0.382399
466 2 0.289875 0.176459 0.389936
468 4 0.303053 0.193836 0.377706
410 4 0.293741 0.209134 0.387944
305 4 0.393712 0.186972 0.397552
576 4 0.389842 0.1734 0.413545
269 4 0.439488 0.22224 0.370993
306 4 0.437307 0.208053 0.385072
304 2 0.415509 0.197512 0.391312
268 2 0.437991 0.247114 0.368938
617 4 0.0847679 0.268702 0.366667
616 2 0.0820112 0.26892 0.391517
2814 4 0.00540636 0.32428 0.402841
2801 4 0.00429798 0.33186 0.422183
389 4 0.139986 0.286249 0.33045
388 2 0.119733 0.283274 0.344808
401 4 0.158133 0.281135 0.337334
390 4 0.09948 0.280299 0.359166
400 2 0.171639 0.284368 0.358126
375 4 0.19594 0.2912 0.395401
402 4 0.185145 0.287601 0.378918
373 2 0.216633 0.301331 0.385689
374 4 0.237327 0.311462 0.375978
678 4 0.199279 0.313528 0.344828
411 4 0.284417 0.256997 0.376854
510 4 0.251939 0.301614 0.363981
508 2 0.264118 0.301992 0.342147
378 4 0.252534 0.299557 0.385379
489 4 0.306376 0.27095 0.421642
376 2 0.271278 0.289483 0.398507
487 2 0.327674 0.260489 0.413759
615 4 0.401481 0.253525 0.34548
716 4 0.397014 0.262788 0.363861
715 2 0.381832 0.252256 0.380705
717 4 0.366649 0.241724 0.39755
488 4 0.348972 0.250027 0.405875
270 4 0.436494 0.271988 0.366882
2924 4 0.430226 0.281355 0.383533
548 4 0.0343778 0.399698 0.375307
406 2 0.0215731 0.368721 0.355409
407 4 0.019551 0.385144 0.374154
547 2 0.0317527 0.42215 0.364621
504 4 0.159572 0.391083 0.4204
676 2 0.185745 0.33405 0.34026
502 2 0.184079 0.393757 0.416222
503 4 0.208586 0.396431 0.412043
650 4 0.223762 0.406978 0.408202
649 2 0.236907 0.389352 0.396297
434 4 0.323695 0.392194 0.352547
651 4 0.250053 0.371727 0.384392
752 4 0.396808 0.400547 0.340031
667 2 0.416373 0.406905 0.409105
561 4 0.413722 0.406272 0.330659
559 2 0.426242 0.40898 0.352132
560 4 0.438763 0.411688 0.373605
668 4 0.436032 0.404936 0.393781
588 4 0.456267 0.408297 0.385359
586 2 0.471341 0.421574 0.400247
775 2 0.0605294 0.461604 0.33469
777 4 0.0370227 0.458582 0.342657
549 4 0.0291275 0.444602 0.353934
776 4 0.0840362 0.464626 0.326723
1543 2 0.110119 0.494463 0.346221
433 2 0.318222 0.415261 0.344601
2 3 0.327808 0.486777 0.351496
435 4 0.312748 0.438327 0.336655
4 3 0.32547 0.449434 0.347938
1 1 0.339632 0.467741 0.346304
3 3 0.357216 0.465514 0.361279
3990 4 0.498753 0.445272 0.342227
119 3 0.513058 0.434426 0.351623
3988 2 0.48837 0.464032 0.35509
3989 4 0.477987 0.482792 0.367952
2238 4 0.0294802 0.017564 0.482402
1127 4 0.00921975 0.0145257 0.477198
428 4 0.111319 0.0224732 0.428004
1781 4 0.115736 0.0430338 0.431328
1780 2 0.126391 0.0539891 0.451117
1782 4 0.137047 0.0649444 0.470907
341 4 0.155309 0.0717131 0.479888
2430 4 0.146876 0.0525346 0.485685
340 2 0.174715 0.0851055 0.471567
1180 2 0.269266 0.0448194 0.46805
1181 4 0.268042 0.0251415 0.483427
1182 4 0.27049 0.0644973 0.452673
684 4 0.265771 0.0657671 0.431249
963 4 0.259386 0.00585119 0.486069
430 2 0.303373 0.00305215 0.481846
432 4 0.280671 0.00904596 0.49044
1217 4 0.403309 0.00796006 0.464121
841 2 0.363362 0.00834926 0.462929
842 4 0.385804 0.00558932 0.452257
426 4 0.405037 0.00960702 0.442955
424 2 0.404322 0.0274626 0.425466
843 4 0.340919 0.0111092 0.473601
1216 2 0.426599 0.0109817 0.4727
1218 4 0.44989 0.0140034 0.481279
458 4 0.00776862 0.142098 0.434262
457 2 0.0187985 0.124174 0.447762
719 4 0.0266085 0.109169 0.481685
459 4 0.0298284 0.106251 0.461263
687 4 0.148983 0.144793 0.419187
369 4 0.125874 0.104389 0.436417
939 4 0.120519 0.11514 0.451718
937 2 0.123959 0.138782 0.459094
938 4 0.127399 0.162424 0.466471
342 4 0.19412 0.098498 0.463247
1151 4 0.164845 0.134339 0.414318
1152 4 0.192724 0.111494 0.448982
1150 2 0.178785 0.122916 0.43165
320 4 0.268678 0.0835407 0.443399
321 4 0.265624 0.133164 0.448775
319 2 0.267151 0.108352 0.446087
899 4 0.267015 0.146491 0.435616
516 4 0.414949 0.118837 0.442092
574 2 0.39694 0.150487 0.420601
575 4 0.404037 0.127573 0.427656
514 2 0.423708 0.101982 0.425832
1034 4 0.141718 0.170981 0.45449
261 4 0.108115 0.218618 0.457338
1035 4 0.123127 0.214116 0.47165
1033 2 0.132422 0.192548 0.46307
695 4 0.107255 0.227742 0.476929
259 2 0.0977681 0.237382 0.444452
694 2 0.105436 0.230978 0.501655
898 2 0.268923 0.167423 0.449157
900 4 0.27083 0.188356 0.462698
813 4 0.380079 0.228173 0.468719
266 4 0.394721 0.230595 0.456179
265 2 0.378834 0.234606 0.437293
811 2 0.386115 0.235348 0.491898
2656 2 0.484878 0.185757 0.447676
2657 4 0.462017 0.195821 0.448798
2802 4 0.0222098 0.295695 0.451712
2847 4 0.0142525 0.293246 0.468897
2800 2 0.0132539 0.313777 0.436948
2845 2 0.00275235 0.292963 0.491098
618 4 0.0792546 0.269137 0.416368
347 4 0.0863484 0.277557 0.434633
260 4 0.0874215 0.256146 0.431566
346 2 0.104399 0.29457 0.437778
348 4 0.12245 0.311584 0.440922
10 3 0.122647 0.315055 0.460375
9 3 0.135224 0.31253 0.495774
8 3 0.159733 0.313828 0.466757
6 1 0.13924 0.321298 0.47467
377 4 0.290023 0.27941 0.411635
267 4 0.362946 0.238616 0.418407
238 2 0.396105 0.329339 0.441885
2925 4 0.412982 0.302392 0.425495
2923 2 0.421604 0.291873 0.404514
239 4 0.411581 0.309975 0.445158
2455 2 0.499614 0.319879 0.499228
584 4 0.45865 0.318437 0.488945
583 2 0.438761 0.306158 0.497823
2456 4 0.475973 0.326322 0.494251
680 4 0.0460358 0.3797 0.449265
679 2 0.0518214 0.400573 0.461756
681 4 0.057607 0.421446 0.474247
7 3 0.139748 0.34425 0.476127
711 4 0.128919 0.360577 0.467682
709 2 0.134733 0.375175 0.448233
710 4 0.140546 0.389772 0.428783
669 4 0.396714 0.408873 0.424429
240 4 0.38063 0.348703 0.438612
335 4 0.361704 0.357265 0.433406
334 2 0.369671 0.380464 0.428556
336 4 0.377637 0.403663 0.423706
383 4 0.0635378 0.439836 0.472593
540 4 0.0257987 0.462272 0.462122
538 2 0.0350963 0.464715 0.485204
382 2 0.0853817 0.451116 0.468036
568 2 0.120929 0.494264 0.436625
384 4 0.107226 0.462397 0.46348
569 4 0.11267 0.473244 0.447355
635 4 0.181259 0.469397 0.471284
772 2 0.217245 0.467254 0.453987
774 4 0.200874 0.464548 0.472691
773 4 0.233617 0.469961 0.435283
634 2 0.180074 0.475157 0.495586
587 4 0.486416 0.434851 0.415135
663 4 0.476879 0.438523 0.434371
2507 4 0.486738 0.419401 0.431636
662 4 0.464048 0.475054 0.466018
1909 2 0.483882 0.501942 0.495244
1910 4 0.478433 0.484532 0.478144
661 2 0.470463 0.456788 0.450194
2428 2 0.133884 0.0561353 0.506743
2429 4 0.120892 0.0597359 0.5278
1030 2 0.244612 0.0325485 0.562487
1032 4 0.258594 0.0487719 0.549583
1283 4 0.215444 0.0310663 0.578742
1031 4 0.230631 0.0163252 0.57539
720 4 0.023197 0.103207 0.531218
718 2 0.0249028 0.106188 0.506452
327 4 0.089224 0.245347 0.537856
879 4 0.11935 0.202629 0.584527
877 2 0.109164 0.215554 0.565703
878 4 0.0989775 0.228479 0.546878
696 4 0.103617 0.234213 0.526382
857 4 0.175654 0.204928 0.549037
856 2 0.198057 0.212202 0.557427
858 4 0.22046 0.219476 0.565816
952 2 0.404318 0.215472 0.544541
953 4 0.393689 0.236253 0.535577
812 4 0.39215 0.242523 0.515077
791 4 0.374546 0.241097 0.527725
873 4 0.388702 0.256922 0.531056
954 4 0.414947 0.194692 0.553505
905 4 0.431743 0.199747 0.562226
982 2 0.0254274 0.284078 0.539334
984 4 0.0483639 0.283566 0.549275
326 4 0.068209 0.290485 0.542515
1136 4 0.0507953 0.303165 0.540711
1135 2 0.0667272 0.320741 0.548612
983 4 0.00249091 0.284589 0.529392
325 2 0.0787165 0.267916 0.540185
1258 2 0.152128 0.308946 0.531285
1259 4 0.135194 0.317258 0.514874
1260 4 0.169062 0.300633 0.547695
1238 4 0.339176 0.285448 0.561329
1237 2 0.320858 0.298968 0.550992
1239 4 0.30254 0.312488 0.540656
792 4 0.339253 0.271274 0.546287
790 2 0.356899 0.256185 0.537006
871 2 0.408565 0.271731 0.527686
872 4 0.428427 0.28654 0.524316
585 4 0.418872 0.293879 0.506701
936 4 0.0310341 0.401019 0.532225
3353 4 0.0183443 0.393987 0.518799
3352 2 0.994788 0.385845 0.516798
1137 4 0.082659 0.338318 0.556513
1160 4 0.11291 0.403769 0.533077
804 4 0.303559 0.332053 0.54573
803 4 0.275082 0.354201 0.58036
802 2 0.28932 0.343127 0.563045
925 2 0.471551 0.392402 0.533278
927 4 0.472373 0.400473 0.556929
1001 4 0.476729 0.385749 0.569027
1000 2 0.489601 0.39972 0.585284
926 4 0.470729 0.384331 0.509627
934 2 0.0396014 0.41527 0.550898
3430 2 0.0277016 0.468846 0.559684
539 4 0.0443938 0.467158 0.508285
3431 4 0.0153179 0.487891 0.549239
935 4 0.0481687 0.429522 0.569571
3432 4 0.0400854 0.449801 0.57013
1041 4 0.0522447 0.442861 0.586372
1159 2 0.116265 0.42132 0.550567
1161 4 0.11962 0.438872 0.568056
1395 4 0.1977 0.486441 0.527494
636 4 0.17889 0.480918 0.519888
1455 4 0.336872 0.461858 0.548317
1453 2 0.339076 0.441026 0.561968
1454 4 0.34128 0.420194 0.575619
881 4 0.359352 0.422452 0.583098
1183 2 0.0317816 0.052927 0.658086
1184 4 0.0207247 0.0313674 0.651913
1185 4 0.0428384 0.0744867 0.664259
1059 4 0.182707 0.0625785 0.611936
1284 4 0.173806 0.0517833 0.597121
1282 2 0.194625 0.0414248 0.587932
2132 4 0.22555 0.0221416 0.595585
2281 2 0.342847 0.99953 0.657091
1060 2 0.499193 0.0151519 0.602384
1083 4 0.0126674 0.12187 0.623937
1081 2 0.0250974 0.107989 0.64061
1082 4 0.0375275 0.0941082 0.657283
944 4 0.0497146 0.0918089 0.674848
3179 4 0.00738745 0.140132 0.627577
943 2 0.0707577 0.104724 0.678792
945 4 0.0918009 0.11764 0.682737
1057 2 0.183903 0.0865583 0.618916
1058 4 0.185099 0.110538 0.625896
1155 4 0.186064 0.131833 0.625723
1153 2 0.186322 0.155389 0.617342
909 4 0.184265 0.121482 0.644172
907 2 0.193464 0.126251 0.666927
886 2 0.331776 0.15793 0.628495
888 4 0.312034 0.173273 0.62861
1193 4 0.411703 0.127136 0.608551
887 4 0.351518 0.142586 0.62838
1194 4 0.372244 0.14427 0.634048
1192 2 0.391973 0.135703 0.621299
830 4 0.35816 0.134987 0.647911
810 4 0.462846 0.075624 0.594057
808 2 0.481067 0.0924487 0.590879
809 4 0.499288 0.109273 0.587701
1026 4 0.450069 0.144327 0.654338
1024 2 0.45337 0.150083 0.630231
852 4 0.0630839 0.239158 0.666045
850 2 0.0637279 0.21488 0.671989
1272 4 0.138106 0.207526 0.593138
1270 2 0.162385 0.20344 0.597498
1154 4 0.18658 0.178945 0.608961
1271 4 0.186664 0.199354 0.601859
1221 4 0.202781 0.193089 0.615069
1219 2 0.226776 0.199342 0.61828
1220 4 0.250771 0.205595 0.621491
796 2 0.245985 0.24837 0.637748
798 4 0.251249 0.226941 0.62599
1212 4 0.263925 0.213523 0.636624
1211 4 0.297728 0.177275 0.643269
1210 2 0.280827 0.195399 0.639947
1025 4 0.456672 0.155839 0.606124
904 2 0.437988 0.185485 0.581791
906 4 0.444234 0.171224 0.601356
1209 4 0.0772988 0.24412 0.650556
1245 4 0.0564028 0.23966 0.645864
1243 2 0.0396191 0.25764 0.641369
1244 4 0.0228355 0.27562 0.636874
946 2 0.158445 0.286242 0.664563
1207 2 0.0973802 0.25688 0.658243
948 4 0.179078 0.298604 0.65773
797 4 0.240721 0.2698 0.649505
3114 4 0.501199 0.265006 0.620867
897 4 0.167246 0.410427 0.591469
1191 4 0.21332 0.36389 0.59901
1189 2 0.23819 0.362796 0.596667
896 4 0.204973 0.377988 0.586459
895 2 0.18611 0.394207 0.588964
1190 4 0.26306 0.361701 0.594324
929 4 0.367152 0.342813 0.627545
880 2 0.37664 0.404398 0.582484
882 4 0.393927 0.386345 0.58187
930 4 0.383804 0.370467 0.589352
928 2 0.375478 0.35664 0.608449
1002 4 0.502473 0.413691 0.601541
1205 4 0.456338 0.412174 0.655724
1206 4 0.488848 0.418109 0.618193
1204 2 0.472593 0.415142 0.636959
3264 4 0.0324564 0.434664 0.583792
1039 2 0.0762603 0.443446 0.593307
3262 2 0.0208821 0.433974 0.605944
3238 2 0.0153896 0.466355 0.650757
3239 4 0.00364225 0.453136 0.633081
3263 4 0.00930775 0.433283 0.628097
992 4 0.149251 0.417569 0.598538
1040 4 0.100276 0.44403 0.600242
993 4 0.110388 0.442313 0.617982
991 2 0.129819 0.429941 0.60826
1188 4 0.187228 0.489423 0.66149
1173 4 0.271228 0.49276 0.601794
1172 4 0.284436 0.463152 0.639868
1171 2 0.277832 0.477956 0.620831
891 4 0.302592 0.465778 0.64892
3182 4 0.496292 0.434081 0.60584
3181 2 0.489923 0.457956 0.602017
3183 4 0.483553 0.48183 0.598194
2049 4 0.119148 0.988573 0.734415
1202 4 0.113284 0.00361644 0.745972
2400 4 0.357704 0.0543152 0.714687
2283 4 0.351462 0.0145435 0.675134
2398 2 0.358592 0.0543228 0.739675
43 3 0.464773 0.057277 0.718506
846 4 0.4525 0.0447082 0.729987
41 1 0.4769 0.0770572 0.718201
44 3 0.468052 0.0915302 0.702369
844 2 0.43796 0.032209 0.746036
1076 4 0.0286399 0.0859236 0.675383
1075 2 0.017718 0.0931873 0.69667
1077 4 0.00679611 0.100451 0.717956
1179 4 0.0162808 0.170261 0.713629
908 4 0.202662 0.131021 0.689683
1227 4 0.197434 0.111783 0.694458
1226 4 0.193494 0.103804 0.743667
1225 2 0.195464 0.107793 0.719063
1130 4 0.201232 0.116321 0.760026
829 2 0.350049 0.131316 0.671276
831 4 0.341938 0.127646 0.694641
1143 4 0.442597 0.136884 0.673043
1263 4 0.448999 0.157436 0.670977
42 3 0.47551 0.0869513 0.738922
1142 4 0.459297 0.0912278 0.684761
1141 2 0.450947 0.114056 0.678902
3426 4 0.491097 0.15856 0.730204
1261 2 0.446673 0.16618 0.694286
1177 2 0.0367238 0.182241 0.705646
1178 4 0.0571667 0.194221 0.697662
851 4 0.0643719 0.190602 0.677934
1107 4 0.0756369 0.183673 0.695406
1105 2 0.090339 0.184843 0.715597
1106 4 0.105041 0.186014 0.735787
1073 4 0.122962 0.192099 0.729723
1298 4 0.244933 0.222688 0.750985
1299 4 0.288927 0.201136 0.74095
1297 2 0.26693 0.211912 0.745968
1086 4 0.309003 0.199955 0.74409
3270 4 0.475444 0.161809 0.744586
1262 4 0.444346 0.174923 0.717595
1145 4 0.490423 0.227754 0.726557
1144 2 0.487633 0.20322 0.730489
1146 4 0.484842 0.178685 0.73442
947 4 0.137813 0.273881 0.671396
1208 4 0.117462 0.26964 0.665931
820 2 0.12442 0.27697 0.710887
822 4 0.121985 0.275489 0.686046
821 4 0.126855 0.278452 0.735727
1067 4 0.134813 0.335482 0.70646
1098 4 0.318498 0.326138 0.723057
1065 4 0.251911 0.323025 0.680941
1096 2 0.329204 0.327763 0.745595
892 2 0.0588267 0.39512 0.724912
893 4 0.0627873 0.370561 0.727436
942 4 0.0799972 0.364498 0.738521
815 4 0.0604846 0.364322 0.74795
940 2 0.10015 0.356676 0.725957
941 4 0.120303 0.348853 0.713394
1066 2 0.151247 0.354308 0.707276
1068 4 0.167682 0.373135 0.708092
1028 4 0.166204 0.378 0.688909
1139 4 0.22263 0.412509 0.674374
1029 4 0.209187 0.396823 0.671621
1027 2 0.187696 0.387412 0.680265
1063 2 0.2588 0.336127 0.701092
1064 4 0.265689 0.349228 0.721243
806 4 0.275208 0.357153 0.739039
805 2 0.294021 0.372318 0.745462
1236 4 0.256328 0.347006 0.74037
1099 2 0.435434 0.404212 0.685282
1101 4 0.425788 0.386217 0.699715
1100 4 0.445081 0.422208 0.67085
894 4 0.0548662 0.419678 0.722388
2172 4 0.0385236 0.493682 0.680354
1279 2 0.0373975 0.457143 0.704249
3276 4 0.0367707 0.424752 0.733038
1983 4 0.0558091 0.43521 0.737317
1280 4 0.0455711 0.438695 0.719016
1281 4 0.029224 0.47559 0.689482
3240 4 0.027137 0.479573 0.668433
1981 2 0.072664 0.450428 0.747782
1176 4 0.192931 0.471121 0.725731
2016 4 0.181333 0.479749 0.740579
1138 2 0.239214 0.424228 0.688962
1174 2 0.193929 0.480567 0.702602
1175 4 0.194927 0.490012 0.679472
889 2 0.301344 0.479669 0.669673
1140 4 0.255797 0.435947 0.703551
890 4 0.300097 0.493559 0.690425
1269 4 0.463627 0.430912 0.664019
2169 4 0.485113 0.478105 0.679471
1268 4 0.476292 0.468568 0.694388
1267 2 0.469959 0.44974 0.679203
2988 4 0.407233 0.498452 0.75958
1195 2 0.083681 0.0185563 0.8152
1196 4 0.0898158 0.0378381 0.800512
911 4 0.103556 0.0509473 0.790634
1203 4 0.0934119 0.034555 0.779864
1201 2 0.103348 0.0190857 0.762918
910 2 0.104437 0.0728425 0.802676
1147 2 0.229584 0.0814979 0.759098
1149 4 0.248597 0.0658112 0.763294