ITEM: TIMESTEP
380000
ITEM: NUMBER OF ATOMS
4590
ITEM: BOX BOUNDS pp pp pp
-9.9985700000000008e+00 9.9985700000000008e+00
-9.9985700000000008e+00 9.9985700000000008e+00
-9.9985700000000008e+00 9.9985700000000008e+00
ITEM: ATOMS id type xs ys zs
463 2 0.03187 0.0228184 0.0457014
465 4 0.0434146 0.0383987 0.0614861
464 4 0.0203255 0.00723814 0.0299167
3291 4 0.0179899 0.0172272 0.0126821
1666 2 0.0917599 0.999251 0.0525714
1667 4 0.0943719 0.0185328 0.0368694
700 2 0.0844095 0.073652 0.0714659
702 4 0.108112 0.0684867 0.0775233
534 4 0.194122 0.0793372 0.014854
491 4 0.228926 0.0335815 0.0270933
490 2 0.250637 0.0260599 0.0172331
492 4 0.272348 0.0185384 0.00737297
653 4 0.323996 0.0211262 0.0805884
745 2 0.456932 0.0863068 0.0237515
747 4 0.464767 0.0627667 0.0268607
2975 4 0.482748 0.0548994 0.0281915
2974 2 0.498949 0.037607 0.0361705
589 2 0.0490417 0.138411 0.0550808
590 4 0.0429942 0.126642 0.0338657
3233 4 0.0420071 0.111528 0.0202341
591 4 0.0550892 0.150181 0.076296
701 4 0.060707 0.0788174 0.0654086
422 4 0.122642 0.108764 0.00216816
565 2 0.208104 0.119717 0.0732745
566 4 0.186866 0.131782 0.0679319
567 4 0.229342 0.107651 0.0786171
358 2 0.2758 0.145052 0.0255424
359 4 0.283601 0.145107 0.0492978
360 4 0.267999 0.144998 0.00178694
557 4 0.380664 0.117324 0.0170064
556 2 0.376604 0.125124 0.0404128
558 4 0.372543 0.132924 0.0638191
746 4 0.449098 0.109847 0.0206423
555 4 0.0404938 0.211818 0.0268733
553 2 0.0451479 0.218125 0.00313023
476 4 0.132913 0.174656 0.0702463
571 2 0.313177 0.247195 0.03838
572 4 0.307821 0.222772 0.0384247
357 4 0.24521 0.250256 0.0057598
666 4 0.320436 0.216342 0.0211737
664 2 0.323144 0.198121 0.0042667
771 4 0.469228 0.223097 0.0614691
770 4 0.467565 0.181118 0.0343458
769 2 0.468397 0.202107 0.0479074
323 4 0.458774 0.234964 0.0763223
518 4 0.479717 0.231509 0.0783876
292 2 0.129867 0.32143 0.0305039
293 4 0.151117 0.308519 0.0278743
507 4 0.155303 0.291019 0.0367142
505 2 0.171618 0.277167 0.0496421
506 4 0.187932 0.263315 0.0625701
483 4 0.21109 0.326981 0.0785532
481 2 0.232689 0.328326 0.0660297
573 4 0.318534 0.271618 0.0383353
1069 2 0.389435 0.273551 0.016377
1070 4 0.40814 0.284755 0.0286159
955 2 0.375118 0.329649 0.00820472
957 4 0.35362 0.331831 0.0207853
330 4 0.0340224 0.356537 0.0160038
328 2 0.0321874 0.381415 0.014302
329 4 0.0303524 0.406293 0.0126003
294 4 0.108617 0.334342 0.0331334
455 4 0.102487 0.402258 0.0879908
454 2 0.126468 0.395482 0.0859508
456 4 0.15045 0.388707 0.0839107
288 4 0.165685 0.369862 0.0148918
287 4 0.200406 0.367429 0.0507984
286 2 0.183046 0.368646 0.0328451
482 4 0.254288 0.329672 0.0535063
252 4 0.253269 0.348678 0.049046
250 2 0.260453 0.372625 0.0487024
251 4 0.267636 0.396572 0.0483588
609 4 0.275332 0.401903 0.0664367
281 4 0.452553 0.342104 0.0666177
280 2 0.466688 0.345882 0.0463417
282 4 0.480823 0.349659 0.0260656
550 2 0.0469713 0.437835 0.0684428
551 4 0.0557934 0.443488 0.0457404
245 4 0.250448 0.448068 0.0345407
244 2 0.260448 0.463875 0.0179479
246 4 0.270448 0.479682 0.00135506
272 4 0.286167 0.479984 0.0120511
271 2 0.301564 0.498694 0.00588192
564 4 0.408294 0.466908 0.00253535
562 2 0.425617 0.484533 0.00633177
228 4 0.493463 0.494437 0.042178
20 3 0.0408225 0.0754146 0.143291
16 1 0.041045 0.059615 0.159692
17 3 0.0311413 0.0403974 0.151833
450 4 0.188199 0.0538722 0.121513
448 2 0.188583 0.0750366 0.134821
1505 4 0.197564 0.0240027 0.16195
1475 4 0.20112 0.0162539 0.0895492
1504 2 0.21546 0.00715627 0.166546
652 2 0.312679 0.0274738 0.101962
654 4 0.301362 0.0338214 0.123335
296 4 0.392284 0.0499723 0.0827474
295 2 0.389139 0.0747432 0.0840453
1760 4 0.504885 0.0156809 0.142952
1759 2 0.487308 0.998948 0.148972
379 2 0.00842224 0.166836 0.160585
449 4 0.188968 0.096201 0.148129
237 4 0.184975 0.159181 0.133663
235 2 0.182284 0.134369 0.135188
236 4 0.179593 0.109558 0.136713
693 4 0.228826 0.099484 0.154943
582 4 0.278508 0.123645 0.159426
297 4 0.385993 0.0995142 0.0853433
629 4 0.445822 0.159613 0.151622
310 2 0.436416 0.113963 0.150096
311 4 0.449529 0.130106 0.136217
380 4 0.998687 0.166442 0.137558
475 2 0.125064 0.180846 0.0931646
477 4 0.117215 0.187036 0.116083
737 4 0.197261 0.242053 0.0902977
736 2 0.197023 0.22088 0.103596
738 4 0.196785 0.199707 0.116894
354 4 0.302219 0.215177 0.104451
352 2 0.283622 0.230167 0.111841
460 2 0.327885 0.191256 0.0895759
461 4 0.304622 0.198017 0.0957648
353 4 0.265024 0.245156 0.119231
255 4 0.362285 0.193682 0.0981753
462 4 0.351148 0.184496 0.083387
254 4 0.409012 0.188694 0.115274
253 2 0.385649 0.191188 0.106725
322 2 0.438545 0.244097 0.0878363
630 4 0.420401 0.196992 0.130237
628 2 0.433111 0.178303 0.14093
528 4 0.490753 0.25089 0.145621
337 2 0.0915763 0.263121 0.142119
339 4 0.0992856 0.27357 0.120751
537 4 0.165092 0.337573 0.150533
754 2 0.279774 0.284374 0.105921
755 4 0.275374 0.261512 0.115041
756 4 0.284174 0.307236 0.0968018
741 4 0.363373 0.321755 0.102498
622 2 0.410608 0.294824 0.112524
624 4 0.406761 0.29627 0.137187
623 4 0.414455 0.293378 0.0878603
671 4 0.463875 0.342946 0.0828763
324 4 0.418317 0.253229 0.0993504
672 4 0.471382 0.303743 0.113
670 2 0.467629 0.323345 0.0979383
517 2 0.501865 0.239477 0.0868236
526 2 0.501635 0.271504 0.154668
621 4 0.00469193 0.337123 0.118911
619 2 0.0134823 0.360445 0.12091
620 4 0.0222728 0.383767 0.122908
535 2 0.158571 0.35714 0.164668
612 4 0.219445 0.350014 0.168981
610 2 0.243547 0.343402 0.169742
626 4 0.242985 0.405367 0.104059
607 2 0.294681 0.412454 0.0782458
387 4 0.310947 0.405371 0.132316
739 2 0.354864 0.344493 0.10848
740 4 0.346355 0.36723 0.114462
385 2 0.33224 0.392397 0.130449
386 4 0.353532 0.379423 0.128582
14 3 0.40526 0.380493 0.142741
495 4 0.393093 0.396167 0.140064
13 3 0.414118 0.348132 0.160592
15 3 0.428987 0.355929 0.126891
11 1 0.421998 0.364899 0.146622
12 3 0.439715 0.375401 0.156868
595 2 0.473579 0.386056 0.141801
597 4 0.45369 0.392151 0.155675
596 4 0.493468 0.379961 0.127928
552 4 0.0381492 0.432183 0.0911452
315 4 0.0372034 0.470206 0.102814
313 2 0.0268367 0.45638 0.120885
314 4 0.01647 0.442555 0.138956
242 4 0.142544 0.499106 0.0899282
417 4 0.16662 0.421862 0.128235
415 2 0.17751 0.423816 0.150658
625 2 0.222371 0.419431 0.102494
627 4 0.201757 0.433496 0.100928
637 2 0.249597 0.483901 0.155632
639 4 0.250852 0.49874 0.135548
608 4 0.31403 0.423006 0.0900549
524 4 0.339613 0.496512 0.0860224
493 2 0.400862 0.419704 0.143356
525 4 0.343882 0.489378 0.135334
523 2 0.341748 0.492945 0.110678
658 2 0.358262 0.460051 0.165975
659 4 0.345295 0.474506 0.150224
494 4 0.408631 0.44324 0.146648
19 3 0.0629185 0.0548316 0.16578
18 3 0.0291626 0.067177 0.178131
2481 4 0.024382 0.0675837 0.198924
2479 2 0.0101864 0.0475611 0.203694
673 2 0.122302 0.0470208 0.214183
674 4 0.126393 0.0643164 0.196596
675 4 0.118211 0.0297252 0.23177
1403 4 0.106945 0.015703 0.240736
688 2 0.217499 0.0585723 0.246158
690 4 0.199001 0.0660271 0.231077
1783 2 0.413599 0.00399895 0.197178
21 1 0.375191 0.0700265 0.231006
23 3 0.358537 0.0547405 0.225772
25 3 0.395663 0.0608978 0.226977
759 4 0.409393 0.056566 0.213296
757 2 0.414933 0.0673326 0.19142
1784 4 0.417877 0.0284404 0.20026
758 4 0.420474 0.0780992 0.169544
742 2 0.467274 0.0586079 0.242075
743 4 0.486595 0.0738348 0.237596
744 4 0.447954 0.0433811 0.246553
381 4 0.0181577 0.167229 0.183612
511 2 0.0202087 0.150821 0.22477
513 4 0.0203758 0.146562 0.249407
512 4 0.0200416 0.15508 0.200132
577 2 0.0602125 0.11128 0.242891
578 4 0.0573543 0.119935 0.219608
546 4 0.184446 0.155929 0.235725
722 4 0.175408 0.136522 0.231621
692 4 0.20253 0.106491 0.196897
723 4 0.183422 0.105107 0.193548
691 2 0.215678 0.102988 0.17592
721 2 0.179415 0.120815 0.212585
580 2 0.270633 0.116614 0.182092
581 4 0.262759 0.109583 0.204757
30 3 0.318188 0.170178 0.237944
26 1 0.32505 0.150138 0.22958
28 3 0.312618 0.144745 0.210745
29 3 0.322632 0.133597 0.245672
24 3 0.372497 0.0893081 0.218382
27 3 0.347237 0.151587 0.223681
312 4 0.423303 0.0978205 0.163975
394 2 0.0342662 0.238966 0.229891
395 4 0.0346094 0.214244 0.22617
284 4 0.277999 0.223118 0.177086
285 4 0.271042 0.173598 0.176996
283 2 0.274521 0.198358 0.177041
344 4 0.259275 0.253325 0.227947
764 4 0.373814 0.204785 0.205351
763 2 0.389823 0.222116 0.213629
765 4 0.405832 0.239447 0.221906
396 4 0.0339231 0.263689 0.233611
750 4 0.0431796 0.273161 0.247842
363 4 0.0784445 0.245452 0.181496
338 4 0.0838669 0.252672 0.163486
362 4 0.116596 0.256956 0.211709
361 2 0.0975202 0.251204 0.196603
372 4 0.136062 0.257253 0.206118
300 4 0.0928016 0.320631 0.231285
370 2 0.16106 0.256723 0.206111
298 2 0.113247 0.331847 0.240306
279 4 0.223509 0.293035 0.18431
371 4 0.186058 0.256193 0.206104
277 2 0.246204 0.283798 0.179332
343 2 0.245891 0.257309 0.248688
278 4 0.268899 0.274561 0.174354
307 2 0.301362 0.287401 0.198081
309 4 0.278117 0.282428 0.190326
308 4 0.324606 0.292374 0.205835
299 4 0.133692 0.343062 0.249328
647 4 0.0755759 0.4026 0.202544
648 4 0.0950338 0.358998 0.187678
646 2 0.0853048 0.380799 0.195111
536 4 0.15205 0.376707 0.178802
611 4 0.267648 0.33679 0.170504
303 4 0.325872 0.40225 0.206747
301 2 0.344856 0.417597 0.201337
729 4 0.337719 0.400137 0.239032
643 2 0.447649 0.388459 0.200508
644 4 0.44668 0.393124 0.225053
645 4 0.448619 0.383794 0.175962
447 4 0.453927 0.383204 0.241262
262 2 0.073922 0.444186 0.196697
264 4 0.0653877 0.467378 0.192887
263 4 0.0824563 0.420995 0.200506
416 4 0.188399 0.425769 0.173081
291 4 0.204716 0.414353 0.16801
289 2 0.224999 0.423359 0.179529
290 4 0.245282 0.432365 0.191047
638 4 0.248342 0.469061 0.175717
768 4 0.243894 0.486602 0.227247
766 2 0.243307 0.470233 0.208356
767 4 0.24272 0.453864 0.189464
660 4 0.371229 0.445597 0.181726
302 4 0.36384 0.432943 0.195928
1574 4 0.344942 0.482802 0.232564
232 2 0.016706 0.0544818 0.300538
233 4 0.00499618 0.0475378 0.279565
318 4 0.0400234 0.073453 0.331996
234 4 0.0284158 0.0614258 0.32151
689 4 0.235996 0.0511176 0.261239
248 4 0.219892 0.0585171 0.33105
1701 4 0.214931 0.0389447 0.337791
1699 2 0.221671 0.0204069 0.322425
247 2 0.22992 0.0764842 0.316844
22 3 0.373568 0.0754487 0.253302
697 2 0.371403 0.018817 0.318949
698 4 0.388404 0.0350597 0.327451
480 4 0.488595 0.0232891 0.281417
351 4 0.435846 0.0565431 0.310151
1749 4 0.452806 0.996355 0.26182
349 2 0.432143 0.0775971 0.297182
531 4 0.00356989 0.12857 0.29868
529 2 0.0168597 0.129421 0.277517
530 4 0.0301496 0.130272 0.256355
398 4 0.0502292 0.123664 0.321577
393 4 0.0629211 0.145808 0.269665
579 4 0.0630707 0.102625 0.266174
392 4 0.107201 0.141759 0.292547
391 2 0.0850611 0.143783 0.281106
544 2 0.180763 0.156104 0.260455
249 4 0.239948 0.0944512 0.302638
403 2 0.229403 0.133549 0.288431
404 4 0.243024 0.113503 0.294581
405 4 0.215782 0.153594 0.282281
545 4 0.17708 0.15628 0.285185
706 2 0.30573 0.167661 0.296431
708 4 0.282355 0.160346 0.291406
632 4 0.33384 0.0947947 0.299669
631 2 0.341861 0.101563 0.322363
333 4 0.446375 0.103224 0.27483
331 2 0.460827 0.123628 0.274862
332 4 0.475279 0.144032 0.274894
350 4 0.428441 0.0986512 0.284213
444 4 0.0414037 0.244377 0.320954
401 4 0.176981 0.249488 0.308975
707 4 0.329106 0.174977 0.301456
473 4 0.27162 0.215914 0.340957
520 2 0.48027 0.23516 0.256622
521 4 0.461556 0.234921 0.273203
762 4 0.477402 0.162856 0.270414
418 2 0.430415 0.227759 0.303815
419 4 0.423942 0.203635 0.302674
761 4 0.481267 0.181414 0.316689
760 2 0.479335 0.172135 0.293552
2493 4 0.00510897 0.298275 0.2997
442 2 0.0273893 0.261926 0.309963
443 4 0.0133749 0.279475 0.298972
748 2 0.0632394 0.278564 0.261755
749 4 0.0832992 0.283967 0.275669
389 4 0.126471 0.253852 0.328002
345 4 0.232508 0.261292 0.26943
400 2 0.184527 0.266244 0.325929
496 2 0.330082 0.299604 0.285884
498 4 0.333431 0.281972 0.303293
497 4 0.326733 0.317236 0.268475
613 2 0.390685 0.307398 0.325905
543 4 0.436739 0.26432 0.290061
420 4 0.436888 0.251883 0.304955
541 2 0.442921 0.288545 0.290418
542 4 0.449103 0.31277 0.290775
602 4 0.0756395 0.398034 0.271653
601 2 0.0725315 0.405729 0.295239
603 4 0.0694235 0.413423 0.318825
734 4 0.137127 0.360496 0.258253
733 2 0.144515 0.365596 0.281589
735 4 0.151904 0.370696 0.304925
677 4 0.160655 0.374557 0.321925
509 4 0.231059 0.404757 0.318568
437 4 0.300402 0.408808 0.279225
433 2 0.336807 0.414684 0.329403
434 4 0.340283 0.401411 0.3085
728 4 0.341743 0.40642 0.288479
727 2 0.339731 0.403278 0.263755
614 4 0.394477 0.329438 0.314724
445 2 0.447614 0.396652 0.261373
446 4 0.441301 0.410101 0.281484
713 4 0.437875 0.417776 0.301083
549 4 0.070197 0.47228 0.338673
777 4 0.0753177 0.48358 0.322414
1757 4 0.0956101 0.483243 0.279939
775 2 0.0979376 0.494115 0.320821
414 4 0.143905 0.479566 0.29737
412 2 0.157144 0.485463 0.317745
413 4 0.170383 0.491359 0.33812
1436 4 0.257987 0.499585 0.306571
436 2 0.281559 0.423382 0.286823
438 4 0.262716 0.437955 0.294421
229 2 0.394371 0.481383 0.254431
231 4 0.384615 0.458737 0.250291
1803 4 0.355165 0.486687 0.309538
594 4 0.397702 0.489057 0.321578
1801 2 0.341507 0.498466 0.292221
119 3 0.498602 0.423983 0.340317
712 2 0.438805 0.442563 0.297935
714 4 0.439734 0.46735 0.294788
316 2 0.0562672 0.0559003 0.339292
317 4 0.072511 0.0383476 0.346587
428 4 0.0670886 0.0223764 0.358534
1782 4 0.126547 0.995201 0.389669
427 2 0.0805693 0.00157375 0.361805
606 4 0.193967 0.0579924 0.38711
604 2 0.21051 0.0548892 0.36862
605 4 0.227052 0.0517859 0.350129
439 2 0.263443 0.0138652 0.407103
441 4 0.260657 0.0354188 0.394739
256 2 0.404255 0.0557581 0.359024
257 4 0.386748 0.0457235 0.34426
258 4 0.421762 0.0657926 0.373788
2655 4 0.996433 0.170621 0.375729
397 2 0.0687142 0.114846 0.33592
399 4 0.0871993 0.106029 0.350264
731 4 0.157357 0.10721 0.338992
732 4 0.107855 0.105636 0.345908
730 2 0.132606 0.106423 0.34245
685 2 0.165847 0.133917 0.405929
686 4 0.16163 0.149498 0.386834
598 2 0.192223 0.154343 0.35636
599 4 0.175014 0.145979 0.372455
600 4 0.209432 0.162708 0.340264
683 4 0.305935 0.102663 0.384646
682 2 0.302014 0.113155 0.407
466 2 0.323405 0.162333 0.414314
467 4 0.326375 0.140231 0.403007
633 4 0.349882 0.108332 0.345057
2642 4 0.500841 0.0843853 0.348252
451 2 0.481741 0.140485 0.376378
453 4 0.458745 0.135891 0.367705
515 4 0.447662 0.137781 0.384689
514 2 0.435035 0.14466 0.405144
2653 2 0.0175678 0.176834 0.363901
2654 4 0.0387027 0.183047 0.352074
260 4 0.089777 0.179734 0.414216
474 4 0.223149 0.21091 0.352194
274 2 0.218313 0.227801 0.39001
276 4 0.225047 0.211343 0.372432
472 2 0.247384 0.213412 0.346576
275 4 0.21158 0.24426 0.407587
488 4 0.299888 0.222578 0.422164
487 2 0.290572 0.238492 0.405279
305 4 0.468137 0.176437 0.406996
304 2 0.482375 0.196973 0.406137
616 2 0.0758861 0.312336 0.367901
618 4 0.0557655 0.320562 0.380257
347 4 0.0406438 0.310098 0.388319
346 2 0.0362194 0.290267 0.402891
348 4 0.0317951 0.270436 0.417463
390 4 0.104874 0.286829 0.358772
388 2 0.115673 0.270341 0.343387
375 4 0.167124 0.296916 0.39821
617 4 0.0960067 0.304111 0.355544
373 2 0.170755 0.315343 0.414716
402 4 0.192074 0.283001 0.342883
489 4 0.281256 0.254407 0.388393
376 2 0.297833 0.30141 0.352226
377 4 0.313586 0.289492 0.367555
378 4 0.28208 0.313328 0.336897
615 4 0.386893 0.285358 0.337086
716 4 0.375813 0.273286 0.349156
715 2 0.37245 0.273819 0.373927
717 4 0.369087 0.274352 0.398697
267 4 0.365317 0.264931 0.415612
406 2 0.0700695 0.404015 0.387969
408 4 0.0661457 0.398176 0.411962
676 2 0.173516 0.363257 0.340149
678 4 0.186377 0.351957 0.358372
503 4 0.237184 0.365975 0.406344
508 2 0.238364 0.382928 0.328331
502 2 0.221168 0.373352 0.424072
510 4 0.245669 0.361099 0.338094
336 4 0.351929 0.350424 0.394852
751 2 0.416765 0.397922 0.353044
334 2 0.348946 0.358198 0.418428
2925 4 0.480505 0.338689 0.369893
561 4 0.443459 0.38111 0.376348
752 4 0.436123 0.382874 0.357942
559 2 0.44149 0.377863 0.401061
407 4 0.0739933 0.409855 0.363976
548 4 0.0712435 0.428987 0.363679
547 2 0.0707203 0.450633 0.351176
680 4 0.0429022 0.4726 0.409075
499 2 0.113912 0.48592 0.378296
501 4 0.113358 0.465976 0.363225
435 4 0.333331 0.427957 0.350305
4 3 0.306578 0.464825 0.351236
1 1 0.325991 0.474498 0.35948
2 3 0.322229 0.48148 0.381074
753 4 0.397407 0.41297 0.348145
592 2 0.401694 0.499021 0.34416
5 3 0.331768 0.492437 0.346696
3 3 0.343199 0.458933 0.35952
720 4 0.0276257 0.0617538 0.476618
718 2 0.0394542 0.0833699 0.480862
367 2 0.108556 0.062699 0.447445
369 4 0.127745 0.0782152 0.45147
368 4 0.0893663 0.0471829 0.44342
2430 4 0.1968 0.029126 0.506208
1181 4 0.259267 0.045812 0.486953
1180 2 0.265672 0.0691973 0.480848
432 4 0.298567 0.0663611 0.488523
726 4 0.338078 0.0103771 0.420386
724 2 0.341973 0.0294175 0.436117
725 4 0.345868 0.0484579 0.451848
426 4 0.38008 0.0152459 0.424336
424 2 0.395734 0.0260759 0.440548
425 4 0.411388 0.0369059 0.456761
457 2 0.00266346 0.147026 0.429234
719 4 0.0512828 0.104986 0.485105
687 4 0.170065 0.118335 0.425023
342 4 0.173613 0.0895599 0.5024
1151 4 0.175849 0.140996 0.469107
1150 2 0.177562 0.124539 0.487853
321 4 0.234722 0.134014 0.452361
1152 4 0.179276 0.108082 0.506599
684 4 0.298093 0.123646 0.429355
320 4 0.283172 0.132651 0.440054
319 2 0.258947 0.133333 0.446207
1182 4 0.272077 0.0925827 0.474743
575 4 0.412364 0.167705 0.427829
516 4 0.422408 0.15154 0.425599
640 2 0.497757 0.140033 0.489303
641 4 0.497642 0.163396 0.49821
459 4 0.0209458 0.163654 0.425437
470 4 0.0316163 0.18224 0.491485
261 4 0.10771 0.209531 0.45015
259 2 0.0987437 0.194633 0.432183
1035 4 0.0987858 0.20784 0.469875
1033 2 0.108745 0.193336 0.48764
695 4 0.111033 0.224758 0.465942
411 4 0.293777 0.220201 0.489114
409 2 0.309013 0.212055 0.471039
410 4 0.324249 0.203909 0.452965
468 4 0.320434 0.184436 0.42562
266 4 0.378373 0.224725 0.442327
265 2 0.371845 0.244828 0.428969
306 4 0.496612 0.217509 0.405277
574 2 0.422259 0.174942 0.449621
576 4 0.432155 0.18218 0.471413
326 4 0.0858144 0.32304 0.487993
694 2 0.109581 0.249336 0.470299
327 4 0.0967915 0.282637 0.460646
696 4 0.10813 0.273915 0.474656
325 2 0.091303 0.302838 0.47432
651 4 0.247654 0.301932 0.459283
649 2 0.258474 0.315994 0.441666
650 4 0.269293 0.330057 0.424048
812 4 0.353945 0.29635 0.497819
2456 4 0.504077 0.288741 0.470642
583 2 0.46531 0.273646 0.489053
584 4 0.487606 0.280521 0.480064
585 4 0.443014 0.26677 0.498041
2813 4 0.00388911 0.38644 0.444869
10 3 0.146465 0.34933 0.477072
6 1 0.145212 0.34874 0.499804
374 4 0.174386 0.33377 0.431221
772 2 0.239849 0.408223 0.473878
504 4 0.205153 0.380728 0.441799
709 2 0.17982 0.40724 0.460992
710 4 0.193073 0.386735 0.455602
773 4 0.252224 0.386497 0.473964
238 2 0.37705 0.369613 0.470155
240 4 0.354873 0.370733 0.45866
335 4 0.345964 0.365973 0.442004
239 4 0.399226 0.368493 0.48165
560 4 0.439521 0.374615 0.425775
681 4 0.0573135 0.441346 0.445354
679 2 0.0501078 0.456973 0.427215
383 4 0.0642339 0.428987 0.462336
539 4 0.0542156 0.468323 0.469569
538 2 0.0721689 0.47372 0.486114
711 4 0.166567 0.427746 0.466382
382 2 0.0882094 0.427976 0.455312
570 4 0.130713 0.492953 0.451189
568 2 0.123634 0.469112 0.453765
384 4 0.112185 0.426966 0.448288
569 4 0.116555 0.44527 0.456341
636 4 0.231639 0.471534 0.420786
634 2 0.230785 0.459631 0.442757
635 4 0.229931 0.447728 0.464729
774 4 0.227473 0.429949 0.473793
1556 4 0.2751 0.496005 0.440062
669 4 0.306732 0.450579 0.453585
667 2 0.330804 0.448097 0.447297
586 2 0.407534 0.441942 0.435109
587 4 0.407148 0.458227 0.41614
588 4 0.40792 0.425656 0.454078
668 4 0.354876 0.445615 0.441008
663 4 0.450337 0.45962 0.492597
1126 2 0.0254498 0.0336343 0.542059
1127 4 0.0397069 0.020821 0.526005
1128 4 0.0111926 0.0464476 0.558113
2238 4 0.042453 0.00858019 0.509921
341 4 0.192504 0.04444 0.492007
2428 2 0.181912 0.00908385 0.507562
340 2 0.183059 0.067 0.497203
961 2 0.27489 0.0202993 0.51874
962 4 0.285898 0.00265174 0.532616
430 2 0.318826 0.0736983 0.501208
963 4 0.263881 0.0379469 0.504863
1217 4 0.408932 0.047187 0.525801
1216 2 0.416774 0.0433927 0.549237
841 2 0.376979 0.0741488 0.523246
842 4 0.399702 0.0640299 0.520705
431 4 0.339085 0.0810355 0.513893
1218 4 0.424616 0.0395984 0.572674
1060 2 0.496077 0.0156699 0.550508
1062 4 0.474984 0.0289362 0.548442
938 4 0.12714 0.161718 0.513611
937 2 0.110887 0.142793 0.511924
939 4 0.0946348 0.123867 0.510238
1155 4 0.147652 0.128028 0.575147
1031 4 0.235059 0.0892598 0.562982
1030 2 0.2582 0.09205 0.57203
1032 4 0.281342 0.0948402 0.581077
899 4 0.313073 0.14713 0.523147
898 2 0.315832 0.170283 0.532176
843 4 0.354256 0.0842678 0.525788
471 4 0.0256559 0.161369 0.536536
877 2 0.0735095 0.235608 0.552511
878 4 0.0611384 0.245868 0.533357
469 2 0.0286361 0.171804 0.51401
1272 4 0.0887088 0.206451 0.565547
879 4 0.0858807 0.225348 0.571665
1034 4 0.118705 0.178831 0.505405
857 4 0.238748 0.234503 0.527251
858 4 0.278361 0.208161 0.542667
856 2 0.258555 0.221332 0.534959
900 4 0.31859 0.193436 0.541205
983 4 0.0447104 0.318256 0.577618
1258 2 0.132699 0.305189 0.537953
1260 4 0.124942 0.301095 0.561367
9 3 0.144445 0.326734 0.507122
1259 4 0.140457 0.309283 0.514538
791 4 0.312059 0.259348 0.563208
790 2 0.298346 0.275771 0.576147
813 4 0.387586 0.296476 0.534818
811 2 0.370765 0.296413 0.516318
872 4 0.440519 0.25945 0.517146
3065 4 0.489573 0.261554 0.523308
873 4 0.425651 0.284056 0.558063
871 2 0.433085 0.271753 0.537604
953 4 0.468675 0.30312 0.574844
935 4 0.0076981 0.41071 0.502783
7 3 0.126064 0.359515 0.506619
8 3 0.163572 0.359521 0.509028
1137 4 0.116316 0.374135 0.581029
1189 2 0.212177 0.357608 0.553303
1190 4 0.234242 0.348655 0.545677
1191 4 0.190112 0.366561 0.560929
896 4 0.193129 0.385912 0.558586
895 2 0.18026 0.396357 0.577308
804 4 0.31195 0.344824 0.537948
802 2 0.289 0.343633 0.547799
803 4 0.26605 0.342442 0.55765
929 4 0.390946 0.350155 0.564328
925 2 0.445751 0.396508 0.543416
926 4 0.446119 0.38185 0.523163
540 4 0.0901222 0.479117 0.502658
1160 4 0.155589 0.450315 0.56514
1161 4 0.18813 0.466541 0.530811
1159 2 0.171859 0.458428 0.547976
1173 4 0.238601 0.464311 0.5806
1171 2 0.2567 0.447061 0.580456
1172 4 0.274799 0.429811 0.580313
882 4 0.351996 0.435006 0.558185
880 2 0.367598 0.452482 0.549446
881 4 0.383199 0.469957 0.540708
1454 4 0.355443 0.481011 0.501481
927 4 0.445384 0.411166 0.563669
662 4 0.461355 0.494232 0.526968
1910 4 0.449978 0.490098 0.543791
1909 2 0.434595 0.493104 0.563272
1911 4 0.419212 0.496109 0.582753
661 2 0.455846 0.476926 0.509783
1185 4 0.0188526 0.037172 0.627593
1183 2 0.0152857 0.0289891 0.650949
1059 4 0.162525 0.0794154 0.613425
825 4 0.156443 0.043904 0.637211
823 2 0.162212 0.0195859 0.636488
1284 4 0.180776 0.0804928 0.621971
951 4 0.265851 0.0358503 0.6164
949 2 0.272268 0.0145065 0.605067
1092 4 0.340501 0.00617394 0.662486
1163 4 0.495047 0.0525833 0.667538
808 2 0.465056 0.0872211 0.618331
810 4 0.444358 0.0748324 0.624911
1082 4 0.0566754 0.0944272 0.661852
1083 4 0.0701476 0.114271 0.617972
1081 2 0.0634115 0.104349 0.639912
1058 4 0.139047 0.115936 0.588611
1057 2 0.150786 0.0976756 0.601018
1153 2 0.160163 0.149035 0.580379
909 4 0.144404 0.153402 0.649345
1154 4 0.172673 0.170042 0.58561
1283 4 0.226453 0.100732 0.62414
1282 2 0.203615 0.0906125 0.623055
809 4 0.485754 0.0996097 0.611751
3424 2 0.500089 0.12354 0.665726
1199 4 0.992656 0.18556 0.602097
1245 4 0.060553 0.250791 0.644446
1270 2 0.107453 0.199791 0.580695
1271 4 0.126198 0.19313 0.595843
1221 4 0.18085 0.188134 0.594564
1210 2 0.24856 0.185488 0.654164
1212 4 0.234807 0.184443 0.633309
1219 2 0.202255 0.190894 0.60719
1220 4 0.223659 0.193653 0.619815
796 2 0.216836 0.249287 0.601505
798 4 0.213316 0.237821 0.623444
904 2 0.467184 0.22868 0.608344
906 4 0.465155 0.219789 0.631625
1024 2 0.436654 0.192693 0.650254
1025 4 0.449008 0.207662 0.634491
905 4 0.469212 0.23757 0.585063
982 2 0.0334736 0.338417 0.587234
1243 2 0.0410365 0.266365 0.643131
1244 4 0.02152 0.28194 0.641817
1209 4 0.0790854 0.243391 0.64425
1207 2 0.0897454 0.253174 0.664642
797 4 0.220357 0.260754 0.579566
946 2 0.181389 0.281363 0.637339
947 4 0.182238 0.259165 0.648816
948 4 0.180541 0.303562 0.625863
792 4 0.284632 0.292194 0.589085
1238 4 0.293187 0.293809 0.606706
1237 2 0.305892 0.301409 0.626855
1239 4 0.318597 0.309009 0.647005
954 4 0.467333 0.256332 0.592446
952 2 0.468004 0.279726 0.583645
984 4 0.0222368 0.358577 0.59685
1040 4 0.072796 0.367579 0.632563
1039 2 0.0479065 0.369897 0.633126
1041 4 0.023017 0.372216 0.63369
1136 4 0.0856585 0.339669 0.600341
993 4 0.0921129 0.361652 0.630307
1135 2 0.100987 0.356902 0.590685
991 2 0.1077 0.376351 0.643197
992 4 0.123287 0.391049 0.656088
897 4 0.167391 0.406802 0.596029
1029 4 0.24077 0.393874 0.653656
928 2 0.381567 0.362945 0.583657
1002 4 0.399097 0.404045 0.597585
930 4 0.372188 0.375735 0.602987
1204 2 0.405936 0.408897 0.656213
1206 4 0.401232 0.417743 0.633304
1953 4 0.296337 0.493083 0.590345
889 2 0.313083 0.420243 0.599466
891 4 0.291633 0.428221 0.589394
890 4 0.334533 0.412266 0.609537
1000 2 0.421216 0.412319 0.589373
1001 4 0.443336 0.420594 0.58116
944 4 0.0459099 0.0755326 0.664784
943 2 0.0624332 0.0591225 0.673887
945 4 0.0789566 0.0427123 0.68299
1184 4 0.0117189 0.0208062 0.674305
1147 2 0.220081 0.0651428 0.742364
2256 4 0.201014 0.0187324 0.677858
2281 2 0.40284 0.0105785 0.676157
45 3 0.413596 0.0799949 0.704956
1004 4 0.352255 0.0846311 0.703039
2283 4 0.424053 0.0234442 0.67305
42 3 0.447236 0.0935185 0.696104
43 3 0.441117 0.0800391 0.730651
1076 4 0.0406211 0.0939682 0.675926
864 4 0.0141893 0.141413 0.718029
1075 2 0.0325938 0.109306 0.693968
1077 4 0.0245665 0.124643 0.71201
907 2 0.158851 0.145611 0.668206
1130 4 0.167731 0.157493 0.73784
908 4 0.173298 0.13782 0.687068
1148 4 0.218227 0.0854208 0.727854
1225 2 0.203219 0.119999 0.70529
1226 4 0.215126 0.100806 0.716014
1227 4 0.191311 0.139192 0.694566
1005 4 0.310502 0.112151 0.703233
829 2 0.342768 0.153775 0.711101
1003 2 0.331378 0.0983909 0.703136
831 4 0.346082 0.140714 0.732163
830 4 0.339454 0.166836 0.690039
41 1 0.4316 0.0914888 0.712854
44 3 0.425093 0.112699 0.719651
1142 4 0.419518 0.117408 0.70062
1141 2 0.419511 0.140457 0.690927
3426 4 0.487166 0.126334 0.686947
851 4 0.0654256 0.172585 0.693336
852 4 0.0284595 0.200903 0.675107
850 2 0.0469425 0.186744 0.684222
1213 2 0.0151617 0.206675 0.741817
1214 4 0.0396771 0.201877 0.742889
1107 4 0.071837 0.175509 0.712698
1178 4 0.0208625 0.232967 0.708627
1105 2 0.0757788 0.184806 0.735572
1277 4 0.177962 0.223148 0.737623
1129 2 0.166898 0.182402 0.735845
1131 4 0.166065 0.207312 0.73385
1276 2 0.195539 0.238759 0.746139
1211 4 0.262314 0.186533 0.675019
978 4 0.281433 0.176082 0.726703
886 2 0.303389 0.17509 0.676809
888 4 0.282062 0.188076 0.678118
887 4 0.324715 0.162105 0.675499
976 2 0.286683 0.196996 0.73936
1193 4 0.379439 0.206686 0.672755
1192 2 0.360653 0.190239 0.671444
1194 4 0.341866 0.173791 0.670134
1026 4 0.4243 0.177725 0.666018
1143 4 0.419505 0.163505 0.681234
1261 2 0.431161 0.200792 0.703797
1263 4 0.4278 0.183041 0.686512
1262 4 0.434522 0.218543 0.721082
1177 2 0.0108651 0.255021 0.702393
1179 4 0.000867811 0.277075 0.696159
1208 4 0.100405 0.262957 0.685034
822 4 0.158572 0.309074 0.713057
820 2 0.162732 0.28443 0.712301
821 4 0.166891 0.259787 0.711545
1065 4 0.225827 0.312636 0.689442
1063 2 0.247348 0.323342 0.696326
807 4 0.322095 0.31595 0.698045
805 2 0.301961 0.326482 0.70848
806 4 0.281827 0.337013 0.718915
1019 4 0.375689 0.330657 0.746131
3123 4 0.482127 0.274968 0.663336
3274 2 0.00873836 0.393709 0.732758
3276 4 0.0279701 0.381508 0.72244
892 2 0.0653512 0.39095 0.731236
894 4 0.044567 0.392813 0.717462
893 4 0.0861354 0.389086 0.74501
940 2 0.127889 0.379961 0.737229
1067 4 0.162385 0.36004 0.7244
941 4 0.14922 0.374963 0.72518
942 4 0.106557 0.384959 0.749278
1028 4 0.203951 0.400207 0.686896
1066 2 0.178079 0.372269 0.709256
1068 4 0.193772 0.384498 0.694112
1027 2 0.222361 0.397041 0.670276
1064 4 0.268869 0.334048 0.703211
1205 4 0.41064 0.400051 0.679121
1018 2 0.377742 0.35271 0.734527
1020 4 0.379795 0.374763 0.722924
1981 2 0.0133728 0.475126 0.728103
1281 4 0.0572985 0.445302 0.676475
1280 4 0.0648046 0.450312 0.725661
1279 2 0.0610515 0.447807 0.701068
1983 4 0.00351926 0.491923 0.71242
1174 2 0.210084 0.497772 0.695301
1176 4 0.18822 0.490495 0.705006
1989 4 0.301746 0.478077 0.698024
1139 4 0.27643 0.431189 0.731866
1138 2 0.279594 0.431896 0.707074
1140 4 0.282757 0.432602 0.682281
1987 2 0.317912 0.484027 0.716147
1988 4 0.334078 0.489976 0.73427
1228 2 0.390835 0.4575 0.728421
1230 4 0.406283 0.440031 0.737443
1229 4 0.375387 0.474969 0.7194
1268 4 0.454065 0.480933 0.66877
1267 2 0.440094 0.465574 0.682701
1269 4 0.426123 0.450215 0.696632
1100 4 0.431532 0.433085 0.705856
1099 2 0.44591 0.425812 0.724975
1101 4 0.460288 0.418539 0.744095
1295 4 0.0180913 0.0639637 0.808614
1294 2 0.0209209 0.0429994 0.821944
1203 4 0.0960619 0.0669096 0.804776
1201 2 0.0947829 0.0479587 0.788516
1202 4 0.093504 0.0290077 0.772255
2049 4 0.105064 0.0143821 0.763767
911 4 0.0835567 0.0632608 0.819588
910 2 0.0834722 0.0806108 0.837593
1149 4 0.221936 0.0448648 0.756874
2399 4 0.2932 0.0106768 0.758993
1255 2 0.299189 0.0709576 0.803775
1256 4 0.28091 0.0729507 0.820718
1257 4 0.317469 0.0689646 0.786832
1049 4 0.305239 0.00783016 0.775369
1048 2 0.321162 0.0267674 0.778978
973 2 0.352565 0.00914998 0.828205
1050 4 0.337084 0.0457047 0.782587
1112 4 0.408358 0.0530543 0.800589
974 4 0.346788 0.0251523 0.809882
1111 2 0.426917 0.0488263 0.784375
1113 4 0.445475 0.0445983 0.768161
844 2 0.484155 0.0534118 0.772314
845 4 0.462222 0.0434764 0.77905
980 4 0.439607 0.023185 0.819855
979 2 0.452202 0.00852163 0.835715
862 2 0.0199762 0.136603 0.741873
863 4 0.0257631 0.131794 0.765718
833 4 0.0179678 0.134257 0.784597
34 3 0.0821318 0.126535 0.810084
31 1 0.0987209 0.141347 0.803464
32 3 0.105076 0.136263 0.781949
35 3 0.116753 0.139485 0.81725
839 4 0.312825 0.140324 0.7962
838 2 0.28871 0.13807 0.789989
840 4 0.264595 0.135817 0.783778
1084 2 0.361952 0.127905 0.766654
1085 4 0.36606 0.111956 0.785467
1086 4 0.357844 0.143855 0.747841
819 4 0.35919 0.0995641 0.799876
817 2 0.370592 0.0906858 0.820281
1146 4 0.49658 0.162852 0.750284