ITEM: TIMESTEP
820000
ITEM: NUMBER OF ATOMS
4590
ITEM: BOX BOUNDS pp pp pp
-9.9985700000000008e+00 9.9985700000000008e+00
-9.9985700000000008e+00 9.9985700000000008e+00
-9.9985700000000008e+00 9.9985700000000008e+00
ITEM: ATOMS id type xs ys zs
463 2 0.00409441 0.0329861 0.0397348
465 4 0.994005 0.0258558 0.0614728
464 4 0.0141837 0.0401164 0.0179967
1668 4 0.0860096 0.0347275 0.0511955
3291 4 0.00947983 0.0389792 0.997278
1666 2 0.0896185 0.049848 0.0707792
534 4 0.21058 0.0497794 0.0165587
490 2 0.287394 0.0380284 0.0296376
491 4 0.304667 0.0292487 0.04544
492 4 0.27012 0.0468081 0.0138352
653 4 0.318136 0.0384013 0.0570421
652 2 0.315002 0.0294819 0.0801894
296 4 0.407285 0.0344063 0.065623
295 2 0.407933 0.058888 0.0706633
2975 4 0.478145 0.0654027 0.00684465
2974 2 0.496028 0.0528393 0.0189911
589 2 0.0697976 0.113585 0.0378554
590 4 0.0573595 0.107217 0.0171211
3233 4 0.0401053 0.115573 0.016532
3232 2 0.0287262 0.135462 0.00652636
3234 4 0.0173471 0.155351 0.996521
591 4 0.0822357 0.119954 0.0585898
422 4 0.120705 0.10782 0.0037246
476 4 0.128591 0.150073 0.0869409
565 2 0.250828 0.159937 0.0604123
566 4 0.25609 0.152377 0.0371673
567 4 0.245565 0.167497 0.0836573
359 4 0.255255 0.167986 0.0246941
358 2 0.255107 0.161466 0.000555967
557 4 0.370701 0.136812 0.0536082
556 2 0.388773 0.154071 0.0527687
297 4 0.408581 0.0833697 0.0757035
747 4 0.479126 0.0859208 0.00676324
745 2 0.459814 0.0949166 0.0198514
746 4 0.440502 0.103912 0.0329396
914 4 0.153639 0.185466 0.0225242
913 2 0.134632 0.199532 0.0143976
572 4 0.338382 0.204666 0.0328884
571 2 0.337263 0.229331 0.0289456
666 4 0.335386 0.192318 0.0173879
558 4 0.406844 0.17133 0.0519293
771 4 0.45974 0.221221 0.0535143
770 4 0.458396 0.200015 0.00824622
769 2 0.459068 0.210618 0.0308803
323 4 0.453928 0.241615 0.0571698
518 4 0.474207 0.234893 0.0619166
1055 4 0.020762 0.306529 0.0169508
292 2 0.141787 0.323727 0.0711146
293 4 0.160936 0.321551 0.0551844
507 4 0.176508 0.318507 0.0408819
505 2 0.18847 0.296863 0.037194
506 4 0.200432 0.275218 0.0335061
573 4 0.336143 0.253996 0.0250029
482 4 0.247275 0.336271 0.0811185
252 4 0.252857 0.338895 0.101995
1071 4 0.355595 0.261517 0.0217533
1069 2 0.351204 0.286112 0.0207531
1070 4 0.346813 0.310707 0.0197528
956 4 0.427222 0.326238 0.0105153
324 4 0.431658 0.273871 0.0882232
322 2 0.442793 0.257743 0.0726965
552 4 0.0581912 0.395766 0.0440475
313 2 0.0468267 0.414881 0.079374
456 4 0.124393 0.397101 0.0658735
288 4 0.162843 0.335169 0.0388447
481 2 0.22906 0.349272 0.0699674
483 4 0.210844 0.362273 0.0588163
287 4 0.194594 0.371296 0.0525361
286 2 0.178719 0.353233 0.0456904
626 4 0.241522 0.422006 0.0817221
607 2 0.28203 0.397711 0.0737376
608 4 0.278368 0.414047 0.0551653
280 2 0.453167 0.375132 0.0781495
282 4 0.468397 0.39157 0.0670582
281 4 0.437936 0.358695 0.0892409
550 2 0.0784116 0.408276 0.0363132
315 4 0.055886 0.413435 0.0561142
1788 4 0.0730466 0.496015 0.0562141
551 4 0.098632 0.420785 0.028579
625 2 0.220467 0.411118 0.0737628
245 4 0.254171 0.441748 0.0308917
244 2 0.275862 0.454161 0.0301209
246 4 0.297553 0.466573 0.0293501
19 3 0.0580101 0.0704818 0.163608
18 3 0.0233457 0.0557065 0.15866
17 3 0.0454263 0.0626943 0.129058
16 1 0.0392691 0.0701508 0.14993
1667 4 0.0932274 0.0649686 0.090363
702 4 0.104698 0.0646901 0.106971
450 4 0.172266 0.0446172 0.124502
1475 4 0.18783 0.0376826 0.0805059
448 2 0.170598 0.0695647 0.124641
1505 4 0.208679 0.996341 0.136431
1474 2 0.192198 0.01618 0.092495
654 4 0.311867 0.0205624 0.103337
20 3 0.0305835 0.0911271 0.148141
700 2 0.122406 0.0807776 0.0997048
701 4 0.140114 0.0968651 0.0924385
477 4 0.0822157 0.152336 0.105513
475 2 0.105403 0.151204 0.0962271
236 4 0.163584 0.112599 0.130942
449 4 0.16893 0.0945122 0.124781
235 2 0.16996 0.136515 0.134485
237 4 0.176335 0.160431 0.138029
339 4 0.0810624 0.233773 0.103622
337 2 0.0801741 0.234853 0.128587
338 4 0.0792857 0.235934 0.153551
461 4 0.298774 0.202972 0.115503
354 4 0.286129 0.215197 0.123178
352 2 0.275941 0.237967 0.121476
460 2 0.32231 0.194912 0.112998
284 4 0.273261 0.191727 0.160296
462 4 0.345846 0.186852 0.110492
255 4 0.365899 0.184051 0.111041
254 4 0.409659 0.168145 0.129284
253 2 0.387779 0.176098 0.120163
630 4 0.424971 0.174859 0.139341
628 2 0.427683 0.178321 0.163955
527 4 0.467421 0.258703 0.157487
2895 4 0.507609 0.179519 0.0973061
363 4 0.0906994 0.247965 0.16562
294 4 0.122639 0.325902 0.0870448
537 4 0.145919 0.313192 0.168756
738 4 0.19824 0.256554 0.141654
736 2 0.222134 0.259076 0.134733
737 4 0.246028 0.261598 0.127811
755 4 0.251124 0.273627 0.11108
756 4 0.255553 0.319954 0.0927795
353 4 0.265752 0.260737 0.119774
754 2 0.253338 0.29679 0.101929
741 4 0.357962 0.293318 0.125204
622 2 0.394319 0.284951 0.107424
624 4 0.377204 0.293231 0.123663
739 2 0.349814 0.315281 0.116462
623 4 0.411433 0.27667 0.0911853
526 2 0.462199 0.273861 0.1383
528 4 0.456977 0.289019 0.119113
672 4 0.459598 0.308682 0.117884
670 2 0.453315 0.325099 0.100102
619 2 0.0196481 0.362162 0.144161
620 4 0.0157659 0.378094 0.163037
621 4 0.0235303 0.34623 0.125286
314 4 0.0377674 0.416326 0.102634
454 2 0.118395 0.385176 0.0870163
455 4 0.112398 0.373252 0.108159
417 4 0.157062 0.376635 0.152499
415 2 0.177023 0.391159 0.156475
416 4 0.196984 0.405683 0.16045
291 4 0.214634 0.405394 0.17194
251 4 0.294528 0.366502 0.103429
250 2 0.273692 0.352699 0.102712
609 4 0.285692 0.381376 0.09231
387 4 0.32769 0.387326 0.0985111
385 2 0.328083 0.36493 0.10962
386 4 0.328477 0.342533 0.120729
740 4 0.341666 0.337244 0.107721
13 3 0.408489 0.375436 0.155548
671 4 0.447032 0.341515 0.08232
15 3 0.426845 0.350225 0.134449
14 3 0.429321 0.386801 0.125862
495 4 0.422438 0.406143 0.127228
11 1 0.427593 0.371302 0.143043
595 2 0.489785 0.37114 0.149611
597 4 0.46616 0.364402 0.15426
12 3 0.445994 0.373265 0.156707
627 4 0.199413 0.400231 0.0658034
637 2 0.245797 0.473246 0.141405
639 4 0.241296 0.489043 0.122554
638 4 0.250298 0.457448 0.160256
289 2 0.222235 0.428894 0.168052
1439 4 0.229677 0.500903 0.113863
525 4 0.36013 0.483957 0.141546
659 4 0.367354 0.471866 0.156733
494 4 0.412785 0.450057 0.105339
658 2 0.360012 0.447969 0.157206
660 4 0.352671 0.424072 0.157679
493 2 0.417611 0.4281 0.116283
2479 2 0.00150193 0.0387828 0.180332
2481 4 0.00212223 0.0535323 0.160152
2480 4 0.000881632 0.0240333 0.200512
673 2 0.105632 0.0553415 0.211713
675 4 0.118617 0.0380944 0.224327
1403 4 0.116641 0.0180673 0.223985
674 4 0.0926466 0.0725886 0.1991
1402 2 0.104952 0.00309574 0.240245
690 4 0.2009 0.0601111 0.234562
693 4 0.206105 0.072861 0.21934
691 2 0.194191 0.0897462 0.205265
21 1 0.366785 0.0521527 0.227345
25 3 0.38523 0.0431892 0.217442
759 4 0.401251 0.0432056 0.201918
1784 4 0.400109 0.0265322 0.216958
1783 2 0.390316 0.00383758 0.213187
757 2 0.413235 0.0646934 0.197465
23 3 0.35062 0.0566972 0.211332
24 3 0.372507 0.0716345 0.238576
1496 4 0.358696 0.0189152 0.250562
22 3 0.358233 0.0370849 0.242477
511 2 0.00348989 0.146084 0.227026
513 4 0.0194974 0.147056 0.246209
722 4 0.154725 0.151573 0.237209
721 2 0.164485 0.13468 0.221571
692 4 0.182277 0.106631 0.191189
723 4 0.174245 0.117788 0.205932
285 4 0.266754 0.160774 0.19903
582 4 0.260641 0.141927 0.20057
580 2 0.271349 0.119357 0.199517
581 4 0.282058 0.0967876 0.198464
28 3 0.313955 0.109024 0.242997
26 1 0.327627 0.127753 0.243851
30 3 0.318407 0.144664 0.231699
27 3 0.348163 0.122379 0.23499
744 4 0.443298 0.0922767 0.216014
311 4 0.453798 0.141939 0.179845
310 2 0.447583 0.119122 0.187965
758 4 0.425219 0.0861812 0.193012
312 4 0.441368 0.0963044 0.196085
742 2 0.443258 0.0953465 0.240829
395 4 0.0209849 0.237863 0.210786
283 2 0.270007 0.17625 0.179663
344 4 0.266849 0.23147 0.241906
764 4 0.394325 0.225711 0.218847
763 2 0.37991 0.241056 0.205359
629 4 0.430394 0.181783 0.188569
394 2 0.0279653 0.247102 0.232947
396 4 0.0349457 0.256341 0.255107
372 4 0.125182 0.288392 0.208612
362 4 0.113307 0.284165 0.191681
370 2 0.146838 0.278206 0.215853
361 2 0.102003 0.266065 0.17865
300 4 0.090274 0.337852 0.232325
371 4 0.168494 0.26802 0.223095
279 4 0.210968 0.300064 0.196651
277 2 0.227085 0.29074 0.21334
612 4 0.218909 0.317893 0.196584
343 2 0.263589 0.256257 0.242261
278 4 0.243202 0.281417 0.230028
307 2 0.279515 0.305018 0.217971
309 4 0.261709 0.287876 0.221747
308 4 0.297321 0.322161 0.214195
345 4 0.26033 0.281045 0.242617
765 4 0.365496 0.2564 0.19187
648 4 0.0208377 0.375464 0.181888
646 2 0.0421203 0.387253 0.187655
2694 4 0.00394435 0.3431 0.250214
647 4 0.063403 0.399041 0.193421
536 4 0.142056 0.358577 0.189397
535 2 0.143988 0.335885 0.179077
298 2 0.111364 0.337142 0.245738
611 4 0.219034 0.35694 0.165342
610 2 0.218972 0.337417 0.180963
303 4 0.325764 0.385505 0.206886
729 4 0.328112 0.391214 0.225325
301 2 0.333676 0.397532 0.186443
302 4 0.341587 0.409559 0.165999
643 2 0.450133 0.373812 0.195483
644 4 0.444884 0.38473 0.217357
645 4 0.455381 0.362894 0.17361
447 4 0.449218 0.383022 0.237463
445 2 0.458498 0.399112 0.2542
263 4 0.051882 0.416582 0.189663
262 2 0.0659008 0.43484 0.199424
264 4 0.0799197 0.453098 0.209186
1757 4 0.0756068 0.468916 0.199121
1756 2 0.0760072 0.493808 0.201438
290 4 0.229835 0.452395 0.164163
767 4 0.245485 0.44641 0.178028
768 4 0.278314 0.470446 0.207102
766 2 0.2619 0.458428 0.192565
1573 2 0.312806 0.464269 0.214718
1574 4 0.295275 0.469297 0.197614
1575 4 0.330337 0.459241 0.231822
438 4 0.250567 0.412642 0.264037
234 4 0.0423339 0.038827 0.349184
318 4 0.0547446 0.0457322 0.33591
689 4 0.156792 0.0402482 0.247238
688 2 0.178846 0.0501797 0.2409
1699 2 0.204439 0.0172608 0.300825
248 4 0.224705 0.0540022 0.308616
247 2 0.222483 0.078684 0.305291
1701 4 0.222052 0.0329298 0.309159
605 4 0.232774 0.0425083 0.324839
1495 2 0.359548 0.0124965 0.274713
697 2 0.384492 0.0311823 0.322517
351 4 0.399324 0.069821 0.328679
632 4 0.35728 0.0532946 0.309955
698 4 0.39039 0.0515899 0.335705
699 4 0.378594 0.0107747 0.309329
1497 4 0.3604 0.00607776 0.298863
349 2 0.413297 0.0808162 0.311099
480 4 0.518458 0.00992724 0.30171
577 2 0.0602821 0.153257 0.265858
579 4 0.037569 0.145696 0.258638
530 4 0.0196428 0.134873 0.263768
529 2 0.00921216 0.112967 0.26981
546 4 0.145381 0.15528 0.253787
544 2 0.161824 0.156519 0.272583
249 4 0.220261 0.103366 0.301967
403 2 0.206578 0.134026 0.29917
404 4 0.219599 0.118544 0.313865
405 4 0.193557 0.149508 0.284475
545 4 0.178266 0.157759 0.291379
708 4 0.320256 0.142912 0.281968
29 3 0.330486 0.134475 0.265875
706 2 0.335206 0.162524 0.2861
631 2 0.348837 0.0761884 0.315412
633 4 0.340394 0.0990823 0.320868
350 4 0.427269 0.0918113 0.293519
743 4 0.443218 0.0984164 0.265643
333 4 0.44423 0.10053 0.285956
331 2 0.449906 0.124327 0.291117
332 4 0.455583 0.148125 0.296278
762 4 0.474038 0.155424 0.300669
578 4 0.0829951 0.160819 0.273077
749 4 0.0874175 0.2751 0.28298
707 4 0.350155 0.182136 0.290232
760 2 0.465332 0.176959 0.291415
418 2 0.45102 0.233608 0.283068
419 4 0.440965 0.210717 0.282768
420 4 0.461076 0.256498 0.283369
761 4 0.456627 0.198494 0.28216
750 4 0.0547047 0.252266 0.252826
364 2 0.0135087 0.312962 0.270406
748 2 0.0710611 0.263683 0.267903
365 4 0.0115416 0.298258 0.290533
444 4 0.0388135 0.26434 0.328537
442 2 0.0197779 0.27482 0.316169
443 4 0.000742195 0.285301 0.3038
389 4 0.149584 0.275548 0.334042
498 4 0.339923 0.271542 0.287852
496 2 0.331393 0.276079 0.264791
497 4 0.322863 0.280616 0.241729
614 4 0.377013 0.264047 0.300934
613 2 0.389736 0.270556 0.321451
521 4 0.481982 0.254737 0.275557
543 4 0.473118 0.274354 0.282108
541 2 0.471644 0.297329 0.291862
542 4 0.47017 0.320305 0.301616
366 4 0.0154758 0.327666 0.250279
603 4 0.0733526 0.409977 0.327394
601 2 0.0929652 0.416009 0.313106
299 4 0.132453 0.336432 0.259151
734 4 0.144306 0.352267 0.26162
733 2 0.149093 0.365969 0.28198
677 4 0.161899 0.37686 0.31952
602 4 0.112578 0.422042 0.298819
735 4 0.15388 0.37967 0.30234
676 2 0.182546 0.370686 0.3322
509 4 0.265552 0.370861 0.320253
508 2 0.271907 0.361244 0.298065
510 4 0.278263 0.351627 0.275877
728 4 0.324167 0.409503 0.2717
433 2 0.325726 0.421221 0.313635
727 2 0.326139 0.400359 0.248513
434 4 0.320438 0.418485 0.289351
753 4 0.384014 0.407711 0.320874
446 4 0.467778 0.415203 0.270938
412 2 0.132343 0.494505 0.30615
414 4 0.139907 0.488715 0.283032
437 4 0.245982 0.431293 0.310208
436 2 0.248274 0.421967 0.287122
1802 4 0.316169 0.45707 0.246879
1801 2 0.316303 0.456018 0.27186
1803 4 0.316437 0.454967 0.296841
1436 4 0.276759 0.500166 0.309553
229 2 0.417618 0.490238 0.27146
713 4 0.457741 0.422911 0.287084
231 4 0.417854 0.466184 0.278282
712 2 0.475624 0.432411 0.301752
714 4 0.493507 0.441912 0.316419
232 2 0.0174887 0.0416258 0.349428
316 2 0.0717732 0.0338013 0.349797
428 4 0.0824078 0.00466905 0.371598
317 4 0.0888018 0.0218703 0.363685
1462 2 0.122244 0.999054 0.329337
1464 4 0.119613 0.020054 0.34265
606 4 0.240192 0.0330576 0.373381
604 2 0.236483 0.0377829 0.34911
441 4 0.2493 0.0406247 0.39001
439 2 0.257799 0.0199825 0.401272
440 4 0.266297 0.99934 0.412535
724 2 0.310828 0.000811968 0.399456
726 4 0.287814 0.998255 0.408889
725 4 0.333842 0.00336929 0.390022
257 4 0.410362 0.0566685 0.341658
256 2 0.418269 0.0595387 0.365204
258 4 0.426177 0.0624089 0.38875
398 4 0.0466587 0.105707 0.354202
2654 4 0.0312707 0.182705 0.36604
2653 2 0.0184806 0.16331 0.375282
397 2 0.0701071 0.100994 0.346912
2655 4 0.00569049 0.143915 0.384525
732 4 0.1094 0.107237 0.348497
731 4 0.149952 0.131604 0.3647
399 4 0.0935555 0.0962815 0.339622
730 2 0.129676 0.11942 0.356598
686 4 0.16425 0.129971 0.381354
599 4 0.160583 0.149043 0.372258
687 4 0.187007 0.0922933 0.405087
685 2 0.175629 0.111132 0.39322
683 4 0.285444 0.0790117 0.383399
682 2 0.289926 0.0889311 0.405909
451 2 0.443431 0.10088 0.393128
453 4 0.434308 0.114724 0.411844
515 4 0.431932 0.105438 0.428921
452 4 0.452553 0.0870361 0.374411
391 2 0.0689205 0.190738 0.346179
392 4 0.047961 0.179963 0.354532
260 4 0.0766244 0.198715 0.416316
393 4 0.08988 0.201514 0.337826
598 2 0.151961 0.170957 0.363856
600 4 0.143338 0.192871 0.355453
474 4 0.210738 0.210795 0.375491
276 4 0.204205 0.227313 0.384771
472 2 0.220173 0.191756 0.362314
473 4 0.229607 0.172716 0.349136
274 2 0.195241 0.222701 0.407652
377 4 0.289169 0.260649 0.37544
306 4 0.470337 0.238162 0.404539
304 2 0.45935 0.222889 0.421007
2850 4 0.0097921 0.230912 0.362048
618 4 0.0667262 0.310252 0.378822
347 4 0.0661929 0.312668 0.398603
616 2 0.0772052 0.292936 0.364142
401 4 0.168819 0.280246 0.334556
617 4 0.0876843 0.275619 0.349461
388 2 0.127112 0.271469 0.344219
390 4 0.104641 0.267391 0.354396
378 4 0.244152 0.240544 0.367078
400 2 0.183279 0.27617 0.354543
375 4 0.187857 0.274609 0.392029
402 4 0.197739 0.272094 0.374529
373 2 0.181586 0.294562 0.40573
487 2 0.327903 0.251758 0.392827
489 4 0.305524 0.248352 0.382208
376 2 0.266661 0.250596 0.371259
488 4 0.350282 0.255164 0.403446
615 4 0.402459 0.277064 0.341968
716 4 0.398192 0.272889 0.360129
715 2 0.382628 0.270319 0.379529
717 4 0.367064 0.267749 0.398928
267 4 0.368478 0.253146 0.414408
269 4 0.473409 0.238955 0.384433
270 4 0.47747 0.288674 0.380938
2923 2 0.476941 0.327514 0.393754
268 2 0.47544 0.263815 0.382685
2924 4 0.483813 0.303544 0.391924
2927 4 0.00110719 0.406741 0.335459
406 2 0.0521463 0.398423 0.356937
408 4 0.0517375 0.37844 0.341915
407 4 0.0525551 0.418407 0.371959
678 4 0.203192 0.364512 0.344879
651 4 0.291338 0.359036 0.430251
751 2 0.400949 0.402801 0.338602
752 4 0.417884 0.39789 0.35633
2507 4 0.477792 0.396693 0.431728
561 4 0.434135 0.396334 0.368966
2925 4 0.470068 0.351485 0.395584
559 2 0.425701 0.397834 0.392457
560 4 0.417267 0.399334 0.415947
775 2 0.0806413 0.501122 0.339131
777 4 0.0578511 0.497532 0.348769
549 4 0.0518059 0.480849 0.358452
548 4 0.0637994 0.435282 0.375201
547 2 0.0578026 0.458066 0.366826
4 3 0.3229 0.452211 0.349367
1 1 0.317098 0.46795 0.3654
2 3 0.296911 0.477348 0.35963
3 3 0.314966 0.457732 0.386123
5 3 0.332961 0.484261 0.366374
435 4 0.331014 0.423956 0.337919
2237 4 0.0111084 0.00212214 0.449132
2236 2 0.0215846 0.0151947 0.467694
2238 4 0.0320607 0.0282673 0.486256
1773 4 0.0168064 0.00919524 0.430694
2429 4 0.124999 0.00427153 0.493937
367 2 0.109148 0.0696938 0.45353
368 4 0.112485 0.0470067 0.443563
2428 2 0.140116 0.0241418 0.492581
341 4 0.149576 0.0579251 0.505386
340 2 0.166819 0.0729517 0.495283
962 4 0.27308 0.00598633 0.487928
1180 2 0.298789 0.0746127 0.460143
1181 4 0.31102 0.0569304 0.472907
961 2 0.290908 0.0235112 0.487445
963 4 0.308735 0.0410361 0.486961
432 4 0.31698 0.0596087 0.493131
425 4 0.367874 0.0523419 0.42932
424 2 0.365637 0.0275297 0.43145
430 2 0.340804 0.064608 0.498844
841 2 0.394472 0.0718539 0.49712
842 4 0.412792 0.056529 0.489725
457 2 0.0158278 0.138352 0.457243
719 4 0.045613 0.124273 0.479245
459 4 0.0396314 0.138073 0.464891
718 2 0.0490028 0.114225 0.501888
369 4 0.105811 0.0923809 0.463497
939 4 0.108412 0.107735 0.474927
937 2 0.113631 0.131498 0.480693
342 4 0.184063 0.0879783 0.485181
938 4 0.11885 0.155261 0.486458
1034 4 0.126368 0.172786 0.491786
1151 4 0.212441 0.136101 0.458061
1150 2 0.202863 0.113492 0.462781
1152 4 0.193284 0.0908829 0.467502
1182 4 0.286558 0.092295 0.447379
321 4 0.295745 0.150682 0.474846
684 4 0.294408 0.0988505 0.428419
320 4 0.287524 0.113434 0.442509
319 2 0.291634 0.132058 0.458678
468 4 0.309671 0.167469 0.429767
410 4 0.29528 0.178445 0.422848
467 4 0.348156 0.13971 0.413986
466 2 0.328913 0.153589 0.421876
642 4 0.504038 0.129122 0.480085
516 4 0.418524 0.150188 0.446763
514 2 0.425228 0.127813 0.437842
575 4 0.437051 0.157731 0.449992
261 4 0.116516 0.21191 0.443432
259 2 0.0965701 0.205313 0.429874
1035 4 0.113044 0.212492 0.46446
1033 2 0.119706 0.192639 0.478123
695 4 0.112855 0.230637 0.452992
694 2 0.0983958 0.245972 0.466444
275 4 0.186278 0.218089 0.430534
411 4 0.279002 0.202985 0.463265
409 2 0.287141 0.190715 0.443057
899 4 0.327099 0.166822 0.487985
266 4 0.38659 0.254206 0.461008
305 4 0.448363 0.207615 0.437474
574 2 0.43345 0.182351 0.447521
576 4 0.429848 0.20697 0.44505
327 4 0.0827406 0.273634 0.495167
346 2 0.0764211 0.314591 0.421337
348 4 0.0866494 0.316513 0.444072
696 4 0.0839369 0.261306 0.479897
10 3 0.096318 0.328935 0.45581
6 1 0.114906 0.334813 0.467583
9 3 0.114538 0.324765 0.488495
1259 4 0.130857 0.31818 0.499194
374 4 0.175315 0.314516 0.419431
265 2 0.377534 0.253676 0.437708
872 4 0.447095 0.27049 0.490774
585 4 0.459653 0.263196 0.476904
583 2 0.478897 0.276112 0.467521
2812 2 0.997385 0.353353 0.42288
2813 4 0.0167717 0.353515 0.43867
8 3 0.133965 0.32836 0.456028
7 3 0.115238 0.357651 0.470311
709 2 0.174162 0.418193 0.463733
503 4 0.246492 0.392421 0.447258
502 2 0.223374 0.38936 0.45628
504 4 0.200257 0.386298 0.465302
710 4 0.194911 0.404821 0.459755
650 4 0.247851 0.372897 0.450683
649 2 0.269595 0.365967 0.440467
336 4 0.35547 0.405952 0.447711
334 2 0.359571 0.382757 0.456098
238 2 0.404378 0.34421 0.460983
240 4 0.381814 0.354819 0.45911
335 4 0.363671 0.359561 0.464485
2506 2 0.496228 0.392755 0.448153
239 4 0.426941 0.3336 0.462856
680 4 0.0154044 0.43019 0.429366
538 2 0.0269607 0.491133 0.503005
383 4 0.0687552 0.440091 0.439284
681 4 0.055997 0.455971 0.443088
679 2 0.0357007 0.443081 0.436227
382 2 0.0918792 0.442802 0.4484
711 4 0.153412 0.431565 0.467712
569 4 0.118934 0.464911 0.451959
384 4 0.115003 0.445513 0.457517
568 2 0.133181 0.485207 0.44875
773 4 0.233986 0.431839 0.405061
772 2 0.215284 0.43662 0.420952
634 2 0.191385 0.472137 0.457934
635 4 0.182965 0.45219 0.445427
774 4 0.196581 0.441401 0.436844
668 4 0.413117 0.43278 0.430085
667 2 0.39063 0.428069 0.439949
669 4 0.368142 0.423358 0.449813
588 4 0.430529 0.426086 0.43873
586 2 0.445105 0.440462 0.453085
587 4 0.45968 0.454838 0.46744
663 4 0.44986 0.453207 0.483842
1126 2 0.00643288 0.0208234 0.518749
1127 4 0.0212021 0.0152576 0.499357
2430 4 0.155232 0.044012 0.491225
1030 2 0.238275 0.0854193 0.575075
949 2 0.275898 0.00934479 0.561187
951 4 0.280341 0.0240966 0.58088
843 4 0.376151 0.0871788 0.504514
1217 4 0.411124 0.0356405 0.492995
431 4 0.364627 0.0696073 0.504557
1216 2 0.413041 0.0207216 0.512968
1218 4 0.414959 0.00580269 0.532942
1060 2 0.478193 0.0333112 0.557546
1061 4 0.497998 0.0391903 0.543462
1062 4 0.458387 0.0274321 0.57163
720 4 0.0523926 0.104177 0.524532
471 4 0.0330125 0.140325 0.516659
1058 4 0.153036 0.126842 0.592189
1032 4 0.247061 0.0945118 0.553503
898 2 0.325518 0.152527 0.508438
900 4 0.323936 0.138231 0.528891
640 2 0.49224 0.142489 0.497615
641 4 0.480441 0.155855 0.515145
469 2 0.0298158 0.16432 0.52292
470 4 0.026619 0.188315 0.529181
1199 4 0.00474017 0.194697 0.570492
877 2 0.112545 0.238052 0.539081
1272 4 0.131179 0.221934 0.563536
879 4 0.132845 0.239968 0.553553
878 4 0.092246 0.236136 0.524609
1270 2 0.125315 0.207498 0.583091
856 2 0.204283 0.240671 0.535117
857 4 0.200605 0.232708 0.511702
813 4 0.346696 0.246513 0.507297
1136 4 0.0849932 0.327079 0.567363
326 4 0.0938463 0.296355 0.538308
1258 2 0.153359 0.319603 0.510001
325 2 0.0882934 0.284995 0.516737
858 4 0.207962 0.248633 0.558531
803 4 0.228813 0.329561 0.573167
791 4 0.320736 0.282321 0.542249
790 2 0.307385 0.283609 0.56335
802 2 0.251072 0.320631 0.566098
804 4 0.273331 0.311702 0.559029
792 4 0.294033 0.284897 0.584451
812 4 0.337462 0.288558 0.532746
811 2 0.342079 0.267536 0.520022
873 4 0.435088 0.254058 0.536453
871 2 0.441091 0.262274 0.513614
953 4 0.437054 0.27118 0.545815
952 2 0.437413 0.267467 0.570538
984 4 0.0745436 0.342044 0.559245
982 2 0.0497285 0.342477 0.556212
983 4 0.0249135 0.342911 0.553178
1260 4 0.175862 0.321027 0.520807
896 4 0.169645 0.383666 0.566792
1189 2 0.194198 0.348757 0.567273
1190 4 0.211109 0.330985 0.56244
1191 4 0.177286 0.366528 0.572106
930 4 0.388818 0.389988 0.575007
882 4 0.390372 0.409618 0.567535
928 2 0.394188 0.366399 0.581323
925 2 0.444664 0.395417 0.545462
926 4 0.435013 0.375266 0.534238
927 4 0.454315 0.415568 0.556686
935 4 0.0151683 0.437394 0.530553
934 2 0.00760382 0.419875 0.514396
540 4 0.00291442 0.497852 0.50166
1159 2 0.161428 0.437969 0.538693
1160 4 0.147407 0.434424 0.518296
1161 4 0.175448 0.441515 0.55909
880 2 0.381294 0.426343 0.551316
881 4 0.372216 0.443068 0.535098
1454 4 0.369006 0.462337 0.533691
1453 2 0.353338 0.473373 0.517633
1455 4 0.337669 0.48441 0.501574
1911 4 0.478124 0.500739 0.552626
662 4 0.443741 0.454311 0.533461
1910 4 0.451384 0.458487 0.55323
1909 2 0.464754 0.479613 0.552928
661 2 0.446801 0.453759 0.508652
1001 4 0.44967 0.423075 0.574239
1185 4 0.0313512 0.0648368 0.649753
1183 2 0.0387309 0.042556 0.658372
1184 4 0.0461106 0.0202752 0.666991
823 2 0.161691 0.99701 0.638068
825 4 0.165574 0.00629872 0.660955
945 4 0.100132 0.0763565 0.635419
1059 4 0.155452 0.0826911 0.615547
1284 4 0.172192 0.071237 0.615849
1282 2 0.19622 0.0662461 0.611062
1283 4 0.220248 0.0612553 0.606276
1031 4 0.22949 0.0763267 0.596646
2281 2 0.386796 0.0236364 0.664652
2282 4 0.381005 0.0147253 0.642019
1092 4 0.390185 0.0120732 0.625326
1090 2 0.377777 0.99849 0.608394
3008 4 0.495606 0.0640681 0.582496
809 4 0.481124 0.0752629 0.593266
1083 4 0.00931843 0.0939853 0.609676
944 4 0.0568781 0.0946728 0.652575
943 2 0.0785051 0.0855146 0.643997
1082 4 0.0379433 0.10397 0.649446
1081 2 0.0236309 0.0989776 0.629561
1076 4 0.0510537 0.111628 0.664614
1155 4 0.153222 0.146871 0.59718
1057 2 0.154244 0.104766 0.603868
909 4 0.157772 0.124214 0.644219
1153 2 0.16784 0.165084 0.606113
907 2 0.171694 0.108811 0.658151
1211 4 0.289921 0.161186 0.642748
888 4 0.298748 0.14317 0.64396
886 2 0.322118 0.146846 0.652055
887 4 0.345488 0.150522 0.660149
810 4 0.441289 0.0910559 0.619044
808 2 0.461207 0.0831594 0.606155
852 4 0.0580906 0.24129 0.661136
1209 4 0.0759099 0.251885 0.656298
850 2 0.0592936 0.216476 0.663963
1271 4 0.119452 0.193062 0.602646
947 4 0.164455 0.262912 0.676926
1154 4 0.182457 0.183297 0.615047
1221 4 0.1942 0.197994 0.617501
1219 2 0.218122 0.202455 0.623249
1220 4 0.242044 0.206916 0.628996
798 4 0.256535 0.217102 0.640818
1212 4 0.262462 0.200403 0.628301
796 2 0.255578 0.24194 0.643523
1210 2 0.276191 0.180795 0.635524
1193 4 0.394153 0.1967 0.667007
904 2 0.437779 0.234456 0.615235
906 4 0.432149 0.210221 0.617708
1024 2 0.436088 0.191303 0.654251
1025 4 0.440799 0.200386 0.631437
1245 4 0.0576748 0.262518 0.660511
948 4 0.181793 0.26849 0.630353
946 2 0.173124 0.265701 0.65364
797 4 0.254622 0.266778 0.646228
1238 4 0.281077 0.292397 0.597855
1237 2 0.288016 0.30056 0.620447
1239 4 0.294955 0.308723 0.643039
905 4 0.44341 0.258692 0.612762
954 4 0.437772 0.263755 0.595262
1039 2 0.0497665 0.407424 0.612378
1041 4 0.0298964 0.393344 0.618045
3264 4 0.020995 0.382983 0.603208
1281 4 0.0255378 0.401727 0.667018
895 2 0.15756 0.384257 0.588673
1135 2 0.101162 0.338683 0.582499
1137 4 0.117331 0.350287 0.597635
992 4 0.134253 0.401663 0.618286
897 4 0.145475 0.384848 0.610554
991 2 0.111253 0.411258 0.616253
929 4 0.399559 0.34281 0.58764
1040 4 0.0696365 0.421504 0.606711
993 4 0.0882535 0.420852 0.614219
3431 4 0.999219 0.472371 0.577933
1173 4 0.273958 0.481038 0.590373
2154 4 0.280853 0.496264 0.579115
1172 4 0.287753 0.445733 0.622991
1171 2 0.280856 0.463385 0.606682
891 4 0.300799 0.430578 0.620215
889 2 0.322407 0.437006 0.631029
890 4 0.344015 0.443434 0.641843
1204 2 0.428382 0.438094 0.653965
1206 4 0.430763 0.447968 0.631117
1002 4 0.437772 0.432318 0.621923
1000 2 0.443721 0.427697 0.598081
3183 4 0.484548 0.486063 0.62057
4338 4 0.0201647 0.00609961 0.717887
1226 4 0.234672 0.084533 0.714774
2398 2 0.276934 0.0108299 0.734668
2400 4 0.271195 0.0116016 0.710344
1004 4 0.311846 0.0798228 0.732313
2399 4 0.282672 0.0100581 0.758992
2283 4 0.392588 0.0325474 0.687284
42 3 0.464686 0.0758039 0.726718
4226 4 0.493013 0.0261077 0.678219
864 4 0.0396339 0.113318 0.726808
1075 2 0.0406062 0.110384 0.687297
1077 4 0.0301588 0.109141 0.709979
862 2 0.0286895 0.121558 0.747725
1148 4 0.240742 0.0896268 0.732939
908 4 0.185617 0.0934084 0.672082
1225 2 0.213877 0.0850885 0.700901
1227 4 0.193082 0.085644 0.687029
1005 4 0.321681 0.128715 0.728636
1003 2 0.316763 0.104269 0.730475
1299 4 0.324233 0.159756 0.74607
831 4 0.328776 0.147506 0.728868
830 4 0.344498 0.149666 0.681446
829 2 0.336637 0.148586 0.705157
1086 4 0.344322 0.150833 0.743257
45 3 0.428907 0.0719264 0.716833
43 3 0.439276 0.100778 0.73869
41 1 0.445426 0.0870279 0.72104
44 3 0.449493 0.0997957 0.702097
1142 4 0.449023 0.119443 0.703953
1141 2 0.440356 0.141612 0.696299
3426 4 0.504509 0.148729 0.694753
851 4 0.0604965 0.191661 0.666789
1107 4 0.065292 0.185837 0.685318
1178 4 0.0409201 0.251065 0.693128
1105 2 0.0696507 0.187348 0.709892
1106 4 0.0740093 0.188858 0.734466
1073 4 0.074685 0.208263 0.737622
1177 2 0.0251482 0.248609 0.712374
1130 4 0.211968 0.202585 0.693626
1129 2 0.202768 0.196955 0.716184
1131 4 0.193569 0.191326 0.738742
976 2 0.295097 0.230055 0.722542
1297 2 0.310661 0.180732 0.747077
1298 4 0.297089 0.201707 0.748083
978 4 0.296294 0.237118 0.698587
1194 4 0.361031 0.159625 0.672399
1192 2 0.377592 0.178163 0.669703
1262 4 0.426049 0.208884 0.736765
1143 4 0.431689 0.163782 0.688645
1026 4 0.431376 0.182221 0.677065
1261 2 0.432825 0.195179 0.71698
1263 4 0.4396 0.181474 0.697195
1243 2 0.0404681 0.280223 0.656559
1244 4 0.0232613 0.297929 0.652608
1179 4 0.00937641 0.246153 0.73162
821 4 0.142791 0.277112 0.733717
1207 2 0.0937848 0.263199 0.669626
1208 4 0.11166 0.274513 0.682955
820 2 0.157908 0.273067 0.714216
822 4 0.173025 0.269022 0.694714
1065 4 0.25472 0.312409 0.679127
1063 2 0.260814 0.329268 0.696558
3123 4 0.472639 0.29064 0.691547
3121 2 0.49384 0.278544 0.686126
892 2 0.0512295 0.38974 0.739156
894 4 0.0309433 0.401169 0.730044
940 2 0.104509 0.364347 0.735273
941 4 0.127362 0.369099 0.72631
1067 4 0.146014 0.372704 0.730146
1028 4 0.209367 0.393157 0.711597
1066 2 0.167611 0.383146 0.723095
1068 4 0.189208 0.393587 0.716044
1027 2 0.228466 0.394354 0.695505
1236 4 0.214063 0.338839 0.731133
1064 4 0.266908 0.346127 0.713988
1029 4 0.247566 0.395551 0.679413
806 4 0.273664 0.361722 0.724818
805 2 0.297673 0.366821 0.729586
1139 4 0.263039 0.407629 0.674188
807 4 0.321682 0.371921 0.734354
1020 4 0.333839 0.359191 0.744251
3276 4 0.0188113 0.415826 0.724622
1983 4 0.0264254 0.468085 0.688882
1981 2 0.023588 0.474815 0.712795
1280 4 0.0251595 0.450019 0.679997
1279 2 0.0253487 0.425873 0.673507
1982 4 0.0207505 0.481545 0.736708
1176 4 0.199403 0.476241 0.712432
1174 2 0.212976 0.488926 0.695697
2016 4 0.193798 0.494447 0.719138
1988 4 0.315323 0.492647 0.712688
1138 2 0.275771 0.429025 0.676499
1140 4 0.288502 0.45042 0.67881
1987 2 0.33079 0.473089 0.710832
1088 4 0.301697 0.496648 0.727179
1205 4 0.426 0.42822 0.676812
1989 4 0.346257 0.453532 0.708976
1100 4 0.415746 0.447478 0.710988
1101 4 0.436427 0.414802 0.742694
1099 2 0.426086 0.43114 0.726841
1267 2 0.444461 0.480218 0.700352
1269 4 0.425669 0.464352 0.704859
1203 4 0.116227 0.0437095 0.802295
1201 2 0.119665 0.0258815 0.785104
1202 4 0.123103 0.00805349 0.767913
2049 4 0.111485 0.00111269 0.754612
911 4 0.113602 0.0622049 0.813216
1196 4 0.120844 0.0443984 0.823294
1049 4 0.297861 0.0070157 0.772441
1048 2 0.306023 0.0261186 0.786356
1050 4 0.314185 0.0452215 0.800271
1257 4 0.306878 0.0585246 0.812697
1255 2 0.33027 0.0670278 0.815082
1112 4 0.426018 0.00284473 0.783639
1111 2 0.444529 0.0118092 0.797857
1113 4 0.463041 0.0207736 0.812075
844 2 0.485721 0.0463447 0.785556
845 4 0.480417 0.0294185 0.803178
980 4 0.476003 0.0346436 0.823308
979 2 0.476083 0.0220796 0.844925
863 4 0.0177451 0.129798 0.768641
833 4 0.99793 0.132487 0.771638
33 3 0.0791589 0.129122 0.812704
31 1 0.0976563 0.14249 0.816891
35 3 0.104469 0.15258 0.797644
32 3 0.114685 0.129304 0.824971
910 2 0.115524 0.0852986 0.822606
912 4 0.117446 0.108392 0.831995
1147 2 0.236771 0.088186 0.757583
1149 4 0.2328 0.0867452 0.782227
840 4 0.232014 0.133286 0.802897
839 4 0.27636 0.145946 0.822233
838 2 0.254187 0.139616 0.812565
959 4 0.293097 0.134499 0.822032
958 2 0.312559 0.149894 0.818967