ITEM: TIMESTEP
1920000
ITEM: NUMBER OF ATOMS
4590
ITEM: BOX BOUNDS pp pp pp
-9.9985700000000008e+00 9.9985700000000008e+00
-9.9985700000000008e+00 9.9985700000000008e+00
-9.9985700000000008e+00 9.9985700000000008e+00
ITEM: ATOMS id type xs ys zs
1666 2 0.0548336 0.0472829 0.0550656
1668 4 0.0480064 0.0232406 0.0543337
1667 4 0.0616607 0.0713252 0.0557975
591 4 0.0608615 0.0852086 0.0397154
421 2 0.147601 0.0909481 0.0128231
423 4 0.168478 0.0923589 0.999135
533 4 0.20197 0.047319 0.989563
490 2 0.30023 0.0650416 0.0135834
491 4 0.297575 0.0794897 0.0338166
653 4 0.282639 0.0684262 0.0440805
652 2 0.270147 0.0654424 0.0655329
297 4 0.372346 0.00826065 0.0772453
295 2 0.396341 0.0099785 0.0704265
296 4 0.420335 0.0116964 0.0636077
589 2 0.0385753 0.0948921 0.0338218
590 4 0.0162891 0.104576 0.0279281
702 4 0.0746976 0.0887713 0.0554949
3232 2 0.0186164 0.141879 0.0109167
3233 4 0.00820212 0.119565 0.015253
1248 4 0.997108 0.101259 0.017579
3234 4 0.0290307 0.164193 0.00658037
422 4 0.126724 0.0895372 0.0265106
700 2 0.0908771 0.107763 0.0571377
701 4 0.107057 0.126756 0.0587806
236 4 0.0988126 0.145067 0.0506728
449 4 0.116387 0.145622 0.0631362
448 2 0.137109 0.148349 0.0768599
565 2 0.278417 0.112659 0.0333795
566 4 0.274823 0.135074 0.0228997
567 4 0.282011 0.0902438 0.0438593
665 4 0.310377 0.140335 0.0117904
359 4 0.258677 0.128558 0.0115141
664 2 0.329458 0.155127 0.0182917
557 4 0.383069 0.151332 0.0726363
556 2 0.371428 0.16618 0.056229
666 4 0.348539 0.16992 0.024793
237 4 0.0694264 0.182712 0.065507
235 2 0.0841195 0.163889 0.0580899
914 4 0.151917 0.24457 0.0201742
558 4 0.359787 0.181028 0.0398218
571 2 0.359024 0.211445 0.0113176
572 4 0.350921 0.190928 0.023089
1071 4 0.372418 0.244722 0.013272
573 4 0.367126 0.231963 0.999546
769 2 0.494651 0.217644 0.0546307
770 4 0.498912 0.194731 0.0455739
771 4 0.49039 0.240556 0.0636875
506 4 0.160488 0.261567 0.0126731
293 4 0.161995 0.310668 0.0461204
507 4 0.17804 0.303412 0.033688
505 2 0.169264 0.282489 0.0231806
288 4 0.167933 0.321034 0.027391
292 2 0.14871 0.312943 0.0671796
294 4 0.135424 0.315218 0.0882388
481 2 0.235704 0.323974 0.0646575
482 4 0.252037 0.309744 0.0771435
1070 4 0.358778 0.292103 0.0216204
1069 2 0.365598 0.268412 0.0174462
957 4 0.365475 0.311324 0.0234691
955 2 0.354143 0.333532 0.0215762
518 4 0.489196 0.260415 0.0711364
323 4 0.478084 0.254387 0.0533814
322 2 0.455963 0.265136 0.0578869
324 4 0.433842 0.275886 0.0623925
280 2 0.465372 0.330304 0.0156037
623 4 0.424537 0.278432 0.0794877
550 2 0.0315279 0.409291 0.0430015
551 4 0.0383097 0.400509 0.0205951
619 2 0.0011596 0.418272 0.0852287
1170 4 0.0202447 0.347489 0.00402489
1168 2 0.0265152 0.37167 0.00295641
1169 4 0.0327857 0.395851 0.00188793
483 4 0.219371 0.338205 0.0521714
286 2 0.188388 0.334536 0.0323369
287 4 0.208843 0.348039 0.0372827
39 3 0.351895 0.426979 0.997362
956 4 0.342811 0.355739 0.0196834
670 2 0.487102 0.340834 0.0646628
671 4 0.472827 0.345715 0.0447238
281 4 0.48206 0.34491 0.0271525
552 4 0.0247461 0.418074 0.0654079
315 4 0.0290093 0.4355 0.0772221
313 2 0.047658 0.452067 0.0755063
314 4 0.0663068 0.468634 0.0737904
1786 2 0.105155 0.465906 0.0660848
1788 4 0.125892 0.452483 0.062218
1787 4 0.0844171 0.479329 0.0699516
246 4 0.329029 0.454089 0.0169262
272 4 0.314192 0.466716 0.00701613
244 2 0.331005 0.452084 0.0417708
40 3 0.329578 0.457184 0.994667
245 4 0.332982 0.450079 0.0666153
2388 4 0.402157 0.491099 0.00963018
563 4 0.418915 0.498472 0.0203267
562 2 0.441377 0.48765 0.0184505
564 4 0.463839 0.476828 0.0165742
854 4 0.470661 0.458923 0.0180118
853 2 0.483797 0.450794 0.998351
18 3 0.0194255 0.0641597 0.1278
2481 4 0.0133303 0.0692289 0.147078
16 1 0.0102452 0.0805522 0.114184
17 3 0.996354 0.0705398 0.0988236
654 4 0.257654 0.0624587 0.0869852
19 3 0.0270917 0.09179 0.102856
450 4 0.157831 0.151076 0.0905837
311 4 0.438915 0.0793489 0.172329
477 4 0.0691367 0.185784 0.0852461
476 4 0.0698671 0.213112 0.127119
475 2 0.0695019 0.199448 0.106183
339 4 0.0576349 0.22768 0.135037
337 2 0.0758507 0.244803 0.135451
738 4 0.181851 0.230732 0.127346
736 2 0.201748 0.244206 0.120438
737 4 0.221645 0.257681 0.113531
353 4 0.236294 0.242976 0.107368
461 4 0.292504 0.209975 0.115511
354 4 0.276014 0.213019 0.102306
460 2 0.311876 0.207405 0.0999126
352 2 0.256154 0.227997 0.104837
462 4 0.331247 0.204835 0.0843139
254 4 0.387128 0.18411 0.119698
630 4 0.393903 0.194583 0.136153
253 2 0.365929 0.192186 0.109183
255 4 0.34473 0.200261 0.0986676
628 2 0.417632 0.186963 0.13816
629 4 0.441362 0.179343 0.140167
338 4 0.0940664 0.261926 0.135866
363 4 0.111878 0.267948 0.142017
361 2 0.126391 0.268179 0.162377
754 2 0.253662 0.284053 0.102297
755 4 0.242346 0.263427 0.110762
756 4 0.264978 0.30468 0.0938311
252 4 0.260281 0.325536 0.0891503
741 4 0.401428 0.301777 0.134007
624 4 0.418467 0.294433 0.126475
739 2 0.379509 0.312367 0.139714
740 4 0.357589 0.322957 0.145421
622 2 0.421502 0.286433 0.102981
672 4 0.501378 0.335952 0.0846017
15 3 0.455097 0.307833 0.148625
528 4 0.512041 0.3208 0.0902665
13 3 0.424046 0.321228 0.165179
11 1 0.441206 0.325807 0.150247
454 2 0.134715 0.345168 0.112477
455 4 0.137367 0.355468 0.135106
456 4 0.132062 0.334868 0.0898484
537 4 0.134163 0.338983 0.145248
250 2 0.279079 0.339871 0.0972911
607 2 0.289623 0.393741 0.0958329
251 4 0.297878 0.354207 0.105432
609 4 0.303423 0.3729 0.0964439
387 4 0.314943 0.365331 0.113071
385 2 0.327595 0.346944 0.12434
626 4 0.256548 0.405668 0.0996471
386 4 0.340248 0.328557 0.13561
494 4 0.396769 0.372475 0.104254
493 2 0.416519 0.360589 0.11394
495 4 0.436269 0.348702 0.123625
14 3 0.432407 0.33092 0.129394
595 2 0.469569 0.37899 0.137665
12 3 0.453119 0.34392 0.157936
597 4 0.453973 0.363681 0.149813
2652 4 0.486328 0.411509 0.1334
596 4 0.485164 0.3943 0.125517
620 4 0.0260356 0.417169 0.0874978
648 4 0.04183 0.423141 0.105192
646 2 0.045617 0.427115 0.129586
647 4 0.0494039 0.43109 0.153979
627 4 0.213588 0.430803 0.0948042
625 2 0.235068 0.418236 0.0972256
1440 4 0.25293 0.480935 0.0855311
608 4 0.275822 0.414582 0.0952219
1438 2 0.272979 0.480312 0.100458
1439 4 0.293028 0.479688 0.115385
637 2 0.282842 0.476762 0.157884
639 4 0.285317 0.477047 0.133005
523 2 0.354858 0.480736 0.13938
525 4 0.361301 0.456835 0.142904
659 4 0.359928 0.436593 0.145008
524 4 0.348416 0.504637 0.135856
658 2 0.347074 0.422328 0.161022
2650 2 0.500375 0.431991 0.13051
2479 2 0.0135513 0.0503495 0.16347
1422 4 0.019414 0.0120066 0.181335
2480 4 0.0137723 0.0314702 0.179862
688 2 0.136728 0.0538579 0.236494
690 4 0.1486 0.0510996 0.214662
693 4 0.15318 0.0661791 0.201736
1700 4 0.196401 0.00354965 0.242361
1506 4 0.254831 0.00637649 0.166692
23 3 0.308496 0.0498768 0.236196
21 1 0.331091 0.0487863 0.241359
25 3 0.343109 0.0438764 0.222648
759 4 0.357336 0.0577102 0.211675
1784 4 0.362928 0.0364321 0.215588
1783 2 0.353704 0.0212743 0.197971
757 2 0.374645 0.0747464 0.217619
1785 4 0.34448 0.00611654 0.180355
511 2 0.0229691 0.138109 0.244775
691 2 0.161242 0.0898473 0.201785
692 4 0.169304 0.113515 0.201834
723 4 0.17723 0.130853 0.206044
721 2 0.183492 0.142688 0.227159
722 4 0.189754 0.154524 0.248275
581 4 0.323862 0.176129 0.185905
30 3 0.339417 0.166406 0.189835
758 4 0.391954 0.0917826 0.223564
28 3 0.368362 0.142836 0.194764
312 4 0.406702 0.0946231 0.207397
744 4 0.412163 0.0979516 0.228028
26 1 0.358368 0.162538 0.201859
310 2 0.422808 0.086986 0.189863
748 2 0.0501097 0.200179 0.238441
749 4 0.0357174 0.191538 0.219911
750 4 0.0645021 0.20882 0.256972
396 4 0.0618263 0.228309 0.25308
284 4 0.244498 0.211203 0.242995
343 2 0.244819 0.247667 0.25333
283 2 0.255795 0.194835 0.227841
344 4 0.245208 0.223237 0.25864
285 4 0.267093 0.178467 0.212687
580 2 0.301947 0.183731 0.19524
582 4 0.280032 0.191332 0.204575
29 3 0.353263 0.161141 0.224451
27 3 0.373077 0.179924 0.19862
708 4 0.35347 0.166575 0.243689
362 4 0.140904 0.26841 0.182736
372 4 0.151675 0.278011 0.196208
370 2 0.168991 0.295296 0.201359
371 4 0.186307 0.312582 0.206511
279 4 0.205401 0.316132 0.216001
277 2 0.214388 0.29768 0.230282
612 4 0.203843 0.319003 0.194643
2693 4 0.00175587 0.397946 0.2219
535 2 0.143691 0.344219 0.167764
536 4 0.153219 0.349455 0.19028
298 2 0.146041 0.399418 0.235597
300 4 0.145715 0.403304 0.210899
610 2 0.205517 0.343322 0.200207
417 4 0.206743 0.386976 0.214593
415 2 0.228788 0.39482 0.20578
611 4 0.207192 0.367641 0.205771
416 4 0.250833 0.402665 0.196967
301 2 0.321557 0.382228 0.210463
660 4 0.33422 0.408063 0.177036
302 4 0.324584 0.393804 0.188508
291 4 0.245792 0.421461 0.191207
729 4 0.314999 0.381512 0.249143
303 4 0.318529 0.370652 0.232418
645 4 0.45494 0.359755 0.172116
643 2 0.440049 0.365975 0.191214
644 4 0.425158 0.372195 0.210313
447 4 0.424781 0.378355 0.229536
445 2 0.437137 0.385396 0.250101
263 4 0.0487299 0.445306 0.167632
262 2 0.0576515 0.452985 0.189692
1757 4 0.051646 0.465373 0.225055
264 4 0.0665731 0.460664 0.211751
1467 4 0.0212121 0.495873 0.18252
1756 2 0.052697 0.470785 0.249443
603 4 0.104389 0.449497 0.244049
289 2 0.261496 0.440726 0.193941
290 4 0.277199 0.45999 0.196675
638 4 0.280367 0.476477 0.182763
767 4 0.297189 0.4669 0.192088
766 2 0.310437 0.477945 0.21019
768 4 0.323684 0.488991 0.228292
1573 2 0.351641 0.495838 0.24443
1574 4 0.3336 0.505363 0.229975
674 4 0.07746 0.0845142 0.283926
1403 4 0.119615 0.0360224 0.256538
689 4 0.124856 0.0566163 0.258326
1402 2 0.108107 0.0155526 0.265125
675 4 0.104171 0.0508294 0.258381
673 2 0.0908156 0.0676718 0.271154
1699 2 0.202225 0.0177713 0.262084
248 4 0.217846 0.0508294 0.27734
247 2 0.201436 0.0655504 0.289137
1701 4 0.20805 0.0319929 0.281807
605 4 0.219948 0.0418245 0.296726
604 2 0.234997 0.0268614 0.309947
249 4 0.185025 0.0802713 0.300934
606 4 0.250046 0.0118983 0.323169
631 2 0.315678 0.0284633 0.31367
632 4 0.309509 0.0521302 0.308473
633 4 0.321846 0.0047964 0.318867
1496 4 0.344565 0.0200842 0.268197
22 3 0.334353 0.0322508 0.257015
24 3 0.338174 0.0690215 0.250235
697 2 0.409053 0.0143649 0.311612
1495 2 0.365523 0.0107957 0.27818
351 4 0.40829 0.051758 0.31839
1747 2 0.494141 0.00759907 0.247636
698 4 0.41246 0.0330827 0.327836
349 2 0.419409 0.0686112 0.303641
479 4 0.517445 0.043337 0.320226
579 4 0.0529787 0.136707 0.269929
513 4 0.037629 0.125346 0.260503
577 2 0.0627089 0.157537 0.279757
530 4 0.0392685 0.126118 0.28226
529 2 0.0256237 0.113492 0.298981
531 4 0.0119789 0.100866 0.315702
398 4 0.0177949 0.0935097 0.335193
2756 4 0.00389151 0.110078 0.333334
545 4 0.16181 0.161142 0.302567
544 2 0.167635 0.162727 0.278303
600 4 0.150178 0.149825 0.316699
405 4 0.164133 0.139891 0.303792
403 2 0.170858 0.116445 0.309289
404 4 0.177582 0.0929979 0.314786
546 4 0.17346 0.164312 0.25404
742 2 0.425349 0.0945959 0.249005
762 4 0.433493 0.159559 0.311956
332 4 0.440536 0.141297 0.316993
350 4 0.430527 0.0854644 0.288892
743 4 0.438535 0.0912403 0.269983
333 4 0.445577 0.101393 0.287279
331 2 0.443057 0.121345 0.302136
393 4 0.0763342 0.171752 0.309843
578 4 0.072439 0.178368 0.289584
706 2 0.348148 0.173855 0.267009
707 4 0.342826 0.181136 0.29033
614 4 0.427087 0.220742 0.308522
760 2 0.433104 0.182905 0.30301
761 4 0.432715 0.20625 0.294065
418 2 0.439705 0.242279 0.278075
419 4 0.424512 0.224984 0.287835
442 2 0.0188289 0.289833 0.279502
394 2 0.053727 0.251699 0.256617
395 4 0.0456277 0.275088 0.260154
444 4 0.0433557 0.287611 0.27518
389 4 0.121534 0.266505 0.315238
401 4 0.138426 0.275271 0.323231
278 4 0.223375 0.279229 0.244563
345 4 0.244431 0.272097 0.248019
309 4 0.234866 0.284682 0.262927
307 2 0.248833 0.300177 0.276712
678 4 0.208648 0.336116 0.319949
308 4 0.262801 0.315671 0.290496
497 4 0.283323 0.316535 0.284998
508 2 0.269225 0.321795 0.328673
496 2 0.302344 0.31823 0.268858
509 4 0.277863 0.317995 0.305518
498 4 0.321365 0.319926 0.252719
763 2 0.404187 0.295578 0.276858
764 4 0.381414 0.288541 0.284411
765 4 0.426961 0.302615 0.269306
520 2 0.496712 0.249676 0.256508
420 4 0.454898 0.259574 0.268316
521 4 0.472314 0.255118 0.257042
543 4 0.465953 0.275423 0.258983
541 2 0.459641 0.298231 0.267052
542 4 0.45333 0.32104 0.27512
2692 2 0.995997 0.381974 0.240255
408 4 0.0409783 0.373346 0.307019
406 2 0.0288096 0.383217 0.326503
299 4 0.146367 0.395533 0.260295
734 4 0.136322 0.383819 0.273531
733 2 0.144117 0.364233 0.286978
735 4 0.151913 0.344648 0.300425
677 4 0.164048 0.35657 0.310296
676 2 0.186348 0.346343 0.315122
727 2 0.328157 0.397561 0.263089
728 4 0.341315 0.413611 0.277034
753 4 0.377061 0.362979 0.297901
751 2 0.393369 0.377271 0.310351
752 4 0.409677 0.391562 0.3228
446 4 0.449493 0.392438 0.270666
713 4 0.465636 0.389662 0.282854
712 2 0.484201 0.406229 0.285315
1758 4 0.053748 0.476197 0.273832
776 4 0.0869847 0.479455 0.340518
412 2 0.111077 0.466532 0.316185
602 4 0.123007 0.434583 0.288
601 2 0.113698 0.44204 0.266024
414 4 0.117834 0.44665 0.302612
1435 2 0.233249 0.453854 0.32287
1436 4 0.245774 0.455582 0.301298
438 4 0.288499 0.43079 0.252326
437 4 0.257291 0.444032 0.289087
436 2 0.272895 0.437411 0.270706
433 2 0.323687 0.423414 0.319006
1575 4 0.369682 0.486312 0.258886
1802 4 0.361292 0.475199 0.273617
434 4 0.333387 0.417303 0.296786
1801 2 0.355731 0.452228 0.281778
1803 4 0.350171 0.429257 0.289939
233 4 0.998306 0.0442316 0.375166
318 4 0.0647049 0.0625321 0.378449
234 4 0.0450165 0.0617965 0.371958
232 2 0.0216611 0.0530141 0.373562
316 2 0.0806237 0.0452609 0.387021
317 4 0.0965425 0.0279896 0.395593
428 4 0.107518 0.0152317 0.407797
441 4 0.240795 0.00898088 0.340702
439 2 0.254912 0.00566315 0.36107
682 2 0.282122 0.0841254 0.39864
683 4 0.280319 0.089833 0.374363
425 4 0.417637 0.0312632 0.399887
258 4 0.407766 0.0264488 0.383418
256 2 0.407962 0.0384933 0.361508
257 4 0.408159 0.0505378 0.339597
2643 4 0.490867 0.066749 0.375571
452 4 0.44657 0.0696337 0.394078
397 2 0.0356179 0.100787 0.351148
2653 2 0.0303341 0.160686 0.372851
399 4 0.0534409 0.108065 0.367103
732 4 0.071565 0.104201 0.359371
731 4 0.109962 0.134691 0.369209
730 2 0.0907634 0.119446 0.36429
686 4 0.130272 0.133087 0.375778
599 4 0.125062 0.146512 0.359815
598 2 0.13762 0.148168 0.338257
685 2 0.151166 0.126146 0.387629
687 4 0.172059 0.119206 0.399481
1151 4 0.185061 0.116341 0.415292
466 2 0.29462 0.173234 0.391663
467 4 0.318715 0.177028 0.386167
468 4 0.270524 0.16944 0.397159
453 4 0.416017 0.106314 0.379187
515 4 0.396632 0.104447 0.386533
514 2 0.381453 0.121904 0.396023
516 4 0.366275 0.13936 0.405513
575 4 0.381606 0.1531 0.404931
451 2 0.431294 0.0879741 0.386633
391 2 0.072471 0.174169 0.334428
2654 4 0.0539848 0.168134 0.369635
392 4 0.0686079 0.176586 0.359012
617 4 0.0837446 0.246468 0.362269
275 4 0.156801 0.208092 0.375253
274 2 0.181424 0.204738 0.372495
474 4 0.212012 0.204748 0.350714
276 4 0.206048 0.201383 0.369736
472 2 0.224172 0.224789 0.342016
409 2 0.246352 0.197649 0.407904
411 4 0.235663 0.220023 0.404693
410 4 0.25704 0.175274 0.411116
613 2 0.418417 0.232912 0.32857
615 4 0.409748 0.245081 0.348618
269 4 0.454668 0.226937 0.36434
306 4 0.445571 0.216851 0.380088
268 2 0.459514 0.24958 0.373775
304 2 0.437465 0.204155 0.400046
2812 2 0.0131906 0.328547 0.38451
616 2 0.0854625 0.254232 0.385975
390 4 0.089346 0.263459 0.353387
388 2 0.10544 0.264982 0.334313
400 2 0.160096 0.276221 0.335668
618 4 0.0871804 0.261996 0.40968
473 4 0.236333 0.24483 0.333319
375 4 0.185682 0.29479 0.356424
402 4 0.181766 0.277171 0.348105
373 2 0.205915 0.297743 0.370814
374 4 0.226148 0.300695 0.385204
378 4 0.264224 0.309986 0.363378
489 4 0.308282 0.295648 0.410444
376 2 0.282264 0.300836 0.378075
377 4 0.300304 0.291685 0.392772
510 4 0.260588 0.325594 0.351827
487 2 0.331139 0.285524 0.410926
716 4 0.398449 0.247082 0.36494
715 2 0.384721 0.257039 0.383313
717 4 0.370993 0.266996 0.401686
488 4 0.353996 0.2754 0.411409
270 4 0.464361 0.272222 0.38321
2924 4 0.464636 0.270804 0.402536
2923 2 0.445415 0.279311 0.416079
407 4 0.0166408 0.393088 0.345988
548 4 0.0266162 0.411043 0.35231
2813 4 0.0214489 0.349275 0.373226
503 4 0.231603 0.393383 0.42259
504 4 0.186326 0.404958 0.404793
502 2 0.208964 0.39917 0.413692
561 4 0.405686 0.398699 0.34103
559 2 0.411684 0.40766 0.363589
547 2 0.0249511 0.435696 0.348482
549 4 0.023286 0.460348 0.344654
775 2 0.0623515 0.476263 0.343382
777 4 0.0377183 0.473072 0.346245
413 4 0.10432 0.486414 0.329758
773 4 0.180823 0.485951 0.405675
1437 4 0.220725 0.452127 0.344441
2 3 0.323699 0.475819 0.366679
1 1 0.336681 0.457849 0.360538
435 4 0.313986 0.429524 0.341227
4 3 0.322822 0.439851 0.355805
668 4 0.406964 0.413324 0.404638
5 3 0.348854 0.463344 0.342091
3 3 0.350884 0.452508 0.378093
560 4 0.417683 0.416621 0.386148
588 4 0.428085 0.417194 0.405537
1781 4 0.124994 0.985846 0.45062
1780 2 0.133046 0.00303534 0.466895
368 4 0.112512 0.0630291 0.41942
1782 4 0.141098 0.0202243 0.48317
341 4 0.153985 0.0492372 0.479269
2430 4 0.14119 0.0393205 0.489795
340 2 0.157672 0.0729064 0.472103
1180 2 0.297855 0.0642138 0.459841
1181 4 0.301054 0.0473701 0.478041
963 4 0.296234 0.0264118 0.480237
432 4 0.308036 0.0366068 0.494983
961 2 0.274619 0.0285154 0.492627
430 2 0.331686 0.0288301 0.492654
1182 4 0.294656 0.0810575 0.441641
684 4 0.283925 0.0784178 0.422916
426 4 0.417482 0.999921 0.438853
424 2 0.417559 0.0155922 0.41937
841 2 0.381596 0.0154199 0.462229
843 4 0.360225 0.024901 0.471093
457 2 0.012016 0.115213 0.45345
719 4 0.0550018 0.0991338 0.460454
459 4 0.0352088 0.106335 0.456357
718 2 0.0669157 0.102121 0.482233
720 4 0.0788296 0.105108 0.504011
367 2 0.122459 0.0848658 0.426448
369 4 0.132407 0.106702 0.433476
939 4 0.135593 0.108179 0.452981
937 2 0.132958 0.131614 0.461291
938 4 0.130322 0.155049 0.4696
342 4 0.16136 0.0965756 0.464937
1152 4 0.179371 0.105485 0.463774
1150 2 0.182216 0.110913 0.439533
321 4 0.275862 0.135541 0.464233
320 4 0.284543 0.0977514 0.432654
319 2 0.280203 0.116646 0.448443
899 4 0.274687 0.153626 0.456302
898 2 0.287838 0.171883 0.467207
471 4 0.0243839 0.232824 0.502181
1034 4 0.135269 0.174753 0.473455
259 2 0.106438 0.243798 0.435059
261 4 0.105368 0.231132 0.45659
1035 4 0.119342 0.222027 0.469952
1033 2 0.127306 0.19839 0.471704
695 4 0.105469 0.236372 0.477262
694 2 0.0958634 0.245599 0.498422
858 4 0.210804 0.219192 0.498452
900 4 0.30099 0.19014 0.478112
574 2 0.396537 0.169622 0.4163
813 4 0.358843 0.227308 0.481424
266 4 0.36674 0.235466 0.464298
576 4 0.411469 0.186143 0.42767
265 2 0.365273 0.247075 0.442202
305 4 0.42936 0.191459 0.420003
2657 4 0.474166 0.177488 0.455662
2845 2 0.00232726 0.299373 0.494869
2802 4 0.0123748 0.297238 0.456671
2847 4 0.0154994 0.306153 0.474727
260 4 0.107507 0.256465 0.413528
347 4 0.100444 0.275803 0.419911
346 2 0.0987353 0.298173 0.430949
348 4 0.0970262 0.320544 0.441986
10 3 0.106692 0.324232 0.458598
6 1 0.118571 0.335401 0.474496
9 3 0.133071 0.32082 0.485246
7 3 0.104049 0.344225 0.490001
267 4 0.363806 0.258684 0.420105
238 2 0.392728 0.295816 0.446306
240 4 0.377499 0.309673 0.460493
335 4 0.375581 0.328308 0.452848
239 4 0.407956 0.28196 0.432119
2925 4 0.426195 0.287817 0.429621
2456 4 0.483895 0.313061 0.475382
584 4 0.478355 0.295467 0.471455
583 2 0.458716 0.294265 0.486883
585 4 0.439076 0.293063 0.502311
3354 4 0.00163311 0.379076 0.491011
680 4 0.0515796 0.40729 0.423135
679 2 0.0719848 0.409202 0.437458
681 4 0.0923901 0.411115 0.451781
8 3 0.130544 0.352712 0.464729
711 4 0.149706 0.385673 0.453358
709 2 0.160231 0.398785 0.434852
650 4 0.246256 0.38944 0.41108
710 4 0.170756 0.411897 0.416346
649 2 0.267818 0.377419 0.415046
651 4 0.289381 0.365398 0.419011
667 2 0.390593 0.403639 0.420867
669 4 0.374223 0.393954 0.437097
334 2 0.375091 0.351414 0.443308
336 4 0.374602 0.374521 0.433767
2507 4 0.490587 0.417686 0.434222
568 2 0.115469 0.504917 0.435874
382 2 0.11077 0.448697 0.458903
383 4 0.0991909 0.426723 0.461776
569 4 0.1193 0.480362 0.438622
384 4 0.122349 0.470671 0.456029
774 4 0.201285 0.471304 0.44889
635 4 0.193528 0.47403 0.467018
634 2 0.186868 0.494017 0.480485
772 2 0.191054 0.478627 0.427282
1910 4 0.459109 0.463923 0.50311
661 2 0.468222 0.439547 0.469758
662 4 0.455767 0.449706 0.488911
663 4 0.480676 0.429387 0.450605
586 2 0.448546 0.418914 0.419804
587 4 0.469008 0.420633 0.434071
2428 2 0.140327 0.0338393 0.514176
2429 4 0.139464 0.0283581 0.538556
962 4 0.253003 0.030619 0.505017
1030 2 0.248538 0.0552641 0.58851
1032 4 0.268104 0.0645599 0.576022
1091 4 0.371033 0.0101698 0.573428
2196 4 0.368211 0.00600611 0.554701
431 4 0.355335 0.0210534 0.490326
1062 4 0.454458 0.00844602 0.554571
809 4 0.500572 0.0742135 0.579539
808 2 0.481797 0.0673049 0.564541
810 4 0.463022 0.0603963 0.549543
1060 2 0.465308 0.999217 0.57512
469 2 0.0134202 0.222427 0.522103
879 4 0.135565 0.227623 0.562996
1272 4 0.150834 0.228508 0.576043
877 2 0.118961 0.238727 0.547956
696 4 0.0862575 0.254826 0.519583
856 2 0.186751 0.212729 0.500658
857 4 0.162698 0.206266 0.502863
811 2 0.36624 0.23961 0.501897
954 4 0.400246 0.239418 0.586856
952 2 0.389338 0.244039 0.564837
812 4 0.373637 0.251911 0.522369
982 2 0.0217639 0.29538 0.546631
984 4 0.0422968 0.299544 0.560278
326 4 0.0629194 0.298322 0.555327
1136 4 0.0563402 0.312446 0.569903
325 2 0.0795219 0.284219 0.543054
983 4 0.00123096 0.291215 0.532984
878 4 0.102358 0.249831 0.532916
327 4 0.0961243 0.270115 0.53078
1259 4 0.129152 0.302717 0.494137
1258 2 0.132871 0.299115 0.518599
1260 4 0.13659 0.295514 0.543061
1237 2 0.309445 0.306864 0.571247
1238 4 0.331335 0.302098 0.560144
1239 4 0.287554 0.31163 0.58235
792 4 0.34808 0.309518 0.551204
790 2 0.356593 0.286978 0.544522
791 4 0.365107 0.264438 0.53784
953 4 0.37843 0.248659 0.542817
873 4 0.386011 0.265933 0.533029
871 2 0.40375 0.274921 0.517871
872 4 0.421488 0.283908 0.502714
1135 2 0.0677189 0.334272 0.565506
936 4 0.0287011 0.390736 0.552197
934 2 0.026086 0.408363 0.569735
3353 4 0.0238728 0.379769 0.535795
3352 2 0.0127529 0.379422 0.513403
1137 4 0.0790977 0.356098 0.56111
1160 4 0.151786 0.437951 0.563946
1191 4 0.194287 0.382488 0.575102
1454 4 0.344075 0.404729 0.545743
880 2 0.362839 0.378955 0.572983
881 4 0.347717 0.387689 0.555089
926 4 0.445559 0.346952 0.497787
925 2 0.444994 0.354684 0.521559
927 4 0.444429 0.362415 0.54533
1001 4 0.455504 0.378881 0.544397
1000 2 0.46437 0.384771 0.567022
935 4 0.0234709 0.425991 0.587274
539 4 0.060734 0.469941 0.505625
538 2 0.0404219 0.479289 0.516814
3430 2 0.0218877 0.46923 0.572769
3432 4 0.0267623 0.445043 0.576821
3431 4 0.017013 0.493417 0.568718
1159 2 0.150243 0.437289 0.538999
1161 4 0.148699 0.436627 0.514052
636 4 0.180208 0.514004 0.493951
2154 4 0.310905 0.488079 0.573274
1173 4 0.299215 0.488021 0.589761
1453 2 0.346083 0.428959 0.539911
1455 4 0.348091 0.45319 0.53408
1909 2 0.46587 0.487977 0.504052
1891 2 0.995052 0.998976 0.646492
1185 4 0.0316971 0.074077 0.670265
1059 4 0.164035 0.0764036 0.608765
1284 4 0.174079 0.0621357 0.596955
1283 4 0.214209 0.0327188 0.591959
2133 4 0.232547 0.0258638 0.657794
1282 2 0.194144 0.0474273 0.594457
2132 4 0.225591 0.025327 0.608276
1031 4 0.228973 0.0459684 0.600998
2131 2 0.229069 0.0255954 0.633035
2282 4 0.335061 0.00908631 0.624036
1092 4 0.333537 0.00146282 0.605349
2281 2 0.334298 0.0160097 0.64805
1090 2 0.352285 0.00581632 0.589388
1081 2 0.0084948 0.103008 0.645767
1082 4 0.0267875 0.0902167 0.657033
943 2 0.0677942 0.0871363 0.659089
944 4 0.044977 0.0909768 0.668566
945 4 0.0906113 0.0832959 0.649612
1057 2 0.17243 0.0991425 0.614901
1153 2 0.181569 0.160001 0.616388
1155 4 0.190345 0.137509 0.609884
1058 4 0.180825 0.121881 0.621038
909 4 0.201832 0.120116 0.618279
907 2 0.222254 0.119541 0.632693
908 4 0.242676 0.118965 0.647108
886 2 0.326374 0.156793 0.641428
887 4 0.34334 0.141973 0.630577
1194 4 0.361404 0.130974 0.627794
1192 2 0.36668 0.119426 0.606254
1193 4 0.371956 0.107878 0.584713
830 4 0.358917 0.142814 0.645445
829 2 0.368971 0.131474 0.665332
1026 4 0.43698 0.160788 0.656959
1143 4 0.438244 0.139521 0.661987
1024 2 0.435338 0.168461 0.633219
852 4 0.0659795 0.240542 0.664868
850 2 0.0647865 0.215941 0.669179
1270 2 0.158884 0.215336 0.595712
1154 4 0.172793 0.182492 0.622891
1271 4 0.166934 0.202163 0.615381
1221 4 0.186016 0.199535 0.626924
1219 2 0.210056 0.203595 0.63247
1220 4 0.234096 0.207656 0.638016
1212 4 0.254887 0.21127 0.643572
798 4 0.239322 0.222979 0.651957
888 4 0.309408 0.171612 0.652279
1211 4 0.29591 0.182686 0.642703
1210 2 0.275399 0.196978 0.643138
906 4 0.44096 0.19436 0.603653
904 2 0.429108 0.21259 0.59131
905 4 0.417256 0.23082 0.578966
1025 4 0.433695 0.176133 0.609478
1244 4 0.0214973 0.293807 0.648971
1243 2 0.0372493 0.274829 0.653079
1209 4 0.0696538 0.261011 0.669543
946 2 0.148137 0.292347 0.655187
948 4 0.166377 0.294952 0.638284
796 2 0.237889 0.247778 0.649111
797 4 0.236456 0.272578 0.646266
804 4 0.269751 0.309062 0.588423
3114 4 0.472117 0.242138 0.582789
3112 2 0.492246 0.256961 0.582281
1190 4 0.238824 0.363774 0.588022
1189 2 0.216556 0.373131 0.581562
895 2 0.169965 0.401139 0.595353
896 4 0.177153 0.379395 0.585319
803 4 0.2379 0.346767 0.59646
802 2 0.253826 0.327914 0.592442
882 4 0.377962 0.370221 0.590877
929 4 0.376788 0.371066 0.646259
930 4 0.365515 0.356782 0.59968
928 2 0.371151 0.363924 0.622969
1002 4 0.473236 0.390661 0.589646
1206 4 0.477917 0.402406 0.605596
1204 2 0.467987 0.415346 0.624547
3264 4 0.0291832 0.443329 0.598514
1041 4 0.0437877 0.434891 0.585565
1039 2 0.0648402 0.444646 0.594882
3262 2 0.0142433 0.4377 0.617757
1040 4 0.0858927 0.454401 0.6042
897 4 0.162777 0.422884 0.605387
992 4 0.148131 0.429505 0.616537
993 4 0.105764 0.453647 0.605452
991 2 0.126947 0.441576 0.610994
1186 2 0.228891 0.496205 0.65238
1187 4 0.239359 0.496912 0.629685
1172 4 0.283308 0.466632 0.632072
1171 2 0.291261 0.477326 0.610916
891 4 0.284605 0.458134 0.650895
889 2 0.283145 0.472487 0.671317
3183 4 0.455398 0.489031 0.607798
3181 2 0.473864 0.473039 0.602466
3182 4 0.49233 0.457046 0.597134
1205 4 0.458058 0.428287 0.643497
1100 4 0.438864 0.427058 0.652456
1269 4 0.455335 0.434408 0.663837
3440 4 0.501385 0.443435 0.586253
1099 2 0.421715 0.409774 0.658144
1892 4 0.00449365 0.00920935 0.667261
1183 2 0.0198788 0.0520432 0.670403
1184 4 0.00806046 0.0300094 0.670541
4338 4 0.0207989 0.0154287 0.679331
4336 2 0.00889499 0.00504077 0.698711
824 4 0.219746 0.0301846 0.672711
823 2 0.205143 0.0157855 0.687015
825 4 0.190539 0.00138647 0.701318
2283 4 0.333536 0.0229331 0.672063
2400 4 0.376625 0.0523234 0.744624
43 3 0.449173 0.0697254 0.730805
846 4 0.44436 0.0517854 0.738123
41 1 0.467195 0.0749416 0.717152
45 3 0.476136 0.055882 0.708467
1179 4 0.0102283 0.167083 0.699965
1076 4 0.0260278 0.0934092 0.67839
1075 2 0.0160657 0.101641 0.699795
1077 4 0.00610372 0.109873 0.7212
864 4 0.00514957 0.112002 0.740624
1226 4 0.237883 0.123161 0.716563
1225 2 0.241213 0.120045 0.691979
1227 4 0.244543 0.116929 0.667395
1148 4 0.238224 0.128039 0.737217
1130 4 0.233694 0.142959 0.722792
1129 2 0.223836 0.160252 0.737923
1147 2 0.230242 0.106013 0.745954
1004 4 0.296332 0.131676 0.749807
831 4 0.379025 0.120133 0.685219
44 3 0.460338 0.0889963 0.70001
42 3 0.483149 0.0857591 0.729705
1142 4 0.460334 0.100062 0.683334
1141 2 0.449289 0.119792 0.67266
1263 4 0.422308 0.151613 0.669451
3426 4 0.489776 0.156938 0.727323
3270 4 0.484823 0.164765 0.746976
1177 2 0.0324882 0.169678 0.688878
1178 4 0.0547482 0.172272 0.67779
851 4 0.0635936 0.191341 0.67349
1107 4 0.0757908 0.175413 0.681298
1105 2 0.0952832 0.176819 0.696894
1106 4 0.114776 0.178225 0.712491
1073 4 0.120225 0.183958 0.731289
1072 2 0.112655 0.205595 0.741273
976 2 0.226618 0.213469 0.749574
977 4 0.243183 0.229091 0.739243
1299 4 0.306262 0.199579 0.726588
1298 4 0.259989 0.217632 0.732383
1297 2 0.283126 0.208606 0.729485
1086 4 0.3246 0.194039 0.725308
1084 2 0.343296 0.181211 0.735848
1261 2 0.417271 0.164662 0.690176
1262 4 0.412235 0.177711 0.710902
1145 4 0.458998 0.216194 0.70787
1144 2 0.469991 0.196578 0.718803
1146 4 0.480985 0.176961 0.729735
1245 4 0.0530013 0.255851 0.657187
1208 4 0.117965 0.271984 0.676347
1207 2 0.0938096 0.266497 0.672945
820 2 0.122629 0.279895 0.71645
822 4 0.127953 0.282402 0.692148
947 4 0.129897 0.289742 0.672089
821 4 0.117306 0.277388 0.740751
1242 4 0.115065 0.295934 0.741591
1063 2 0.268111 0.329898 0.713715
1065 4 0.281656 0.321464 0.694465
3123 4 0.486497 0.261695 0.700654
892 2 0.0350731 0.393327 0.724013
893 4 0.0440402 0.370003 0.724891
815 4 0.0503558 0.358335 0.741432
942 4 0.0647627 0.36981 0.73032
814 2 0.0521966 0.333568 0.744335
940 2 0.0893669 0.3742 0.731055
941 4 0.113971 0.37859 0.731789
1067 4 0.123317 0.377541 0.711734
1066 2 0.145077 0.365807 0.707992
1139 4 0.233413 0.399566 0.694616
1068 4 0.166838 0.354074 0.70425
1029 4 0.220679 0.384476 0.690447
1028 4 0.179385 0.356282 0.68966
1027 2 0.200032 0.370379 0.690053
1140 4 0.281837 0.405635 0.705523
1138 2 0.257625 0.402601 0.70007
1064 4 0.254565 0.338332 0.732966
806 4 0.260307 0.357022 0.741445
805 2 0.278397 0.373832 0.745363
1101 4 0.404566 0.392489 0.663833
1250 4 0.472262 0.402257 0.744106
3240 4 0.00273428 0.480464 0.665925
2172 4 0.0168535 0.493221 0.67616
894 4 0.0261059 0.416651 0.723135
1279 2 0.017422 0.454227 0.698414
3276 4 0.0123847 0.429593 0.733453
1983 4 0.0333466 0.434935 0.731957
1280 4 0.0205204 0.435584 0.714785
1981 2 0.0503391 0.448766 0.744004
1281 4 0.0143235 0.472871 0.682043
1188 4 0.218423 0.495499 0.675076
1175 4 0.211898 0.497607 0.695297
890 4 0.281686 0.486841 0.691738
1988 4 0.289585 0.485545 0.711428
1088 4 0.273011 0.499116 0.707988
1987 2 0.313351 0.491362 0.716576
1989 4 0.337118 0.497178 0.721724
2169 4 0.476241 0.487145 0.682905
1268 4 0.480334 0.468801 0.690159
1267 2 0.467835 0.451604 0.676998
1196 4 0.0668282 0.0295696 0.827501
911 4 0.0782015 0.046092 0.819315
1203 4 0.0813758 0.0256536 0.812177
1201 2 0.0922395 0.0225008 0.789879
1202 4 0.103103 0.0193479 0.767581
2049 4 0.101634 8.38783e-05 0.767212
910 2 0.0912377 0.0661614 0.826558
1149 4 0.22226 0.0839867 0.75469
1050 4 0.328381 0.080595 0.827899
1049 4 0.340587 0.0622653 0.783002