ITEM: TIMESTEP
3200000
ITEM: NUMBER OF ATOMS
4590
ITEM: BOX BOUNDS pp pp pp
-9.9985700000000008e+00 9.9985700000000008e+00
-9.9985700000000008e+00 9.9985700000000008e+00
-9.9985700000000008e+00 9.9985700000000008e+00
ITEM: ATOMS id type xs ys zs
1666 2 0.0529186 0.0366119 0.0590563
1667 4 0.0439243 0.0593548 0.0642563
1668 4 0.0619129 0.0138689 0.0538564
702 4 0.0551414 0.0781948 0.0648432
591 4 0.0376586 0.0762481 0.0528296
532 2 0.156504 0.0436036 0.0346105
533 4 0.148165 0.0247141 0.0487108
1605 4 0.156825 0.00848008 0.0595115
534 4 0.164843 0.0624932 0.0205102
1476 4 0.161266 0.0287637 0.0649876
423 4 0.178112 0.0733467 0.0312136
1474 2 0.175178 0.0290837 0.0857609
490 2 0.297486 0.0733372 0.0634983
492 4 0.306115 0.050471 0.0687766
297 4 0.439355 0.0905193 0.0471573
700 2 0.0753376 0.0910099 0.0721277
589 2 0.0276378 0.0918234 0.0360316
590 4 0.017617 0.107399 0.0192336
3232 2 0.0253544 0.146463 0.00242168
3233 4 0.016808 0.123038 0.00427125
1248 4 0.00139969 0.121709 0.018854
421 2 0.197624 0.0888196 0.0289656
422 4 0.217136 0.104292 0.0267176
652 2 0.248144 0.106734 0.0544565
654 4 0.225289 0.105479 0.0443942
491 4 0.288857 0.0962033 0.0582199
653 4 0.270999 0.107989 0.0645189
565 2 0.296381 0.12958 0.0328286
566 4 0.307022 0.14315 0.0147233
567 4 0.285739 0.11601 0.0509339
665 4 0.328475 0.148308 0.0177326
556 2 0.401363 0.150221 0.0550092
558 4 0.3827 0.166354 0.0509332
664 2 0.344901 0.154805 0.0354285
666 4 0.361328 0.161302 0.0531245
866 4 0.328693 0.159338 0.00111829
295 2 0.448388 0.0957427 0.0698796
557 4 0.420025 0.134089 0.0590851
3234 4 0.0339007 0.169888 0.00057211
555 4 0.0516949 0.181062 0.998129
571 2 0.373389 0.202065 0.0393159
572 4 0.368107 0.181716 0.0528523
573 4 0.37867 0.222413 0.0257796
1071 4 0.371184 0.237901 0.0167452
623 4 0.418009 0.246853 0.0771485
324 4 0.421341 0.243188 0.0580568
322 2 0.445796 0.248293 0.0590818
771 4 0.484713 0.255496 0.0437744
518 4 0.48425 0.237264 0.0552263
323 4 0.470252 0.253397 0.0601068
505 2 0.15185 0.302462 0.0100065
293 4 0.152671 0.317069 0.0482449
292 2 0.132322 0.311859 0.0618076
294 4 0.111973 0.306649 0.0753703
507 4 0.16309 0.30827 0.0315732
288 4 0.165913 0.329331 0.0369649
286 2 0.190867 0.330722 0.0377032
287 4 0.215821 0.332112 0.0384415
483 4 0.223359 0.326 0.0574644
481 2 0.236097 0.320268 0.0782024
1069 2 0.371574 0.26216 0.0227857
957 4 0.384532 0.289621 0.0441676
1070 4 0.371964 0.28642 0.0288263
955 2 0.407105 0.299691 0.0479384
769 2 0.495658 0.253881 0.0213515
956 4 0.429678 0.309761 0.0517091
282 4 0.449965 0.308058 0.05066
280 2 0.459854 0.326148 0.0648072
1056 4 0.0168078 0.346391 0.0526548
1168 2 0.0258355 0.380189 0.0298015
1170 4 0.0216942 0.356589 0.0369471
1169 4 0.0299769 0.403789 0.0226558
39 3 0.312179 0.407686 0.985716
607 2 0.29739 0.383811 0.0695387
608 4 0.295 0.407885 0.0632219
281 4 0.469743 0.344238 0.0789543
330 4 0.0348143 0.41602 0.00532877
551 4 0.0222496 0.423755 0.0213197
550 2 0.0220345 0.434369 0.0439574
552 4 0.0218194 0.444984 0.0665951
315 4 0.0260423 0.443033 0.0879539
313 2 0.0470348 0.456602 0.0873474
620 4 0.00589756 0.43922 0.0797907
314 4 0.0680273 0.470171 0.0867408
1691 4 0.0853427 0.480969 0.0801993
1786 2 0.108785 0.451636 0.0792083
1788 4 0.132524 0.44379 0.0789532
241 2 0.245257 0.491661 0.0587432
242 4 0.231762 0.509013 0.0468275
243 4 0.258751 0.474309 0.0706589
626 4 0.278715 0.410592 0.0734598
627 4 0.274048 0.460345 0.0753593
625 2 0.276381 0.435469 0.0744095
245 4 0.313514 0.450658 0.0470295
244 2 0.328704 0.44634 0.0276441
246 4 0.343894 0.442022 0.00825865
562 2 0.45421 0.488694 0.00757055
564 4 0.473422 0.472727 0.00650576
2481 4 0.0170734 0.0336762 0.118111
18 3 0.0116115 0.0473867 0.131421
2479 2 0.014496 0.00892616 0.120555
16 1 0.0195745 0.0672876 0.122536
19 3 0.0315186 0.063065 0.103096
1475 4 0.18909 0.0294036 0.106534
1785 4 0.356593 0.0446744 0.16017
20 3 0.0329063 0.0777923 0.13772
448 2 0.134447 0.0988903 0.102819
236 4 0.110409 0.118921 0.081594
237 4 0.0870362 0.163129 0.0817843
235 2 0.0987226 0.141025 0.0816892
450 4 0.15752 0.0964025 0.112125
701 4 0.0955338 0.103825 0.0794122
449 4 0.111373 0.101378 0.0935127
296 4 0.457421 0.100966 0.0926019
477 4 0.104658 0.172112 0.0840492
476 4 0.127155 0.214068 0.0993561
339 4 0.128517 0.229038 0.11433
475 2 0.115907 0.19309 0.0917026
337 2 0.122366 0.250517 0.125554
461 4 0.27673 0.218531 0.0988573
354 4 0.269733 0.212393 0.116226
460 2 0.301284 0.213962 0.10005
352 2 0.2585 0.231151 0.128356
462 4 0.325838 0.209393 0.101243
255 4 0.341849 0.213541 0.114144
254 4 0.388536 0.229667 0.121954
253 2 0.365192 0.221604 0.118049
630 4 0.40105 0.224748 0.137527
628 2 0.424049 0.218726 0.145269
629 4 0.447049 0.212704 0.153011
456 4 0.100696 0.315874 0.0898925
338 4 0.116215 0.271996 0.136778
363 4 0.11754 0.26493 0.155867
454 2 0.101827 0.328707 0.111322
736 2 0.208269 0.256951 0.159457
737 4 0.231906 0.259889 0.151854
353 4 0.247267 0.249909 0.140486
482 4 0.248835 0.314535 0.0989404
755 4 0.247178 0.27122 0.1422
756 4 0.265146 0.304496 0.109482
754 2 0.256162 0.287858 0.125841
252 4 0.263573 0.326248 0.109882
622 2 0.400736 0.260896 0.0885336
624 4 0.383464 0.27494 0.0999187
741 4 0.383146 0.28436 0.117903
739 2 0.381437 0.30855 0.111812
740 4 0.379727 0.33274 0.105722
455 4 0.102958 0.341539 0.132752
537 4 0.0846739 0.349869 0.136759
535 2 0.0954144 0.367135 0.151309
250 2 0.28171 0.3423 0.103674
251 4 0.299847 0.358352 0.0974655
609 4 0.29978 0.359737 0.0758555
387 4 0.31325 0.346273 0.0862835
386 4 0.360786 0.339433 0.100221
385 2 0.337018 0.342853 0.0932524
11 1 0.398929 0.383743 0.134658
13 3 0.39465 0.398281 0.117087
14 3 0.406193 0.363298 0.126433
15 3 0.380087 0.380855 0.147119
495 4 0.40863 0.365351 0.107945
671 4 0.47179 0.364124 0.0869373
494 4 0.453181 0.353864 0.0883498
12 3 0.41546 0.392732 0.147889
493 2 0.430906 0.359608 0.0981474
595 2 0.458153 0.395268 0.140396
596 4 0.481001 0.405409 0.139825
597 4 0.435306 0.385127 0.140967
2652 4 0.487362 0.414466 0.123391
670 2 0.492742 0.360741 0.100156
1467 4 0.0175879 0.49935 0.164015
1787 4 0.0850458 0.459482 0.0794633
1440 4 0.271982 0.477281 0.0883678
1438 2 0.268011 0.485782 0.111544
637 2 0.280336 0.489484 0.165292
639 4 0.261252 0.501227 0.154199
1439 4 0.26404 0.494283 0.134721
659 4 0.363173 0.451353 0.155562
525 4 0.346613 0.456416 0.146435
523 2 0.339814 0.480465 0.147224
1506 4 0.246682 0.00803985 0.217902
1700 4 0.218568 0.0342765 0.252966
21 1 0.331886 0.0636273 0.232928
23 3 0.309112 0.0637522 0.228487
22 3 0.340012 0.0423795 0.229515
25 3 0.342603 0.0780883 0.218976
1783 2 0.352674 0.0606514 0.179
1784 4 0.348755 0.0766284 0.197829
759 4 0.362281 0.085418 0.213159
757 2 0.385008 0.0780982 0.220582
758 4 0.407735 0.0707784 0.228004
312 4 0.426031 0.0602773 0.224131
744 4 0.422813 0.0697294 0.242969
1749 4 0.463014 0.0104811 0.206961
1747 2 0.465582 0.0239575 0.227864
310 2 0.435975 0.0686424 0.202769
311 4 0.445918 0.0770075 0.181408
690 4 0.139682 0.0873781 0.227084
693 4 0.142698 0.0914989 0.206876
691 2 0.15532 0.113062 0.207831
692 4 0.167942 0.134625 0.208787
723 4 0.180983 0.149606 0.210493
721 2 0.183897 0.154241 0.234889
582 4 0.288877 0.171116 0.219369
285 4 0.272029 0.163164 0.226017
707 4 0.384452 0.127388 0.21458
706 2 0.377268 0.149844 0.206257
748 2 0.0401602 0.225406 0.190643
750 4 0.0556933 0.235481 0.207447
396 4 0.0594526 0.229862 0.22762
749 4 0.0246271 0.215331 0.173838
581 4 0.327528 0.1925 0.195926
580 2 0.308203 0.181808 0.207648
283 2 0.260158 0.177305 0.242878
30 3 0.335852 0.209738 0.190191
28 3 0.366415 0.220056 0.170773
27 3 0.36352 0.227927 0.20741
708 4 0.370085 0.172301 0.197934
29 3 0.368586 0.192281 0.196623
26 1 0.358444 0.21243 0.191186
394 2 0.0474143 0.245803 0.242658
442 2 0.00923227 0.287883 0.240758
444 4 0.0309702 0.275826 0.243453
361 2 0.124106 0.279811 0.174857
362 4 0.130672 0.294692 0.193847
372 4 0.140421 0.309907 0.202334
370 2 0.162115 0.304147 0.213351
738 4 0.184631 0.254013 0.16706
371 4 0.183809 0.298387 0.224368
279 4 0.19828 0.302478 0.23938
612 4 0.190201 0.318797 0.227378
765 4 0.394177 0.29301 0.234393
763 2 0.3728 0.305897 0.232931
764 4 0.351424 0.318784 0.231469
542 4 0.409507 0.302058 0.224932
541 2 0.426568 0.285561 0.232803
543 4 0.443629 0.269064 0.240673
520 2 0.4867 0.257974 0.241899
521 4 0.46512 0.270558 0.242959
536 4 0.106155 0.384402 0.165859
610 2 0.20246 0.339916 0.222004
417 4 0.219667 0.379608 0.213043
611 4 0.21472 0.361034 0.21663
415 2 0.237129 0.397479 0.213976
436 2 0.293725 0.408084 0.236142
438 4 0.315329 0.399531 0.245376
303 4 0.33224 0.396973 0.232502
660 4 0.350633 0.406811 0.174521
301 2 0.343583 0.394651 0.210341
302 4 0.354926 0.39233 0.188179
644 4 0.433261 0.380242 0.211832
643 2 0.431382 0.38102 0.186911
645 4 0.429503 0.381798 0.16199
447 4 0.43246 0.391688 0.228828
445 2 0.438209 0.397849 0.252369
647 4 0.00773952 0.481249 0.158923
263 4 0.028249 0.480681 0.16595
262 2 0.0352444 0.471577 0.188162
1757 4 0.0446443 0.471082 0.228147
264 4 0.0422397 0.462473 0.210374
1756 2 0.0346508 0.462024 0.249201
416 4 0.254591 0.41535 0.214908
437 4 0.27212 0.416637 0.226907
1436 4 0.258927 0.433746 0.225016
291 4 0.271535 0.427948 0.208173
638 4 0.299421 0.47774 0.176385
289 2 0.28176 0.449928 0.202048
290 4 0.291985 0.471908 0.195922
767 4 0.299027 0.492198 0.192525
1435 2 0.245913 0.443297 0.244111
658 2 0.356903 0.429082 0.165041
1574 4 0.348618 0.502637 0.234691
1573 2 0.364238 0.48816 0.247792
673 2 0.0748314 0.0816425 0.262151
688 2 0.126001 0.0734734 0.242726
675 4 0.0929862 0.0668946 0.253315
689 4 0.112321 0.0595686 0.258367
1403 4 0.0971383 0.0460252 0.251544
1402 2 0.10688 0.0229986 0.251769
1464 4 0.112742 0.00571795 0.323193
249 4 0.177981 0.074357 0.330447
1699 2 0.212756 0.0298107 0.276871
248 4 0.189739 0.0287529 0.313632
247 2 0.18386 0.051555 0.32204
1701 4 0.206943 0.0253449 0.300776
605 4 0.20812 0.022796 0.322308
604 2 0.230624 0.0122806 0.325165
606 4 0.253128 0.00176519 0.328022
24 3 0.335683 0.0696521 0.255012
1496 4 0.344416 0.0360949 0.247667
1497 4 0.358875 0.0107371 0.288271
699 4 0.376564 0.0155 0.299313
1495 2 0.351645 0.023416 0.267969
697 2 0.380409 0.035661 0.313594
698 4 0.384254 0.055822 0.327874
1517 4 0.378478 0.00976705 0.278986
351 4 0.386926 0.07589 0.335489
478 2 0.493875 0.0464671 0.281048
1748 4 0.46815 0.0374339 0.248768
480 4 0.481157 0.035502 0.262522
742 2 0.424994 0.0781435 0.266413
674 4 0.0566766 0.0963905 0.270988
579 4 0.000894614 0.1548 0.263452
577 2 0.0211093 0.16905 0.267124
398 4 0.015438 0.136072 0.32366
531 4 0.99766 0.124771 0.32069
600 4 0.144985 0.155283 0.325247
545 4 0.146603 0.145774 0.306225
405 4 0.149695 0.134427 0.325155
403 2 0.154945 0.109985 0.325589
404 4 0.160195 0.0855425 0.326024
544 2 0.164909 0.15583 0.292479
546 4 0.183215 0.165886 0.278733
349 2 0.403975 0.0872978 0.321193
332 4 0.418954 0.156721 0.279156
331 2 0.422295 0.132324 0.28349
333 4 0.425636 0.107926 0.287823
350 4 0.421024 0.0987055 0.306898
743 4 0.427174 0.0865577 0.289857
578 4 0.041324 0.1833 0.270795
391 2 0.0568022 0.199468 0.303023
393 4 0.0567366 0.191977 0.279168
392 4 0.0568679 0.206959 0.326878
722 4 0.186812 0.158876 0.259286
343 2 0.244542 0.231795 0.271092
284 4 0.248288 0.191445 0.25974
344 4 0.253718 0.208557 0.2701
762 4 0.406514 0.170841 0.286725
760 2 0.412293 0.194711 0.291416
614 4 0.418987 0.231766 0.31301
761 4 0.418072 0.218581 0.296107
419 4 0.425788 0.238435 0.293167
418 2 0.439758 0.249173 0.275426
395 4 0.035376 0.261745 0.257696
345 4 0.235366 0.255032 0.272084
277 2 0.210085 0.286952 0.255025
278 4 0.221891 0.271426 0.270669
309 4 0.238237 0.27224 0.284381
307 2 0.241063 0.28836 0.303284
308 4 0.243889 0.304481 0.322187
497 4 0.261671 0.307186 0.334754
496 2 0.282117 0.317324 0.324539
498 4 0.302563 0.327463 0.314325
420 4 0.453728 0.259911 0.257686
407 4 0.00640261 0.376051 0.315299
548 4 0.0208032 0.387024 0.324504
300 4 0.149476 0.404702 0.256103
298 2 0.146 0.384996 0.271095
734 4 0.140045 0.349595 0.297826
299 4 0.142524 0.36529 0.286088
733 2 0.141657 0.35223 0.322638
729 4 0.33483 0.400924 0.25366
727 2 0.356123 0.404989 0.266121
751 2 0.414648 0.402249 0.303174
753 4 0.396205 0.402989 0.286307
728 4 0.377415 0.409055 0.278582
752 4 0.433092 0.401509 0.32004
561 4 0.45279 0.403591 0.316841
446 4 0.443958 0.404009 0.27591
1758 4 0.0246572 0.452965 0.270254
601 2 0.1506 0.439976 0.263431
412 2 0.122612 0.460067 0.307659
602 4 0.137888 0.460224 0.270751
414 4 0.138046 0.453737 0.289033
413 4 0.107178 0.466396 0.326284
776 4 0.09433 0.449634 0.328838
603 4 0.163313 0.419728 0.25611
1437 4 0.232899 0.452848 0.263205
435 4 0.316482 0.470713 0.330664
4 3 0.321436 0.47046 0.310721
2 3 0.330497 0.486869 0.278143
1 1 0.33898 0.478401 0.297777
1575 4 0.379858 0.473683 0.260892
5 3 0.353417 0.461444 0.293013
1803 4 0.391599 0.424228 0.28471
1802 4 0.398438 0.471878 0.271166
1801 2 0.395019 0.448053 0.277938
1689 4 0.395827 0.488053 0.257066
3 3 0.350114 0.495344 0.309062
1687 2 0.41326 0.50041 0.27005
713 4 0.452402 0.423183 0.274238
712 2 0.473427 0.435102 0.280645
714 4 0.494453 0.447021 0.287051
119 3 0.488453 0.447527 0.328509
233 4 0.0102595 0.0498009 0.376775
318 4 0.0725561 0.0535855 0.383825
234 4 0.0564385 0.057891 0.394175
232 2 0.033349 0.0538459 0.385475
316 2 0.0881796 0.0380239 0.395611
633 4 0.326676 0.00927077 0.371412
632 4 0.289431 0.0426259 0.372385
631 2 0.308054 0.0259483 0.371898
682 2 0.268899 0.063001 0.373388
683 4 0.284374 0.0529645 0.356507
684 4 0.253425 0.0730375 0.39027
725 4 0.346254 0.0116279 0.372979
257 4 0.39873 0.0597756 0.343866
256 2 0.412573 0.0527323 0.363461
514 2 0.422916 0.0739003 0.413691
2643 4 0.496773 0.0550467 0.365258
425 4 0.427916 0.0307815 0.398429
258 4 0.426415 0.045689 0.383055
452 4 0.494164 0.0481948 0.385056
451 2 0.469696 0.0451964 0.389244
453 4 0.445229 0.0421981 0.393432
515 4 0.428456 0.0517112 0.403585
397 2 0.0356835 0.137049 0.3383
399 4 0.0559289 0.138027 0.352941
732 4 0.0556624 0.129596 0.370898
730 2 0.0774565 0.140903 0.375624
598 2 0.129136 0.153966 0.344542
685 2 0.137418 0.155937 0.401845
731 4 0.0992507 0.152211 0.38035
687 4 0.155004 0.155626 0.419616
686 4 0.119832 0.156248 0.384073
599 4 0.113288 0.152649 0.363836
320 4 0.246956 0.0921192 0.398842
319 2 0.253915 0.115893 0.402244
467 4 0.270976 0.154542 0.394296
899 4 0.270693 0.155553 0.415828
321 4 0.260873 0.139667 0.405645
575 4 0.417826 0.108047 0.405894
574 2 0.427364 0.127582 0.39354
576 4 0.436901 0.147116 0.381187
305 4 0.448836 0.147641 0.36617
2654 4 0.0662457 0.206866 0.344592
2653 2 0.0452183 0.217333 0.353164
2655 4 0.0241909 0.2278 0.361735
616 2 0.0880028 0.236695 0.407086
617 4 0.100934 0.225111 0.389092
388 2 0.128795 0.231535 0.368034
390 4 0.116933 0.21584 0.383467
389 4 0.140657 0.247229 0.352602
276 4 0.196679 0.229381 0.343831
474 4 0.204976 0.212876 0.351044
274 2 0.175762 0.242924 0.341774
472 2 0.227443 0.207224 0.360449
473 4 0.249911 0.201573 0.369854
466 2 0.269388 0.173171 0.377694
409 2 0.279422 0.229806 0.378232
468 4 0.2678 0.1918 0.361092
410 4 0.267538 0.212838 0.364231
613 2 0.404132 0.232055 0.33312
715 2 0.373762 0.24652 0.383681
717 4 0.361706 0.242804 0.405268
615 4 0.389278 0.232344 0.353231
304 2 0.442142 0.17033 0.358074
269 4 0.440057 0.204915 0.367596
306 4 0.435448 0.19302 0.349977
268 2 0.433904 0.218085 0.38794
270 4 0.42775 0.231256 0.408283
2814 4 0.0156457 0.331517 0.403178
2801 4 0.02255 0.3211 0.419098
275 4 0.154846 0.256468 0.339717
401 4 0.148003 0.266784 0.357611
400 2 0.155617 0.278977 0.378068
402 4 0.163231 0.291171 0.398526
375 4 0.17887 0.291403 0.411687
373 2 0.203859 0.290892 0.410992
374 4 0.228848 0.290381 0.410296
510 4 0.240239 0.293026 0.392241
378 4 0.246706 0.278997 0.407761
509 4 0.243432 0.29907 0.342703
508 2 0.241836 0.296048 0.367472
411 4 0.291306 0.246774 0.392234
489 4 0.2956 0.261626 0.407787
487 2 0.319895 0.256496 0.410721
716 4 0.385819 0.250236 0.362094
488 4 0.34419 0.251366 0.413655
547 2 0.033892 0.398921 0.342177
549 4 0.0469808 0.410818 0.35985
735 4 0.143268 0.354866 0.34745
677 4 0.163209 0.354425 0.348884
502 2 0.165857 0.400218 0.409345
676 2 0.177131 0.364513 0.367039
678 4 0.191052 0.374601 0.385194
650 4 0.192863 0.37814 0.406086
503 4 0.1836 0.392992 0.393278
649 2 0.217286 0.373334 0.408454
651 4 0.241709 0.368528 0.410823
669 4 0.393895 0.394227 0.396798
336 4 0.379703 0.380214 0.401697
667 2 0.417898 0.396429 0.390151
559 2 0.453848 0.402877 0.341812
560 4 0.454906 0.402163 0.366783
668 4 0.441901 0.398632 0.383503
588 4 0.462598 0.394098 0.384974
777 4 0.0640245 0.416491 0.350834
775 2 0.0791772 0.433062 0.339836
1545 4 0.0892401 0.46874 0.338025
1543 2 0.100571 0.486491 0.351503
433 2 0.314138 0.44883 0.342531
434 4 0.311794 0.426947 0.354398
231 4 0.442396 0.486926 0.330899
586 2 0.471639 0.406373 0.404792
593 4 0.438104 0.491611 0.385044
3989 4 0.450387 0.479077 0.375288
3990 4 0.471392 0.452926 0.338199
3988 2 0.46089 0.466002 0.356744
2238 4 0.0093209 0.0210538 0.458434
317 4 0.103803 0.0224623 0.407398
428 4 0.111826 0.0135045 0.425263
1781 4 0.115191 0.034395 0.421392
1780 2 0.127997 0.0399551 0.442135
1782 4 0.140803 0.0455151 0.462878
341 4 0.160219 0.0544551 0.463957
2430 4 0.151725 0.0448827 0.481691
2428 2 0.165047 0.0358309 0.500817
340 2 0.174837 0.0712892 0.452639
1180 2 0.269101 0.0633632 0.427942
1181 4 0.279955 0.0486032 0.444956
1182 4 0.258246 0.0781232 0.410927
963 4 0.286733 0.0389611 0.463156
432 4 0.300187 0.0526489 0.452512
961 2 0.270182 0.0376377 0.481851
430 2 0.321151 0.0412632 0.460001
431 4 0.342114 0.0298774 0.46749
841 2 0.384492 0.016818 0.460078
842 4 0.408095 0.0085783 0.45964
843 4 0.360889 0.0250578 0.460516
426 4 0.415292 0.00570881 0.439814
424 2 0.421604 0.0182452 0.419121
1218 4 0.476518 0.998553 0.469467
458 4 0.0127473 0.152026 0.444075
457 2 0.027724 0.13549 0.455364
719 4 0.0495138 0.11937 0.484994
459 4 0.0427007 0.118955 0.466654
2585 4 0.00442597 0.141103 0.427571
1151 4 0.172497 0.152359 0.429971
368 4 0.143378 0.0840792 0.465548
367 2 0.124167 0.0988728 0.459445
369 4 0.104955 0.113666 0.453342
939 4 0.0905002 0.126796 0.452486
937 2 0.0923066 0.150298 0.460826
1150 2 0.175204 0.127506 0.430424
342 4 0.189455 0.0881233 0.441321
1152 4 0.177911 0.102654 0.430876
898 2 0.269427 0.150274 0.440235
900 4 0.268162 0.144996 0.464642
516 4 0.417375 0.0960894 0.423796
618 4 0.0750719 0.248279 0.42508
259 2 0.0783894 0.249853 0.465208
938 4 0.094113 0.1738 0.469167
1034 4 0.110851 0.180801 0.476704
261 4 0.0870952 0.241058 0.486934
1035 4 0.093436 0.222967 0.497184
1033 2 0.102144 0.201884 0.486944
267 4 0.351406 0.232675 0.421484
813 4 0.360976 0.201332 0.480792
266 4 0.363188 0.216518 0.467319
265 2 0.357297 0.224596 0.444402
3157 2 0.501094 0.218488 0.486128
2924 4 0.426239 0.241207 0.425444
3159 4 0.490928 0.234649 0.502273
260 4 0.0696835 0.258648 0.443481
2847 4 0.0099159 0.299684 0.472902
2802 4 0.0194604 0.289781 0.457961
2800 2 0.0210052 0.305441 0.438529
2845 2 0.00302625 0.300507 0.496923
347 4 0.0835034 0.267956 0.428997
346 2 0.10156 0.285223 0.429995
348 4 0.119617 0.30249 0.430994
10 3 0.127947 0.307048 0.449463
9 3 0.130314 0.313139 0.486543
6 1 0.135444 0.321401 0.465476
8 3 0.158384 0.32424 0.463451
1259 4 0.133309 0.300963 0.501942
376 2 0.267815 0.26987 0.417573
377 4 0.288925 0.260743 0.427385
238 2 0.375979 0.308942 0.439412
2925 4 0.388744 0.269805 0.442086
239 4 0.375821 0.283978 0.438029
2923 2 0.407491 0.255506 0.433765
2456 4 0.47683 0.340944 0.479345
584 4 0.463169 0.327319 0.473296
583 2 0.443548 0.312122 0.476337
585 4 0.423927 0.296925 0.479379
872 4 0.413941 0.279415 0.481284
3066 4 0.504532 0.249167 0.502183
7 3 0.12516 0.341801 0.462782
504 4 0.148113 0.407444 0.425411
711 4 0.125056 0.361724 0.464318
709 2 0.130765 0.383247 0.452945
710 4 0.136473 0.40477 0.441572
680 4 0.101012 0.424699 0.494457
240 4 0.376136 0.333907 0.440795
335 4 0.37038 0.352696 0.442398
334 2 0.375041 0.366455 0.422047
2455 2 0.495202 0.341367 0.4963
383 4 0.0503089 0.469201 0.487625
681 4 0.0581029 0.449314 0.487134
538 2 0.0161884 0.443702 0.495571
539 4 0.0370003 0.451991 0.484465
382 2 0.0609268 0.487355 0.474101
679 2 0.0795573 0.437006 0.490796
1160 4 0.118507 0.417867 0.504376
635 4 0.170029 0.476203 0.483722
773 4 0.209152 0.457286 0.436931
774 4 0.175495 0.459471 0.473851
772 2 0.192323 0.458378 0.455391
587 4 0.480681 0.418649 0.42461
662 4 0.446694 0.439126 0.483356
663 4 0.473325 0.427569 0.442639
1910 4 0.456627 0.45629 0.484945
661 2 0.46001 0.433347 0.462997
2429 4 0.178368 0.0267791 0.519942
962 4 0.253632 0.0363143 0.500546
1090 2 0.332536 0.0129166 0.563802
1091 4 0.345039 0.0187844 0.542959
2196 4 0.344619 0.999849 0.534811
1060 2 0.484065 0.0319155 0.555786
810 4 0.470638 0.0711437 0.552908
1061 4 0.49431 0.0118615 0.566651
1062 4 0.47382 0.0519695 0.544921
720 4 0.0466828 0.0748266 0.507546
718 2 0.0480983 0.0970983 0.49627
808 2 0.488594 0.0862798 0.561491
695 4 0.078465 0.235694 0.505676
694 2 0.0771775 0.240589 0.530161
878 4 0.096928 0.24215 0.557431
877 2 0.111202 0.23417 0.576345
857 4 0.208985 0.238944 0.549551
953 4 0.388427 0.2362 0.531636
812 4 0.376131 0.235702 0.513803
952 2 0.409636 0.233367 0.544571
811 2 0.368553 0.218517 0.497297
954 4 0.430846 0.230535 0.557506
905 4 0.443032 0.214746 0.553936
904 2 0.454175 0.196823 0.567345
982 2 0.0284598 0.30165 0.549264
984 4 0.0517611 0.302747 0.558266
326 4 0.0611842 0.300365 0.57734
1136 4 0.0639174 0.318567 0.566497
325 2 0.0744974 0.279968 0.571692
983 4 0.00515858 0.300553 0.540262
696 4 0.07589 0.245484 0.554647
2846 4 0.996137 0.301329 0.520945
327 4 0.0878106 0.259571 0.566044
1258 2 0.152225 0.289813 0.513903
856 2 0.197642 0.254065 0.533184
858 4 0.186299 0.269186 0.516817
1260 4 0.171141 0.278664 0.525863
797 4 0.258459 0.258487 0.571149
1239 4 0.340967 0.327863 0.567934
1237 2 0.338042 0.303153 0.570393
1238 4 0.335118 0.278443 0.572851
791 4 0.377758 0.253555 0.525398
873 4 0.394362 0.246965 0.513909
790 2 0.359839 0.261767 0.540782
792 4 0.34192 0.269978 0.556166
871 2 0.404152 0.26319 0.497596
1135 2 0.0837987 0.332948 0.561692
991 2 0.143923 0.394454 0.569726
1137 4 0.10368 0.34733 0.556888
993 4 0.121266 0.405008 0.569051
992 4 0.16658 0.383901 0.570401
897 4 0.18679 0.38362 0.569709
804 4 0.320058 0.331929 0.564895
802 2 0.298598 0.343046 0.571302
929 4 0.334574 0.347945 0.564351
928 2 0.34772 0.368073 0.557476
882 4 0.375936 0.401457 0.548051
930 4 0.360865 0.3882 0.5506
925 2 0.4956 0.416907 0.522907
927 4 0.4827 0.408576 0.542639
934 2 0.0237507 0.42015 0.548635
3430 2 0.039367 0.472744 0.565619
3431 4 0.0367018 0.497042 0.560359
935 4 0.0433478 0.4293 0.561181
3432 4 0.0420323 0.448446 0.570879
1039 2 0.0796815 0.425519 0.575207
540 4 0.995376 0.435413 0.506677
1041 4 0.0560797 0.433393 0.577685
4434 4 0.0212633 0.511714 0.561124
4251 4 0.0294919 0.505223 0.541478
1040 4 0.103283 0.417645 0.572729
1159 2 0.116006 0.418026 0.529254
1161 4 0.113506 0.418185 0.554132
1453 2 0.32627 0.47082 0.53984
1455 4 0.313358 0.491359 0.533791
880 2 0.362998 0.421741 0.554855
1454 4 0.339182 0.45028 0.545889
881 4 0.350059 0.442026 0.561659
1001 4 0.490854 0.415306 0.559647
926 4 0.508501 0.425239 0.503176
1911 4 0.459636 0.496924 0.513937
4084 2 0.454748 0.496225 0.554423
4085 4 0.446889 0.499118 0.530863
4086 4 0.462607 0.493332 0.577982
1000 2 0.49718 0.42779 0.580367
1909 2 0.458132 0.476607 0.499441
1183 2 0.0144644 0.0631089 0.652463
1184 4 0.999541 0.0432408 0.655243
1892 4 0.0144049 0.0278905 0.651112
1891 2 0.0231044 0.0120887 0.633797
1185 4 0.0293877 0.082977 0.649682
1284 4 0.220952 0.0648323 0.591433
1282 2 0.238799 0.0569453 0.607069
1283 4 0.256646 0.0490582 0.622704
2131 2 0.22984 0.0212025 0.647122
2133 4 0.212645 0.0103492 0.661673
1059 4 0.20136 0.070373 0.592874
2282 4 0.326318 0.000735 0.60419
2132 4 0.247034 0.0320558 0.632571
1031 4 0.26591 0.0292944 0.621855
1030 2 0.287326 0.0210744 0.611906
1032 4 0.308741 0.0128543 0.601958
1092 4 0.320034 0.00704884 0.584645
831 4 0.361035 0.0811716 0.624986
1081 2 0.0133379 0.116878 0.64187
1082 4 0.0305392 0.103856 0.654508
943 2 0.0690784 0.101269 0.652414
944 4 0.0472893 0.0910855 0.659249
1083 4 0.996137 0.129901 0.629233
945 4 0.0908675 0.111452 0.645579
1057 2 0.194105 0.0909675 0.605056
1058 4 0.18685 0.111562 0.617238
1155 4 0.179403 0.130069 0.62554
1153 2 0.178193 0.152587 0.614739
909 4 0.198929 0.123258 0.630567
907 2 0.217476 0.120845 0.647161
830 4 0.365795 0.13031 0.632954
829 2 0.363415 0.105741 0.62897
887 4 0.35246 0.146251 0.627649
1194 4 0.367717 0.149762 0.642422
886 2 0.332121 0.160452 0.624519
1026 4 0.444382 0.15079 0.636233
1024 2 0.456491 0.158334 0.615698
1143 4 0.450267 0.135558 0.649853
1263 4 0.445038 0.155553 0.656923
1141 2 0.454935 0.112479 0.658264
852 4 0.0563449 0.230862 0.649686
1245 4 0.0444202 0.246471 0.658613
1272 4 0.130129 0.209939 0.583371
1270 2 0.151359 0.196755 0.584175
879 4 0.125476 0.22619 0.59526
1154 4 0.176984 0.175105 0.603938
1271 4 0.172589 0.183571 0.584979
1221 4 0.187786 0.192177 0.597341
1219 2 0.212194 0.197576 0.597899
1220 4 0.236601 0.202975 0.598456
796 2 0.254681 0.238663 0.58591
798 4 0.250904 0.218838 0.600672
888 4 0.311781 0.174653 0.621388
1212 4 0.256547 0.198409 0.603969
1211 4 0.296688 0.169104 0.609505
1210 2 0.276617 0.183757 0.606737
1192 2 0.378863 0.170331 0.651246
1193 4 0.390009 0.1909 0.660069
906 4 0.465318 0.1789 0.580754
1025 4 0.468599 0.165878 0.595164
1209 4 0.0613338 0.252088 0.646804
1243 2 0.0231401 0.256229 0.667396
1207 2 0.0789901 0.267698 0.655155
946 2 0.13404 0.258812 0.659543
948 4 0.156254 0.24946 0.652891
947 4 0.111826 0.268165 0.666195
1208 4 0.0966463 0.283309 0.663506
1068 4 0.160374 0.345121 0.641466
3112 2 0.492213 0.328251 0.645608
3114 4 0.488057 0.304828 0.63791
1066 2 0.138526 0.355231 0.648222
1067 4 0.116677 0.365341 0.654977
1191 4 0.232336 0.37154 0.615493
896 4 0.217985 0.385753 0.608735
895 2 0.202388 0.384686 0.589222
1189 2 0.252143 0.359385 0.606267
1027 2 0.196159 0.354333 0.65545
1028 4 0.180041 0.346023 0.638235
803 4 0.277137 0.354162 0.577709
1190 4 0.27195 0.347231 0.59704
3264 4 0.0351848 0.430215 0.580867
3263 4 0.0125479 0.434371 0.625263
3239 4 0.00809758 0.436212 0.646316
3262 2 0.0238663 0.432293 0.603065
3238 2 0.023874 0.44858 0.66126
1187 4 0.247371 0.483562 0.627193
2436 4 0.252929 0.490069 0.609196
1173 4 0.320807 0.477353 0.607389
1172 4 0.329001 0.456177 0.651944
1171 2 0.324904 0.466765 0.629667
2435 4 0.302931 0.489885 0.60991
2434 2 0.27793 0.489977 0.609553
2154 4 0.319404 0.497325 0.597697
1206 4 0.501976 0.446469 0.621391
1204 2 0.492753 0.437494 0.642829
3182 4 0.498098 0.460728 0.605744
3181 2 0.478677 0.476185 0.602733
1205 4 0.48353 0.428519 0.664266
825 4 0.188458 0.00244652 0.716657
823 2 0.192006 0.0101047 0.693121
824 4 0.195553 0.0177629 0.669585
43 3 0.467746 0.0643097 0.720926
846 4 0.465531 0.061009 0.741027
44 3 0.463695 0.0825106 0.687809
41 1 0.47098 0.0629726 0.697988
45 3 0.459619 0.0451214 0.689566
42 3 0.493441 0.0603265 0.693786
1077 4 0.028138 0.103735 0.717918
1075 2 0.0284004 0.0963512 0.694031
864 4 0.0315111 0.116128 0.733188
1076 4 0.0286628 0.0889673 0.670145
1179 4 0.00127198 0.172 0.708208
1072 2 0.130976 0.155593 0.730169
1074 4 0.150652 0.148792 0.71632
1073 4 0.1113 0.162395 0.744017
1106 4 0.0923123 0.162622 0.733087
1215 4 0.0935368 0.156342 0.754014
908 4 0.236024 0.118432 0.663754
1227 4 0.237325 0.105082 0.679514
1226 4 0.228325 0.116028 0.727471
1225 2 0.232825 0.110555 0.703492
1148 4 0.231024 0.109622 0.747806
1130 4 0.232509 0.130506 0.742737
1142 4 0.459603 0.0893995 0.666674
3424 2 0.483632 0.158278 0.710045
3425 4 0.497858 0.141108 0.698731
850 2 0.0565649 0.210134 0.663667
1177 2 0.0242896 0.173022 0.698497
1178 4 0.0473072 0.174045 0.688785
851 4 0.0567848 0.189405 0.677648
1107 4 0.0655128 0.183066 0.696147
1105 2 0.0789126 0.172844 0.714617
1298 4 0.226399 0.238253 0.739116
1086 4 0.286791 0.225788 0.727747
1299 4 0.270416 0.229628 0.717006
1297 2 0.248407 0.233941 0.728061
1261 2 0.428715 0.162248 0.67464
3270 4 0.457071 0.193001 0.720852
1262 4 0.412391 0.168943 0.692358
3426 4 0.469405 0.175447 0.721359
1146 4 0.476656 0.193524 0.712761
1145 4 0.491782 0.233115 0.686219
1144 2 0.484219 0.21332 0.69949
3123 4 0.497836 0.244882 0.671352
816 4 0.0260398 0.331117 0.703193
821 4 0.111896 0.288693 0.7292
820 2 0.111391 0.287175 0.704247
822 4 0.110886 0.285658 0.679295
1242 4 0.100216 0.298498 0.741843
1096 2 0.320011 0.326004 0.747112
1098 4 0.303166 0.332485 0.729808
892 2 0.0586696 0.397021 0.731834
893 4 0.0637094 0.376846 0.717952
815 4 0.0554405 0.371359 0.699081
814 2 0.0407401 0.351238 0.701137
942 4 0.0765708 0.369267 0.702179
941 4 0.1181 0.363222 0.674985
940 2 0.0973353 0.366245 0.688582
1029 4 0.212277 0.362643 0.672665
1139 4 0.207721 0.381492 0.681675
1063 2 0.232502 0.366827 0.713349
1064 4 0.242146 0.364508 0.736301
1065 4 0.222857 0.369145 0.690397
1138 2 0.216126 0.402516 0.671066
1236 4 0.238215 0.350368 0.752401
1101 4 0.452489 0.393036 0.700333
1099 2 0.464175 0.413527 0.692043
894 4 0.0536299 0.417197 0.745717
3240 4 0.0396504 0.460948 0.676203
2172 4 0.0597579 0.468187 0.6757
1279 2 0.0501727 0.449711 0.715542
1280 4 0.0498885 0.435899 0.736382
1281 4 0.0504569 0.463523 0.694701
2170 2 0.0703209 0.489965 0.669426
1983 4 0.0626184 0.435226 0.753468
1176 4 0.181651 0.498914 0.711517
1140 4 0.224532 0.423539 0.660458
891 4 0.322529 0.465522 0.668362
889 2 0.30738 0.480297 0.681681
890 4 0.292231 0.495071 0.694999
1100 4 0.475862 0.434017 0.683753
1269 4 0.481974 0.449403 0.670184
1267 2 0.482414 0.467161 0.68778
1268 4 0.482855 0.484918 0.705377
1196 4 0.0773 0.0196276 0.818708
1195 2 0.0835433 0.00307732 0.83638
911 4 0.0863689 0.0305984 0.802726
1203 4 0.0912528 0.00940097 0.805604
910 2 0.0939239 0.0530638 0.810689
1201 2 0.0916889 0.006847 0.780735
912 4 0.101479 0.0755292 0.818652
1285 2 0.144042 0.0764816 0.833167
1149 4 0.201222 0.0754788 0.768942
1147 2 0.216123 0.0925506 0.758374
2400 4 0.335733 0.0162984 0.769966
2398 2 0.345935 0.0389557 0.772748
1049 4 0.368957 0.0642041 0.792632