ITEM: TIMESTEP
840000
ITEM: NUMBER OF ATOMS
4590
ITEM: BOX BOUNDS pp pp pp
-9.9985700000000008e+00 9.9985700000000008e+00
-9.9985700000000008e+00 9.9985700000000008e+00
-9.9985700000000008e+00 9.9985700000000008e+00
ITEM: ATOMS id type xs ys zs
463 2 0.0071894 0.0296066 0.0397594
464 4 0.0131288 0.03322 0.0157418
1247 4 0.0144565 0.0522861 0.00550554
1668 4 0.0865677 0.0325428 0.0566568
1666 2 0.0906082 0.0535646 0.0695772
534 4 0.206703 0.0405308 0.0168184
1475 4 0.194038 0.0398312 0.0752733
532 2 0.18954 0.0536213 0.00419915
490 2 0.284279 0.0350844 0.0261046
491 4 0.299374 0.0215421 0.0407313
492 4 0.269185 0.0486268 0.0114779
653 4 0.309954 0.0228656 0.0571431
652 2 0.319196 0.028126 0.0797725
296 4 0.393644 0.0291724 0.0550752
295 2 0.40063 0.0514245 0.0640872
297 4 0.407616 0.0736767 0.0730992
2975 4 0.483773 0.0717244 0.999365
2974 2 0.494848 0.0539176 0.0129823
589 2 0.0546413 0.114012 0.0380916
590 4 0.0419229 0.108537 0.0172723
3233 4 0.0271241 0.113988 0.00684242
3232 2 0.02257 0.137991 0.00151996
591 4 0.0673596 0.119487 0.058911
422 4 0.124731 0.111527 0.0101459
565 2 0.247884 0.161186 0.0604402
566 4 0.258227 0.156612 0.0381402
359 4 0.255463 0.156765 0.0189046
358 2 0.251414 0.159222 0.994354
557 4 0.37063 0.138049 0.0414963
556 2 0.390729 0.150541 0.0495681
747 4 0.468962 0.0856735 0.00183598
745 2 0.453938 0.099007 0.0167244
746 4 0.438914 0.11234 0.0316129
914 4 0.149255 0.19098 0.0291932
913 2 0.13042 0.203429 0.0184487
915 4 0.111585 0.215879 0.00770426
664 2 0.315839 0.17303 0.00463207
572 4 0.330931 0.201829 0.0351472
571 2 0.339821 0.223744 0.0270312
666 4 0.327725 0.188617 0.0201535
558 4 0.410829 0.163032 0.05764
771 4 0.456756 0.214108 0.0560458
770 4 0.457089 0.207592 0.00646622
769 2 0.456923 0.21085 0.031256
323 4 0.455235 0.23486 0.0615606
518 4 0.474476 0.225156 0.0624738
517 2 0.498864 0.23067 0.0622987
1055 4 0.0198048 0.310837 0.0207329
292 2 0.136452 0.32167 0.0755594
293 4 0.156873 0.327054 0.0621735
507 4 0.172828 0.315474 0.0519248
505 2 0.186397 0.297028 0.0418848
506 4 0.199967 0.278582 0.0318448
573 4 0.348711 0.245659 0.0189152
1071 4 0.357797 0.264171 0.0224114
1069 2 0.345522 0.285777 0.019637
1070 4 0.333247 0.307382 0.0168625
956 4 0.421592 0.329666 0.0206135
322 2 0.440775 0.251973 0.0726618
552 4 0.0679287 0.40518 0.0469066
313 2 0.0463994 0.41112 0.0836631
550 2 0.0897326 0.415484 0.040304
315 4 0.0535222 0.402094 0.0614603
456 4 0.12372 0.394859 0.0726309
288 4 0.163622 0.332727 0.0428461
482 4 0.244262 0.341385 0.0850648
481 2 0.226749 0.354581 0.0730513
483 4 0.209236 0.367778 0.0610379
287 4 0.192533 0.372831 0.0503625
286 2 0.178077 0.352779 0.0466043
625 2 0.218254 0.413154 0.0740602
627 4 0.201984 0.394172 0.0744417
607 2 0.287217 0.397866 0.0763308
608 4 0.277509 0.413316 0.0592358
280 2 0.457935 0.373793 0.0768423
282 4 0.47263 0.394 0.075889
671 4 0.44526 0.337054 0.0904576
1788 4 0.0775366 0.490965 0.0525871
551 4 0.111536 0.425788 0.0337015
626 4 0.234525 0.432136 0.0736787
245 4 0.255624 0.438465 0.0213777
244 2 0.276017 0.45247 0.025005
246 4 0.29641 0.466476 0.0286322
272 4 0.299192 0.472914 0.0103422
19 3 0.0536678 0.0828015 0.157206
18 3 0.0274345 0.0555123 0.160601
17 3 0.042815 0.06303 0.127141
16 1 0.0356838 0.0723463 0.146927
2481 4 0.00693763 0.0563928 0.160502
1667 4 0.0946486 0.0745864 0.0824977
702 4 0.103265 0.071053 0.0996167
700 2 0.118407 0.0908636 0.101476
450 4 0.181637 0.0571304 0.128561
448 2 0.172138 0.0801168 0.125997
1474 2 0.194455 0.0193234 0.0895714
654 4 0.328438 0.0333865 0.102402
20 3 0.0192998 0.0875558 0.142581
477 4 0.0826259 0.14921 0.106076
476 4 0.126131 0.163867 0.0862457
701 4 0.133548 0.110674 0.103336
475 2 0.104378 0.156538 0.0961608
236 4 0.156732 0.115055 0.13805
449 4 0.162639 0.103103 0.123433
235 2 0.171246 0.134457 0.144219
237 4 0.185761 0.15386 0.150388
339 4 0.0676621 0.232716 0.107337
337 2 0.0801799 0.233517 0.128967
338 4 0.0926977 0.234317 0.150597
363 4 0.0930477 0.24595 0.166407
567 4 0.237541 0.165759 0.0827403
461 4 0.302028 0.210711 0.112162
354 4 0.287899 0.21863 0.124445
352 2 0.275636 0.240419 0.124532
460 2 0.324119 0.199116 0.110511
284 4 0.279172 0.189585 0.176833
462 4 0.346209 0.18752 0.108861
255 4 0.365552 0.187457 0.112965
254 4 0.407437 0.171176 0.134903
253 2 0.386494 0.179317 0.123934
630 4 0.425379 0.169388 0.144807
628 2 0.431489 0.177289 0.167729
294 4 0.116031 0.316287 0.0889453
738 4 0.194728 0.252424 0.139673
736 2 0.218015 0.257762 0.132299
737 4 0.241302 0.263101 0.124925
755 4 0.253288 0.277953 0.114707
756 4 0.251705 0.322598 0.0922337
353 4 0.263373 0.262209 0.12462
754 2 0.252496 0.300275 0.10347
741 4 0.354481 0.288269 0.11542
622 2 0.396763 0.285509 0.105692
624 4 0.373812 0.28695 0.115507
739 2 0.349345 0.311812 0.108745
623 4 0.419715 0.284068 0.095877
324 4 0.426314 0.269085 0.083763
527 4 0.471998 0.250634 0.153983
526 2 0.468669 0.270995 0.139857
528 4 0.465339 0.291355 0.12573
672 4 0.472932 0.309037 0.121279
670 2 0.459096 0.323046 0.105868
619 2 0.017326 0.362457 0.144589
620 4 0.021503 0.377213 0.164337
621 4 0.013149 0.347701 0.124841
454 2 0.124264 0.380617 0.0931748
455 4 0.124808 0.366376 0.113719
417 4 0.15573 0.380748 0.155646
415 2 0.178108 0.391423 0.158882
416 4 0.200485 0.402097 0.162118
611 4 0.232585 0.354079 0.173088
252 4 0.24975 0.339561 0.105663
251 4 0.292785 0.365022 0.105018
250 2 0.271268 0.352292 0.10534
609 4 0.296924 0.382416 0.0934259
387 4 0.306051 0.380633 0.113056
385 2 0.323591 0.363012 0.115703
386 4 0.341132 0.345391 0.118349
740 4 0.344208 0.335354 0.102069
13 3 0.408029 0.378365 0.162231
302 4 0.336619 0.41088 0.16149
281 4 0.44324 0.353586 0.0777957
15 3 0.420783 0.353042 0.137458
14 3 0.423157 0.389714 0.129265
495 4 0.423353 0.409576 0.125916
11 1 0.424126 0.373825 0.146147
595 2 0.491589 0.377933 0.149954
597 4 0.46722 0.375491 0.154992
12 3 0.444906 0.374676 0.155976
314 4 0.0392766 0.420147 0.105866
637 2 0.245182 0.472621 0.138845
639 4 0.238161 0.490201 0.12251
290 4 0.234032 0.447576 0.163541
638 4 0.252204 0.455042 0.15518
525 4 0.354871 0.487279 0.146634
659 4 0.363314 0.470775 0.151439
494 4 0.412585 0.445681 0.093035
658 2 0.355736 0.446951 0.151016
660 4 0.348159 0.423127 0.150593
523 2 0.347087 0.500712 0.127035
493 2 0.417969 0.427628 0.109475
2479 2 0.00619199 0.042034 0.180958
2480 4 0.00544635 0.0276752 0.201414
1422 4 0.0136266 0.00978747 0.207306
673 2 0.101788 0.0573472 0.213168
675 4 0.111952 0.0368459 0.223246
1403 4 0.115022 0.0170252 0.223637
674 4 0.0916232 0.0778485 0.203091
1402 2 0.103747 0.00644625 0.243287
689 4 0.168401 0.0257574 0.250467
690 4 0.191763 0.0651085 0.230307
693 4 0.19727 0.0689237 0.210862
688 2 0.180082 0.0454329 0.240387
21 1 0.365745 0.0499185 0.229788
25 3 0.382393 0.0429159 0.215915
759 4 0.394254 0.0474683 0.197511
1784 4 0.398229 0.0285016 0.208986
1783 2 0.393286 0.00509461 0.216256
757 2 0.411767 0.0652772 0.198651
23 3 0.348047 0.0582795 0.217327
24 3 0.373763 0.0662944 0.244139
22 3 0.358286 0.0320947 0.242271
511 2 0.00728337 0.148193 0.228284
513 4 0.0117722 0.145911 0.252776
722 4 0.151307 0.144215 0.237401
721 2 0.167411 0.137441 0.219513
691 2 0.189261 0.0910797 0.202487
692 4 0.181251 0.113236 0.194112
723 4 0.183514 0.130667 0.201625
285 4 0.24797 0.158596 0.200641
582 4 0.258886 0.143509 0.192208
580 2 0.266513 0.119878 0.195137
581 4 0.27414 0.0962467 0.198065
28 3 0.317746 0.116621 0.230407
26 1 0.326446 0.135118 0.241388
30 3 0.316472 0.154104 0.233728
27 3 0.349052 0.13625 0.237285
744 4 0.442441 0.0860685 0.216632
311 4 0.453961 0.141197 0.185623
310 2 0.451186 0.116993 0.191251
758 4 0.429281 0.083086 0.199792
312 4 0.448412 0.0927898 0.196879
742 2 0.445127 0.0880047 0.241416
395 4 0.999258 0.233715 0.220451
394 2 0.0131064 0.245283 0.23776
283 2 0.263571 0.17409 0.188737
344 4 0.266789 0.226653 0.240764
764 4 0.398514 0.222883 0.214179
763 2 0.382845 0.24186 0.209758
629 4 0.437599 0.185189 0.190651
537 4 0.150361 0.313499 0.16033
372 4 0.132757 0.28345 0.206909
362 4 0.121341 0.280112 0.189499
370 2 0.151734 0.27768 0.222133
361 2 0.107194 0.263031 0.177953
371 4 0.170711 0.27191 0.237356
279 4 0.211053 0.29509 0.189512
277 2 0.224536 0.290061 0.20996
612 4 0.212651 0.308281 0.175516
278 4 0.238018 0.285033 0.230408
343 2 0.261063 0.250963 0.23957
307 2 0.2748 0.307629 0.224293
309 4 0.25541 0.296301 0.235287
308 4 0.29419 0.318957 0.213299
345 4 0.255336 0.275272 0.238375
497 4 0.333596 0.293538 0.243261
765 4 0.367176 0.260837 0.205338
648 4 0.0211046 0.367789 0.182613
646 2 0.0378575 0.383607 0.192323
647 4 0.0546104 0.399426 0.202034
300 4 0.0853021 0.335368 0.238872
536 4 0.140601 0.351767 0.191005
535 2 0.145481 0.332633 0.175668
298 2 0.1089 0.339332 0.246125
291 4 0.204182 0.411049 0.180137
610 2 0.222618 0.33118 0.174302
303 4 0.329647 0.39251 0.207476
729 4 0.325561 0.392592 0.227326
727 2 0.326491 0.404993 0.249018
301 2 0.333133 0.401695 0.184483
643 2 0.45069 0.375535 0.194497
644 4 0.444566 0.38541 0.216636
645 4 0.456815 0.365659 0.172358
447 4 0.453284 0.381706 0.234092
263 4 0.0487568 0.417254 0.193788
262 2 0.0632174 0.434105 0.205281
264 4 0.077678 0.450956 0.216775
1757 4 0.0762199 0.467463 0.20585
1756 2 0.0705385 0.490704 0.198586
289 2 0.219107 0.429312 0.171839
767 4 0.250688 0.450111 0.176477
768 4 0.290145 0.474337 0.195371
766 2 0.270416 0.462224 0.185924
1573 2 0.316988 0.458306 0.211975
1574 4 0.303007 0.461036 0.191426
1575 4 0.330969 0.455575 0.232524
1802 4 0.314133 0.46262 0.242401
1699 2 0.203067 0.0120339 0.295929
248 4 0.226634 0.0507118 0.300344
247 2 0.221911 0.0752262 0.301727
1701 4 0.216263 0.0322123 0.302552
605 4 0.226142 0.0408725 0.319898
1700 4 0.18987 0.991856 0.289305
1496 4 0.354677 0.0129619 0.246712
1495 2 0.355505 0.00721526 0.271032
697 2 0.376033 0.0304043 0.320181
351 4 0.395743 0.0715251 0.326395
632 4 0.35738 0.0560806 0.312596
699 4 0.364581 0.00902567 0.3141
1497 4 0.356332 0.0014686 0.295352
349 2 0.41125 0.0829127 0.310425
631 2 0.347661 0.0788705 0.309229
479 4 0.499989 0.0451549 0.31475
577 2 0.055633 0.159246 0.258758
579 4 0.0313843 0.155135 0.254254
530 4 0.0258223 0.138539 0.266905
529 2 0.012748 0.121212 0.279315
578 4 0.0798817 0.163357 0.263261
546 4 0.149223 0.158138 0.25165
544 2 0.163103 0.158158 0.272447
249 4 0.217188 0.0997406 0.303111
403 2 0.205243 0.130165 0.301553
404 4 0.220746 0.116487 0.315616
405 4 0.18974 0.143843 0.28749
545 4 0.176983 0.158178 0.293244
708 4 0.324036 0.15094 0.274151
29 3 0.323066 0.13307 0.264252
706 2 0.338517 0.168102 0.285149
633 4 0.337941 0.10166 0.305861
350 4 0.426757 0.0943003 0.294456
743 4 0.447814 0.0899408 0.266199
333 4 0.444685 0.0964089 0.284964
331 2 0.453476 0.118575 0.292485
332 4 0.462268 0.14074 0.300006
762 4 0.46205 0.159213 0.309946
707 4 0.352998 0.185264 0.296148
760 2 0.459526 0.176936 0.29249
418 2 0.455119 0.230976 0.282523
419 4 0.443303 0.208954 0.281749
761 4 0.457001 0.194659 0.275034
396 4 0.0269545 0.256852 0.255068
750 4 0.0463942 0.25765 0.254497
364 2 0.0116942 0.317597 0.272035
748 2 0.0677182 0.261972 0.266817
365 4 0.00720382 0.298132 0.287072
444 4 0.0337838 0.254901 0.328952
442 2 0.0191001 0.271438 0.317286
443 4 0.00441642 0.287975 0.305619
366 4 0.0161847 0.337062 0.256997
749 4 0.0890423 0.266294 0.279137
389 4 0.14821 0.273385 0.332671
496 2 0.337338 0.281993 0.265121
498 4 0.34108 0.270447 0.286981
614 4 0.389131 0.261944 0.298754
613 2 0.3882 0.266549 0.323312
420 4 0.466936 0.252997 0.283297
521 4 0.484778 0.259215 0.273524
543 4 0.475028 0.272298 0.2877
541 2 0.472367 0.297055 0.28998
542 4 0.469706 0.321811 0.292261
2694 4 0.00233696 0.350804 0.256472
603 4 0.065676 0.41703 0.328556
601 2 0.089457 0.414125 0.321401
299 4 0.132498 0.343297 0.253378
734 4 0.136383 0.349926 0.272297
733 2 0.145303 0.365917 0.289324
677 4 0.172214 0.381551 0.314879
735 4 0.154222 0.381908 0.306351
676 2 0.183532 0.366647 0.331461
438 4 0.237949 0.410151 0.275112
509 4 0.26253 0.352838 0.321016
508 2 0.273384 0.349758 0.298702
510 4 0.284238 0.346678 0.276389
728 4 0.327421 0.417395 0.270709
753 4 0.372514 0.406748 0.329681
445 2 0.459944 0.394214 0.254693
446 4 0.466604 0.406722 0.275293
602 4 0.113238 0.41122 0.314246
412 2 0.125354 0.497282 0.301202
414 4 0.133151 0.487189 0.279696
437 4 0.247651 0.438723 0.314991
436 2 0.2428 0.424437 0.295051
433 2 0.331777 0.420335 0.309379
434 4 0.329026 0.431077 0.286969
1801 2 0.318969 0.456731 0.266215
1803 4 0.323806 0.450841 0.290029
229 2 0.417314 0.490112 0.271593
713 4 0.466597 0.409369 0.295753
231 4 0.417334 0.466973 0.281067
712 2 0.480804 0.427346 0.305762
714 4 0.495011 0.445323 0.315771
234 4 0.0431164 0.0494464 0.342601
318 4 0.0623396 0.0542043 0.335822
232 2 0.0181171 0.04919 0.342991
316 2 0.0730797 0.0339581 0.345818
428 4 0.0882866 0.00896149 0.375369
317 4 0.0838197 0.0137119 0.355814
1464 4 0.134208 0.0204205 0.335678
606 4 0.238122 0.0370531 0.368298
604 2 0.232132 0.0389628 0.344098
441 4 0.247743 0.0292665 0.384257
439 2 0.26107 0.0113279 0.395472
440 4 0.274397 0.993389 0.406686
724 2 0.316833 0.988176 0.40036
683 4 0.293315 0.0731252 0.380728
698 4 0.387486 0.0517829 0.326261
725 4 0.338303 0.979849 0.39062
257 4 0.402316 0.0560953 0.340804
256 2 0.412907 0.0529209 0.36323
258 4 0.423498 0.0497464 0.385656
398 4 0.0497139 0.105675 0.340624
2653 2 0.0189589 0.173267 0.370957
397 2 0.0743369 0.107318 0.336601
2655 4 0.00117589 0.156218 0.375233
732 4 0.1099 0.103549 0.346667
731 4 0.147969 0.125144 0.370858
399 4 0.09896 0.108961 0.332578
730 2 0.128934 0.114347 0.358763
686 4 0.163475 0.129494 0.385098
599 4 0.156599 0.144803 0.370903
687 4 0.187228 0.0876934 0.398854
685 2 0.175352 0.108594 0.391976
682 2 0.29266 0.0842283 0.403121
467 4 0.354987 0.157199 0.412273
451 2 0.448441 0.0959796 0.39199
453 4 0.429448 0.107431 0.403536
452 4 0.467434 0.0845279 0.380445
2654 4 0.036742 0.190315 0.366682
391 2 0.0777174 0.194756 0.348403
392 4 0.0561965 0.190784 0.360497
2850 4 0.0101942 0.236889 0.362588
393 4 0.0992383 0.198727 0.336309
598 2 0.14563 0.166412 0.364746
600 4 0.134661 0.188021 0.358589
474 4 0.225116 0.214479 0.368687
276 4 0.210033 0.22347 0.380243
472 2 0.222573 0.189779 0.365749
473 4 0.220031 0.165079 0.362812
274 2 0.195516 0.221748 0.400527
378 4 0.241576 0.247467 0.362592
489 4 0.304679 0.261697 0.384722
376 2 0.264184 0.255435 0.369702
306 4 0.471393 0.236579 0.401366
269 4 0.467826 0.244903 0.384278
618 4 0.0688899 0.307194 0.386909
347 4 0.0667098 0.30057 0.405489
616 2 0.0783775 0.287245 0.375195
617 4 0.0878651 0.267296 0.363482
388 2 0.124831 0.272141 0.34145
390 4 0.101453 0.270897 0.35023
401 4 0.167259 0.277766 0.330626
400 2 0.181417 0.276095 0.351167
375 4 0.190523 0.278146 0.392019
402 4 0.195576 0.274424 0.371708
373 2 0.176789 0.293707 0.405962
377 4 0.286792 0.263404 0.376812
487 2 0.325644 0.253584 0.395668
488 4 0.346609 0.245471 0.406614
615 4 0.38727 0.271154 0.347871
716 4 0.39275 0.280481 0.365376
715 2 0.377104 0.268907 0.381075
717 4 0.361459 0.257333 0.396773
267 4 0.366394 0.246977 0.414726
270 4 0.467954 0.293267 0.371564
2923 2 0.474878 0.332198 0.392149
268 2 0.46789 0.269085 0.377921
2924 4 0.473568 0.309915 0.380883
2927 4 0.999393 0.399741 0.334442
406 2 0.0566961 0.398241 0.364829
408 4 0.0517432 0.378984 0.349669
678 4 0.19485 0.351743 0.348043
751 2 0.395456 0.402522 0.338678
752 4 0.418399 0.398297 0.347675
561 4 0.427252 0.396223 0.366088
2925 4 0.476187 0.35448 0.403416
559 2 0.422181 0.399133 0.390398
560 4 0.41711 0.402044 0.414709
407 4 0.0616489 0.417498 0.379989
777 4 0.0577666 0.50016 0.348565
549 4 0.0589209 0.481313 0.356339
548 4 0.0535949 0.435701 0.376137
547 2 0.0562579 0.458507 0.366238
773 4 0.231991 0.432256 0.399509
4 3 0.328956 0.458746 0.356949
1 1 0.313497 0.471922 0.368166
2 3 0.295042 0.474796 0.354739
3 3 0.306928 0.461448 0.387802
5 3 0.322588 0.492264 0.372876
435 4 0.334529 0.409593 0.331789
3989 4 0.493457 0.492959 0.337774
593 4 0.468189 0.503618 0.36951
2237 4 0.00415927 0.00539057 0.450338
2236 2 0.0149424 0.0144295 0.471006
2238 4 0.0257254 0.0234684 0.491675
1773 4 0.0206017 0.00195241 0.438341
2429 4 0.133095 0.00515745 0.497598
367 2 0.111912 0.0751344 0.454361
368 4 0.117828 0.055675 0.439817
2428 2 0.1419 0.0284477 0.495317
2430 4 0.150706 0.0517379 0.493036
340 2 0.16503 0.0809726 0.494088
962 4 0.263182 0.00550198 0.483578
1180 2 0.297553 0.0707918 0.459122
1181 4 0.308871 0.0522937 0.471568
961 2 0.28187 0.0220745 0.484715
963 4 0.300558 0.0386469 0.485851
432 4 0.317528 0.0513084 0.490902
425 4 0.363597 0.0499237 0.418477
424 2 0.366583 0.0253749 0.422167
430 2 0.338983 0.0612636 0.499011
841 2 0.392941 0.0703206 0.496161
842 4 0.413382 0.0561948 0.493362
426 4 0.36957 0.000826045 0.425857
1217 4 0.418507 0.03666 0.49854
457 2 0.0161511 0.137308 0.464849
719 4 0.054208 0.124463 0.478002
459 4 0.0372855 0.135798 0.478124
369 4 0.105997 0.0945939 0.468904
939 4 0.109928 0.110828 0.480861
937 2 0.116278 0.133226 0.489983
938 4 0.122627 0.155624 0.499104
342 4 0.180042 0.0956775 0.480538
1151 4 0.208744 0.136148 0.451062
1150 2 0.199997 0.113681 0.457685
1152 4 0.19125 0.0912127 0.464309
1182 4 0.286235 0.0892899 0.446675
321 4 0.298982 0.148411 0.472851
684 4 0.292005 0.0953314 0.425515
320 4 0.292548 0.109502 0.442103
319 2 0.295765 0.128957 0.457477
468 4 0.310508 0.159013 0.435056
466 2 0.332748 0.158106 0.423665
515 4 0.428057 0.105149 0.422736
516 4 0.425863 0.143181 0.455131
514 2 0.42696 0.124165 0.438934
575 4 0.427567 0.163529 0.4575
640 2 0.490473 0.143293 0.497516
260 4 0.0848199 0.198199 0.398923
1034 4 0.133007 0.173149 0.498519
261 4 0.110116 0.206387 0.441276
259 2 0.0974678 0.202293 0.420099
1035 4 0.114924 0.201276 0.461335
1033 2 0.123966 0.187212 0.479927
695 4 0.108942 0.221389 0.457031
694 2 0.0984722 0.240915 0.46862
275 4 0.180998 0.220026 0.420812
410 4 0.307389 0.177846 0.436435
411 4 0.268865 0.198463 0.460757
409 2 0.288127 0.188154 0.448596
899 4 0.315401 0.150701 0.481121
304 2 0.454094 0.233369 0.419132
305 4 0.436795 0.230159 0.436899
574 2 0.43152 0.187009 0.449867
576 4 0.435473 0.210489 0.442235
346 2 0.0765796 0.310189 0.426352
327 4 0.0755531 0.264694 0.496851
348 4 0.0864493 0.319808 0.447214
696 4 0.0880028 0.26044 0.48021
10 3 0.0970925 0.321136 0.464401
9 3 0.124175 0.317866 0.490353
1259 4 0.135699 0.315946 0.507233
8 3 0.132956 0.326917 0.454501
374 4 0.163056 0.309268 0.419905
266 4 0.384222 0.251557 0.461223
265 2 0.375308 0.249267 0.437975
584 4 0.502442 0.287457 0.467135
872 4 0.450518 0.264667 0.489568
585 4 0.460185 0.26131 0.472737
583 2 0.481313 0.274384 0.469936
936 4 0.00441909 0.398082 0.507822
2813 4 0.010864 0.356032 0.449699
6 1 0.117199 0.329246 0.471374
7 3 0.115008 0.35157 0.476473
503 4 0.258931 0.387965 0.457126
502 2 0.235626 0.387406 0.466167
504 4 0.21232 0.386846 0.475207
710 4 0.197359 0.399305 0.471459
650 4 0.26003 0.376412 0.441908
651 4 0.294928 0.356267 0.412293
649 2 0.277479 0.36634 0.427101
336 4 0.354586 0.413571 0.453066
334 2 0.356982 0.388778 0.455247
238 2 0.399023 0.353376 0.459497
240 4 0.377154 0.36028 0.449534
335 4 0.359377 0.363985 0.457429
2507 4 0.476121 0.401118 0.43187
2506 2 0.497546 0.396509 0.443909
239 4 0.420891 0.346472 0.469461
680 4 0.0111414 0.432849 0.448453
383 4 0.0681015 0.439096 0.439985
681 4 0.0554262 0.454826 0.44093
679 2 0.0332838 0.443837 0.444692
382 2 0.0894471 0.442953 0.452421
711 4 0.157226 0.428438 0.46503
569 4 0.125191 0.454912 0.454241
384 4 0.110793 0.446811 0.464858
568 2 0.13391 0.477584 0.448312
636 4 0.197526 0.486982 0.480676
709 2 0.177293 0.413872 0.468244
772 2 0.214424 0.434572 0.41715
634 2 0.194096 0.467857 0.464939
635 4 0.190667 0.448732 0.449202
774 4 0.196857 0.436889 0.434791
667 2 0.392713 0.430547 0.437994
668 4 0.4155 0.439174 0.432382
669 4 0.369926 0.42192 0.443606
663 4 0.444712 0.444906 0.47977
587 4 0.460206 0.448359 0.466811
586 2 0.444681 0.43653 0.451184
588 4 0.429156 0.4247 0.435556
1126 2 0.00509724 0.020347 0.526
1127 4 0.0148904 0.0128239 0.504259
341 4 0.150018 0.0662678 0.507638
949 2 0.28167 0.00528247 0.565364
951 4 0.293281 0.0172947 0.583966
431 4 0.360438 0.0712187 0.50712
1216 2 0.413004 0.0229021 0.518679
1218 4 0.4075 0.00914425 0.538819
1060 2 0.480805 0.0360144 0.555684
1061 4 0.501748 0.0414957 0.543174
1062 4 0.459862 0.0305331 0.568195
720 4 0.0515931 0.107719 0.52505
471 4 0.0269119 0.144472 0.527767
469 2 0.0277559 0.16946 0.527531
718 2 0.0529006 0.116091 0.501526
1030 2 0.236581 0.0908097 0.580658
1032 4 0.250213 0.103938 0.564318
898 2 0.319528 0.147388 0.505558
900 4 0.323655 0.144076 0.529995
843 4 0.372501 0.0844464 0.49896
641 4 0.47933 0.155681 0.516159
470 4 0.0285999 0.194448 0.527294
1199 4 0.999134 0.197024 0.554229
877 2 0.109492 0.235688 0.536077
1272 4 0.136968 0.22492 0.564066
879 4 0.124032 0.237851 0.556303
878 4 0.0949517 0.233525 0.515851
856 2 0.200336 0.236893 0.531719
857 4 0.200865 0.226559 0.508957
858 4 0.199808 0.247227 0.554481
813 4 0.348094 0.247015 0.507949
1136 4 0.0907946 0.328851 0.573565
326 4 0.090086 0.292294 0.535938
1258 2 0.156757 0.31514 0.52069
325 2 0.0828196 0.278494 0.516394
803 4 0.235679 0.335509 0.56849
1260 4 0.177816 0.314334 0.534146
1190 4 0.220878 0.335291 0.555831
791 4 0.327132 0.284902 0.546919
790 2 0.310261 0.283718 0.565334
802 2 0.252705 0.317528 0.565024
804 4 0.269731 0.299548 0.561559
812 4 0.339982 0.290947 0.530418
811 2 0.344038 0.268981 0.519183
873 4 0.434614 0.257794 0.536478
871 2 0.442566 0.26123 0.513023
953 4 0.424861 0.270272 0.549308
952 2 0.429548 0.267875 0.573751
984 4 0.0802217 0.3452 0.569965
982 2 0.0574849 0.335366 0.566572
983 4 0.034748 0.325532 0.563179
1135 2 0.106969 0.340667 0.58853
896 4 0.184068 0.383014 0.572649
1189 2 0.201539 0.349614 0.562619
1191 4 0.182201 0.363936 0.569406
930 4 0.385442 0.389395 0.568607
882 4 0.391366 0.408432 0.570143
928 2 0.39672 0.374127 0.584882
925 2 0.434375 0.401191 0.549683
926 4 0.427299 0.377862 0.544129
927 4 0.441452 0.42452 0.555236
935 4 0.0141914 0.44571 0.519518
934 2 0.00930526 0.421896 0.51367
540 4 0.999828 0.501389 0.506029
539 4 0.0477874 0.488855 0.512629
538 2 0.0238079 0.495122 0.509329
1159 2 0.160703 0.440504 0.544329
1160 4 0.143153 0.43507 0.527369
1161 4 0.178254 0.445938 0.561289
2154 4 0.278147 0.50066 0.584505
880 2 0.384682 0.425176 0.552819
881 4 0.377998 0.441921 0.535495
1454 4 0.360249 0.447037 0.526348
1453 2 0.34685 0.465874 0.516819
1455 4 0.333451 0.484711 0.50729
662 4 0.447419 0.451775 0.52923
1910 4 0.45414 0.452645 0.547812
1909 2 0.464172 0.475389 0.550498
661 2 0.446065 0.448341 0.5045
1001 4 0.442941 0.428268 0.57432
4085 4 0.489475 0.496732 0.538219
1185 4 0.0198365 0.0630682 0.653955
1183 2 0.0326981 0.0421283 0.658568
825 4 0.168511 0.00236895 0.671195
945 4 0.0962295 0.0665433 0.632886
1059 4 0.165816 0.0854096 0.612785
1284 4 0.17354 0.0756484 0.628591
1282 2 0.195275 0.0692527 0.618013
1283 4 0.217009 0.0628571 0.607435
1031 4 0.222949 0.0776814 0.596998
2281 2 0.386365 0.0250503 0.671329
2282 4 0.38926 0.0132634 0.649469
1092 4 0.382079 0.0127624 0.630729
3008 4 0.50226 0.0696315 0.57521
809 4 0.484546 0.0704236 0.586582
1083 4 0.017182 0.1035 0.606098
944 4 0.0587827 0.090456 0.655835
943 2 0.0775061 0.0784996 0.644361
1082 4 0.0406448 0.101054 0.650191
1081 2 0.0289134 0.102277 0.628145
1076 4 0.0547338 0.110098 0.663824
1058 4 0.146392 0.126252 0.591447
1155 4 0.156796 0.141341 0.597973
1057 2 0.156104 0.105831 0.602116
909 4 0.166715 0.126525 0.645416
1153 2 0.170026 0.161653 0.604102
907 2 0.176739 0.107983 0.658866
1211 4 0.279751 0.159244 0.636257
888 4 0.295698 0.147846 0.641466
886 2 0.319238 0.146658 0.649811
887 4 0.342778 0.145469 0.658155
810 4 0.446569 0.0916609 0.611227
808 2 0.465558 0.0810422 0.598905
852 4 0.0552232 0.239206 0.65146
850 2 0.0544661 0.218002 0.664689
851 4 0.053709 0.196798 0.677917
1270 2 0.131758 0.210662 0.583933
1271 4 0.126547 0.196403 0.603801
1154 4 0.183255 0.181966 0.61023
1221 4 0.200455 0.184853 0.620907
1219 2 0.218956 0.198537 0.630685
1220 4 0.237458 0.212222 0.640463
798 4 0.254668 0.224651 0.639769
1212 4 0.257028 0.20379 0.636434
796 2 0.245736 0.247793 0.642907
1210 2 0.26839 0.181517 0.636345
1193 4 0.396592 0.189501 0.669199
904 2 0.438228 0.232765 0.614252
906 4 0.433477 0.208218 0.614084
1024 2 0.435524 0.187295 0.650465
1025 4 0.440729 0.198788 0.628878
1209 4 0.0754503 0.24604 0.65486
1245 4 0.0586554 0.259695 0.656622
1243 2 0.0435238 0.279042 0.651939
1244 4 0.0283922 0.298388 0.647255
948 4 0.171863 0.278623 0.632909
946 2 0.167713 0.267238 0.65478
792 4 0.293389 0.282535 0.58375
797 4 0.236804 0.270935 0.646045
1238 4 0.279072 0.286604 0.596793
1237 2 0.283301 0.301233 0.616625
1239 4 0.28753 0.315863 0.636456
905 4 0.442979 0.257313 0.614419
954 4 0.434235 0.265477 0.598194
1039 2 0.0497456 0.412942 0.607173
1041 4 0.0276881 0.402008 0.611542
3264 4 0.00930166 0.397725 0.605801
3262 2 0.998517 0.375419 0.602435
895 2 0.165711 0.387037 0.589143
1137 4 0.123143 0.352484 0.603494
992 4 0.130139 0.400616 0.609909
897 4 0.147355 0.39106 0.605636
991 2 0.105812 0.405765 0.612523
929 4 0.407998 0.358859 0.601157
1040 4 0.0718031 0.423876 0.602804
993 4 0.081484 0.410915 0.615138
1173 4 0.266953 0.491352 0.598376
1172 4 0.282142 0.450231 0.622439
1171 2 0.274548 0.470792 0.610408
891 4 0.299595 0.440879 0.624869
889 2 0.323394 0.439218 0.632352
890 4 0.347194 0.437558 0.639834
1204 2 0.43128 0.429643 0.656976
1206 4 0.419792 0.431156 0.634819
1002 4 0.43636 0.434981 0.623435
1000 2 0.439651 0.431624 0.598878
3183 4 0.487749 0.478382 0.625275
3181 2 0.499029 0.469656 0.604737
1184 4 0.0455596 0.0211883 0.66318
4338 4 0.0269284 0.000375734 0.714951
2398 2 0.277584 0.00827011 0.731675
2400 4 0.274341 0.0119169 0.707152
1004 4 0.300649 0.0943252 0.747745
2283 4 0.38347 0.0368373 0.693189
42 3 0.458099 0.0755884 0.729482
4226 4 0.494635 0.0309132 0.669744
45 3 0.426351 0.0756101 0.709862
4225 2 0.495332 0.00854228 0.68089
864 4 0.0376787 0.114601 0.729467
1075 2 0.0463862 0.115038 0.686869
1077 4 0.0380385 0.119979 0.709915
862 2 0.0220902 0.123056 0.747094
1226 4 0.239298 0.0833036 0.7122
1148 4 0.248429 0.0888317 0.729567
908 4 0.186764 0.0894416 0.672315
1225 2 0.216976 0.0856472 0.701182
1227 4 0.194654 0.0879909 0.690164
1005 4 0.320907 0.135803 0.728513
1003 2 0.310778 0.115064 0.738129
1299 4 0.316451 0.153954 0.74328
831 4 0.336057 0.154002 0.728487
830 4 0.343605 0.14907 0.6793
829 2 0.339831 0.151536 0.703893
1086 4 0.335059 0.139018 0.748275
1194 4 0.355724 0.16085 0.666092
43 3 0.430494 0.0993303 0.738807
41 1 0.441162 0.0887293 0.721138
44 3 0.45029 0.104507 0.70678
1142 4 0.443488 0.120301 0.696815
1141 2 0.431795 0.141802 0.691702
1143 4 0.420101 0.163303 0.68659
1107 4 0.0645331 0.182505 0.685487
1105 2 0.0697418 0.187962 0.709325
1106 4 0.0749505 0.19342 0.733163
1073 4 0.0850767 0.211036 0.736293
1177 2 0.0228702 0.250341 0.714621
1179 4 0.0139122 0.253756 0.737714
1130 4 0.215393 0.195192 0.693058
1129 2 0.205639 0.196364 0.716051
1131 4 0.195885 0.197537 0.739043
976 2 0.295186 0.222794 0.71888
1297 2 0.314754 0.178821 0.745268
1298 4 0.313056 0.203687 0.747256
978 4 0.296407 0.238669 0.699602
977 4 0.293965 0.206918 0.738158
1192 2 0.376158 0.175176 0.667646
1262 4 0.429864 0.213875 0.728452
1026 4 0.430319 0.175802 0.672052
1261 2 0.431701 0.196203 0.710859
1263 4 0.433538 0.17853 0.693267
1178 4 0.0318283 0.246927 0.691528
947 4 0.163562 0.255854 0.676651
821 4 0.148142 0.285284 0.738718
1207 2 0.0952985 0.259494 0.661947
1208 4 0.115147 0.272947 0.669035
820 2 0.153377 0.273414 0.717343
822 4 0.158612 0.261544 0.695969
1065 4 0.252201 0.315233 0.686652
1063 2 0.260639 0.337069 0.695436
1019 4 0.381829 0.332076 0.73889
3123 4 0.469326 0.28487 0.688215
3121 2 0.493295 0.27956 0.683471
1281 4 0.00732177 0.411538 0.658971
892 2 0.0482509 0.391575 0.73323
894 4 0.0312448 0.40891 0.727275
893 4 0.0652569 0.37424 0.739184
942 4 0.0828401 0.363259 0.744588
3274 2 0.996345 0.418489 0.744225
940 2 0.107734 0.362806 0.742299
941 4 0.132629 0.362354 0.740009
1067 4 0.148459 0.371496 0.734638
1028 4 0.203128 0.380112 0.696114
1066 2 0.169274 0.378269 0.722554
1068 4 0.190089 0.385043 0.710469
1027 2 0.22452 0.387783 0.685687
1236 4 0.215911 0.339229 0.730183
1029 4 0.245912 0.395454 0.675261
1064 4 0.269076 0.358906 0.70422
806 4 0.274846 0.358647 0.72468
805 2 0.298825 0.363468 0.729868
1139 4 0.259236 0.410678 0.67744
807 4 0.322805 0.368289 0.735055
1020 4 0.340481 0.360185 0.739848
1018 2 0.361155 0.346131 0.739369
1101 4 0.439517 0.411899 0.733134
3276 4 0.0152058 0.422398 0.728282
1983 4 0.0221917 0.453233 0.689516
1981 2 0.0315057 0.468879 0.706651
1280 4 0.0362117 0.448229 0.676856
1279 2 0.0217667 0.429883 0.667913
1982 4 0.0408197 0.484526 0.723786
885 4 0.0461994 0.477001 0.7413
2172 4 0.0646882 0.491295 0.660149
1176 4 0.210392 0.485889 0.7144
1174 2 0.222024 0.490794 0.692817
2016 4 0.198411 0.494727 0.728254
1988 4 0.31021 0.478712 0.716235
1138 2 0.278858 0.42603 0.679556
1140 4 0.29848 0.441382 0.681672
1987 2 0.330591 0.468085 0.706395
1088 4 0.306298 0.498965 0.718399
1989 4 0.350973 0.457458 0.696554
1205 4 0.442767 0.42813 0.679133
1100 4 0.418682 0.450936 0.709836
1099 2 0.4291 0.431417 0.721485
1267 2 0.450081 0.480754 0.700567
1269 4 0.432176 0.464782 0.707601
1268 4 0.467986 0.496726 0.693532
1203 4 0.126364 0.0475101 0.799625
1201 2 0.117408 0.0283503 0.786288
1202 4 0.108453 0.00919044 0.772951
2049 4 0.10084 0.996127 0.759984
911 4 0.117656 0.0599541 0.815304
1196 4 0.122436 0.03968 0.819567
2399 4 0.280827 0.00462329 0.756198
1049 4 0.288942 0.00164335 0.77418
1048 2 0.29546 0.0228255 0.785756
1050 4 0.301978 0.0440077 0.797333
1257 4 0.30646 0.0599207 0.810298
1255 2 0.329766 0.0641873 0.818287
1256 4 0.353071 0.0684539 0.826277
1112 4 0.41932 0.00203068 0.796438
1111 2 0.441267 0.0135832 0.799612
1113 4 0.463213 0.0251357 0.802786
844 2 0.487935 0.0414057 0.786515
845 4 0.484676 0.0255491 0.805571
980 4 0.471799 0.036276 0.818738
846 4 0.491193 0.0572622 0.767459
863 4 0.00650172 0.13151 0.76472
33 3 0.0776131 0.128357 0.818905