ITEM: TIMESTEP
1120000
ITEM: NUMBER OF ATOMS
4590
ITEM: BOX BOUNDS pp pp pp
-9.9985700000000008e+00 9.9985700000000008e+00
-9.9985700000000008e+00 9.9985700000000008e+00
-9.9985700000000008e+00 9.9985700000000008e+00
ITEM: ATOMS id type xs ys zs
1668 4 0.0695408 0.0377173 0.0642094
1666 2 0.0743802 0.0614782 0.0703068
1474 2 0.227029 0.999596 0.075217
490 2 0.293932 0.0362605 0.0181167
491 4 0.286756 0.0321421 0.0417117
653 4 0.293162 0.0418953 0.0582818
652 2 0.313045 0.0413608 0.0734333
987 4 0.389089 0.0478878 0.00221841
2974 2 0.485163 0.0535893 0.0198969
2975 4 0.466761 0.0649818 0.00737681
589 2 0.0367037 0.101338 0.0242677
590 4 0.0212228 0.101234 0.00463324
591 4 0.0521845 0.101441 0.0439021
1667 4 0.0792196 0.0852391 0.0764042
3233 4 0.00683565 0.11695 0.00410178
702 4 0.090548 0.101901 0.0818586
422 4 0.139561 0.115983 0.00961911
565 2 0.250238 0.13668 0.0607833
566 4 0.231014 0.143427 0.0462888
359 4 0.243532 0.143077 0.0311924
358 2 0.24509 0.156477 0.0101401
567 4 0.269462 0.129932 0.0752778
557 4 0.357623 0.138303 0.0173932
556 2 0.37408 0.146423 0.034376
558 4 0.390536 0.154543 0.0513587
746 4 0.45024 0.118913 0.0232901
745 2 0.457184 0.0997972 0.00874553
477 4 0.0771509 0.194485 0.0702012
475 2 0.0820974 0.174099 0.0838076
913 2 0.144804 0.202047 0.0132553
914 4 0.166012 0.209158 0.0244277
837 4 0.10367 0.200674 0.000609042
915 4 0.123596 0.194937 0.00208293
572 4 0.331053 0.200783 0.0134542
571 2 0.337961 0.224788 0.0145501
573 4 0.344869 0.248794 0.0156459
771 4 0.478088 0.232573 0.0488015
769 2 0.46195 0.230958 0.0297713
323 4 0.466489 0.2416 0.0646523
770 4 0.445813 0.229343 0.0107411
1054 2 0.00171641 0.323679 0.0106936
1056 4 0.0233374 0.317878 0.999555
292 2 0.129269 0.310397 0.05873
293 4 0.147024 0.305542 0.0418086
294 4 0.111513 0.315252 0.0756514
288 4 0.154613 0.322481 0.0310228
507 4 0.167856 0.30622 0.0360041
505 2 0.177398 0.284122 0.0292346
506 4 0.18694 0.262024 0.022465
482 4 0.24203 0.321996 0.0708336
481 2 0.223073 0.333065 0.0588627
1071 4 0.341973 0.268233 0.0122997
1069 2 0.349991 0.289215 0.00131566
518 4 0.48343 0.251824 0.0560622
322 2 0.448268 0.247043 0.080886
1170 4 0.0384202 0.331692 0.994713
483 4 0.204116 0.344134 0.0468919
287 4 0.194567 0.35255 0.0305743
286 2 0.17459 0.337515 0.0307985
280 2 0.473616 0.372505 0.06037
282 4 0.4729 0.382564 0.0374902
281 4 0.474332 0.362446 0.0832499
315 4 0.0622347 0.422792 0.0704647
552 4 0.0666507 0.421233 0.0514528
1786 2 0.128383 0.499475 0.0617571
550 2 0.0795442 0.440965 0.0431122
551 4 0.0924377 0.460698 0.0347717
1788 4 0.139636 0.483756 0.0776151
625 2 0.227019 0.44485 0.0678572
627 4 0.20413 0.452213 0.0609973
626 4 0.249908 0.437487 0.0747171
245 4 0.32332 0.445241 0.0432146
244 2 0.307749 0.456058 0.0269137
246 4 0.292178 0.466876 0.0106128
608 4 0.266765 0.431557 0.0836633
563 4 0.446299 0.496249 0.0158091
18 3 0.0275049 0.0646321 0.148667
17 3 0.0451952 0.0405527 0.125866
2481 4 0.0109705 0.0687304 0.158841
16 1 0.038917 0.0625162 0.128575
19 3 0.0579533 0.0757809 0.128842
20 3 0.0254174 0.0686457 0.111288
448 2 0.161338 0.0748946 0.115839
450 4 0.171542 0.0534633 0.123698
1476 4 0.212907 0.00644782 0.0946793
654 4 0.332928 0.0408264 0.0885848
295 2 0.416988 0.0429131 0.0843118
297 4 0.394867 0.051208 0.0761241
296 4 0.439109 0.0346182 0.0924995
700 2 0.114474 0.105088 0.0883839
701 4 0.138399 0.108276 0.0949092
236 4 0.139142 0.112051 0.115985
449 4 0.151135 0.0963258 0.107979
235 2 0.143625 0.133241 0.128476
237 4 0.148108 0.154432 0.140968
476 4 0.0870439 0.153713 0.097414
254 4 0.407659 0.168616 0.119547
630 4 0.426446 0.165154 0.115865
339 4 0.0552141 0.226615 0.1525
337 2 0.0789822 0.23172 0.146652
338 4 0.10275 0.236825 0.140804
363 4 0.107513 0.238876 0.160598
738 4 0.218119 0.231747 0.132774
736 2 0.236294 0.245213 0.122119
461 4 0.310029 0.219129 0.129933
354 4 0.308924 0.232316 0.11571
460 2 0.327621 0.201376 0.129191
462 4 0.345212 0.183623 0.12845
255 4 0.357694 0.169485 0.121421
253 2 0.382677 0.16905 0.120484
628 2 0.43532 0.184325 0.12924
629 4 0.444195 0.203495 0.142615
454 2 0.127138 0.333558 0.11261
456 4 0.118377 0.318723 0.0944898
756 4 0.231439 0.314731 0.0886966
754 2 0.245896 0.295071 0.0941437
352 2 0.29158 0.250311 0.114978
737 4 0.254469 0.258679 0.111464
755 4 0.260352 0.275411 0.0995909
353 4 0.274236 0.268306 0.114247
741 4 0.361759 0.295119 0.117542
622 2 0.400297 0.276466 0.114255
624 4 0.377379 0.283972 0.120859
739 2 0.359228 0.319953 0.116102
324 4 0.430047 0.252486 0.0971197
527 4 0.489652 0.258035 0.108072
623 4 0.423214 0.268961 0.107651
526 2 0.484611 0.282521 0.107591
528 4 0.47957 0.307006 0.10711
672 4 0.480408 0.317634 0.123821
619 2 0.0117452 0.362424 0.128459
620 4 0.0231474 0.375376 0.146554
648 4 0.0216557 0.379979 0.165922
314 4 0.0431609 0.424918 0.116642
455 4 0.135898 0.348394 0.13073
537 4 0.128821 0.336102 0.143847
252 4 0.244543 0.331735 0.0902129
607 2 0.276634 0.409616 0.0904733
251 4 0.273731 0.370788 0.101334
250 2 0.259137 0.351261 0.0957736
609 4 0.286504 0.387676 0.0972833
387 4 0.294284 0.367205 0.0952353
385 2 0.316137 0.359712 0.104802
386 4 0.337989 0.35222 0.114368
740 4 0.356698 0.344786 0.114662
495 4 0.388831 0.39041 0.13578
493 2 0.381772 0.40711 0.118561
14 3 0.407561 0.389113 0.131704
13 3 0.407598 0.357672 0.153055
670 2 0.482917 0.338911 0.110929
671 4 0.485425 0.360187 0.0980378
15 3 0.433246 0.362208 0.125865
11 1 0.420869 0.372938 0.141687
595 2 0.471247 0.403796 0.15335
597 4 0.447448 0.400839 0.160423
12 3 0.434984 0.383154 0.156706
596 4 0.495047 0.406753 0.146277
313 2 0.0526978 0.423855 0.0935536
1438 2 0.240029 0.498906 0.104756
637 2 0.24548 0.465019 0.156344
1439 4 0.248716 0.483331 0.122281
639 4 0.245547 0.465602 0.131347
660 4 0.332303 0.42613 0.14847
302 4 0.327108 0.415526 0.162913
658 2 0.336441 0.450789 0.148391
494 4 0.374714 0.42381 0.101343
659 4 0.340578 0.475448 0.148312
525 4 0.342228 0.488805 0.163652
1420 2 0.0268581 0.00316546 0.192361
2479 2 0.00230067 0.0498495 0.172752
2480 4 0.993631 0.0309686 0.186663
1422 4 0.00862124 0.0200311 0.195215
673 2 0.11033 0.0650992 0.224674
675 4 0.118827 0.0450303 0.212418
1403 4 0.120405 0.0318763 0.22682
1402 2 0.119086 0.00796631 0.234014
689 4 0.156412 0.0284717 0.241788
688 2 0.174569 0.04295 0.23252
690 4 0.192726 0.0574284 0.223252
693 4 0.197049 0.0739176 0.234562
23 3 0.332691 0.042532 0.213198
21 1 0.354025 0.039791 0.221903
25 3 0.369556 0.0429613 0.205551
759 4 0.390807 0.047052 0.211607
1784 4 0.383886 0.0261721 0.206796
1783 2 0.392928 0.00699532 0.193541
22 3 0.35599 0.018418 0.230178
24 3 0.357528 0.0548765 0.239182
757 2 0.409988 0.0623298 0.216488
1496 4 0.365954 0.00340685 0.240644
758 4 0.42917 0.0776075 0.221369
744 4 0.438008 0.077959 0.240723
312 4 0.449629 0.0706916 0.224247
512 4 0.00563545 0.11656 0.21761
511 2 0.0185224 0.122856 0.238091
674 4 0.101833 0.0851681 0.236931
722 4 0.13781 0.147103 0.23791
721 2 0.153554 0.136899 0.221382
723 4 0.169298 0.126694 0.204854
691 2 0.190576 0.0954285 0.223582
692 4 0.184103 0.116939 0.212602
582 4 0.235639 0.153736 0.20752
580 2 0.244586 0.138291 0.19001
581 4 0.253532 0.122846 0.1725
285 4 0.256637 0.155245 0.209966
30 3 0.323965 0.121391 0.218737
29 3 0.330316 0.151939 0.239811
27 3 0.333442 0.153577 0.202392
28 3 0.359097 0.134497 0.222151
26 1 0.336643 0.140194 0.220826
708 4 0.339739 0.151016 0.256381
311 4 0.476348 0.110464 0.209931
310 2 0.462988 0.0905777 0.217089
394 2 0.0135386 0.234316 0.235611
395 4 0.0141471 0.213902 0.221185
283 2 0.258447 0.17238 0.228085
344 4 0.259892 0.210214 0.244638
343 2 0.258172 0.233844 0.236649
764 4 0.382288 0.219883 0.231852
763 2 0.388932 0.242322 0.240655
535 2 0.127483 0.332562 0.168562
361 2 0.120086 0.257421 0.171697
372 4 0.137218 0.293262 0.19247
362 4 0.13266 0.275965 0.182797
370 2 0.159111 0.288423 0.203536
536 4 0.126144 0.329022 0.193278
371 4 0.181004 0.283584 0.214601
279 4 0.198071 0.290992 0.206207
277 2 0.218192 0.277913 0.213226
612 4 0.202011 0.310319 0.201742
278 4 0.238313 0.264834 0.220245
610 2 0.218188 0.3289 0.197473
345 4 0.256452 0.257474 0.228659
307 2 0.2705 0.29339 0.235103
309 4 0.254878 0.27813 0.222926
308 4 0.286122 0.308649 0.24728
497 4 0.305882 0.312641 0.244481
765 4 0.395577 0.264762 0.249459
646 2 0.033507 0.40159 0.170129
300 4 0.099335 0.345292 0.216372
298 2 0.121749 0.34565 0.227447
299 4 0.144163 0.346008 0.238523
734 4 0.159048 0.35616 0.248048
417 4 0.175074 0.383874 0.170705
415 2 0.186701 0.399315 0.186566
611 4 0.234365 0.347482 0.193205
303 4 0.32444 0.390293 0.206005
729 4 0.329658 0.389198 0.223835
301 2 0.325774 0.402909 0.184459
727 2 0.335189 0.402586 0.244214
645 4 0.442267 0.387638 0.177691
643 2 0.45119 0.372928 0.195834
644 4 0.460114 0.358218 0.213977
447 4 0.450756 0.366053 0.230014
263 4 0.0574288 0.427586 0.190555
647 4 0.0453582 0.423201 0.174337
262 2 0.0589826 0.449035 0.20331
1757 4 0.0753339 0.48367 0.217681
264 4 0.0605364 0.470484 0.216066
416 4 0.198328 0.414756 0.202427
291 4 0.195169 0.434887 0.205662
290 4 0.241964 0.450592 0.197644
289 2 0.218566 0.442739 0.201653
638 4 0.245414 0.464436 0.18134
767 4 0.258423 0.464018 0.198514
768 4 0.30697 0.475212 0.194198
766 2 0.282697 0.469615 0.196356
1574 4 0.324842 0.485902 0.192663
1573 2 0.335251 0.479979 0.214612
1575 4 0.34566 0.474056 0.236561
1700 4 0.174957 0.0159855 0.265802
1699 2 0.195586 0.0200272 0.279341
248 4 0.221358 0.0447753 0.295894
247 2 0.216342 0.0679546 0.303815
1701 4 0.216214 0.024069 0.29288
605 4 0.225041 0.0301636 0.311203
633 4 0.304466 0.0749174 0.274546
697 2 0.367802 0.0206167 0.32151
349 2 0.408723 0.0694894 0.316968
351 4 0.391044 0.0542191 0.325881
698 4 0.372911 0.0431982 0.330952
480 4 0.494952 0.00514013 0.312636
478 2 0.499823 0.0296211 0.314097
350 4 0.426403 0.0847596 0.308056
742 2 0.438387 0.0799985 0.265641
743 4 0.438767 0.082038 0.290558
2756 4 0.00598494 0.0958171 0.320623
579 4 0.048181 0.13549 0.270507
513 4 0.0314093 0.129152 0.258572
577 2 0.0719368 0.130151 0.276194
530 4 0.0299692 0.13013 0.280179
529 2 0.0199702 0.109869 0.290889
531 4 0.00997125 0.0896075 0.301598
546 4 0.130043 0.154036 0.254285
578 4 0.0956926 0.124813 0.281881
544 2 0.139193 0.149708 0.277148
545 4 0.148343 0.145379 0.300011
405 4 0.162744 0.132717 0.307192
249 4 0.211326 0.0911338 0.311736
403 2 0.180981 0.116284 0.302445
404 4 0.199219 0.0998512 0.297699
631 2 0.308765 0.0867637 0.296142
632 4 0.313064 0.09861 0.317737
706 2 0.342944 0.160748 0.279188
333 4 0.444961 0.0949543 0.306547
331 2 0.439778 0.11926 0.30929
332 4 0.434594 0.143567 0.312033
762 4 0.452009 0.154265 0.314456
284 4 0.260257 0.189516 0.246203
707 4 0.346149 0.17048 0.301996
614 4 0.363197 0.239192 0.335165
760 2 0.448217 0.175438 0.301708
418 2 0.444107 0.225407 0.277747
419 4 0.428468 0.20608 0.280405
761 4 0.444426 0.196611 0.28896
420 4 0.459746 0.244734 0.27509
521 4 0.474421 0.239854 0.290112
366 4 0.00421403 0.327183 0.252582
396 4 0.01293 0.254729 0.250036
750 4 0.0327979 0.257053 0.249323
364 2 0.00207011 0.30993 0.270551
748 2 0.0494817 0.266508 0.265368
442 2 0.0173405 0.293591 0.322217
443 4 0.00466701 0.30604 0.304622
749 4 0.0661655 0.275962 0.281413
510 4 0.279045 0.321003 0.318132
496 2 0.320193 0.311526 0.264954
498 4 0.334505 0.310411 0.285426
543 4 0.468022 0.260438 0.288631
541 2 0.460308 0.28013 0.275293
542 4 0.452594 0.299822 0.261955
676 2 0.163461 0.379733 0.332813
733 2 0.166191 0.358152 0.271926
735 4 0.173335 0.360143 0.295805
677 4 0.176144 0.36939 0.31391
509 4 0.265995 0.35162 0.280808
508 2 0.27252 0.336311 0.29947
436 2 0.272557 0.412458 0.282912
438 4 0.295024 0.402345 0.27865
753 4 0.398278 0.374099 0.320104
728 4 0.34072 0.415975 0.264594
445 2 0.46401 0.373665 0.249802
446 4 0.477264 0.381277 0.26959
713 4 0.481023 0.386218 0.288498
712 2 0.49566 0.40574 0.293958
603 4 0.0904543 0.422718 0.328771
602 4 0.126452 0.440384 0.298891
601 2 0.108453 0.431551 0.313831
414 4 0.137436 0.486427 0.275327
437 4 0.250091 0.42257 0.287174
1437 4 0.270516 0.480127 0.322398
1435 2 0.264942 0.459485 0.309437
1436 4 0.259367 0.438842 0.296476
1802 4 0.353034 0.473677 0.256104
434 4 0.344098 0.425731 0.283648
433 2 0.334805 0.421691 0.306507
435 4 0.325512 0.417651 0.329365
1801 2 0.356125 0.44966 0.262335
1803 4 0.359216 0.425644 0.268567
231 4 0.438665 0.483858 0.283811
318 4 0.0525806 0.0487243 0.349615
234 4 0.0384648 0.0337316 0.352276
232 2 0.0135236 0.0324468 0.353486
316 2 0.0685402 0.0349205 0.363029
428 4 0.0942738 0.00478293 0.380245
317 4 0.0844998 0.0211166 0.376442
604 2 0.234304 0.0213 0.332669
606 4 0.243567 0.0124364 0.354136
441 4 0.251559 0.0279139 0.36638
439 2 0.261587 0.0152495 0.385465
683 4 0.328677 0.0710292 0.395189
682 2 0.309155 0.0770809 0.409592
257 4 0.382412 0.0562001 0.345181
256 2 0.383476 0.0495387 0.369258
258 4 0.384539 0.0428774 0.393334
425 4 0.381878 0.0399703 0.413433
452 4 0.457718 0.0757058 0.40216
398 4 0.0282062 0.124462 0.358106
397 2 0.0512466 0.115388 0.354644
399 4 0.074287 0.106314 0.351182
392 4 0.0542255 0.151293 0.338617
2653 2 0.0174813 0.159663 0.350328
391 2 0.0728454 0.163996 0.349438
732 4 0.0898611 0.103891 0.3622
731 4 0.129708 0.127127 0.381515
730 2 0.109784 0.115509 0.371857
686 4 0.142138 0.143496 0.3873
599 4 0.123276 0.146882 0.376466
685 2 0.159702 0.132245 0.401088
687 4 0.177265 0.120994 0.414876
467 4 0.347669 0.14758 0.410926
451 2 0.443396 0.0941431 0.411113
2654 4 0.0389228 0.16268 0.337824
393 4 0.0914653 0.176699 0.36026
598 2 0.126953 0.169787 0.367139
600 4 0.130631 0.192693 0.357812
260 4 0.0942129 0.212323 0.395525
259 2 0.0967856 0.216128 0.420102
275 4 0.174074 0.22792 0.362325
474 4 0.218344 0.193819 0.370866
276 4 0.219702 0.213173 0.376517
472 2 0.23769 0.185618 0.357313
274 2 0.196888 0.220546 0.369421
466 2 0.333269 0.167967 0.409448
473 4 0.257036 0.177418 0.343761
468 4 0.318869 0.188354 0.40797
269 4 0.477287 0.241213 0.399887
444 4 0.0300141 0.281142 0.339811
616 2 0.084161 0.2814 0.382084
618 4 0.0761181 0.281508 0.405759
617 4 0.0922038 0.281292 0.35841
389 4 0.145377 0.283593 0.336334
401 4 0.153953 0.268223 0.346429
388 2 0.122466 0.290515 0.343569
390 4 0.099555 0.297436 0.350804
400 2 0.173124 0.272204 0.361979
375 4 0.191822 0.279533 0.397698
402 4 0.192295 0.276186 0.377529
378 4 0.271158 0.282673 0.349132
489 4 0.312237 0.261763 0.388656
376 2 0.286861 0.280679 0.368488
377 4 0.302564 0.278685 0.387843
613 2 0.381603 0.251731 0.346531
615 4 0.400008 0.264271 0.357897
716 4 0.402206 0.266502 0.378593
487 2 0.333817 0.265973 0.400563
488 4 0.355397 0.270184 0.412469
715 2 0.388238 0.272294 0.398507
270 4 0.476341 0.289712 0.387732
2923 2 0.456998 0.317982 0.40848
268 2 0.476814 0.265462 0.39381
2924 4 0.469874 0.309493 0.388799
406 2 0.0525267 0.393126 0.339256
408 4 0.0622837 0.37082 0.333563
407 4 0.0427697 0.415432 0.344948
678 4 0.150778 0.390077 0.351716
751 2 0.410192 0.373707 0.342083
752 4 0.422106 0.373315 0.364063
559 2 0.407869 0.406313 0.384169
561 4 0.406922 0.387836 0.36735
548 4 0.0427982 0.436119 0.346854
547 2 0.0649346 0.44773 0.346258
777 4 0.0801427 0.476265 0.351397
549 4 0.0870711 0.45934 0.345662
775 2 0.0941941 0.493647 0.340191
773 4 0.226584 0.425495 0.409147
3 3 0.319713 0.481693 0.367347
560 4 0.408816 0.42479 0.400988
4 3 0.336524 0.448434 0.359892
2 3 0.350801 0.480419 0.346262
5 3 0.352995 0.473329 0.382839
1 1 0.340045 0.470949 0.364257
593 4 0.460105 0.499785 0.370349
1780 2 0.152476 0.0109732 0.438312
1781 4 0.149544 0.0357507 0.436683
368 4 0.0943215 0.0592029 0.442133
367 2 0.105653 0.0800702 0.449965
1180 2 0.283998 0.0660076 0.459146
1181 4 0.290664 0.0497847 0.476967
963 4 0.286424 0.033591 0.49022
432 4 0.304472 0.0454083 0.49262
430 2 0.328631 0.0513047 0.49522
684 4 0.289633 0.0831325 0.423995
424 2 0.375236 0.0169674 0.420639
841 2 0.387274 0.0477564 0.494282
843 4 0.366978 0.0576324 0.483524
1217 4 0.41522 0.020925 0.496353
457 2 0.0167861 0.155134 0.470034
719 4 0.0571866 0.141527 0.469451
459 4 0.0417474 0.153711 0.470328
718 2 0.0604918 0.117692 0.476247
720 4 0.0637971 0.0938581 0.483042
369 4 0.116984 0.100938 0.457796
939 4 0.114174 0.120425 0.462246
937 2 0.124745 0.141142 0.471422
938 4 0.135316 0.16186 0.480598
340 2 0.170309 0.0870605 0.493505
342 4 0.18312 0.103776 0.480028
1151 4 0.191788 0.109364 0.420294
1150 2 0.195579 0.105038 0.444626
1152 4 0.19937 0.100711 0.468959
1182 4 0.277332 0.0822306 0.441326
321 4 0.297431 0.143721 0.455966
320 4 0.282627 0.102149 0.432442
319 2 0.290029 0.122935 0.444204
899 4 0.305061 0.157556 0.469302
898 2 0.313162 0.150904 0.492002
516 4 0.395084 0.148316 0.433482
514 2 0.407211 0.126508 0.435071
575 4 0.402133 0.165377 0.442046
453 4 0.429075 0.11258 0.420065
515 4 0.419338 0.1047 0.436659
1034 4 0.130827 0.181564 0.480908
261 4 0.0993583 0.219934 0.44468
1035 4 0.105796 0.221826 0.465
1033 2 0.118312 0.201695 0.472954
695 4 0.0850758 0.226999 0.459075
694 2 0.0798878 0.245667 0.47488
410 4 0.310498 0.20453 0.418202
411 4 0.268977 0.194244 0.444103
409 2 0.289738 0.199387 0.431153
266 4 0.37941 0.231881 0.465333
813 4 0.379619 0.238919 0.484405
265 2 0.37119 0.248554 0.448611
2657 4 0.497675 0.175178 0.475096
306 4 0.473321 0.234768 0.419367
304 2 0.463457 0.221656 0.438234
305 4 0.453592 0.208545 0.457101
574 2 0.420624 0.182107 0.443878
576 4 0.439116 0.198837 0.445711
872 4 0.450125 0.247729 0.483077
696 4 0.0746998 0.264335 0.490684
347 4 0.090503 0.29622 0.409503
346 2 0.102715 0.306312 0.428847
348 4 0.114927 0.316404 0.448191
10 3 0.122893 0.306 0.462932
9 3 0.132923 0.309441 0.49906
6 1 0.119191 0.317552 0.482206
7 3 0.0972452 0.314864 0.488555
373 2 0.182012 0.292535 0.416669
374 4 0.172202 0.305537 0.435639
717 4 0.37427 0.278085 0.41842
267 4 0.36297 0.265226 0.431888
2456 4 0.493486 0.294657 0.477234
584 4 0.48466 0.300107 0.458648
585 4 0.458769 0.258424 0.468284
583 2 0.471715 0.279265 0.463466
2925 4 0.444123 0.32647 0.428161
2814 4 0.998732 0.353609 0.44176
2812 2 0.0223604 0.358527 0.435228
2813 4 0.0459891 0.363446 0.428696
8 3 0.123306 0.340135 0.478816
504 4 0.232887 0.399092 0.487885
502 2 0.251425 0.391585 0.47288
651 4 0.30853 0.366043 0.429739
503 4 0.269962 0.384078 0.457874
650 4 0.283237 0.399198 0.457339
649 2 0.295884 0.382621 0.443539
334 2 0.373869 0.382226 0.457776
238 2 0.411184 0.342956 0.448118
240 4 0.396853 0.359932 0.459589
335 4 0.377667 0.357548 0.456461
336 4 0.37007 0.406905 0.459091
587 4 0.454676 0.418593 0.45424
239 4 0.425515 0.325979 0.436646
680 4 0.0267221 0.439435 0.422542
383 4 0.0717153 0.441464 0.462948
681 4 0.0537767 0.431266 0.463797
679 2 0.0402494 0.435351 0.443169
384 4 0.116687 0.463245 0.464905
569 4 0.132724 0.470174 0.455363
382 2 0.0942014 0.452355 0.463927
568 2 0.13829 0.493361 0.447841
1395 4 0.216013 0.492883 0.490326
635 4 0.18725 0.454481 0.454166
634 2 0.192111 0.47111 0.472195
774 4 0.204439 0.444295 0.449852
772 2 0.215512 0.434895 0.4295
636 4 0.196971 0.487739 0.490224
1455 4 0.319124 0.44024 0.49143
667 2 0.38465 0.432003 0.433826
669 4 0.367343 0.425618 0.450705
668 4 0.401957 0.438388 0.416948
661 2 0.437699 0.447697 0.484607
663 4 0.443346 0.42917 0.468794
586 2 0.436492 0.421066 0.437258
588 4 0.418307 0.42354 0.420276
2506 2 0.486587 0.418964 0.474975
2507 4 0.464769 0.429939 0.469613
2428 2 0.137467 0.0341124 0.505768
2430 4 0.156966 0.0497558 0.505266
2429 4 0.117968 0.018469 0.50627
341 4 0.157497 0.0703446 0.506981
961 2 0.274536 0.034759 0.512185
962 4 0.262648 0.0359269 0.534151
431 4 0.35279 0.0572011 0.497821
842 4 0.407569 0.0378805 0.50504
1062 4 0.491321 0.00476349 0.533205
1060 2 0.477678 0.0157933 0.551021
1061 4 0.464035 0.0268231 0.568836
810 4 0.453486 0.0702441 0.547362
808 2 0.467643 0.0829943 0.563555
1032 4 0.259999 0.103482 0.565892
900 4 0.321262 0.144253 0.514703
1030 2 0.248778 0.0836475 0.576181
640 2 0.487308 0.127699 0.517136
641 4 0.468433 0.144097 0.517017
809 4 0.481799 0.0957445 0.579748
469 2 0.0245165 0.198348 0.53262
470 4 0.0383721 0.187984 0.550669
1199 4 0.00262626 0.205702 0.551486
471 4 0.0106608 0.208712 0.51457
877 2 0.119214 0.223795 0.555192
879 4 0.136431 0.222681 0.573289
878 4 0.101997 0.224908 0.537095
1272 4 0.153167 0.231017 0.579779
856 2 0.185784 0.238475 0.509807
857 4 0.170249 0.220072 0.503087
811 2 0.368504 0.244911 0.505986
812 4 0.357389 0.250903 0.527567
873 4 0.42274 0.241392 0.524437
871 2 0.436432 0.24456 0.503757
982 2 0.0532762 0.312713 0.553876
983 4 0.029745 0.309354 0.546118
325 2 0.0837944 0.270829 0.530571
327 4 0.0755746 0.276354 0.507613
984 4 0.0768074 0.316072 0.561634
326 4 0.0920142 0.265303 0.553529
1258 2 0.159373 0.303974 0.531554
1259 4 0.14743 0.314531 0.51229
1136 4 0.0893923 0.300188 0.564539
1260 4 0.171317 0.293417 0.550817
858 4 0.201319 0.256878 0.516527
802 2 0.241914 0.324492 0.560974
804 4 0.259879 0.314493 0.575203
792 4 0.321185 0.268172 0.58323
1239 4 0.276201 0.304379 0.580694
790 2 0.331639 0.261576 0.561496
791 4 0.342093 0.25498 0.539762
953 4 0.436414 0.252669 0.534291
952 2 0.435498 0.257233 0.558858
954 4 0.434582 0.261797 0.583424
935 4 0.0286849 0.395476 0.569844
934 2 0.0185558 0.387189 0.548539
936 4 0.00842671 0.378901 0.527234
1191 4 0.183152 0.367824 0.572906
803 4 0.223949 0.334491 0.546745
1190 4 0.215594 0.351846 0.538366
1189 2 0.199373 0.359835 0.555636
710 4 0.227729 0.402938 0.506404
709 2 0.205557 0.414497 0.506324
882 4 0.376474 0.385443 0.571855
880 2 0.365188 0.403622 0.55892
930 4 0.392252 0.374653 0.565263
928 2 0.40259 0.355957 0.578253
925 2 0.44991 0.387904 0.541678
926 4 0.437074 0.367785 0.534221
927 4 0.462746 0.408024 0.549134
539 4 0.0627754 0.460665 0.531493
538 2 0.0397606 0.469324 0.526962
540 4 0.0167459 0.477982 0.522431
3432 4 0.0116857 0.444139 0.587485
3430 2 0.00401042 0.464873 0.575808
1159 2 0.138 0.456957 0.549591
1160 4 0.123177 0.442387 0.563491
1161 4 0.152822 0.471526 0.535692
711 4 0.183386 0.426056 0.506244
881 4 0.353901 0.421801 0.545985
1454 4 0.351776 0.429975 0.527888
1453 2 0.33545 0.435107 0.509659
662 4 0.432052 0.466223 0.50042
1910 4 0.435125 0.478255 0.516878
1909 2 0.457748 0.488685 0.519021
1001 4 0.455912 0.421564 0.562451
1911 4 0.480371 0.499114 0.521164
3182 4 0.496309 0.450297 0.577107
943 2 0.0739866 0.0807925 0.660291
945 4 0.0962273 0.0727822 0.652144
1282 2 0.203031 0.0620243 0.602774
1283 4 0.226629 0.0547481 0.598857
1284 4 0.179432 0.0693004 0.60669
2133 4 0.214425 0.00639876 0.626903
824 4 0.195954 0.00672325 0.63199
823 2 0.187261 0.0052938 0.65539
1031 4 0.237558 0.063813 0.58647
951 4 0.26036 0.0187523 0.58612
2281 2 0.381022 0.037473 0.652189
2282 4 0.363984 0.0287028 0.636127
2283 4 0.398061 0.0462431 0.66825
1092 4 0.376059 0.028029 0.619502
1090 2 0.376792 0.0090004 0.603299
1083 4 0.00670912 0.118861 0.645088
1081 2 0.0204644 0.106823 0.662148
3179 4 0.998498 0.136453 0.645366
1059 4 0.169972 0.0815905 0.595761
1058 4 0.160064 0.119531 0.626794
1057 2 0.165018 0.100561 0.611277
909 4 0.159408 0.124978 0.647643
1155 4 0.158771 0.140412 0.632414
1153 2 0.168785 0.161312 0.623028
888 4 0.286209 0.151116 0.638542
886 2 0.308323 0.153726 0.649915
1211 4 0.266567 0.151695 0.633685
887 4 0.330437 0.156336 0.661288
1194 4 0.347998 0.145805 0.654121
1192 2 0.365479 0.163665 0.653338
3008 4 0.486011 0.0881909 0.599194
1270 2 0.162605 0.216672 0.597954
948 4 0.164723 0.225693 0.639654
1208 4 0.119827 0.252294 0.650326
946 2 0.156159 0.241422 0.657103
1271 4 0.172043 0.202326 0.616128
1154 4 0.1788 0.182211 0.613642
1221 4 0.191567 0.197914 0.607104
1219 2 0.216299 0.201331 0.608451
1220 4 0.241032 0.204747 0.609797
1212 4 0.256931 0.199631 0.623195
798 4 0.247795 0.219538 0.623449
796 2 0.255055 0.232754 0.643395
1210 2 0.261749 0.175663 0.62844
797 4 0.262316 0.245969 0.66334
1193 4 0.38296 0.181524 0.652555
904 2 0.441951 0.239827 0.61328
906 4 0.441873 0.217278 0.624083
1024 2 0.442898 0.18282 0.654231
1025 4 0.44193 0.20196 0.638171
1145 4 0.493984 0.212086 0.66256
1243 2 0.0425849 0.266031 0.656041
1244 4 0.0225448 0.267311 0.641144
1135 2 0.103407 0.298863 0.585203
1137 4 0.117421 0.297538 0.605868
1207 2 0.0992737 0.252693 0.664559
1238 4 0.305288 0.266511 0.595545
1237 2 0.290744 0.285445 0.588119
905 4 0.442029 0.262376 0.602476
3123 4 0.482619 0.294009 0.659091
3264 4 0.0187277 0.394257 0.589207
1041 4 0.0400015 0.400051 0.58743
3262 2 0.00299047 0.380813 0.603234
895 2 0.148702 0.384445 0.588112
992 4 0.128434 0.402566 0.610786
897 4 0.128234 0.398541 0.590857
896 4 0.16917 0.370348 0.585366
1139 4 0.243418 0.405099 0.661173
929 4 0.412928 0.33726 0.591243
1206 4 0.440052 0.411026 0.620093
1039 2 0.0554839 0.41816 0.595015
1040 4 0.0709664 0.436269 0.602601
2172 4 0.0642917 0.500987 0.644993
993 4 0.088342 0.432418 0.61228
991 2 0.108388 0.417492 0.611533
1173 4 0.27454 0.490578 0.591113
1172 4 0.290767 0.447677 0.611037
1171 2 0.282653 0.469128 0.601075
891 4 0.306849 0.450201 0.623236
889 2 0.322897 0.459429 0.640044
890 4 0.338945 0.468658 0.656851
1204 2 0.439972 0.419164 0.643735
1002 4 0.43347 0.425114 0.606999
1000 2 0.444691 0.423339 0.584725
3183 4 0.467782 0.481282 0.604067
3181 2 0.482045 0.465789 0.590587
1268 4 0.478703 0.485312 0.670047
3440 4 0.496633 0.438746 0.593583
1183 2 0.0387316 0.0551659 0.693132
1184 4 0.0316817 0.0322081 0.700091
4338 4 0.0242298 0.0147635 0.694012
4336 2 0.00473611 0.00939395 0.708721
1185 4 0.0457814 0.0781236 0.686174
2049 4 0.109148 0.0090692 0.735361
2254 2 0.174897 0.00291797 0.712154
2256 4 0.182256 0.0125656 0.734016
2398 2 0.299543 0.0068472 0.733597
2400 4 0.290183 0.00672953 0.710411
42 3 0.433898 0.0705987 0.733524
944 4 0.0517459 0.0888028 0.668437
1082 4 0.0342198 0.0947839 0.679208
1076 4 0.0544774 0.0976006 0.687736
864 4 0.0265218 0.11755 0.738388
1075 2 0.0496851 0.107879 0.71002
1077 4 0.0448928 0.118158 0.732303
907 2 0.174702 0.123847 0.667392
1226 4 0.222939 0.101316 0.730784
908 4 0.189995 0.122717 0.687141
1148 4 0.225585 0.103459 0.749812
1225 2 0.215647 0.108955 0.70812
1227 4 0.208355 0.116594 0.685456
1129 2 0.232737 0.158528 0.750584
1130 4 0.255954 0.152878 0.74322
1005 4 0.294263 0.0981358 0.701298
1003 2 0.296893 0.106855 0.724584
1004 4 0.299524 0.115575 0.74787
1086 4 0.333703 0.165295 0.735561
45 3 0.407938 0.0970555 0.737883
831 4 0.344469 0.105541 0.703481
830 4 0.343615 0.146617 0.674972
829 2 0.344042 0.126079 0.689227
1084 2 0.354639 0.154214 0.743567
1026 4 0.443867 0.16368 0.67029
41 1 0.43034 0.0930674 0.736936
44 3 0.439753 0.10491 0.719342
1142 4 0.431931 0.103393 0.700788
1141 2 0.434891 0.127162 0.693615
1143 4 0.437851 0.150931 0.686442
850 2 0.0573163 0.227401 0.691801
851 4 0.05541 0.202831 0.696027
1107 4 0.0649155 0.190688 0.707037
1105 2 0.0783574 0.1876 0.727893
1178 4 0.00960603 0.202094 0.718695
1106 4 0.0917993 0.184513 0.748749
978 4 0.256615 0.244442 0.704984
976 2 0.270097 0.233787 0.723147
977 4 0.283579 0.223133 0.74131
1299 4 0.318395 0.178014 0.733479
1298 4 0.304599 0.225754 0.739069
1297 2 0.311497 0.201884 0.736274
1262 4 0.406187 0.187629 0.725767
1146 4 0.49513 0.182903 0.703153
1263 4 0.430945 0.171204 0.685543
1261 2 0.418566 0.179416 0.705655
1144 2 0.494557 0.197495 0.682856
3270 4 0.50075 0.177549 0.723174
852 4 0.0592225 0.251971 0.687575
1209 4 0.0787201 0.253093 0.678791
1245 4 0.062625 0.264751 0.670939
821 4 0.148217 0.304331 0.726238
820 2 0.148544 0.289529 0.70609
822 4 0.148871 0.274726 0.685941
947 4 0.147594 0.25715 0.674551
1242 4 0.137288 0.310417 0.742034
1065 4 0.284827 0.311031 0.701483
1063 2 0.276009 0.332526 0.710723
3121 2 0.496041 0.276025 0.670119
892 2 0.0434893 0.408367 0.736326
893 4 0.0614336 0.391616 0.741077
942 4 0.0813628 0.383208 0.739983
815 4 0.065292 0.374397 0.729275
814 2 0.0601483 0.357706 0.747167
940 2 0.103416 0.393201 0.733741
941 4 0.12547 0.403195 0.727499
1067 4 0.12896 0.385057 0.719232
1066 2 0.149431 0.382519 0.705101
1068 4 0.169902 0.379981 0.690971
1028 4 0.183958 0.384037 0.676881
1027 2 0.205472 0.396622 0.674897
1236 4 0.211678 0.351667 0.733342
1029 4 0.226986 0.409208 0.672912
1234 2 0.213531 0.371104 0.74896
1064 4 0.267191 0.354021 0.719964
806 4 0.278462 0.369992 0.727314
805 2 0.291592 0.375384 0.747898
1138 2 0.265985 0.400728 0.671014
1140 4 0.288551 0.396357 0.680854
885 4 0.0390751 0.498442 0.735484
894 4 0.025545 0.425118 0.731575
3276 4 0.00446244 0.429168 0.730655
1983 4 0.0176542 0.438399 0.716246
1981 2 0.0279454 0.461129 0.717856
1280 4 0.0134996 0.416837 0.715601
1279 2 4.8618e-05 0.415642 0.694558
1982 4 0.0382367 0.48386 0.719466
1176 4 0.200079 0.495423 0.707202
1174 2 0.218058 0.492867 0.690014
1175 4 0.236037 0.490311 0.672827
1987 2 0.330927 0.49096 0.692771
1088 4 0.301448 0.497008 0.718046
1229 4 0.35299 0.492043 0.748916
1989 4 0.34811 0.475532 0.683185
1249 2 0.495914 0.448277 0.740521
1205 4 0.439893 0.427301 0.667377
1100 4 0.451133 0.455128 0.702096
1099 2 0.438811 0.453564 0.723796
1267 2 0.465696 0.465254 0.677374
1269 4 0.45269 0.445195 0.684701
1101 4 0.426489 0.452 0.745497
1203 4 0.0942271 0.0296229 0.800348
1201 2 0.0986938 0.0191782 0.778074
1202 4 0.103161 0.00873358 0.7558
911 4 0.095294 0.0509728 0.800419
1196 4 0.104609 0.0400797 0.816184
910 2 0.105664 0.0736622 0.802106
2399 4 0.308902 0.00696487 0.756782
1048 2 0.30648 0.0359903 0.790513
1050 4 0.308278 0.0514244 0.810102
1257 4 0.326818 0.058944 0.806844
1049 4 0.304683 0.0205561 0.770923
1112 4 0.403818 0.997698 0.800366
1255 2 0.337795 0.0813206 0.808838
846 4 0.478547 0.0526904 0.752347
1111 2 0.427624 0.00502659 0.798181
1113 4 0.451429 0.0123551 0.795996
844 2 0.467407 0.0427761 0.772416
845 4 0.456267 0.0328618 0.792486
980 4 0.468471 0.0208003 0.80553
979 2 0.482769 0.00739384 0.821054
862 2 0.00582168 0.118983 0.752339
1214 4 0.0267415 0.158205 0.775914
33 3 0.0972042 0.13005 0.778391
31 1 0.110712 0.131545 0.797198
35 3 0.121636 0.151527 0.79735
32 3 0.126131 0.114484 0.796655
912 4 0.116033 0.0963515 0.803792
1287 4 0.131831 0.106408 0.816347
34 3 0.0978391 0.129414 0.816386
1147 2 0.247614 0.104503 0.761595
1149 4 0.269642 0.105546 0.773377
958 2 0.310641 0.158083 0.814848
960 4 0.325729 0.143521 0.801228