ITEM: TIMESTEP
590000
ITEM: NUMBER OF ATOMS
4590
ITEM: BOX BOUNDS pp pp pp
-9.9985700000000008e+00 9.9985700000000008e+00
-9.9985700000000008e+00 9.9985700000000008e+00
-9.9985700000000008e+00 9.9985700000000008e+00
ITEM: ATOMS id type xs ys zs
463 2 0.0348577 0.0295488 0.0438834
465 4 0.0306703 0.0270976 0.0684117
464 4 0.0390451 0.032 0.0193552
1668 4 0.0714132 0.00597045 0.0465056
3291 4 0.0489705 0.0191537 0.00715775
1666 2 0.090091 0.0225063 0.0482027
1667 4 0.108769 0.0390422 0.0498997
700 2 0.0946708 0.0682217 0.0776555
702 4 0.100297 0.054711 0.0573826
534 4 0.18642 0.0412492 0.0184455
490 2 0.308048 0.059206 0.0142966
492 4 0.329295 0.0710674 0.0200458
985 2 0.409707 0.0586745 0.0076542
986 4 0.402949 0.0824047 0.00360677
747 4 0.476213 0.0748591 0.0263975
2975 4 0.480483 0.0559062 0.0221274
2974 2 0.503695 0.0466577 0.0230416
701 4 0.0890446 0.0817323 0.0979283
589 2 0.0472767 0.119469 0.0489755
590 4 0.0269545 0.114813 0.0351729
3233 4 0.0359324 0.120468 0.0168584
591 4 0.067599 0.124124 0.062778
566 4 0.24241 0.168254 0.0696583
358 2 0.252335 0.149776 0.00267608
359 4 0.273927 0.145047 0.0143645
557 4 0.364525 0.116352 0.0308337
556 2 0.377625 0.133309 0.0437191
558 4 0.390725 0.150266 0.0566044
745 2 0.45984 0.0930823 0.0313994
746 4 0.443467 0.111305 0.0364014
555 4 0.0327777 0.176996 0.996714
914 4 0.166759 0.20303 0.0109773
355 2 0.228558 0.256301 0.00898243
666 4 0.320579 0.201703 0.0219303
572 4 0.309804 0.215448 0.0303742
664 2 0.326328 0.193763 0.998928
571 2 0.326803 0.227695 0.0440209
1071 4 0.368074 0.246047 0.026364
573 4 0.343801 0.239942 0.0576677
771 4 0.466891 0.215389 0.0599358
770 4 0.467699 0.178425 0.0262649
769 2 0.467295 0.196907 0.0431003
323 4 0.454629 0.232475 0.0653342
518 4 0.474994 0.231243 0.0717992
322 2 0.437387 0.242464 0.0804372
292 2 0.133452 0.317354 0.0452929
293 4 0.15523 0.30987 0.0355517
294 4 0.111674 0.324837 0.0550341
357 4 0.23181 0.272732 0.0275468
507 4 0.163439 0.292377 0.0303906
505 2 0.184542 0.28937 0.0434604
506 4 0.205644 0.286362 0.0565302
483 4 0.210541 0.320778 0.0473736
481 2 0.231196 0.326493 0.0602529
482 4 0.251852 0.332209 0.0731322
756 4 0.268542 0.324922 0.0854444
1069 2 0.370593 0.268683 0.0366809
1070 4 0.373112 0.291319 0.0469977
671 4 0.465173 0.330097 0.0858888
456 4 0.134592 0.400963 0.0628622
288 4 0.18775 0.383933 0.0381243
287 4 0.197103 0.335473 0.0461824
286 2 0.192426 0.359703 0.0421534
252 4 0.256437 0.34237 0.0913471
250 2 0.264429 0.36426 0.0822839
251 4 0.272422 0.38615 0.0732206
957 4 0.374938 0.333961 0.988879
281 4 0.462051 0.349458 0.0875342
280 2 0.449312 0.358268 0.0679058
282 4 0.436573 0.367079 0.0482775
1787 4 0.0948732 0.5066 0.0801765
550 2 0.0716216 0.427988 0.0609958
551 4 0.0881343 0.422208 0.0431325
242 4 0.12968 0.500896 0.0751589
245 4 0.241775 0.476474 0.0392485
607 2 0.286341 0.415584 0.0769463
244 2 0.257819 0.484184 0.0216894
246 4 0.273863 0.491894 0.00413024
608 4 0.303521 0.430195 0.0661515
16 1 0.00554846 0.075054 0.154291
19 3 0.0271585 0.0711764 0.161799
1475 4 0.171964 0.0078656 0.0765497
1505 4 0.197298 0.0231262 0.148689
450 4 0.167032 0.0706549 0.137146
652 2 0.314712 0.0309501 0.0917192
654 4 0.295149 0.0159992 0.0873692
653 4 0.334276 0.045901 0.0960693
296 4 0.386664 0.0376033 0.078272
295 2 0.39205 0.054779 0.0956261
297 4 0.397436 0.0719546 0.11298
2723 4 0.488749 0.039092 0.152439
1759 2 0.494922 0.00225076 0.151467
1760 4 0.494998 0.0235904 0.164498
20 3 0.00406877 0.0959338 0.145319
379 2 0.000825862 0.158591 0.159479
477 4 0.110138 0.165092 0.114228
448 2 0.178139 0.0913448 0.128559
565 2 0.23777 0.146142 0.0803694
567 4 0.233131 0.124031 0.0910805
449 4 0.189246 0.112035 0.119971
235 2 0.197614 0.141253 0.143745
236 4 0.1888 0.118228 0.139584
237 4 0.206427 0.164279 0.147906
285 4 0.269352 0.147444 0.171974
311 4 0.461751 0.10609 0.14918
2624 4 0.00758558 0.166717 0.116194
476 4 0.154816 0.181232 0.098605
475 2 0.132477 0.173162 0.106417
339 4 0.104025 0.217552 0.128936
337 2 0.0947244 0.23764 0.140562
461 4 0.295164 0.204684 0.0972992
354 4 0.289542 0.220205 0.109973
352 2 0.275518 0.240905 0.110219
460 2 0.316479 0.192703 0.102524
462 4 0.337794 0.180721 0.107749
255 4 0.351023 0.180219 0.0931909
254 4 0.392559 0.20548 0.104909
253 2 0.371791 0.19285 0.0990499
630 4 0.398156 0.206706 0.124279
517 2 0.495421 0.236442 0.0852477
628 2 0.412818 0.201695 0.143902
629 4 0.427481 0.196684 0.163526
324 4 0.420144 0.252453 0.0955402
338 4 0.0854234 0.257727 0.152189
738 4 0.192809 0.264313 0.121128
736 2 0.217145 0.263006 0.11554
737 4 0.241481 0.261699 0.109951
612 4 0.225326 0.334756 0.157221
353 4 0.261495 0.261604 0.110466
754 2 0.269139 0.301096 0.0930046
755 4 0.269735 0.277271 0.100565
741 4 0.374409 0.309358 0.106681
622 2 0.395532 0.283172 0.0869366
624 4 0.385606 0.306015 0.0891411
623 4 0.405459 0.26033 0.0847322
526 2 0.497566 0.280993 0.138542
528 4 0.483844 0.275157 0.118472
672 4 0.453143 0.295769 0.120205
670 2 0.459158 0.312933 0.103047
619 2 0.0173984 0.361333 0.140958
620 4 0.0374268 0.372741 0.150648
454 2 0.142671 0.385944 0.0811478
455 4 0.15075 0.370926 0.0994333
417 4 0.166477 0.371278 0.140899
415 2 0.183929 0.38642 0.150457
416 4 0.20138 0.401561 0.160015
610 2 0.239116 0.354752 0.163153
609 4 0.26916 0.400973 0.0877411
387 4 0.323823 0.394835 0.1161
611 4 0.252906 0.374748 0.169086
739 2 0.369884 0.333922 0.105536
385 2 0.346756 0.386326 0.11092
740 4 0.365359 0.358486 0.104391
386 4 0.36969 0.377818 0.10574
14 3 0.416157 0.38575 0.145747
495 4 0.405255 0.396798 0.132264
13 3 0.406184 0.349121 0.147549
15 3 0.430448 0.36094 0.121296
11 1 0.423405 0.363913 0.142748
12 3 0.440914 0.359851 0.157103
595 2 0.483975 0.37061 0.15531
597 4 0.460472 0.367383 0.163208
552 4 0.0551089 0.433769 0.0788591
315 4 0.0368752 0.42733 0.0845689
313 2 0.0208184 0.43508 0.102099
1467 4 0.000511834 0.502138 0.116143
314 4 0.00476153 0.44283 0.119628
627 4 0.162548 0.44466 0.0840358
626 4 0.205699 0.424302 0.0990115
625 2 0.184123 0.434481 0.0915236
637 2 0.243758 0.473861 0.14605
639 4 0.240708 0.491309 0.128403
493 2 0.400348 0.421245 0.134115
525 4 0.360551 0.472477 0.134926
523 2 0.357842 0.496386 0.128127
659 4 0.35096 0.46213 0.149227
494 4 0.395441 0.445692 0.135967
673 2 0.101355 0.0602553 0.216077
675 4 0.0985673 0.0406178 0.200853
1403 4 0.0933545 0.0234422 0.210087
1402 2 0.0894623 0.00852996 0.229776
674 4 0.104143 0.0798927 0.231301
690 4 0.205891 0.0389476 0.229022
688 2 0.193671 0.046979 0.249304
693 4 0.240713 0.088801 0.170983
1785 4 0.408 0.00300245 0.182494
21 1 0.36525 0.0659549 0.235811
25 3 0.382381 0.056592 0.224083
759 4 0.388277 0.059676 0.202973
1784 4 0.392268 0.04033 0.211817
1783 2 0.400134 0.0216662 0.197155
757 2 0.402865 0.0787297 0.195949
23 3 0.345433 0.0548371 0.231113
744 4 0.459707 0.0779462 0.230501
381 4 0.00347456 0.156177 0.184225
511 2 0.0158453 0.140953 0.221564
512 4 0.0113011 0.156445 0.202471
513 4 0.0203896 0.125461 0.240657
578 4 0.0851569 0.13155 0.255252
722 4 0.155756 0.142508 0.218919
546 4 0.162539 0.150832 0.236146
692 4 0.194089 0.100727 0.184571
723 4 0.175945 0.108131 0.188731
691 2 0.217401 0.094764 0.177777
721 2 0.165851 0.12532 0.203825
582 4 0.271616 0.129548 0.180549
580 2 0.277132 0.116902 0.201402
581 4 0.282647 0.104257 0.222255
26 1 0.334746 0.153993 0.235718
28 3 0.321056 0.153844 0.216985
29 3 0.329174 0.136367 0.249742
27 3 0.3566 0.151511 0.228979
24 3 0.363233 0.0884071 0.230312
743 4 0.48317 0.114683 0.255009
310 2 0.445603 0.109562 0.167952
758 4 0.417452 0.0977834 0.188924
312 4 0.429456 0.113034 0.186724
742 2 0.471439 0.0963147 0.242755
394 2 0.0204304 0.250051 0.235262
344 4 0.242638 0.243951 0.243233
284 4 0.276529 0.196895 0.173933
283 2 0.272941 0.172169 0.172953
30 3 0.332517 0.173755 0.246815
764 4 0.369257 0.253775 0.19676
763 2 0.390197 0.244147 0.187064
765 4 0.411137 0.23452 0.177368
396 4 0.0445948 0.256203 0.233414
363 4 0.0807442 0.252055 0.171306
750 4 0.0646104 0.258317 0.233984
537 4 0.143642 0.330021 0.160895
362 4 0.0993164 0.259 0.217215
361 2 0.0900303 0.255528 0.194261
372 4 0.11852 0.260637 0.214161
370 2 0.143259 0.260798 0.210536
371 4 0.167998 0.26096 0.20691
279 4 0.214594 0.312553 0.212646
277 2 0.238453 0.311513 0.20524
343 2 0.250585 0.262211 0.228115
278 4 0.262312 0.310474 0.197834
307 2 0.295382 0.299098 0.205592
309 4 0.271065 0.293276 0.205495
308 4 0.319698 0.30492 0.20569
345 4 0.258533 0.280472 0.212997
648 4 0.0483737 0.379375 0.165687
646 2 0.0605687 0.398397 0.176393
300 4 0.0780486 0.349888 0.240266
647 4 0.0727636 0.417419 0.187099
366 4 0.0115587 0.337162 0.237931
535 2 0.132716 0.352158 0.164866
536 4 0.12179 0.374295 0.168836
298 2 0.102083 0.354033 0.245773
291 4 0.215355 0.40863 0.17182
303 4 0.330014 0.390938 0.229672
729 4 0.335091 0.400892 0.248035
643 2 0.44487 0.373696 0.199073
644 4 0.447061 0.373563 0.22398
645 4 0.442679 0.37383 0.174166
447 4 0.440339 0.372807 0.24282
262 2 0.0761028 0.449723 0.206101
264 4 0.0689436 0.465664 0.223984
263 4 0.0832621 0.433781 0.188218
1757 4 0.0804558 0.475838 0.236899
289 2 0.224376 0.431508 0.176339
290 4 0.233396 0.454386 0.180858
638 4 0.246809 0.456413 0.163698
767 4 0.253297 0.462454 0.18443
768 4 0.286327 0.475646 0.219582
766 2 0.269812 0.46905 0.202006
1573 2 0.330694 0.491492 0.232438
301 2 0.332787 0.409016 0.212624
1575 4 0.334549 0.500861 0.255297
658 2 0.352235 0.450297 0.171216
1574 4 0.326839 0.482123 0.209579
302 4 0.335561 0.427094 0.195575
660 4 0.35351 0.438464 0.193205
232 2 0.0161419 0.04968 0.328627
234 4 0.0387273 0.0459455 0.318571
318 4 0.0549318 0.0468075 0.328066
1462 2 0.140813 0.00427499 0.317227
1464 4 0.151584 0.024974 0.326211
689 4 0.181451 0.0550104 0.269585
1699 2 0.211389 0.0129358 0.318023
1701 4 0.214068 0.0340804 0.331097
248 4 0.208567 0.0539999 0.323616
247 2 0.222393 0.074343 0.319125
697 2 0.380675 0.0234123 0.315463
351 4 0.406484 0.0618233 0.31247
349 2 0.407358 0.0828961 0.29904
632 4 0.350874 0.055469 0.313119
698 4 0.394898 0.043947 0.314367
22 3 0.369619 0.0641757 0.258325
631 2 0.356257 0.07838 0.321562
699 4 0.366451 0.0028777 0.316559
577 2 0.0603077 0.133854 0.253705
579 4 0.0354586 0.136157 0.252158
529 2 0.00950898 0.104247 0.274005
530 4 0.0233958 0.120624 0.261194
392 4 0.0676207 0.15449 0.328623
391 2 0.0662816 0.176396 0.316643
2654 4 0.0224826 0.154807 0.324957
544 2 0.175578 0.154325 0.257193
249 4 0.236219 0.0946862 0.314633
403 2 0.213823 0.12709 0.29394
404 4 0.222082 0.105708 0.303928
405 4 0.205565 0.148473 0.283951
545 4 0.188617 0.157819 0.278239
708 4 0.312205 0.164828 0.279963
633 4 0.36164 0.101291 0.330005
350 4 0.408232 0.103969 0.285611
333 4 0.419404 0.118661 0.29626
331 2 0.437702 0.13538 0.299551
332 4 0.456 0.152099 0.302842
762 4 0.474133 0.143777 0.298009
760 2 0.482268 0.167121 0.301755
393 4 0.0649426 0.198301 0.304663
706 2 0.317303 0.17829 0.300407
707 4 0.322402 0.191752 0.320851
520 2 0.493429 0.239161 0.271007
418 2 0.439688 0.220766 0.290647
419 4 0.426466 0.203611 0.30314
521 4 0.471448 0.248584 0.2783
420 4 0.45291 0.237921 0.278154
761 4 0.490404 0.190466 0.305501
749 4 0.0754292 0.262639 0.282616
364 2 0.0122645 0.322077 0.257859
748 2 0.0700198 0.260478 0.2583
365 4 0.0129704 0.306992 0.277787
444 4 0.0432108 0.266142 0.316887
2493 4 0.993643 0.301271 0.285804
442 2 0.0272268 0.282831 0.307339
443 4 0.0112428 0.29952 0.29779
389 4 0.147389 0.288123 0.331711
388 2 0.123005 0.293002 0.334309
401 4 0.166602 0.285556 0.327231
497 4 0.322912 0.330971 0.287432
496 2 0.32839 0.306616 0.288856
498 4 0.333869 0.282262 0.29028
614 4 0.399556 0.303142 0.313499
543 4 0.452926 0.259448 0.274369
541 2 0.447378 0.283583 0.270916
542 4 0.441829 0.307717 0.267463
603 4 0.0716032 0.377734 0.322632
601 2 0.0817839 0.388001 0.302234
299 4 0.126118 0.358177 0.251279
602 4 0.0919646 0.398269 0.281835
734 4 0.137562 0.355576 0.268714
733 2 0.152105 0.364402 0.287039
735 4 0.166647 0.373227 0.305364
677 4 0.184184 0.382812 0.303948
509 4 0.236204 0.392424 0.330675
508 2 0.250952 0.373199 0.324505
437 4 0.268127 0.38259 0.269575
510 4 0.2657 0.353974 0.318334
433 2 0.332684 0.410419 0.332049
727 2 0.341846 0.403043 0.272013
434 4 0.333331 0.399 0.309815
728 4 0.348601 0.405195 0.29599
753 4 0.393872 0.40364 0.301878
751 2 0.406309 0.397487 0.322678
445 2 0.434587 0.385053 0.263847
446 4 0.428835 0.397299 0.284874
713 4 0.42983 0.411074 0.300837
777 4 0.0598852 0.483838 0.331628
412 2 0.140418 0.491052 0.314799
775 2 0.0805026 0.496946 0.32631
414 4 0.157937 0.473945 0.309736
1436 4 0.25473 0.498832 0.289056
436 2 0.272411 0.407203 0.270593
1802 4 0.32184 0.490743 0.268385
438 4 0.276695 0.431816 0.271611
1801 2 0.331287 0.484602 0.290706
1803 4 0.340734 0.478461 0.313027
231 4 0.42356 0.456687 0.243802
229 2 0.42236 0.480235 0.252123
712 2 0.441744 0.43297 0.302789
714 4 0.453659 0.454865 0.304741
316 2 0.068297 0.0351552 0.345695
317 4 0.0816622 0.0235029 0.363324
428 4 0.0765945 0.00334745 0.361097
731 4 0.159105 0.101525 0.362281
606 4 0.228095 0.0329431 0.388458
604 2 0.218621 0.0411649 0.366829
605 4 0.209147 0.0493868 0.3452
441 4 0.241198 0.0227198 0.399103
439 2 0.262714 0.0223685 0.411836
726 4 0.303548 0.0149271 0.417586
257 4 0.408442 0.0488027 0.330277
256 2 0.410351 0.059818 0.352642
258 4 0.41226 0.0708333 0.375007
425 4 0.392981 0.0193184 0.428964
398 4 0.0583662 0.100287 0.349335
2653 2 0.019022 0.14823 0.348831
397 2 0.0830923 0.103094 0.351767
2655 4 0.0155614 0.141653 0.372704
399 4 0.107818 0.105902 0.3542
732 4 0.115134 0.0948818 0.339407
730 2 0.137119 0.0982034 0.350844
600 4 0.151609 0.155289 0.356266
686 4 0.175014 0.129671 0.397831
685 2 0.176404 0.107663 0.409616
598 2 0.169364 0.143925 0.369712
599 4 0.187119 0.132561 0.383158
683 4 0.325505 0.0854812 0.381319
682 2 0.30956 0.0925045 0.399253
467 4 0.352952 0.135539 0.408829
514 2 0.410289 0.133988 0.422341
451 2 0.463397 0.1223 0.398573
453 4 0.439286 0.120904 0.392102
515 4 0.423237 0.119676 0.406445
452 4 0.487509 0.123696 0.405043
260 4 0.0880832 0.205419 0.408468
474 4 0.213291 0.214824 0.386417
274 2 0.205817 0.227701 0.420574
276 4 0.216279 0.209857 0.406528
472 2 0.228878 0.217067 0.366995
473 4 0.244465 0.21931 0.347574
487 2 0.302587 0.248981 0.400549
489 4 0.278401 0.245431 0.395296
269 4 0.491274 0.232003 0.393625
306 4 0.482555 0.225518 0.410115
618 4 0.0556755 0.313386 0.388651
347 4 0.0647553 0.311188 0.407453
616 2 0.0701368 0.305828 0.369706
390 4 0.0986198 0.297881 0.336908
617 4 0.0845982 0.29827 0.35076
400 2 0.182239 0.273066 0.34222
375 4 0.17241 0.304327 0.390107
402 4 0.197876 0.260577 0.357209
373 2 0.168288 0.320969 0.408307
378 4 0.262929 0.262233 0.330923
376 2 0.269112 0.260309 0.355073
377 4 0.275294 0.258385 0.379224
613 2 0.388096 0.295528 0.334377
615 4 0.376635 0.287915 0.355255
716 4 0.358816 0.280447 0.353022
715 2 0.358871 0.277932 0.377898
717 4 0.358926 0.275416 0.402775
267 4 0.367301 0.288083 0.416012
2924 4 0.490018 0.290287 0.400726
406 2 0.0639995 0.3998 0.360976
408 4 0.0729004 0.377688 0.353426
676 2 0.180957 0.382981 0.328742
678 4 0.17773 0.383151 0.353536
336 4 0.347085 0.386495 0.413043
752 4 0.418746 0.391333 0.343478
561 4 0.422585 0.400598 0.360482
559 2 0.425646 0.397798 0.385139
560 4 0.428708 0.394998 0.409796
549 4 0.043962 0.469511 0.331934
407 4 0.0550987 0.421912 0.368526
548 4 0.0447002 0.438008 0.370764
547 2 0.0443311 0.453759 0.351349
680 4 0.0308988 0.461145 0.409017
499 2 0.131846 0.50035 0.373627
500 4 0.152362 0.502936 0.359571
501 4 0.111329 0.497763 0.387682
435 4 0.332037 0.421838 0.354283
5 3 0.333638 0.491367 0.357368
4 3 0.300301 0.473875 0.356817
1 1 0.321397 0.474452 0.366461
2 3 0.319141 0.478038 0.389071
3 3 0.332191 0.454185 0.363121
669 4 0.349344 0.406248 0.411753
667 2 0.369492 0.420997 0.410456
3988 2 0.493181 0.499111 0.360023
720 4 0.0220032 0.0786279 0.48566
367 2 0.0921032 0.051431 0.466413
369 4 0.0828958 0.0741521 0.471328
368 4 0.101311 0.02871 0.461498
2430 4 0.162395 0.0439029 0.490246
2428 2 0.148726 0.0231333 0.48761
340 2 0.182102 0.080913 0.494519
341 4 0.175959 0.056758 0.496515
440 4 0.284231 0.0220171 0.424568
1180 2 0.284988 0.0718671 0.474372
724 2 0.31354 0.0333554 0.431215
1181 4 0.289752 0.057821 0.494501
725 4 0.323532 0.0517836 0.444844
458 4 0.997826 0.145814 0.430441
718 2 0.0318722 0.100677 0.479209
457 2 0.0184573 0.139846 0.443245
719 4 0.0417411 0.122727 0.472758
459 4 0.0390884 0.133879 0.456048
1151 4 0.162075 0.14255 0.450402
938 4 0.109098 0.154806 0.494854
687 4 0.177794 0.0856545 0.4214
1150 2 0.177608 0.131988 0.466905
1152 4 0.19314 0.121426 0.483408
342 4 0.188244 0.105068 0.492522
321 4 0.261706 0.141338 0.429084
1182 4 0.280224 0.0859132 0.454242
684 4 0.293615 0.0995279 0.417186
320 4 0.28327 0.0967334 0.43588
319 2 0.272488 0.119036 0.432482
466 2 0.336475 0.150644 0.420034
575 4 0.40233 0.168705 0.43222
516 4 0.397342 0.148301 0.438237
2880 4 0.488683 0.117048 0.484356
642 4 0.487588 0.130034 0.499775
640 2 0.479276 0.152668 0.493159
261 4 0.101785 0.216007 0.455381
259 2 0.0949342 0.210713 0.431925
1035 4 0.111455 0.20281 0.470339
1033 2 0.119004 0.18432 0.485382
695 4 0.12113 0.220539 0.463442
694 2 0.114248 0.240684 0.476557
275 4 0.195354 0.245546 0.43462
411 4 0.287526 0.200169 0.482112
409 2 0.29997 0.188822 0.46363
410 4 0.312414 0.177476 0.445148
488 4 0.326774 0.252531 0.405801
468 4 0.319999 0.165748 0.43124
304 2 0.468025 0.216795 0.428499
305 4 0.453496 0.208071 0.446883
574 2 0.418977 0.184002 0.442898
576 4 0.435625 0.1993 0.453576
641 4 0.470963 0.175302 0.486542
346 2 0.0728402 0.320762 0.42909
2847 4 0.997542 0.280711 0.479539
348 4 0.0809251 0.330335 0.450727
327 4 0.0929647 0.273006 0.494806
696 4 0.107366 0.260829 0.489671
374 4 0.164166 0.337611 0.426507
651 4 0.283552 0.318208 0.460685
649 2 0.26745 0.331912 0.447338
266 4 0.36921 0.247136 0.444654
265 2 0.368256 0.26761 0.430333
585 4 0.441996 0.256609 0.478573
2456 4 0.497636 0.296878 0.472671
583 2 0.460114 0.273531 0.475328
584 4 0.478233 0.290453 0.472083
872 4 0.433085 0.248858 0.493773
10 3 0.119776 0.339719 0.475287
7 3 0.0917467 0.343957 0.499562
711 4 0.162093 0.409764 0.474357
6 1 0.114493 0.341306 0.497382
503 4 0.233435 0.348708 0.425788
650 4 0.251349 0.345615 0.433991
502 2 0.223619 0.37083 0.432067
504 4 0.213802 0.392953 0.438346
709 2 0.17929 0.405965 0.456608
710 4 0.196486 0.402166 0.438858
773 4 0.249216 0.402914 0.448324
334 2 0.354792 0.371857 0.431792
238 2 0.402627 0.360414 0.464913
240 4 0.382784 0.356303 0.450266
335 4 0.3625 0.357218 0.45054
239 4 0.42247 0.364525 0.479561
3309 4 0.501213 0.399355 0.483284
2508 4 0.493502 0.38456 0.472676
383 4 0.0617496 0.431154 0.45286
681 4 0.0428107 0.436839 0.451065
679 2 0.0368548 0.448992 0.430041
538 2 0.0483605 0.499141 0.491877
382 2 0.0844075 0.441255 0.455982
540 4 0.0268555 0.505512 0.480826
568 2 0.131619 0.482903 0.445509
384 4 0.107065 0.451357 0.459105
569 4 0.122816 0.463136 0.458037
772 2 0.237002 0.424549 0.445504
636 4 0.191059 0.488474 0.47808
634 2 0.203242 0.476728 0.459674
635 4 0.215426 0.464983 0.441268
774 4 0.224788 0.446183 0.442685
668 4 0.389641 0.435746 0.409158
588 4 0.400567 0.445132 0.424353
663 4 0.453614 0.477262 0.498035
587 4 0.441599 0.463209 0.446494
586 2 0.421083 0.454171 0.435424
1126 2 0.998112 0.0331169 0.530482
1127 4 0.988884 0.0187457 0.512221
1128 4 0.00734068 0.0474882 0.548744
2238 4 0.00576539 0.0118381 0.50343
1030 2 0.242368 0.0775259 0.577251
1032 4 0.251768 0.0626457 0.559492
961 2 0.287873 0.0127241 0.500536
430 2 0.329282 0.0636057 0.511568
963 4 0.294359 0.0368077 0.498777
432 4 0.308198 0.0524176 0.50412
431 4 0.350366 0.0747939 0.519017
841 2 0.383525 0.0670062 0.50856
842 4 0.407032 0.0632696 0.516217
843 4 0.360018 0.0707428 0.500903
1217 4 0.409425 0.0488974 0.530438
1216 2 0.413272 0.0361727 0.551614
1218 4 0.417119 0.0234479 0.572791
1062 4 0.452997 0.0280747 0.549617
1060 2 0.477952 0.0281766 0.54806
471 4 0.0420367 0.159485 0.552563
937 2 0.100961 0.131167 0.495237
939 4 0.0928234 0.107528 0.49562
899 4 0.312589 0.157735 0.511211
469 2 0.0464154 0.171571 0.531117
470 4 0.0507941 0.183658 0.509671
877 2 0.102453 0.236193 0.538435
1272 4 0.131712 0.214451 0.56339
879 4 0.12098 0.223473 0.549396
1034 4 0.126554 0.16583 0.500426
1270 2 0.116408 0.202078 0.578813
857 4 0.205531 0.221623 0.530469
1154 4 0.181263 0.1845 0.58818
856 2 0.228846 0.216936 0.522747
858 4 0.252161 0.212249 0.515025
898 2 0.311838 0.166139 0.534748
900 4 0.311086 0.174543 0.558285
878 4 0.0839269 0.248913 0.527474
326 4 0.0703352 0.294087 0.534102
325 2 0.08165 0.283546 0.514454
1258 2 0.14771 0.297144 0.518039
1260 4 0.162928 0.277822 0.51354
1259 4 0.132491 0.316466 0.522538
803 4 0.241443 0.331328 0.54382
791 4 0.281124 0.248892 0.545384
790 2 0.289268 0.261314 0.565497
802 2 0.254862 0.319547 0.561323
804 4 0.268281 0.307767 0.578825
813 4 0.392171 0.290813 0.528543
811 2 0.371214 0.288701 0.515071
812 4 0.350257 0.286588 0.501598
873 4 0.419923 0.256973 0.54133
871 2 0.426504 0.252915 0.517551
953 4 0.426165 0.272078 0.553852
952 2 0.44316 0.269194 0.571965
1136 4 0.0783834 0.344581 0.571801
984 4 0.0669231 0.326762 0.572009
9 3 0.120884 0.321946 0.508461
8 3 0.125118 0.359676 0.506764
1135 2 0.101432 0.354065 0.56981
1189 2 0.202654 0.348528 0.556003
1190 4 0.221663 0.336506 0.545079
1191 4 0.183645 0.360549 0.566928
896 4 0.175205 0.375113 0.575871
928 2 0.403808 0.371346 0.575747
930 4 0.40842 0.394095 0.566454
925 2 0.44773 0.40047 0.556399
926 4 0.453333 0.382537 0.539901
927 4 0.442126 0.418403 0.572897
935 4 0.0208159 0.441305 0.519481
934 2 0.00221038 0.425449 0.524736
539 4 0.0698655 0.492769 0.502927
1160 4 0.173895 0.429702 0.558111
1159 2 0.165556 0.451098 0.568002
1161 4 0.157217 0.472495 0.577892
1173 4 0.261837 0.454302 0.577247
882 4 0.362988 0.436577 0.568235
880 2 0.367304 0.453253 0.550112
881 4 0.371621 0.469929 0.531988
1454 4 0.365259 0.484971 0.519846
1453 2 0.370711 0.49802 0.499227
662 4 0.424867 0.486202 0.537964
1910 4 0.433801 0.498247 0.551623
1909 2 0.438952 0.488626 0.57412
661 2 0.43924 0.481732 0.517999
1001 4 0.445449 0.43614 0.582325
1185 4 0.0127766 0.0526633 0.620304
1183 2 0.00827758 0.0415924 0.642267
944 4 0.062124 0.0755616 0.652073
943 2 0.0806551 0.0617689 0.661641
1184 4 0.00377859 0.0305216 0.66423
823 2 0.157444 0.0134476 0.63171
825 4 0.155864 0.0359284 0.64254
1283 4 0.220103 0.0826491 0.608218
1282 2 0.195269 0.079979 0.607083
951 4 0.290482 0.0311257 0.599512
949 2 0.27538 0.0153948 0.587279
2282 4 0.378348 0.00400691 0.640388
1090 2 0.350747 0.00357062 0.61973
1091 4 0.34217 0.00784345 0.596635
3008 4 0.482659 0.0714144 0.596798
809 4 0.475844 0.0751546 0.61571
87 3 0.428975 0.000504193 0.601082
1082 4 0.0480999 0.0940429 0.651923
1083 4 0.0166028 0.0969821 0.613193
1081 2 0.0323513 0.0955125 0.632558
1155 4 0.141795 0.154163 0.592939
1059 4 0.162069 0.092858 0.614611
1058 4 0.141524 0.136023 0.599935
1057 2 0.151796 0.114441 0.607273
909 4 0.151926 0.152541 0.651868
1153 2 0.161529 0.169332 0.590559
907 2 0.166991 0.133589 0.658119
1031 4 0.232968 0.0924061 0.59501
1284 4 0.170434 0.0773088 0.605949
810 4 0.460058 0.119017 0.633812
808 2 0.467951 0.0970856 0.624761
1245 4 0.044434 0.242175 0.657978
1209 4 0.064205 0.237583 0.664545
852 4 0.0480818 0.224537 0.669463
1271 4 0.101103 0.189706 0.594236
1221 4 0.201279 0.186717 0.589662
1212 4 0.233756 0.200624 0.644497
1219 2 0.210634 0.197736 0.610064
1220 4 0.219988 0.208755 0.630467
798 4 0.233889 0.221626 0.640362
796 2 0.252307 0.232921 0.627777
1210 2 0.251248 0.183962 0.650946
1211 4 0.26874 0.1673 0.657395
888 4 0.289753 0.173103 0.659455
797 4 0.270724 0.244217 0.615191
1193 4 0.386169 0.202187 0.677367
904 2 0.451959 0.229568 0.610606
906 4 0.441556 0.208958 0.620207
1024 2 0.437184 0.188513 0.650088
1025 4 0.431367 0.19328 0.626243
905 4 0.462361 0.250179 0.601005
983 4 0.0204111 0.324028 0.590172
1243 2 0.0333134 0.245648 0.635855
1244 4 0.0221928 0.249122 0.613731
982 2 0.0436671 0.325395 0.581091
3263 4 0.990904 0.320724 0.636755
948 4 0.17229 0.248534 0.610086
946 2 0.176881 0.25335 0.634188
947 4 0.181473 0.258166 0.65829
792 4 0.297411 0.273736 0.585611
1238 4 0.307571 0.275733 0.602247
1237 2 0.302398 0.278795 0.626517
1239 4 0.297224 0.281857 0.650787
954 4 0.460154 0.266309 0.590077
1039 2 0.0545311 0.384473 0.624745
1041 4 0.0318472 0.377115 0.63226
3264 4 0.0174059 0.36307 0.634493
3262 2 0.00415496 0.341897 0.635624
1281 4 0.0396742 0.411887 0.660032
1137 4 0.124481 0.36355 0.567819
1040 4 0.077215 0.391832 0.61723
993 4 0.089323 0.396102 0.632765
991 2 0.113053 0.389256 0.628868
992 4 0.136784 0.382411 0.62497
897 4 0.148367 0.394078 0.613564
895 2 0.161786 0.384595 0.594718
1172 4 0.286876 0.415207 0.595831
891 4 0.30319 0.411504 0.608215
929 4 0.399196 0.348596 0.585041
1204 2 0.421337 0.4125 0.652212
1175 4 0.214324 0.499789 0.666572
1171 2 0.274357 0.434754 0.586539
2154 4 0.265739 0.473636 0.582811
889 2 0.322067 0.425559 0.616658
2152 2 0.276873 0.496024 0.582674
890 4 0.340944 0.439614 0.625101
1206 4 0.417119 0.430764 0.635664
1002 4 0.417029 0.418821 0.619649
1000 2 0.431239 0.427481 0.600987
1911 4 0.444103 0.479005 0.596616
1076 4 0.0595515 0.0898258 0.670195
945 4 0.0991861 0.0479763 0.671209
2256 4 0.165551 0.00647668 0.680267
1147 2 0.221303 0.0715589 0.742476
2281 2 0.390598 0.00896796 0.661613
1004 4 0.347274 0.0850023 0.737175
2283 4 0.402849 0.013929 0.682838
2321 4 0.443388 0.996166 0.742633
42 3 0.451119 0.0695263 0.687701
4226 4 0.478131 0.0207414 0.693125
43 3 0.452692 0.0757482 0.724734
45 3 0.420676 0.0813895 0.705739
41 1 0.443376 0.0829156 0.704728
864 4 0.0301856 0.113071 0.723247
1075 2 0.0434265 0.0987958 0.687068
1077 4 0.0273014 0.107766 0.703941
862 2 0.0234687 0.12091 0.74602
1148 4 0.212353 0.0907293 0.72915
908 4 0.182056 0.114638 0.66437
1225 2 0.203582 0.115264 0.696301
1226 4 0.214532 0.103375 0.715378
1227 4 0.192633 0.127152 0.677223
1005 4 0.301541 0.0947256 0.719437
1003 2 0.324408 0.089864 0.728306
831 4 0.32919 0.130811 0.735559
830 4 0.339694 0.163565 0.699261
829 2 0.334442 0.147188 0.71741
1086 4 0.348123 0.134003 0.74414
44 3 0.449655 0.104845 0.700473
1142 4 0.447827 0.124186 0.695864
1141 2 0.448452 0.149138 0.69439
3426 4 0.482073 0.11943 0.67588
851 4 0.0487925 0.180752 0.69361
850 2 0.0484372 0.202644 0.681536
1107 4 0.0580335 0.179793 0.712361
1178 4 0.038125 0.227325 0.699082
1105 2 0.0668617 0.180705 0.735736
1213 2 0.0150145 0.175532 0.758316
1130 4 0.166611 0.182363 0.701178
1129 2 0.176477 0.191659 0.722188
1276 2 0.2056 0.230528 0.757855
1131 4 0.186343 0.200955 0.743198
1278 4 0.222894 0.248558 0.756849
886 2 0.312671 0.170634 0.669142
887 4 0.335589 0.168166 0.67883
978 4 0.288297 0.212707 0.694433
976 2 0.289513 0.210384 0.719298
977 4 0.29073 0.208061 0.744164
1192 2 0.364203 0.192969 0.684962
1194 4 0.342236 0.183751 0.692558
1143 4 0.449077 0.174091 0.692915
1145 4 0.504765 0.195059 0.725404
1026 4 0.443001 0.183746 0.673934
1261 2 0.443102 0.209806 0.712232
1263 4 0.440162 0.194356 0.692794
1262 4 0.446042 0.225255 0.731671
1144 2 0.504516 0.170142 0.723336
1177 2 0.0238577 0.247417 0.703314
1207 2 0.0864489 0.247623 0.669985
1208 4 0.108693 0.257663 0.675424
822 4 0.14792 0.253199 0.691793
820 2 0.166598 0.257949 0.707723
821 4 0.185276 0.262699 0.723653
1065 4 0.252201 0.31926 0.681306
1019 4 0.382753 0.325727 0.728026
3123 4 0.470688 0.303593 0.683567
3121 2 0.490696 0.289605 0.678165
3274 2 0.00458624 0.402749 0.733916
3276 4 0.0270535 0.394139 0.727113
892 2 0.0590719 0.395007 0.724235
894 4 0.0382718 0.404498 0.714113
893 4 0.079872 0.385517 0.734358
940 2 0.125 0.379792 0.741633
941 4 0.149712 0.379288 0.745406
942 4 0.100288 0.380295 0.737859
1067 4 0.156159 0.380642 0.725421
1028 4 0.209909 0.395865 0.688076
1066 2 0.176168 0.390615 0.714225
1068 4 0.196177 0.400588 0.703029
1027 2 0.234609 0.398672 0.69076
1063 2 0.260234 0.334706 0.699252
1029 4 0.259309 0.401479 0.693443
806 4 0.286338 0.348491 0.708579
805 2 0.31078 0.348976 0.713823
1064 4 0.268267 0.350152 0.717198
1139 4 0.307707 0.407773 0.698192
807 4 0.335223 0.34946 0.719066
1018 2 0.365512 0.34382 0.728757
1020 4 0.34827 0.361913 0.729489
1205 4 0.425555 0.394237 0.66876
1101 4 0.433008 0.407522 0.73999
1099 2 0.431303 0.419105 0.717897
1981 2 0.00211876 0.477236 0.726564
1280 4 0.0585062 0.45169 0.683735
1279 2 0.0490902 0.431788 0.671884
1982 4 0.0177191 0.477864 0.746094
885 4 0.0349738 0.474711 0.756805
1174 2 0.206486 0.495687 0.689958
1176 4 0.198648 0.491585 0.713345
2016 4 0.178937 0.495831 0.711436
1138 2 0.288864 0.423751 0.69434
1989 4 0.336398 0.490506 0.685244
1140 4 0.270022 0.439729 0.690487
1987 2 0.32424 0.489659 0.707076
1988 4 0.312082 0.488812 0.728908
1088 4 0.304429 0.499516 0.742755
1228 2 0.377947 0.483466 0.734364
1230 4 0.401793 0.480048 0.741063
1229 4 0.354101 0.486883 0.727666
1100 4 0.429599 0.430688 0.695804
1268 4 0.43972 0.49218 0.697644
1267 2 0.432734 0.468964 0.691529
1269 4 0.425747 0.445748 0.685414
2169 4 0.453734 0.49478 0.682969
1296 4 0.00236751 0.0349586 0.812652
1203 4 0.115687 0.0466936 0.806047
1201 2 0.11351 0.033749 0.784766
1202 4 0.111333 0.0208044 0.763485
2049 4 0.129219 0.0125155 0.764693
911 4 0.126719 0.058034 0.820491
1196 4 0.122475 0.0369208 0.823825
1149 4 0.230253 0.0523884 0.755801
2399 4 0.29214 0.015837 0.756849
1049 4 0.311637 0.0157702 0.75805
1048 2 0.319783 0.0381245 0.765737
1050 4 0.32793 0.0604788 0.773425
974 4 0.334194 0.0124447 0.808435
1257 4 0.331889 0.0686298 0.791234
1111 2 0.418603 0.0225343 0.781693
846 4 0.493436 0.0714506 0.763453
1113 4 0.438845 0.0367263 0.785435
844 2 0.47466 0.0608487 0.776112
845 4 0.455885 0.0502467 0.788771
980 4 0.450899 0.0343014 0.802753
979 2 0.461675 0.0179808 0.818331
863 4 0.0167518 0.128749 0.768793
34 3 0.130765 0.162134 0.826019
31 1 0.117293 0.146247 0.815796
32 3 0.114814 0.128336 0.830016
35 3 0.126956 0.139167 0.796427
910 2 0.122859 0.0820806 0.826152
33 3 0.0963748 0.155263 0.811372
912 4 0.119 0.106127 0.831813
840 4 0.248431 0.130605 0.789849
1255 2 0.318894 0.0897937 0.79413