ITEM: TIMESTEP
2000000
ITEM: NUMBER OF ATOMS
4590
ITEM: BOX BOUNDS pp pp pp
-9.9985700000000008e+00 9.9985700000000008e+00
-9.9985700000000008e+00 9.9985700000000008e+00
-9.9985700000000008e+00 9.9985700000000008e+00
ITEM: ATOMS id type xs ys zs
1666 2 0.0414724 0.0455378 0.0661079
1668 4 0.0272087 0.0256266 0.0711347
1667 4 0.0557362 0.065449 0.0610811
702 4 0.0725905 0.0798716 0.0586995
423 4 0.143292 0.0721739 0.997041
490 2 0.303783 0.0631344 0.017885
491 4 0.301658 0.07428 0.0401659
653 4 0.287308 0.0761963 0.0559175
652 2 0.285684 0.0703424 0.0801719
297 4 0.383274 0.00804493 0.0892351
295 2 0.404762 0.0098635 0.0765802
296 4 0.42625 0.0116821 0.0639253
591 4 0.0524304 0.0853543 0.0537185
589 2 0.0343863 0.0927229 0.0380566
590 4 0.0163423 0.100091 0.0223947
3233 4 0.00898307 0.119644 0.0173711
235 2 0.0770191 0.159083 0.0718061
421 2 0.142477 0.0966939 0.00186623
422 4 0.141662 0.121214 0.00669169
700 2 0.0856563 0.100909 0.0621453
701 4 0.0987222 0.121947 0.0655911
236 4 0.0933315 0.140403 0.0749862
449 4 0.113757 0.13602 0.0708251
448 2 0.135004 0.149047 0.0728339
450 4 0.156251 0.162073 0.0748428
565 2 0.276118 0.107987 0.0309796
566 4 0.269224 0.1314 0.0255523
567 4 0.283012 0.0845735 0.0364068
665 4 0.318755 0.133457 0.0146753
359 4 0.266417 0.132631 0.00566452
664 2 0.332619 0.153602 0.0198879
557 4 0.39295 0.152727 0.0655498
556 2 0.379984 0.164736 0.0478622
987 4 0.422368 0.140457 0.0117908
237 4 0.0607068 0.177764 0.068626
477 4 0.0557951 0.188684 0.0844177
914 4 0.157088 0.236738 0.0167146
913 2 0.141255 0.232083 0.997932
357 4 0.223641 0.226459 0.00712345
666 4 0.346483 0.173746 0.0251004
558 4 0.367018 0.176745 0.0301747
571 2 0.371343 0.209767 0.0106618
572 4 0.356109 0.192417 0.0202571
1071 4 0.374522 0.243951 0.00141132
573 4 0.386576 0.227118 0.00106639
769 2 0.499187 0.216266 0.0325757
771 4 0.493887 0.239151 0.041141
770 4 0.504487 0.193381 0.0240103
506 4 0.159393 0.25637 0.0250063
293 4 0.146045 0.315875 0.0382931
292 2 0.136202 0.326412 0.0587202
507 4 0.164017 0.305473 0.0332656
505 2 0.161705 0.280922 0.0291359
288 4 0.161276 0.325618 0.0266188
481 2 0.228974 0.329292 0.0656483
286 2 0.184689 0.333645 0.0301649
482 4 0.244556 0.315548 0.0795582
1070 4 0.374675 0.287586 0.0258399
1069 2 0.374598 0.265769 0.0136256
957 4 0.379734 0.300943 0.0115831
955 2 0.365424 0.318789 0.0216789
518 4 0.497789 0.25765 0.0512253
323 4 0.47923 0.24763 0.0540676
322 2 0.45613 0.255111 0.0600338
324 4 0.433029 0.262591 0.066
623 4 0.439085 0.269436 0.0839708
280 2 0.468273 0.314432 0.0143747
671 4 0.461855 0.336202 0.0473874
550 2 0.0371723 0.412003 0.0448736
551 4 0.0372971 0.398985 0.0235268
1170 4 0.0208372 0.349623 0.00801505
1168 2 0.0237927 0.374401 0.00643972
1169 4 0.0267481 0.39918 0.00486438
483 4 0.213393 0.343037 0.0517384
287 4 0.208102 0.341672 0.033711
956 4 0.351114 0.336635 0.0317748
670 2 0.473604 0.331548 0.068962
281 4 0.473641 0.329294 0.0337519
552 4 0.0370476 0.425021 0.0662205
315 4 0.0339892 0.445122 0.0736633
313 2 0.050853 0.462362 0.0670612
314 4 0.0677168 0.479602 0.0604591
1787 4 0.0892844 0.484182 0.061586
1786 2 0.105908 0.473975 0.0772273
1788 4 0.122531 0.463767 0.0928686
243 4 0.238003 0.487695 0.0700449
1440 4 0.251886 0.476442 0.0793914
241 2 0.222059 0.502343 0.0825517
246 4 0.315239 0.453059 0.0217592
272 4 0.307245 0.466793 0.00671984
244 2 0.325261 0.452522 0.0446603
245 4 0.335282 0.451984 0.0675615
40 3 0.321669 0.451441 0.000719249
2388 4 0.4 0.494618 0.0299004
563 4 0.409258 0.476831 0.0264145
39 3 0.350698 0.427475 0.999944
562 2 0.433484 0.478396 0.0204267
564 4 0.457709 0.47996 0.0144388
854 4 0.476599 0.474536 0.0139535
18 3 0.00638755 0.0696553 0.127308
2481 4 0.0171718 0.0584169 0.139138
16 1 0.00604896 0.0769008 0.105268
2479 2 0.0110923 0.0408542 0.155864
19 3 0.027734 0.0799816 0.097608
654 4 0.284061 0.0644885 0.104426
1506 4 0.255499 0.0105747 0.178038
311 4 0.420008 0.0894469 0.154785
476 4 0.0648802 0.226168 0.116248
475 2 0.0603376 0.207426 0.100333
339 4 0.071479 0.244863 0.118326
337 2 0.0846157 0.260431 0.132826
738 4 0.175426 0.240092 0.125891
736 2 0.197334 0.245931 0.115349
353 4 0.238675 0.243297 0.103566
737 4 0.219241 0.25177 0.104806
461 4 0.286965 0.210609 0.102853
354 4 0.273161 0.210106 0.118052
460 2 0.311081 0.217077 0.101531
352 2 0.255918 0.226702 0.110809
462 4 0.335198 0.223545 0.100209
254 4 0.386357 0.186184 0.11946
630 4 0.399722 0.190934 0.13492
253 2 0.366806 0.196693 0.107949
255 4 0.347255 0.207201 0.0964373
628 2 0.421642 0.202229 0.139055
629 4 0.443563 0.213523 0.14319
294 4 0.126359 0.336949 0.0791472
338 4 0.0977524 0.275999 0.147325
363 4 0.113106 0.289492 0.147903
361 2 0.131566 0.279087 0.161174
755 4 0.235663 0.26298 0.112181
754 2 0.245368 0.284418 0.103731
756 4 0.255073 0.305856 0.0952805
252 4 0.257196 0.327216 0.0924568
741 4 0.39113 0.298288 0.123484
739 2 0.378177 0.318105 0.131526
740 4 0.365223 0.337922 0.139567
624 4 0.408044 0.294913 0.113771
622 2 0.423564 0.282174 0.0988711
15 3 0.462682 0.322055 0.161815
11 1 0.441449 0.324701 0.154016
14 3 0.441399 0.32407 0.130821
13 3 0.42778 0.307943 0.162426
528 4 0.484259 0.312717 0.103772
454 2 0.138628 0.347502 0.109218
455 4 0.132273 0.360123 0.129846
456 4 0.144984 0.334881 0.0885907
537 4 0.132343 0.352814 0.147993
250 2 0.276731 0.341788 0.0980431
607 2 0.289141 0.398883 0.107283
251 4 0.296266 0.356361 0.103629
609 4 0.299865 0.376537 0.110576
387 4 0.316236 0.362175 0.110495
385 2 0.330428 0.349818 0.126959
386 4 0.344621 0.337461 0.143423
494 4 0.407193 0.360984 0.0876477
493 2 0.42033 0.351409 0.106646
495 4 0.433466 0.341834 0.125644
595 2 0.467348 0.373909 0.151001
12 3 0.433328 0.345086 0.160918
597 4 0.451927 0.356804 0.160736
2652 4 0.486275 0.408931 0.132932
596 4 0.482769 0.391014 0.141265
645 4 0.434123 0.364583 0.171512
672 4 0.485354 0.326894 0.0905366
620 4 0.0255844 0.429113 0.0860588
648 4 0.0259955 0.43718 0.108745
646 2 0.0331392 0.443069 0.131971
647 4 0.0402829 0.448959 0.155198
619 2 0.000855854 0.425576 0.0871381
627 4 0.21654 0.42484 0.0935122
625 2 0.239285 0.421267 0.103262
626 4 0.26203 0.417693 0.113013
608 4 0.278417 0.421229 0.103991
1438 2 0.269968 0.4761 0.0966562
1439 4 0.288051 0.475758 0.113921
637 2 0.287312 0.477493 0.155299
639 4 0.29192 0.483149 0.131383
523 2 0.350372 0.487766 0.14583
525 4 0.341062 0.467688 0.157465
659 4 0.350549 0.450872 0.160989
658 2 0.345562 0.426901 0.166056
1422 4 0.00526863 0.00996572 0.188309
2480 4 0.00501287 0.0232915 0.172591
688 2 0.140404 0.0465925 0.235941
690 4 0.150076 0.0483373 0.212949
693 4 0.152862 0.0662639 0.202988
23 3 0.310576 0.042893 0.2399
21 1 0.333622 0.0451155 0.241438
25 3 0.342979 0.0435352 0.220735
759 4 0.36289 0.0527933 0.217766
1784 4 0.351606 0.0457684 0.200368
1783 2 0.353994 0.0246193 0.187246
757 2 0.37626 0.0738203 0.215691
24 3 0.338987 0.0655596 0.251011
758 4 0.389629 0.0948473 0.213616
1749 4 0.492406 0.994377 0.230175
511 2 0.0274802 0.140446 0.233657
512 4 0.0139554 0.140807 0.21263
691 2 0.153446 0.0909333 0.198956
692 4 0.15403 0.115603 0.194923
723 4 0.168261 0.125033 0.20817
721 2 0.175413 0.14234 0.224738
722 4 0.182565 0.159647 0.241307
581 4 0.323629 0.180018 0.197075
30 3 0.32992 0.160294 0.199103
28 3 0.358131 0.136437 0.191848
312 4 0.407238 0.0876227 0.203099
744 4 0.407228 0.0891398 0.224651
26 1 0.352077 0.156193 0.202406
29 3 0.356558 0.154728 0.225125
708 4 0.353882 0.175514 0.225935
310 2 0.413623 0.0885348 0.178942
742 2 0.417853 0.093224 0.246913
748 2 0.0678604 0.211177 0.223188
749 4 0.0686577 0.214159 0.198376
284 4 0.228085 0.205226 0.234202
283 2 0.245294 0.194555 0.219534
285 4 0.262504 0.183884 0.204866
580 2 0.299203 0.174685 0.197366
582 4 0.274776 0.169352 0.197657
27 3 0.364389 0.173461 0.193496
362 4 0.150027 0.268682 0.174446
372 4 0.157232 0.275231 0.191696
370 2 0.174995 0.292781 0.192979
371 4 0.192758 0.310332 0.194262
279 4 0.206526 0.29682 0.203727
277 2 0.217836 0.290588 0.225137
612 4 0.213776 0.316206 0.196706
278 4 0.229147 0.284356 0.246548
2693 4 0.00927399 0.387406 0.19894
535 2 0.12894 0.346126 0.171844
536 4 0.125537 0.339438 0.195695
298 2 0.14699 0.401899 0.229646
299 4 0.145963 0.382982 0.245964
610 2 0.212889 0.34117 0.195612
417 4 0.227502 0.36895 0.206384
415 2 0.230418 0.393617 0.203513
611 4 0.212003 0.366133 0.194518
301 2 0.323369 0.403358 0.211571
729 4 0.316191 0.387404 0.249491
303 4 0.316547 0.40334 0.235626
660 4 0.340575 0.402929 0.171123
643 2 0.424136 0.370275 0.193716
644 4 0.414148 0.375967 0.215921
447 4 0.414177 0.387624 0.23116
445 2 0.431726 0.392594 0.248263
263 4 0.04201 0.456849 0.173332
262 2 0.0536295 0.46093 0.195092
1757 4 0.0565204 0.477378 0.229772
264 4 0.065249 0.465011 0.216853
300 4 0.148017 0.420816 0.213327
603 4 0.10683 0.4332 0.227209
416 4 0.233333 0.418283 0.200641
291 4 0.245324 0.423264 0.186096
302 4 0.330192 0.403377 0.187516
289 2 0.262247 0.440838 0.191571
290 4 0.279169 0.458412 0.197046
638 4 0.282704 0.471836 0.179214
767 4 0.297642 0.470358 0.195423
766 2 0.319045 0.470465 0.20835
768 4 0.340448 0.470572 0.221276
1574 4 0.342883 0.485389 0.236413
1403 4 0.111675 0.0356546 0.263952
689 4 0.130733 0.0448476 0.258932
1402 2 0.104375 0.0124824 0.269864
675 4 0.111248 0.0526867 0.249854
673 2 0.0913829 0.0677901 0.251413
1699 2 0.20588 0.016823 0.268504
248 4 0.217944 0.0555613 0.289059
247 2 0.199979 0.0688789 0.300242
1701 4 0.21573 0.0351486 0.282372
605 4 0.224079 0.0389461 0.30161
604 2 0.229698 0.0302694 0.324376
631 2 0.335147 0.02906 0.326979
632 4 0.336208 0.0538826 0.324169
22 3 0.341844 0.0282724 0.254774
699 4 0.377654 0.00448443 0.303374
1496 4 0.358667 0.0187389 0.251505
697 2 0.393266 0.0208955 0.313962
1495 2 0.364225 0.00411066 0.271007
698 4 0.408878 0.0373065 0.324551
351 4 0.41216 0.0583303 0.324799
349 2 0.419161 0.0743946 0.306963
350 4 0.426161 0.090459 0.289128
2756 4 0.00441016 0.101955 0.32431
674 4 0.0715175 0.0828936 0.252971
579 4 0.0595253 0.141043 0.265379
513 4 0.0410051 0.140085 0.254684
577 2 0.0706654 0.160078 0.277158
530 4 0.0422564 0.130292 0.273485
529 2 0.0318327 0.119235 0.293342
531 4 0.0214089 0.108179 0.313198
398 4 0.0241101 0.095919 0.330518
600 4 0.161341 0.156576 0.322599
545 4 0.173491 0.158983 0.305309
544 2 0.171085 0.161018 0.280505
405 4 0.173626 0.140549 0.315905
249 4 0.182014 0.0821964 0.311425
403 2 0.174033 0.116065 0.32096
404 4 0.17444 0.0915811 0.326015
546 4 0.168678 0.163053 0.255701
762 4 0.445246 0.166778 0.29193
332 4 0.448061 0.14621 0.292987
743 4 0.428479 0.0973081 0.269175
333 4 0.445117 0.0973919 0.282554
331 2 0.446589 0.121801 0.287771
750 4 0.067063 0.208196 0.248001
396 4 0.0633427 0.214578 0.266391
578 4 0.0818054 0.179113 0.288937
394 2 0.0569014 0.237695 0.273413
391 2 0.0720371 0.167106 0.331668
393 4 0.0747951 0.173832 0.307745
343 2 0.239573 0.243674 0.248906
472 2 0.235235 0.228481 0.333508
473 4 0.248035 0.241938 0.316767
344 4 0.238482 0.21925 0.243666
706 2 0.352856 0.180284 0.250458
707 4 0.35183 0.185053 0.274981
613 2 0.408841 0.234112 0.321616
614 4 0.416568 0.229725 0.298245
760 2 0.431141 0.187422 0.291715
761 4 0.417036 0.208066 0.2915
418 2 0.440173 0.243841 0.272133
419 4 0.429392 0.223366 0.281605
520 2 0.49532 0.254488 0.260027
442 2 0.0162975 0.286305 0.278467
395 4 0.05046 0.260811 0.280435
444 4 0.0382294 0.27479 0.275066
389 4 0.141574 0.268829 0.330501
345 4 0.240665 0.268098 0.254147
309 4 0.230906 0.280905 0.268226
307 2 0.24906 0.296735 0.274936
308 4 0.267214 0.312565 0.281645
497 4 0.279417 0.323971 0.295532
508 2 0.264753 0.309766 0.326573
496 2 0.299725 0.32092 0.281269
509 4 0.261426 0.315114 0.302376
498 4 0.320034 0.31787 0.267006
763 2 0.394522 0.308977 0.270372
764 4 0.374669 0.299006 0.258899
765 4 0.414375 0.318947 0.281846
420 4 0.450953 0.264316 0.26266
521 4 0.471636 0.262348 0.258454
543 4 0.46243 0.281537 0.257233
541 2 0.447915 0.300464 0.264731
542 4 0.4334 0.319392 0.27223
408 4 0.0333353 0.353849 0.317997
406 2 0.0300792 0.377056 0.326717
734 4 0.133118 0.381442 0.262585
733 2 0.144594 0.366884 0.279364
735 4 0.156071 0.352327 0.296143
677 4 0.162757 0.345215 0.31363
676 2 0.185417 0.340272 0.322972
727 2 0.330818 0.399295 0.265918
728 4 0.345445 0.411185 0.282345
753 4 0.360169 0.371634 0.316389
751 2 0.375958 0.389518 0.323877
752 4 0.391748 0.407401 0.331364
446 4 0.449275 0.397564 0.265366
713 4 0.46331 0.396913 0.278914
712 2 0.47889 0.415681 0.284411
1756 2 0.040481 0.479601 0.248824
1758 4 0.0244416 0.481824 0.267875
412 2 0.107143 0.455757 0.310763
602 4 0.105357 0.444587 0.27588
601 2 0.106094 0.438894 0.251544
414 4 0.112529 0.438138 0.293859
413 4 0.101758 0.473376 0.327667
1435 2 0.225138 0.442175 0.301927
1436 4 0.23825 0.428548 0.285569
1437 4 0.212026 0.455802 0.318284
438 4 0.283319 0.428858 0.255016
437 4 0.254938 0.423338 0.295818
436 2 0.269128 0.426098 0.275417
433 2 0.319885 0.428982 0.316786
434 4 0.334276 0.420363 0.298244
1573 2 0.36117 0.480216 0.252661
1575 4 0.379457 0.475043 0.26891
1802 4 0.382114 0.457072 0.278749
1801 2 0.368882 0.438473 0.288956
1803 4 0.355651 0.419875 0.299164
231 4 0.490814 0.512517 0.293577
233 4 0.00293707 0.0501498 0.386514
318 4 0.0695513 0.0642456 0.39052
234 4 0.0527986 0.0534341 0.388452
232 2 0.0278678 0.0517919 0.387483
316 2 0.0818006 0.0444714 0.399691
317 4 0.0940499 0.0246973 0.408862
368 4 0.123312 0.0648772 0.404137
606 4 0.235316 0.0215926 0.347143
441 4 0.24107 0.0190763 0.366986
633 4 0.334087 0.00423752 0.329789
725 4 0.329295 0.00276181 0.34861
439 2 0.259566 0.00609303 0.377687
682 2 0.285102 0.0558494 0.412003
683 4 0.287381 0.0400765 0.392736
256 2 0.418559 0.044469 0.367861
257 4 0.414932 0.0470872 0.343261
425 4 0.417868 0.040622 0.411241
258 4 0.422186 0.0418508 0.392461
2643 4 0.483494 0.0693261 0.367671
452 4 0.473817 0.0836403 0.376457
2641 2 0.497979 0.0632041 0.348232
397 2 0.0457593 0.0970014 0.342981
399 4 0.0674086 0.0980837 0.355444
732 4 0.0865152 0.104754 0.358244
731 4 0.106385 0.149809 0.366957
730 2 0.0964501 0.127281 0.3626
686 4 0.127465 0.148795 0.372759
599 4 0.121325 0.157698 0.352567
598 2 0.141333 0.157137 0.337583
685 2 0.141352 0.139705 0.391459
687 4 0.155239 0.130616 0.41016
467 4 0.306759 0.166573 0.37019
515 4 0.414002 0.104089 0.377721
514 2 0.394951 0.113699 0.390755
516 4 0.3759 0.123309 0.403789
575 4 0.384586 0.141266 0.406286
453 4 0.432144 0.109532 0.386137
451 2 0.452981 0.0965863 0.381297
2653 2 0.0360221 0.174878 0.378394
2655 4 0.0169498 0.177008 0.394421
2654 4 0.0550943 0.172747 0.362366
392 4 0.069279 0.16038 0.355592
390 4 0.095411 0.254695 0.343537
275 4 0.167846 0.218688 0.388812
274 2 0.186402 0.212701 0.37316
474 4 0.222435 0.215025 0.350249
276 4 0.204959 0.206714 0.357508
411 4 0.225678 0.211615 0.400354
409 2 0.247025 0.201033 0.407938
466 2 0.297128 0.17537 0.391522
410 4 0.268371 0.190452 0.415523
615 4 0.401113 0.2385 0.344987
269 4 0.450716 0.225848 0.362809
306 4 0.444911 0.222362 0.383412
304 2 0.435083 0.207079 0.400587
305 4 0.425254 0.191795 0.417762
2801 4 0.00621472 0.298689 0.416472
2812 2 0.0160687 0.327084 0.39409
2814 4 0.0137539 0.302695 0.399088
401 4 0.145602 0.287777 0.33311
388 2 0.118492 0.261762 0.337019
617 4 0.085226 0.260253 0.361365
616 2 0.0857299 0.26878 0.384865
400 2 0.1657 0.28768 0.347985
618 4 0.0862338 0.277307 0.408364
347 4 0.0973834 0.294068 0.415619
375 4 0.197404 0.298093 0.375706
402 4 0.185797 0.287583 0.36286
373 2 0.221427 0.301153 0.369487
374 4 0.245451 0.304213 0.363268
378 4 0.264787 0.312161 0.367974
489 4 0.302188 0.276905 0.404341
376 2 0.27306 0.297574 0.38652
377 4 0.281332 0.282987 0.405066
510 4 0.268079 0.304418 0.35077
487 2 0.325446 0.268145 0.407082
716 4 0.389245 0.249323 0.356761
715 2 0.378395 0.255649 0.378382
717 4 0.367545 0.261976 0.400002
488 4 0.348704 0.259386 0.409823
268 2 0.451865 0.250008 0.369146
270 4 0.453014 0.274168 0.375482
2924 4 0.449569 0.275766 0.395463
407 4 0.0268231 0.400262 0.335438
548 4 0.0185139 0.408226 0.35149
2813 4 0.0183835 0.351473 0.389092
678 4 0.208076 0.335328 0.332314
504 4 0.186497 0.401583 0.405635
502 2 0.211465 0.400422 0.404999
503 4 0.236434 0.39926 0.404362
710 4 0.176694 0.38644 0.416059
650 4 0.255555 0.390468 0.407609
561 4 0.407516 0.396774 0.334467
559 2 0.419432 0.40001 0.356209
667 2 0.401917 0.405393 0.41017
668 4 0.420008 0.411498 0.394027
560 4 0.431349 0.403247 0.37795
588 4 0.439453 0.419369 0.389689
547 2 0.0203394 0.432937 0.348137
549 4 0.0221648 0.457647 0.344784
775 2 0.0590565 0.468638 0.334331
777 4 0.0348866 0.463642 0.330327
776 4 0.0832264 0.473635 0.338334
1545 4 0.0952237 0.491367 0.337351
773 4 0.177837 0.490114 0.39663
2 3 0.327916 0.484825 0.351634
435 4 0.305494 0.437601 0.335327
4 3 0.31903 0.448857 0.345314
1 1 0.333741 0.463062 0.356277
5 3 0.355012 0.459288 0.34907
3 3 0.332429 0.459672 0.379195
586 2 0.454316 0.419472 0.409796
1781 4 0.123567 0.00866109 0.432793
428 4 0.10895 0.0181617 0.422647
1780 2 0.1356 0.0132932 0.454215
1782 4 0.147634 0.0179254 0.475638
341 4 0.150063 0.0378847 0.468731
2430 4 0.1495 0.0342676 0.489995
340 2 0.156513 0.0616968 0.464661
1180 2 0.284042 0.0581127 0.472315
1181 4 0.280847 0.0425102 0.49159
432 4 0.30171 0.0381537 0.494996
1182 4 0.287237 0.0737153 0.453039
430 2 0.324067 0.0271509 0.497066
842 4 0.390963 0.993952 0.453411
841 2 0.371746 2.97271e-05 0.468207
843 4 0.352529 0.00610783 0.483004
431 4 0.346424 0.0161481 0.499135
426 4 0.396863 0.0012627 0.433832
424 2 0.407365 0.0209424 0.422536
1217 4 0.411728 0.998721 0.449012
457 2 0.0173302 0.10955 0.460431
719 4 0.0488069 0.119958 0.468551
459 4 0.0416909 0.104102 0.459002
718 2 0.0678415 0.112687 0.483043
367 2 0.123093 0.0869196 0.415938
369 4 0.122874 0.108962 0.427739
939 4 0.126282 0.122187 0.442641
937 2 0.128309 0.145505 0.451433
342 4 0.162962 0.085509 0.46059
1151 4 0.168681 0.118813 0.417492
1152 4 0.176494 0.0983653 0.462454
1150 2 0.172587 0.108589 0.439973
684 4 0.282824 0.0716224 0.431269
321 4 0.293686 0.13013 0.44978
320 4 0.27203 0.0854768 0.443629
319 2 0.282858 0.107803 0.446704
899 4 0.287362 0.138322 0.466954
898 2 0.283494 0.162637 0.47131
471 4 0.029927 0.230557 0.502183
938 4 0.130336 0.168824 0.460226
1034 4 0.138865 0.184424 0.450546
261 4 0.116529 0.237614 0.454883
1035 4 0.133865 0.231808 0.465728
1033 2 0.136365 0.208116 0.458137
695 4 0.121103 0.247586 0.473281
694 2 0.11017 0.248525 0.495748
858 4 0.210887 0.219892 0.507934
468 4 0.287497 0.184167 0.412854
900 4 0.279625 0.186953 0.475665
574 2 0.396647 0.161641 0.414322
813 4 0.345645 0.232352 0.478597
266 4 0.361547 0.232147 0.464437
576 4 0.408708 0.182016 0.422357
265 2 0.364248 0.243409 0.442278
2657 4 0.479364 0.188511 0.428732
2845 2 0.994628 0.284406 0.491143
2800 2 0.0029421 0.304334 0.440609
2847 4 0.0062427 0.291724 0.470245
260 4 0.099441 0.274019 0.425161
259 2 0.107985 0.255816 0.440022
346 2 0.106616 0.31356 0.428269
348 4 0.115848 0.333052 0.440919
10 3 0.121953 0.322256 0.457055
9 3 0.140301 0.317952 0.489651
1259 4 0.130896 0.311348 0.506501
6 1 0.131008 0.333214 0.474848
267 4 0.36695 0.254671 0.420118
238 2 0.392274 0.303874 0.451984
240 4 0.370313 0.315773 0.450834
335 4 0.368163 0.335119 0.447412
239 4 0.414234 0.291975 0.453133
2923 2 0.435119 0.281061 0.415168
2925 4 0.420668 0.286357 0.434874
2456 4 0.487016 0.302486 0.461627
584 4 0.470147 0.29322 0.462762
583 2 0.453914 0.282079 0.478175
585 4 0.437681 0.270938 0.493587
3354 4 0.000202331 0.377021 0.498448
680 4 0.0420763 0.412783 0.415892
679 2 0.06211 0.416991 0.430249
7 3 0.114492 0.344988 0.485699
681 4 0.0821437 0.4212 0.444606
8 3 0.147262 0.34808 0.467554
711 4 0.152044 0.411943 0.45131
709 2 0.164369 0.399192 0.433684
649 2 0.271223 0.372554 0.415275
651 4 0.286891 0.35464 0.422942
669 4 0.383825 0.399289 0.426314
334 2 0.374321 0.357652 0.438495
336 4 0.380479 0.380185 0.429577
926 4 0.453122 0.361956 0.498264
568 2 0.116381 0.495607 0.445678
384 4 0.129273 0.455448 0.455662
569 4 0.117153 0.4723 0.454699
382 2 0.110724 0.438853 0.458059
383 4 0.092176 0.422258 0.460457
772 2 0.181718 0.481135 0.419641
634 2 0.184467 0.475461 0.481081
635 4 0.19101 0.464842 0.459411
774 4 0.185598 0.472157 0.442652
1910 4 0.462865 0.469037 0.486465
661 2 0.454764 0.442877 0.466463
662 4 0.445951 0.458372 0.483995
663 4 0.463577 0.427381 0.44893
2507 4 0.483805 0.421835 0.445613
587 4 0.469179 0.419575 0.429902
1909 2 0.471284 0.490388 0.496388
2428 2 0.151482 0.0396341 0.514336
2429 4 0.153465 0.0450006 0.538676
962 4 0.247847 0.994234 0.49121
1032 4 0.270227 0.068825 0.585525
963 4 0.286213 0.0242458 0.502523
961 2 0.26703 0.00923968 0.496866
1091 4 0.369611 0.991941 0.574172
2196 4 0.374592 0.00752984 0.560222
1062 4 0.475016 0.0270688 0.60071
808 2 0.479657 0.0778094 0.567978
810 4 0.458947 0.0734 0.55468
720 4 0.0868762 0.105417 0.497534
469 2 0.00882261 0.227062 0.515128
879 4 0.13275 0.227493 0.571715
1272 4 0.14133 0.212655 0.580839
877 2 0.117565 0.238957 0.555493
857 4 0.172967 0.22058 0.540527
856 2 0.191927 0.220236 0.52423
811 2 0.357966 0.238072 0.499588
952 2 0.390265 0.236128 0.560834
812 4 0.370288 0.243792 0.52058
954 4 0.405542 0.230935 0.579934
905 4 0.423759 0.226909 0.571605
904 2 0.435072 0.207646 0.582837
982 2 0.0162243 0.294377 0.541103
984 4 0.0346506 0.302184 0.556093
326 4 0.0536973 0.29191 0.552716
1136 4 0.0526257 0.313502 0.556688
325 2 0.0697241 0.276626 0.54111
1135 2 0.0499111 0.338236 0.559153
696 4 0.0992368 0.249464 0.518215
878 4 0.10238 0.250421 0.53927
327 4 0.0857509 0.261342 0.529503
1258 2 0.13893 0.290636 0.517976
1260 4 0.146964 0.269925 0.529451
1237 2 0.304966 0.289925 0.58335
1238 4 0.314593 0.278236 0.563454
953 4 0.374988 0.241321 0.541733
792 4 0.332495 0.287773 0.561376
790 2 0.348235 0.273235 0.548487
791 4 0.363974 0.258697 0.535599
873 4 0.384708 0.256567 0.530073
871 2 0.402552 0.266793 0.515853
872 4 0.420397 0.277019 0.501634
3113 4 0.492038 0.277433 0.5752
936 4 0.0283756 0.388689 0.555592
934 2 0.0290405 0.409138 0.569965
3353 4 0.0238057 0.397413 0.537535
3352 2 0.012004 0.387217 0.517991
1137 4 0.0471966 0.362969 0.561617
1191 4 0.213772 0.399015 0.555482
1189 2 0.227624 0.383048 0.568837
1190 4 0.241476 0.367082 0.582193
896 4 0.19587 0.399985 0.565769
1454 4 0.338948 0.408249 0.546154
880 2 0.349873 0.380533 0.570187
881 4 0.338906 0.388186 0.54906
925 2 0.456136 0.368739 0.522141
927 4 0.459151 0.375522 0.546017
1001 4 0.471141 0.386777 0.556557
1000 2 0.470509 0.404868 0.573805
539 4 0.0577614 0.488579 0.516139
538 2 0.0388855 0.473283 0.510231
3430 2 0.0235758 0.475116 0.579312
3432 4 0.0289532 0.450699 0.579562
540 4 0.0200095 0.457987 0.504324
935 4 0.0297055 0.429587 0.584338
1160 4 0.158575 0.427626 0.570003
1159 2 0.139834 0.432369 0.554146
1161 4 0.121092 0.437111 0.538289
2154 4 0.300733 0.500515 0.572951
1453 2 0.354527 0.426835 0.540069
1455 4 0.370106 0.445421 0.533984
1892 4 0.0113445 0.0247562 0.652984
1183 2 0.0261801 0.0583753 0.666785
1184 4 0.0262242 0.0333842 0.665999
1284 4 0.164791 0.0580952 0.592081
1030 2 0.249618 0.0556468 0.590702
1283 4 0.208507 0.0352037 0.600181
2133 4 0.223093 0.0120205 0.658784
1282 2 0.186649 0.0466495 0.596131
2132 4 0.222819 0.0374861 0.615748
1031 4 0.22901 0.0424687 0.59588
2131 2 0.222956 0.0247533 0.637266
2282 4 0.318047 0.00616939 0.618792
2281 2 0.325292 0.0173324 0.63996
2283 4 0.332538 0.0284953 0.661127
1060 2 0.488757 0.0072046 0.607172
1083 4 0.00577236 0.117937 0.625277
3179 4 0.00104567 0.135651 0.61729
1081 2 0.0203321 0.110385 0.644149
1082 4 0.0348919 0.102833 0.663021
945 4 0.0921814 0.103976 0.666275
1059 4 0.162867 0.0723034 0.605382
1057 2 0.167741 0.0953558 0.613749
1153 2 0.183988 0.161677 0.621686
1155 4 0.182568 0.136881 0.618802
1058 4 0.172615 0.118408 0.622116
909 4 0.194516 0.11933 0.620442
907 2 0.209716 0.117138 0.640173
908 4 0.224917 0.114945 0.659903
886 2 0.32374 0.153624 0.644446
1193 4 0.38912 0.139282 0.601453
887 4 0.34529 0.142557 0.638257
1194 4 0.35082 0.123921 0.6297
1192 2 0.36997 0.131602 0.615577
830 4 0.358561 0.129979 0.649104
1026 4 0.436847 0.163279 0.646972
1143 4 0.442043 0.147835 0.660763
1263 4 0.432936 0.165648 0.668009
852 4 0.0583292 0.238774 0.666139
1270 2 0.161355 0.204946 0.593675
1154 4 0.185409 0.186473 0.62457
1271 4 0.181379 0.197237 0.606511
1221 4 0.201013 0.197821 0.615872
1219 2 0.223284 0.20675 0.622903
1220 4 0.245555 0.215679 0.629935
798 4 0.262489 0.229042 0.63309
1212 4 0.26235 0.209212 0.641181
888 4 0.30219 0.164691 0.650634
1211 4 0.300652 0.177701 0.634801
1210 2 0.281501 0.193457 0.637991
796 2 0.258454 0.248477 0.648294
3114 4 0.480029 0.244381 0.610754
1024 2 0.437809 0.166111 0.622148
906 4 0.446384 0.188383 0.594068
1025 4 0.438772 0.168944 0.597324
1244 4 0.0218703 0.294542 0.658465
1243 2 0.0365837 0.274504 0.655783
1245 4 0.0512971 0.254467 0.653102
1209 4 0.0716557 0.254277 0.659255
946 2 0.158835 0.281274 0.662436
1207 2 0.0953373 0.261188 0.663329
948 4 0.18049 0.285682 0.65074
1239 4 0.29534 0.301614 0.603247
804 4 0.277941 0.308842 0.596477
802 2 0.265127 0.329695 0.591365
3112 2 0.486033 0.260907 0.592977
897 4 0.16336 0.412034 0.601806
992 4 0.150356 0.424044 0.61345
895 2 0.179615 0.40601 0.583787
803 4 0.252313 0.350547 0.586252
882 4 0.36084 0.372879 0.591313
929 4 0.369591 0.347968 0.635597
930 4 0.38065 0.372333 0.59335
928 2 0.37512 0.360151 0.614473
1101 4 0.415156 0.382901 0.675944
1206 4 0.470806 0.417159 0.609343
1099 2 0.432344 0.398693 0.666979
1100 4 0.449532 0.414486 0.658015
3264 4 0.0164421 0.442708 0.594714
1041 4 0.0374405 0.443995 0.598293
1039 2 0.0613672 0.440371 0.604582
3262 2 0.00845774 0.435181 0.617181
3240 4 0.0175784 0.479661 0.664974
1040 4 0.085294 0.436747 0.610872
993 4 0.101485 0.42725 0.603345
991 2 0.125921 0.425647 0.608397
1186 2 0.224144 0.495082 0.656434
1173 4 0.292535 0.489818 0.586714
1172 4 0.288809 0.459694 0.626455
1171 2 0.290672 0.474756 0.606584
891 4 0.290443 0.458231 0.646419
1002 4 0.469877 0.42296 0.591052
1204 2 0.468541 0.422366 0.633693
3183 4 0.464865 0.492211 0.622238
3181 2 0.4797 0.477868 0.608117
3182 4 0.494535 0.463526 0.593996
1205 4 0.466276 0.427573 0.658044
1185 4 0.0261361 0.0833665 0.667571
4338 4 0.0111571 0.0197151 0.673677
4336 2 0.999995 0.00843314 0.692998
824 4 0.222594 0.0287241 0.671837
823 2 0.208495 0.0171673 0.68895
2400 4 0.358735 0.0712674 0.728845
43 3 0.446939 0.0783856 0.735234
846 4 0.435708 0.0615978 0.738786
45 3 0.480651 0.0787539 0.718469
943 2 0.0688076 0.0962939 0.670727
944 4 0.0454338 0.0886115 0.67518
1076 4 0.0280286 0.0981167 0.682957
1075 2 0.0111985 0.104234 0.700407
1077 4 0.994368 0.110352 0.717857
1227 4 0.234715 0.104695 0.673969
1226 4 0.240014 0.125647 0.719064
1225 2 0.237364 0.115171 0.696516
1148 4 0.232701 0.11969 0.738246
1130 4 0.225418 0.137764 0.729823
1129 2 0.221525 0.157698 0.744405
1147 2 0.219326 0.101595 0.749149
1004 4 0.302023 0.123069 0.759627
829 2 0.369623 0.131276 0.67149
831 4 0.380686 0.132572 0.693875
41 1 0.461783 0.0908586 0.722487
44 3 0.45184 0.0969172 0.702417
42 3 0.467344 0.109929 0.734087
1142 4 0.451344 0.10399 0.68294
1141 2 0.446693 0.125913 0.671852
3426 4 0.497279 0.163449 0.727868
1179 4 0.00624119 0.162727 0.703589
850 2 0.0601182 0.216324 0.677001
1177 2 0.0265533 0.171689 0.692087
1178 4 0.0468654 0.180651 0.680586
851 4 0.0619072 0.193874 0.687863
1107 4 0.0658007 0.172856 0.686579
1105 2 0.0816099 0.174401 0.705888
1106 4 0.0974191 0.175947 0.725198
1073 4 0.103249 0.174595 0.744416
1072 2 0.108096 0.197948 0.751923
1074 4 0.112943 0.2213 0.759429
1299 4 0.29738 0.198056 0.720737
1298 4 0.267744 0.22876 0.746808
1297 2 0.282562 0.213408 0.733773
1086 4 0.316796 0.196867 0.718087
1261 2 0.418612 0.170305 0.687966
1084 2 0.333742 0.184315 0.731521
1262 4 0.404287 0.174962 0.707924
3270 4 0.480546 0.152435 0.735116
1145 4 0.460049 0.212687 0.712907
1144 2 0.468829 0.189457 0.715821
1146 4 0.477608 0.166228 0.718735
1208 4 0.119019 0.2681 0.667402
820 2 0.127052 0.270338 0.710986
822 4 0.126902 0.263262 0.687005
947 4 0.13718 0.276866 0.674132
821 4 0.127203 0.277415 0.734967
1242 4 0.112564 0.284069 0.74823
797 4 0.25442 0.267912 0.663498
1063 2 0.253042 0.326057 0.71168
1065 4 0.253774 0.314243 0.689656
1098 4 0.317056 0.322232 0.739634
3123 4 0.493447 0.24372 0.710273
892 2 0.0430833 0.388804 0.723815
893 4 0.0502828 0.364871 0.724553
815 4 0.0546896 0.361829 0.745206
942 4 0.0706432 0.361946 0.731132
894 4 0.0358837 0.412738 0.723076
940 2 0.094357 0.369087 0.72769
941 4 0.118071 0.376228 0.724249
1067 4 0.118883 0.372038 0.704693
1066 2 0.143101 0.372875 0.698535
1068 4 0.16732 0.373713 0.692376
1139 4 0.228358 0.3894 0.689675
1029 4 0.22152 0.395104 0.707657
1028 4 0.17366 0.380906 0.710576
1027 2 0.19759 0.388005 0.709116
1064 4 0.252309 0.337871 0.733705
1140 4 0.269798 0.416589 0.696317
1138 2 0.249078 0.402994 0.692996
806 4 0.27145 0.349077 0.734106
805 2 0.28785 0.366738 0.740765
807 4 0.304249 0.384399 0.747423
1250 4 0.448881 0.414397 0.738246
2172 4 0.0280899 0.48737 0.681935
1279 2 0.0266951 0.447251 0.69524
3276 4 0.0174947 0.421189 0.730176
1983 4 0.0358587 0.432865 0.730845
1280 4 0.026708 0.428562 0.71185
1981 2 0.0465829 0.448665 0.746987
1281 4 0.0266822 0.465941 0.67863
1174 2 0.208921 0.492551 0.718158
1188 4 0.216429 0.48864 0.679329
1176 4 0.194559 0.493748 0.738591
2016 4 0.177273 0.497027 0.747684
1175 4 0.223282 0.491353 0.697726
889 2 0.286921 0.468601 0.668897
890 4 0.283399 0.478971 0.691374
1988 4 0.289399 0.485171 0.711415
1987 2 0.311057 0.495432 0.718544
1989 4 0.332714 0.505694 0.725674
1269 4 0.450115 0.431319 0.671596
2169 4 0.477045 0.488373 0.69549
1268 4 0.464805 0.477625 0.683457
1267 2 0.45746 0.454472 0.677527
1249 2 0.453189 0.436621 0.748863
1196 4 0.0685163 0.0294028 0.820661
911 4 0.080089 0.047492 0.821731
1203 4 0.0771986 0.0374235 0.802828
2047 2 0.123051 0.994535 0.744691
1201 2 0.0918833 0.0315073 0.783475
1202 4 0.106568 0.0255912 0.764122
2049 4 0.104893 0.0102943 0.751554
910 2 0.0893039 0.0701695 0.826829
1149 4 0.205951 0.0835004 0.760052
1050 4 0.335676 0.0800875 0.830079
1049 4 0.328371 0.059584 0.785057