ITEM: TIMESTEP
2610000
ITEM: NUMBER OF ATOMS
4590
ITEM: BOX BOUNDS pp pp pp
-9.9985700000000008e+00 9.9985700000000008e+00
-9.9985700000000008e+00 9.9985700000000008e+00
-9.9985700000000008e+00 9.9985700000000008e+00
ITEM: ATOMS id type xs ys zs
1666 2 0.0769278 0.0558634 0.0338775
1667 4 0.0674616 0.0789437 0.0321833
1668 4 0.0863939 0.0327831 0.0355716
1475 4 0.219852 0.00929065 0.0484932
1474 2 0.199208 0.997821 0.0567073
654 4 0.246488 0.0788528 0.0760099
490 2 0.289878 0.0535128 0.0155918
652 2 0.265556 0.0825722 0.0602692
491 4 0.293188 0.0742386 0.0291809
591 4 0.0561276 0.095608 0.0399812
702 4 0.077426 0.0965129 0.0400371
589 2 0.0358192 0.109156 0.0345772
590 4 0.0155109 0.122704 0.0291732
3232 2 0.00960485 0.150206 0.00389999
3233 4 0.0017892 0.128493 0.0135259
1248 4 0.99671 0.111867 0.0272694
421 2 0.148321 0.0971514 0.0121172
422 4 0.1377 0.113908 0.0273354
700 2 0.093027 0.104636 0.0578079
701 4 0.108628 0.112759 0.0755787
448 2 0.142782 0.11999 0.0766713
450 4 0.163578 0.119508 0.062798
1133 4 0.184308 0.158977 0.0199487
653 4 0.284624 0.0862915 0.0445285
359 4 0.268739 0.15465 0.00270152
565 2 0.283851 0.117612 0.0203442
566 4 0.273858 0.139402 0.0132401
567 4 0.293844 0.0958208 0.0274484
556 2 0.38657 0.167523 0.0517649
557 4 0.385991 0.152858 0.0720084
664 2 0.35411 0.169139 0.00357231
987 4 0.481856 0.159284 0.00626648
477 4 0.0675022 0.17586 0.0860715
913 2 0.150353 0.23928 0.0102992
914 4 0.166852 0.252885 0.0232553
558 4 0.387148 0.182187 0.0315214
666 4 0.373651 0.179307 0.015401
571 2 0.37376 0.217528 0.0242578
572 4 0.385896 0.197292 0.0159865
573 4 0.361624 0.237763 0.0325291
623 4 0.39974 0.23609 0.068504
324 4 0.416756 0.232426 0.0778189
322 2 0.437215 0.232802 0.0634501
771 4 0.475757 0.241641 0.0406326
518 4 0.472161 0.242501 0.0620754
517 2 0.494015 0.234208 0.0709508
323 4 0.457674 0.233178 0.0490814
293 4 0.14302 0.323855 0.0557031
292 2 0.124427 0.326594 0.0721949
507 4 0.151592 0.31766 0.0366833
505 2 0.155448 0.292963 0.0360778
506 4 0.159305 0.268266 0.0354724
482 4 0.243928 0.317997 0.0648013
481 2 0.227187 0.330161 0.0507665
1071 4 0.370896 0.254167 0.0231673
1069 2 0.378055 0.270462 0.00560651
955 2 0.415294 0.310595 0.00210686
622 2 0.387523 0.256503 0.0761989
769 2 0.481437 0.256034 0.0209917
282 4 0.440621 0.322949 0.0266194
770 4 0.487118 0.270427 0.00135085
956 4 0.425854 0.329371 0.0147999
1170 4 0.00612349 0.352843 0.0139678
1168 2 0.00929945 0.376971 0.00823158
1056 4 0.0149709 0.337471 0.0230441
288 4 0.148464 0.338337 0.0406338
286 2 0.172142 0.346351 0.0411675
287 4 0.195821 0.354366 0.0417012
483 4 0.210447 0.342325 0.0367317
607 2 0.289955 0.399196 0.0787654
1047 4 0.410931 0.382942 0.0134196
280 2 0.449889 0.336822 0.0452426
281 4 0.459158 0.350695 0.0638658
494 4 0.446605 0.361 0.0775944
551 4 0.000316304 0.417992 0.00675669
550 2 0.00550704 0.428986 0.0286055
552 4 0.0106978 0.439979 0.0504543
315 4 0.0287282 0.45103 0.0488443
313 2 0.0497449 0.461448 0.0575009
620 4 0.0169711 0.453639 0.0665915
314 4 0.0707615 0.471867 0.0661575
1691 4 0.0711169 0.493729 0.0637879
1787 4 0.0891901 0.482459 0.0673898
1786 2 0.112015 0.472373 0.0689643
1788 4 0.134839 0.462286 0.0705389
608 4 0.284083 0.417032 0.0622558
626 4 0.277437 0.430295 0.0744014
243 4 0.250433 0.484865 0.072872
627 4 0.271054 0.479666 0.0696651
625 2 0.274245 0.45498 0.0720332
244 2 0.330702 0.477214 0.0365652
245 4 0.315091 0.485927 0.0540451
2388 4 0.412525 0.497974 0.0131261
40 3 0.340707 0.457558 0.00121762
246 4 0.346314 0.468501 0.0190853
37 3 0.35696 0.426921 0.0150062
272 4 0.334647 0.478236 0.00255785
562 2 0.451674 0.492304 0.00210127
564 4 0.475539 0.484864 0.00264922
2480 4 0.994874 0.997602 0.158752
19 3 0.00894421 0.0449674 0.0883167
2481 4 0.0141658 0.0417946 0.145504
16 1 0.0124668 0.0588596 0.106565
2479 2 0.00451988 0.0196981 0.152128
18 3 0.0100928 0.0468222 0.126259
20 3 0.0333129 0.067966 0.105489
297 4 0.410663 0.0233736 0.1005
1785 4 0.359477 0.0252604 0.173037
296 4 0.454873 0.0350748 0.0802691
295 2 0.432768 0.0292242 0.0903845
449 4 0.121986 0.120473 0.0905446
235 2 0.0925255 0.145534 0.0925356
236 4 0.100225 0.12175 0.0930233
475 2 0.06731 0.200245 0.0915961
476 4 0.0671179 0.22463 0.0971207
237 4 0.0848264 0.169317 0.0920479
339 4 0.0842484 0.223661 0.107474
337 2 0.102165 0.2382 0.117106
461 4 0.288188 0.205171 0.107746
354 4 0.272217 0.213351 0.118442
460 2 0.313117 0.205373 0.109663
352 2 0.264081 0.236918 0.116544
462 4 0.338046 0.205575 0.111581
254 4 0.397935 0.19516 0.117948
253 2 0.373544 0.19282 0.11297
255 4 0.349153 0.190481 0.107991
630 4 0.401833 0.199587 0.13751
28 3 0.354776 0.179394 0.154581
629 4 0.451705 0.198769 0.133933
628 2 0.426769 0.199178 0.135721
294 4 0.105834 0.329333 0.0886868
338 4 0.120082 0.252739 0.126739
363 4 0.120733 0.270141 0.139185
456 4 0.0979878 0.318779 0.103322
361 2 0.136252 0.26988 0.158788
454 2 0.0978103 0.330536 0.125388
738 4 0.205821 0.254765 0.165191
736 2 0.224278 0.257107 0.148486
737 4 0.242734 0.259448 0.131781
353 4 0.255946 0.260484 0.114645
756 4 0.248289 0.31115 0.0845936
755 4 0.246784 0.278466 0.122411
754 2 0.247537 0.294808 0.103502
252 4 0.251883 0.331459 0.0792594
741 4 0.386229 0.293856 0.0895486
739 2 0.371012 0.309496 0.101754
624 4 0.375306 0.276917 0.0838939
740 4 0.355794 0.325137 0.113959
455 4 0.0976328 0.342293 0.147455
537 4 0.107198 0.351459 0.161982
250 2 0.270863 0.346044 0.0864849
251 4 0.289843 0.360629 0.0937105
609 4 0.295826 0.381359 0.095275
387 4 0.309378 0.367202 0.0867334
385 2 0.326922 0.354459 0.0991848
15 3 0.397338 0.335582 0.15223
386 4 0.344465 0.341716 0.111636
14 3 0.402431 0.354787 0.120247
11 1 0.398279 0.356389 0.14302
495 4 0.417559 0.365564 0.118044
13 3 0.378275 0.36757 0.146658
645 4 0.414158 0.384286 0.168532
671 4 0.463748 0.350388 0.0847802
12 3 0.415337 0.36827 0.152871
493 2 0.432082 0.363282 0.0978193
670 2 0.48312 0.341958 0.0981524
595 2 0.448337 0.396516 0.143765
596 4 0.470952 0.405781 0.138484
597 4 0.425722 0.387251 0.149047
2652 4 0.488784 0.398628 0.131518
646 2 0.00530988 0.484507 0.135152
647 4 0.0178056 0.468581 0.149829
263 4 0.0354067 0.463275 0.158039
639 4 0.269365 0.505626 0.14898
1440 4 0.265061 0.489921 0.0885316
525 4 0.341767 0.45886 0.151145
523 2 0.35564 0.47139 0.13454
524 4 0.369512 0.483921 0.117935
659 4 0.334406 0.443614 0.163346
688 2 0.139003 0.0628821 0.239757
690 4 0.152765 0.061444 0.218932
693 4 0.155383 0.0762347 0.206112
1700 4 0.208987 0.0345456 0.244188
1506 4 0.281504 0.0196571 0.221654
21 1 0.325189 0.0564038 0.240397
23 3 0.307414 0.0487446 0.227599
24 3 0.317548 0.071315 0.256449
1783 2 0.351352 0.0413148 0.190398
25 3 0.340569 0.0665792 0.227034
1784 4 0.343227 0.0573692 0.207759
759 4 0.360532 0.0585439 0.221467
757 2 0.38287 0.068996 0.225581
758 4 0.405209 0.0794482 0.229695
1749 4 0.482399 0.00818929 0.218201
1747 2 0.494304 0.0193532 0.237144
312 4 0.425614 0.0776479 0.223227
744 4 0.418798 0.0672407 0.241235
310 2 0.441601 0.0880162 0.207038
511 2 0.00689212 0.137079 0.235751
723 4 0.168324 0.141797 0.195053
721 2 0.172911 0.153595 0.216616
691 2 0.163311 0.0999375 0.205395
692 4 0.171238 0.12364 0.204679
285 4 0.272386 0.161455 0.238393
707 4 0.410502 0.160392 0.23625
311 4 0.457589 0.0983846 0.190848
748 2 0.0374207 0.207036 0.2152
749 4 0.0286008 0.185048 0.207205
750 4 0.0462405 0.229024 0.223195
396 4 0.0640928 0.233667 0.233214
722 4 0.177499 0.165393 0.238178
580 2 0.298909 0.17152 0.204651
582 4 0.287743 0.169361 0.226919
581 4 0.310076 0.173678 0.182384
283 2 0.254709 0.176173 0.248193
30 3 0.328019 0.182218 0.180919
27 3 0.357864 0.204585 0.182303
706 2 0.394924 0.16089 0.216699
708 4 0.379346 0.161389 0.197147
29 3 0.361641 0.168032 0.190193
26 1 0.350418 0.183476 0.177003
362 4 0.15177 0.269619 0.178391
372 4 0.156648 0.288834 0.176801
370 2 0.177367 0.291121 0.19061
371 4 0.198085 0.293408 0.20442
279 4 0.217082 0.300797 0.212808
277 2 0.216775 0.287755 0.234139
612 4 0.205603 0.312575 0.199088
610 2 0.222372 0.33079 0.195594
763 2 0.399571 0.327689 0.23741
765 4 0.414033 0.307511 0.234427
542 4 0.420702 0.29441 0.246033
2694 4 0.994035 0.360368 0.22232
364 2 0.0013283 0.33199 0.237822
366 4 0.0121837 0.352392 0.228277
535 2 0.118732 0.370044 0.174096
536 4 0.130266 0.388628 0.18621
300 4 0.15125 0.404252 0.246064
603 4 0.151275 0.422482 0.23655
417 4 0.237631 0.368018 0.195985
415 2 0.249221 0.376213 0.216569
611 4 0.23914 0.349005 0.1921
416 4 0.260811 0.384407 0.237153
303 4 0.329377 0.386105 0.243994
437 4 0.272312 0.423702 0.239775
301 2 0.33965 0.387279 0.221229
660 4 0.340673 0.40573 0.19538
302 4 0.349924 0.388453 0.198464
644 4 0.408251 0.400288 0.21554
447 4 0.425028 0.410976 0.219408
643 2 0.411204 0.392287 0.192036
445 2 0.432057 0.418585 0.242165
1467 4 0.0227679 0.493877 0.174
262 2 0.0261105 0.45391 0.179277
1757 4 0.0311802 0.446394 0.215094
264 4 0.0168143 0.444545 0.200515
1756 2 0.031022 0.460531 0.235716
601 2 0.137345 0.439901 0.247851
637 2 0.270536 0.493058 0.170563
658 2 0.337539 0.424672 0.179363
1436 4 0.253168 0.43335 0.236737
291 4 0.26317 0.422761 0.220376
638 4 0.271708 0.480489 0.192147
289 2 0.271514 0.441687 0.206327
290 4 0.279858 0.460613 0.192278
767 4 0.291891 0.477675 0.199299
766 2 0.316375 0.476532 0.204241
768 4 0.340858 0.475388 0.209184
1574 4 0.346134 0.483704 0.226282
1573 2 0.364126 0.477593 0.242535
673 2 0.0863092 0.0779142 0.270872
689 4 0.12524 0.0643202 0.260583
675 4 0.109226 0.0684585 0.274129
1404 4 0.104896 0.000527012 0.275602
1403 4 0.111055 0.0490337 0.26512
1402 2 0.107975 0.0247804 0.270361
1699 2 0.206252 0.0305068 0.268711
248 4 0.195042 0.033724 0.311364
247 2 0.186314 0.0571253 0.312531
1701 4 0.203517 0.026468 0.293234
605 4 0.214245 0.0237325 0.311789
604 2 0.231809 0.0169564 0.328245
632 4 0.30326 0.0386238 0.337657
1496 4 0.334033 0.0198532 0.257973
22 3 0.335008 0.038486 0.250966
699 4 0.371296 0.00997351 0.298353
1495 2 0.346748 0.00649893 0.27486
697 2 0.376297 0.0274692 0.315502
1497 4 0.359464 0.993145 0.291746
349 2 0.406395 0.0790063 0.315961
351 4 0.393103 0.0626291 0.329388
531 4 0.0155629 0.132821 0.318275
513 4 0.018236 0.15422 0.249988
579 4 0.0374934 0.148415 0.258071
530 4 0.0198184 0.147068 0.270529
529 2 0.0176907 0.139945 0.294402
674 4 0.0633928 0.0873699 0.267616
600 4 0.154354 0.142367 0.31745
545 4 0.156308 0.151797 0.298471
405 4 0.15512 0.13064 0.299786
404 4 0.158945 0.0813582 0.307361
403 2 0.157033 0.105999 0.303573
544 2 0.159714 0.159613 0.274966
249 4 0.177585 0.0805267 0.313699
742 2 0.424003 0.0797608 0.262243
762 4 0.432658 0.159852 0.307522
350 4 0.419687 0.0953836 0.302534
333 4 0.418976 0.110986 0.288168
743 4 0.429208 0.0922809 0.283251
332 4 0.434097 0.158645 0.287352
331 2 0.426537 0.134815 0.28776
577 2 0.0490486 0.170414 0.260847
578 4 0.0606037 0.192413 0.263622
394 2 0.0594565 0.249808 0.251739
391 2 0.0790362 0.198089 0.297284
392 4 0.082045 0.194108 0.321784
393 4 0.0760273 0.202071 0.272783
2654 4 0.0631776 0.201385 0.327274
546 4 0.163121 0.167429 0.251461
275 4 0.17068 0.218667 0.336404
284 4 0.237032 0.190892 0.257994
344 4 0.245289 0.209799 0.258275
343 2 0.233446 0.231766 0.256736
276 4 0.215482 0.204106 0.319627
474 4 0.22811 0.200712 0.334502
274 2 0.193081 0.211387 0.328015
613 2 0.394878 0.232152 0.328838
614 4 0.406253 0.223466 0.308336
761 4 0.418767 0.207384 0.314485
760 2 0.425712 0.183618 0.311004
419 4 0.423358 0.218131 0.29668
520 2 0.488364 0.249042 0.268364
418 2 0.433494 0.232514 0.278915
420 4 0.443629 0.246897 0.261151
521 4 0.465546 0.245358 0.258827
442 2 0.0160116 0.286091 0.268249
395 4 0.0548203 0.265949 0.270264
444 4 0.0366095 0.272506 0.272294
278 4 0.216468 0.274714 0.25547
345 4 0.221604 0.253733 0.255196
309 4 0.220462 0.263736 0.274314
307 2 0.23553 0.275385 0.290515
308 4 0.250597 0.287034 0.306715
509 4 0.253462 0.293891 0.326649
497 4 0.258461 0.306771 0.310337
496 2 0.274489 0.325082 0.316083
541 2 0.437124 0.275565 0.245441
543 4 0.453547 0.25672 0.244849
298 2 0.148569 0.382096 0.257339
734 4 0.138862 0.349244 0.28297
733 2 0.151255 0.351791 0.304536
299 4 0.145887 0.359941 0.268614
735 4 0.163648 0.354338 0.326103
677 4 0.175155 0.339156 0.320129
676 2 0.191237 0.333444 0.338403
436 2 0.290931 0.408051 0.245568
498 4 0.290516 0.343392 0.321829
729 4 0.327398 0.403185 0.256984
438 4 0.30955 0.392399 0.251361
764 4 0.385109 0.347866 0.240393
727 2 0.344237 0.409573 0.274328
728 4 0.361076 0.415961 0.291672
751 2 0.398015 0.394396 0.31122
753 4 0.37879 0.407224 0.301679
752 4 0.417239 0.381567 0.320762
561 4 0.432218 0.387737 0.333086
446 4 0.439086 0.426195 0.264922
1758 4 0.0308638 0.474668 0.256339
775 2 0.0740106 0.446943 0.330027
412 2 0.111938 0.472458 0.293831
602 4 0.123414 0.457319 0.259152
414 4 0.119944 0.473581 0.270171
413 4 0.103931 0.471335 0.317491
776 4 0.0980066 0.452331 0.325517
1435 2 0.237275 0.445635 0.251626
1437 4 0.221382 0.45792 0.266514
1575 4 0.382117 0.471481 0.258787
5 3 0.34573 0.471033 0.301521
1803 4 0.381024 0.423581 0.288119
1802 4 0.391892 0.471306 0.277879
1801 2 0.386458 0.447443 0.282999
1689 4 0.396317 0.486838 0.264008
1687 2 0.412203 0.501044 0.277084
1 1 0.350848 0.482143 0.320731
4 3 0.347814 0.46817 0.339006
2 3 0.336942 0.500339 0.322895
3 3 0.372826 0.489545 0.319981
231 4 0.489683 0.484046 0.272482
229 2 0.468903 0.495408 0.280501
713 4 0.445628 0.423402 0.283935
712 2 0.468377 0.429126 0.292589
714 4 0.491126 0.43485 0.301243
2477 4 0.995087 0.039247 0.360965
233 4 0.0109668 0.0504652 0.369776
318 4 0.0789725 0.0502706 0.371082
234 4 0.0602165 0.0476114 0.377963
232 2 0.0355916 0.0490383 0.373869
316 2 0.0954264 0.041656 0.387822
317 4 0.11188 0.0330415 0.404563
428 4 0.119673 0.0242512 0.422416
606 4 0.249373 0.0101802 0.3447
441 4 0.255686 0.994641 0.334548
631 2 0.310351 0.0185556 0.350779
682 2 0.286446 0.0659527 0.399486
683 4 0.307279 0.0598436 0.387082
684 4 0.265614 0.0720618 0.411891
698 4 0.381297 0.0449648 0.332651
256 2 0.41023 0.0494607 0.36716
257 4 0.394494 0.0523839 0.34795
726 4 0.361796 0.994314 0.408953
425 4 0.426166 0.0469247 0.40668
258 4 0.425966 0.0465375 0.386369
452 4 0.490761 0.0741891 0.389644
451 2 0.465896 0.0765831 0.390741
453 4 0.441032 0.078977 0.391838
515 4 0.422263 0.0770125 0.402544
398 4 0.0216615 0.122424 0.335943
397 2 0.0425636 0.12526 0.349368
399 4 0.0634656 0.128097 0.362794
732 4 0.0677537 0.14117 0.375727
730 2 0.0891804 0.151766 0.368393
599 4 0.131533 0.164809 0.355873
598 2 0.142943 0.153588 0.336662
685 2 0.143194 0.160687 0.393805
686 4 0.124809 0.16208 0.376915
687 4 0.161579 0.159293 0.410694
731 4 0.110607 0.162362 0.361058
1151 4 0.170693 0.143051 0.418553
514 2 0.404244 0.0923313 0.410658
2653 2 0.0399612 0.209158 0.33235
2655 4 0.0167448 0.21693 0.337426
472 2 0.246456 0.204956 0.350951
473 4 0.264802 0.209201 0.367401
409 2 0.303427 0.204075 0.369335
466 2 0.262555 0.176662 0.39967
468 4 0.266596 0.194721 0.382855
410 4 0.280504 0.194427 0.366762
411 4 0.32635 0.213724 0.371909
716 4 0.377176 0.226428 0.359972
715 2 0.37197 0.240746 0.379797
615 4 0.383503 0.240838 0.34934
304 2 0.43875 0.18557 0.399851
269 4 0.436553 0.210498 0.370872
306 4 0.44306 0.193178 0.376426
268 2 0.434917 0.235179 0.374523
617 4 0.0784866 0.242917 0.376245
616 2 0.0821773 0.254254 0.398222
389 4 0.139392 0.248536 0.343226
388 2 0.116884 0.24834 0.354112
401 4 0.153979 0.256132 0.354272
390 4 0.0943754 0.248145 0.364999
400 2 0.169994 0.269258 0.368286
375 4 0.198883 0.288505 0.395098
402 4 0.18601 0.282384 0.382299
373 2 0.223855 0.28751 0.394352
374 4 0.248828 0.286515 0.393607
510 4 0.259461 0.281842 0.374811
508 2 0.256461 0.287866 0.35073
378 4 0.265112 0.272904 0.393278
376 2 0.281794 0.27158 0.411856
717 4 0.366765 0.255065 0.399623
2924 4 0.41504 0.264348 0.385624
488 4 0.359141 0.266061 0.416577
270 4 0.433281 0.25986 0.378174
2923 2 0.420808 0.278481 0.405427
548 4 0.022714 0.383435 0.349239
407 4 0.0130827 0.374542 0.363746
547 2 0.0298501 0.407327 0.347399
678 4 0.207318 0.327731 0.356677
434 4 0.308833 0.41701 0.350909
667 2 0.40885 0.408202 0.400469
669 4 0.387833 0.406233 0.413869
559 2 0.440123 0.396183 0.355253
560 4 0.448028 0.404629 0.377419
588 4 0.446669 0.423563 0.38739
668 4 0.429868 0.410171 0.387068
777 4 0.0500145 0.441556 0.334538
549 4 0.0369863 0.43122 0.345559
1545 4 0.101524 0.469706 0.338536
1543 2 0.101567 0.49257 0.348656
433 2 0.324286 0.436634 0.352036
435 4 0.33974 0.456258 0.353163
586 2 0.462526 0.426546 0.40649
3990 4 0.490442 0.44815 0.360869
3988 2 0.479773 0.46892 0.36981
3989 4 0.469103 0.489691 0.378751
2236 2 0.0279125 0.0111469 0.446839
1127 4 0.01314 0.048904 0.462005
2238 4 0.0235358 0.0348056 0.453643
368 4 0.11589 0.0914004 0.468979
1781 4 0.121335 0.0453729 0.419126
1780 2 0.130636 0.0498967 0.44189
1782 4 0.139937 0.0544204 0.464654
341 4 0.151486 0.0676346 0.47741
2430 4 0.143718 0.0495396 0.485294
430 2 0.318014 0.0299469 0.477522
1180 2 0.272971 0.0608055 0.453207
1181 4 0.282183 0.0484564 0.4729
1182 4 0.263759 0.0731546 0.433514
963 4 0.275346 0.0380857 0.490284
432 4 0.293147 0.0312215 0.479795
431 4 0.342882 0.0286722 0.475249
841 2 0.379665 0.0135634 0.469826
842 4 0.400609 0.0104188 0.456536
843 4 0.358721 0.016708 0.483117
426 4 0.412468 0.0111301 0.438802
1217 4 0.421765 0.0139025 0.457867
424 2 0.419317 0.0290274 0.422741
1216 2 0.440523 0.0165642 0.474185
457 2 0.00700524 0.106719 0.462093
719 4 0.0244564 0.0911489 0.498984
459 4 0.0211694 0.0968204 0.480164
340 2 0.167671 0.0861977 0.473092
367 2 0.116148 0.108918 0.45114
369 4 0.116407 0.126436 0.433301
939 4 0.122143 0.144 0.438692
937 2 0.137811 0.160204 0.449515
342 4 0.183856 0.104761 0.468774
1152 4 0.187511 0.108724 0.450795
1150 2 0.179102 0.125887 0.434674
467 4 0.258514 0.158604 0.416484
320 4 0.267818 0.0910923 0.422879
321 4 0.259376 0.14019 0.427221
319 2 0.263597 0.115641 0.42505
899 4 0.265298 0.158397 0.436834
898 2 0.281861 0.15892 0.455558
574 2 0.409127 0.145252 0.427344
575 4 0.396141 0.124732 0.421387
516 4 0.386225 0.10765 0.418772
2656 2 0.498081 0.150554 0.443645
2657 4 0.493456 0.126462 0.448479
938 4 0.153479 0.176408 0.460338
1034 4 0.157445 0.189329 0.475352
261 4 0.122656 0.233567 0.467039
1035 4 0.130481 0.229926 0.486557
1033 2 0.143963 0.209627 0.480954
695 4 0.109432 0.23666 0.484223
259 2 0.111765 0.242307 0.446299
900 4 0.298423 0.159443 0.474282
576 4 0.422113 0.165772 0.433301
813 4 0.372685 0.21739 0.469974
266 4 0.372337 0.209588 0.451264
265 2 0.371322 0.228859 0.435364
811 2 0.382649 0.225925 0.491259
2658 4 0.502707 0.174646 0.438811
305 4 0.434441 0.177962 0.423276
2801 4 0.00734363 0.31328 0.420643
2802 4 0.0278524 0.291793 0.460873
2800 2 0.017598 0.302536 0.440758
260 4 0.100874 0.251048 0.425558
618 4 0.0858681 0.265592 0.4202
347 4 0.10631 0.271619 0.421259
346 2 0.116452 0.294381 0.423313
348 4 0.126593 0.317143 0.425367
10 3 0.134355 0.312326 0.443639
9 3 0.132499 0.317591 0.480874
6 1 0.138197 0.327136 0.460507
1259 4 0.139456 0.308054 0.496767
377 4 0.298477 0.270255 0.430434
487 2 0.33682 0.273902 0.424668
489 4 0.314499 0.281743 0.43276
267 4 0.370307 0.248129 0.419465
238 2 0.408727 0.326423 0.443825
239 4 0.422287 0.306448 0.437321
2925 4 0.426575 0.292614 0.42523
2456 4 0.476301 0.323394 0.486039
584 4 0.469058 0.316074 0.503093
680 4 0.0532743 0.388694 0.472073
679 2 0.0419954 0.410548 0.467561
8 3 0.160552 0.33335 0.460649
504 4 0.15401 0.39197 0.431184
7 3 0.125287 0.345888 0.457212
711 4 0.114018 0.362829 0.45508
709 2 0.124554 0.380212 0.440519
710 4 0.13509 0.397594 0.425958
650 4 0.219368 0.393089 0.423692
649 2 0.242807 0.384821 0.420965
503 4 0.203575 0.385776 0.433546
502 2 0.178793 0.388873 0.432365
651 4 0.266246 0.376554 0.418239
240 4 0.395168 0.346398 0.450329
335 4 0.38247 0.346265 0.434597
334 2 0.38314 0.371117 0.431927
336 4 0.383811 0.395969 0.429258
382 2 0.0672754 0.458323 0.453609
539 4 0.0310333 0.453861 0.465579
538 2 0.0120504 0.46903 0.471472
681 4 0.0307166 0.432402 0.463049
383 4 0.0468703 0.443962 0.455214
568 2 0.120065 0.495879 0.446502
384 4 0.0876805 0.472684 0.452003
569 4 0.108319 0.474371 0.451463
772 2 0.238171 0.461961 0.443507
635 4 0.208008 0.472822 0.469559
774 4 0.22533 0.476005 0.459727
634 2 0.197994 0.485201 0.488838
773 4 0.251011 0.447917 0.427288
587 4 0.478384 0.429528 0.42559
662 4 0.452413 0.472401 0.471713
663 4 0.478808 0.439872 0.444403
2507 4 0.496791 0.429778 0.437324
661 2 0.46561 0.456136 0.458058
1910 4 0.46266 0.478521 0.487949
926 4 0.473628 0.415943 0.499427
2428 2 0.140727 0.0404376 0.50839
2429 4 0.137736 0.0313357 0.531485
1284 4 0.182658 0.0733976 0.575974
1031 4 0.218716 0.0242173 0.577776
1283 4 0.199107 0.0273402 0.586409
1282 2 0.190883 0.0503689 0.581192
1030 2 0.242123 0.0245289 0.568991
1032 4 0.26553 0.0248404 0.560207
961 2 0.267645 0.0166451 0.500588
1091 4 0.350624 0.00695879 0.570344
2196 4 0.366963 0.995027 0.571521
1218 4 0.45928 0.0192259 0.490502
720 4 0.0313439 0.109274 0.545079
718 2 0.0279001 0.100211 0.522032
1059 4 0.176387 0.0916944 0.572728
327 4 0.0905922 0.236673 0.54162
877 2 0.119327 0.205985 0.555927
878 4 0.0987848 0.217625 0.547698
696 4 0.0913464 0.220012 0.527772
694 2 0.100389 0.228336 0.505998
879 4 0.139868 0.194345 0.564156
1272 4 0.134194 0.199753 0.58281
856 2 0.201787 0.229761 0.550334
858 4 0.208303 0.210864 0.535314
857 4 0.195271 0.248659 0.565355
953 4 0.392162 0.221839 0.530389
812 4 0.392614 0.234459 0.512544
791 4 0.375948 0.235243 0.526521
873 4 0.395844 0.243061 0.531934
790 2 0.355146 0.243969 0.537305
952 2 0.408014 0.205431 0.540621
954 4 0.423866 0.189024 0.550852
905 4 0.427436 0.183408 0.569517
904 2 0.44545 0.168777 0.578823
982 2 0.0302774 0.287818 0.544834
984 4 0.0534569 0.290482 0.553822
326 4 0.0646726 0.274021 0.562453
1136 4 0.0702844 0.294043 0.566731
325 2 0.0776324 0.255347 0.552037
983 4 0.00709783 0.285154 0.535846
1135 2 0.0916063 0.306661 0.563364
1137 4 0.112928 0.31928 0.559998
1258 2 0.136719 0.285381 0.506946
1260 4 0.133983 0.262708 0.517126
1239 4 0.316541 0.315051 0.54205
804 4 0.303532 0.320181 0.556949
1237 2 0.318322 0.290745 0.547637
1238 4 0.320102 0.266439 0.553225
792 4 0.334343 0.252694 0.54809
871 2 0.403722 0.266627 0.52915
929 4 0.408185 0.329923 0.573106
872 4 0.411601 0.290193 0.526366
585 4 0.424445 0.304904 0.522731
583 2 0.446751 0.310489 0.512912
936 4 0.0303889 0.390072 0.529651
3353 4 0.0151177 0.376706 0.529696
934 2 0.041036 0.406447 0.545262
802 2 0.287135 0.332654 0.571118
1190 4 0.270042 0.365937 0.58394
803 4 0.270738 0.345126 0.585286
880 2 0.359855 0.390993 0.575862
882 4 0.365838 0.366994 0.579527
930 4 0.362557 0.349969 0.568983
928 2 0.385371 0.339946 0.571045
925 2 0.476057 0.404123 0.521326
927 4 0.478485 0.392303 0.543225
1001 4 0.482029 0.395866 0.563002
1000 2 0.489033 0.40979 0.582553
3430 2 0.0406892 0.467282 0.550359
3431 4 0.0342981 0.490777 0.544672
935 4 0.0516831 0.422821 0.560873
3432 4 0.0470802 0.443788 0.556046
1041 4 0.0648981 0.43867 0.567614
3264 4 0.045477 0.436159 0.576472
4434 4 0.019179 0.503579 0.552711
1159 2 0.111605 0.429345 0.5328
1161 4 0.115581 0.443844 0.552779
1160 4 0.10763 0.414847 0.512821
1455 4 0.333446 0.461285 0.550124
1454 4 0.365143 0.430037 0.572919
1453 2 0.349294 0.445661 0.561522
881 4 0.353872 0.414992 0.572198
1909 2 0.472167 0.495689 0.503442
1183 2 0.0135787 0.0567588 0.653096
1184 4 0.00281196 0.0347342 0.64818
1185 4 0.0243455 0.0787835 0.658013
4338 4 0.00987113 0.0212241 0.664025
1892 4 0.00195626 0.0135277 0.645882
824 4 0.200552 0.998706 0.655756
2131 2 0.21236 0.00454496 0.615825
2132 4 0.210196 0.00978885 0.591473
2133 4 0.214524 0.999301 0.640176
1060 2 0.498669 0.0209764 0.592722
810 4 0.457395 0.0796228 0.584033
1061 4 0.493299 0.998764 0.602868
944 4 0.0451449 0.0848949 0.65977
1083 4 0.00598771 0.141093 0.64596
1081 2 0.0177835 0.120352 0.653434
1082 4 0.0295793 0.0996117 0.660908
943 2 0.0669448 0.0966426 0.663224
3179 4 0.00190169 0.159944 0.638117
945 4 0.0887448 0.10839 0.666679
1057 2 0.180232 0.102244 0.595069
1058 4 0.184076 0.112793 0.61741
1155 4 0.182855 0.133489 0.622094
1153 2 0.182228 0.158249 0.618663
909 4 0.196653 0.120429 0.6332
907 2 0.203551 0.122385 0.657154
886 2 0.332581 0.171325 0.632467
887 4 0.354081 0.1586 0.631473
1194 4 0.375145 0.158248 0.628574
830 4 0.366567 0.147972 0.645037
829 2 0.371875 0.123587 0.643498
831 4 0.377183 0.0992019 0.641959
808 2 0.480725 0.0881048 0.587026
1026 4 0.479179 0.148935 0.655201
1024 2 0.476422 0.150646 0.630409
1025 4 0.473664 0.152356 0.605616
906 4 0.463464 0.154146 0.58813
1143 4 0.468999 0.13059 0.659238
1263 4 0.458168 0.149322 0.660419
1141 2 0.475143 0.107328 0.66604
1209 4 0.0662463 0.242714 0.654285
1245 4 0.0450541 0.239159 0.654717
852 4 0.0584165 0.223895 0.648264
850 2 0.0552571 0.209623 0.66855
1270 2 0.154392 0.201325 0.597464
1154 4 0.181601 0.183008 0.615232
1271 4 0.174591 0.202897 0.612117
1221 4 0.186266 0.198409 0.629234
1219 2 0.209576 0.206691 0.625595
1220 4 0.232886 0.214973 0.621955
798 4 0.253201 0.221392 0.628096
796 2 0.255844 0.244659 0.63686
1212 4 0.249748 0.202341 0.618259
888 4 0.31108 0.18405 0.633462
1211 4 0.293301 0.17861 0.624638
1210 2 0.271525 0.190475 0.621448
1192 2 0.397262 0.169911 0.628715
1193 4 0.419378 0.181575 0.628857
1243 2 0.0319455 0.257362 0.643672
1244 4 0.0188369 0.275565 0.632626
1207 2 0.0866912 0.255868 0.66013
948 4 0.155273 0.3107 0.652914
946 2 0.139554 0.294721 0.663992
797 4 0.258487 0.267927 0.645624
3112 2 0.494329 0.322539 0.612182
3114 4 0.474 0.308268 0.609308
992 4 0.160978 0.398888 0.586201
991 2 0.138993 0.405454 0.596136
993 4 0.117007 0.412019 0.606071
897 4 0.177994 0.389674 0.587891
1191 4 0.22983 0.363459 0.613563
896 4 0.210496 0.356927 0.607176
895 2 0.194245 0.373301 0.597534
1028 4 0.176476 0.368657 0.67161
1189 2 0.249936 0.364698 0.598752
3239 4 0.0201958 0.448355 0.635194
3262 2 0.030804 0.436991 0.5967
3238 2 0.02646 0.46241 0.654901
3263 4 0.0161311 0.437822 0.616929
1039 2 0.0839783 0.430189 0.581368
1040 4 0.103059 0.421707 0.595123
1138 2 0.212384 0.442745 0.675566
1140 4 0.215296 0.465663 0.666002
1175 4 0.182216 0.50481 0.658433
2154 4 0.301735 0.485506 0.594432
1173 4 0.295109 0.469905 0.607935
1172 4 0.316015 0.460363 0.652349
1171 2 0.305562 0.465134 0.630142
2435 4 0.282319 0.486241 0.603187
2434 2 0.261156 0.49787 0.609673
1002 4 0.496038 0.423714 0.602104
3183 4 0.463308 0.481295 0.582103
1206 4 0.483349 0.433489 0.616911
1204 2 0.466802 0.42924 0.635168
1205 4 0.450255 0.42499 0.653425
3182 4 0.492294 0.444969 0.600569
3181 2 0.477801 0.463132 0.591336
4336 2 0.00421353 0.0098632 0.685568
1202 4 0.109243 0.00695491 0.744178
2400 4 0.346709 0.0621761 0.729158
43 3 0.453367 0.0567628 0.715514
846 4 0.451025 0.0395578 0.723602
41 1 0.468476 0.0730483 0.708814
45 3 0.488816 0.0691465 0.718285
844 2 0.444566 0.0348223 0.747288
1076 4 0.0324687 0.0849009 0.676925
1075 2 0.0246639 0.083626 0.700645
864 4 0.00345818 0.0959983 0.73113
1077 4 0.0168592 0.0823512 0.724365
908 4 0.21045 0.124341 0.681107
1227 4 0.200026 0.11038 0.69221
1226 4 0.222085 0.108231 0.737038
1225 2 0.211055 0.109306 0.714624
44 3 0.470381 0.0730519 0.685688
42 3 0.460758 0.0936141 0.715642
1142 4 0.481288 0.0840649 0.672842
3426 4 0.486656 0.171133 0.732875
1261 2 0.439058 0.157515 0.674307
1262 4 0.419948 0.165708 0.688195
1177 2 0.0216159 0.18575 0.713473
1178 4 0.0447271 0.182617 0.70446
851 4 0.0520978 0.195351 0.688835
1107 4 0.0657455 0.184003 0.700546
1105 2 0.0891449 0.181016 0.708836
1106 4 0.112544 0.178028 0.717126
1073 4 0.117062 0.189205 0.733104
1072 2 0.138001 0.181352 0.744288
1086 4 0.319925 0.216186 0.739087
1299 4 0.300338 0.218414 0.737824
821 4 0.0877971 0.289829 0.730701
1208 4 0.107136 0.269022 0.665974
947 4 0.123835 0.278741 0.675071
820 2 0.0964133 0.284044 0.707952
822 4 0.10503 0.27826 0.685204
1098 4 0.331057 0.301636 0.720275
1096 2 0.334045 0.301044 0.745092
816 4 0.0136802 0.338277 0.734755
892 2 0.0653971 0.394633 0.733154
893 4 0.0702461 0.370181 0.731209
815 4 0.0615547 0.350925 0.727772
814 2 0.0376174 0.344601 0.731263
942 4 0.0754527 0.359068 0.713354
1067 4 0.125973 0.343871 0.693113
940 2 0.10018 0.356572 0.710615
941 4 0.124908 0.354076 0.707876
1066 2 0.149222 0.346885 0.684421
1027 2 0.191594 0.388523 0.670218
1068 4 0.172472 0.349898 0.675728
1029 4 0.206713 0.408389 0.668826
1065 4 0.244949 0.356992 0.675581
1063 2 0.259928 0.349476 0.694137
1064 4 0.274907 0.34196 0.712693
806 4 0.270943 0.359808 0.72391
805 2 0.289165 0.372345 0.735571
1236 4 0.256863 0.343371 0.724291
1101 4 0.449634 0.37107 0.678876
1099 2 0.449545 0.395972 0.676621
3240 4 0.0327242 0.476466 0.674609
894 4 0.0605481 0.419085 0.735099
2172 4 0.0490589 0.488249 0.681945
1279 2 0.0447002 0.452388 0.709193
3276 4 0.0475057 0.43229 0.746279
1983 4 0.0654611 0.439931 0.737672
1280 4 0.0483612 0.433202 0.724803
1281 4 0.0410392 0.471573 0.693582
1139 4 0.209472 0.419828 0.685131
1176 4 0.179877 0.486858 0.705048
2016 4 0.183767 0.492969 0.723981
1174 2 0.181047 0.495834 0.68174
891 4 0.313243 0.469086 0.670612
889 2 0.303891 0.488106 0.683878
2169 4 0.471653 0.500969 0.696424
1269 4 0.454848 0.44068 0.667808
1100 4 0.449456 0.420874 0.674366
1268 4 0.462061 0.482427 0.694376
1267 2 0.458454 0.461554 0.681092
1195 2 0.0814578 0.0108233 0.811773
1196 4 0.0815788 0.0313025 0.797428
911 4 0.0968882 0.0444049 0.790105
1203 4 0.0833333 0.0351856 0.776309
1201 2 0.0962884 0.0210702 0.760243
910 2 0.0996597 0.0680506 0.797745
1147 2 0.213959 0.0769984 0.763
1149 4 0.218176 0.054564 0.773203
2398 2 0.359763 0.0705492 0.748771
1049 4 0.365422 0.0693039 0.78615
2399 4 0.372817 0.0789222 0.768384
1112 4 0.384174 0.063074 0.777136
1111 2 0.401172 0.0447801 0.778396
1113 4 0.418169 0.0264862 0.779656
1048 2 0.367498 0.0824955 0.807289
845 4 0.438106 0.0300869 0.770974
980 4 0.43558 0.0166052 0.787436
979 2 0.434262 0.0137933 0.812246
981 4 0.432943 0.0109815 0.837056
1214 4 0.0624324 0.134965 0.806684
1213 2 0.0597212 0.147556 0.785253
33 3 0.0684537 0.12063 0.818301
1215 4 0.0570101 0.160147 0.763821
32 3 0.103823 0.108159 0.820779