ITEM: TIMESTEP
3320000
ITEM: NUMBER OF ATOMS
4590
ITEM: BOX BOUNDS pp pp pp
-9.9985700000000008e+00 9.9985700000000008e+00
-9.9985700000000008e+00 9.9985700000000008e+00
-9.9985700000000008e+00 9.9985700000000008e+00
ITEM: ATOMS id type xs ys zs
1666 2 0.0615375 0.0402779 0.0530159
1667 4 0.055748 0.0638606 0.0589757
1668 4 0.0673269 0.0166953 0.0470561
702 4 0.0585383 0.0812735 0.0719026
591 4 0.0459294 0.0823151 0.053367
533 4 0.140596 0.024714 0.0531067
1605 4 0.154084 0.0081557 0.0566059
1476 4 0.153612 0.0244827 0.0709957
532 2 0.155002 0.0414522 0.0413814
534 4 0.169408 0.0581903 0.029656
423 4 0.180754 0.0571895 0.0121882
421 2 0.192013 0.0784954 0.0188561
490 2 0.2823 0.0699118 0.0581421
492 4 0.284385 0.0451346 0.0607724
589 2 0.0280983 0.0945978 0.0408625
590 4 0.0102671 0.10688 0.0283579
3232 2 0.0340547 0.139574 0.00783075
3233 4 0.0212281 0.119033 0.0140527
1248 4 0.000912682 0.123746 0.0181585
700 2 0.0748672 0.0928964 0.0868509
236 4 0.10189 0.118773 0.0900011
235 2 0.102688 0.143313 0.0852753
237 4 0.103486 0.167853 0.0805495
422 4 0.203273 0.0998014 0.025524
652 2 0.240739 0.10877 0.0471212
654 4 0.218218 0.10978 0.0363047
491 4 0.280214 0.0946891 0.0555118
653 4 0.263259 0.107759 0.0579378
565 2 0.292288 0.125301 0.0268366
566 4 0.304419 0.136799 0.00824086
567 4 0.280158 0.113802 0.0454324
665 4 0.321185 0.143549 0.0195976
359 4 0.289528 0.135856 0.991694
866 4 0.318548 0.150355 0.999569
556 2 0.397214 0.154709 0.0568077
558 4 0.372701 0.159637 0.0567728
664 2 0.338107 0.155414 0.0336711
297 4 0.432406 0.104173 0.0451512
295 2 0.449377 0.0921313 0.0590132
557 4 0.421727 0.149781 0.0568425
666 4 0.355028 0.16728 0.0477447
571 2 0.373183 0.196154 0.0286256
572 4 0.374173 0.174998 0.0419166
573 4 0.372192 0.217309 0.0153346
1071 4 0.371466 0.23353 0.0263015
518 4 0.489275 0.240464 0.0665977
505 2 0.138531 0.305563 0.00668934
292 2 0.138978 0.328027 0.0601842
294 4 0.125743 0.326019 0.0813021
507 4 0.151327 0.323274 0.0188462
288 4 0.170114 0.325181 0.0285897
286 2 0.194503 0.329074 0.0324873
483 4 0.224054 0.324569 0.0530485
481 2 0.235877 0.321776 0.0749023
1069 2 0.377672 0.2575 0.0228263
957 4 0.382751 0.3008 0.0172324
1070 4 0.383878 0.281471 0.0193511
955 2 0.405375 0.307031 0.0258633
324 4 0.429372 0.242226 0.0749511
322 2 0.451931 0.24647 0.065038
771 4 0.493115 0.246094 0.045791
323 4 0.474489 0.250714 0.0551249
956 4 0.428 0.313262 0.0344941
282 4 0.447416 0.313503 0.0361854
280 2 0.45701 0.332093 0.0498797
1056 4 0.0166346 0.353974 0.0527667
1168 2 0.0253527 0.391946 0.0346452
1170 4 0.0273469 0.36872 0.0436873
1169 4 0.0233585 0.415172 0.0256031
293 4 0.152214 0.330036 0.0390664
287 4 0.218892 0.332966 0.0363849
607 2 0.289392 0.388491 0.0695014
608 4 0.280299 0.408769 0.0580423
626 4 0.271911 0.417403 0.0746535
609 4 0.298485 0.368213 0.0809605
387 4 0.320345 0.365153 0.0861922
281 4 0.466605 0.350683 0.0635741
671 4 0.465164 0.36458 0.0805365
494 4 0.450121 0.36421 0.0655161
330 4 0.0249623 0.423428 0.00546221
551 4 0.0166352 0.436642 0.0222915
550 2 0.0151474 0.446322 0.0452969
552 4 0.0136597 0.456003 0.0683023
241 2 0.23837 0.48498 0.0623318
243 4 0.261379 0.484092 0.0720776
627 4 0.271188 0.46712 0.079985
625 2 0.271549 0.442262 0.0773192
245 4 0.31356 0.417926 0.0595042
244 2 0.328447 0.425064 0.0407266
246 4 0.343335 0.432201 0.021949
40 3 0.336777 0.434898 0.000206013
272 4 0.344399 0.451973 0.0120805
562 2 0.455453 0.484321 0.00260614
2481 4 0.0188153 0.0360571 0.137258
18 3 0.0217447 0.0461954 0.121838
2479 2 0.0166593 0.0112976 0.139996
16 1 0.0350632 0.060897 0.109802
19 3 0.0497028 0.0490437 0.0962523
20 3 0.0467617 0.0742457 0.124071
1474 2 0.163707 0.0260345 0.093818
1475 4 0.173802 0.0275862 0.11664
17 3 0.0215806 0.0739781 0.0965254
701 4 0.0911961 0.104519 0.101799
448 2 0.130748 0.0946363 0.0995807
450 4 0.150027 0.0803191 0.0926174
449 4 0.111468 0.108954 0.106544
296 4 0.466349 0.0800897 0.0728752
477 4 0.115228 0.177747 0.0937437
476 4 0.0928645 0.214318 0.119495
339 4 0.105534 0.230575 0.116415
475 2 0.104046 0.196033 0.10662
337 2 0.115974 0.243522 0.135086
353 4 0.24117 0.251797 0.135252
461 4 0.273453 0.200538 0.107548
354 4 0.256291 0.210955 0.110675
460 2 0.296132 0.209668 0.102307
352 2 0.248731 0.231376 0.122963
462 4 0.318812 0.218798 0.0970661
255 4 0.331311 0.231494 0.0906066
254 4 0.375028 0.244464 0.111132
253 2 0.35317 0.237979 0.100869
630 4 0.393779 0.240874 0.121961
628 2 0.396778 0.216788 0.127967
629 4 0.399777 0.192703 0.133973
456 4 0.125082 0.317972 0.100042
338 4 0.126413 0.256468 0.153756
363 4 0.115524 0.268604 0.165025
454 2 0.104389 0.325248 0.112044
736 2 0.208181 0.264546 0.153972
737 4 0.232927 0.261314 0.152446
755 4 0.252214 0.268422 0.144624
738 4 0.183434 0.267779 0.155497
482 4 0.2477 0.318983 0.0967561
756 4 0.254045 0.307611 0.113613
754 2 0.253129 0.288017 0.129119
252 4 0.266635 0.323055 0.105409
622 2 0.409668 0.260441 0.0987591
624 4 0.390169 0.261088 0.114397
741 4 0.375147 0.27611 0.113047
739 2 0.37243 0.300946 0.11206
740 4 0.369713 0.325781 0.111073
623 4 0.429168 0.259794 0.0831211
455 4 0.0836967 0.332524 0.124046
537 4 0.0991946 0.342724 0.135052
535 2 0.093657 0.35808 0.153991
250 2 0.285618 0.338757 0.101135
251 4 0.304601 0.35446 0.0968611
386 4 0.357429 0.333961 0.0985442
385 2 0.338887 0.349557 0.0923682
11 1 0.409819 0.388282 0.130844
13 3 0.416671 0.406589 0.118341
14 3 0.406535 0.369986 0.116956
15 3 0.390528 0.393206 0.141901
495 4 0.417048 0.375439 0.101305
12 3 0.426222 0.383161 0.146136
493 2 0.433585 0.369825 0.0834105
595 2 0.465439 0.386675 0.142426
596 4 0.485407 0.399969 0.135375
597 4 0.445471 0.373381 0.149477
670 2 0.487992 0.368291 0.0900374
620 4 0.00529172 0.455857 0.0881827
315 4 0.0244819 0.464285 0.0849157
313 2 0.0488579 0.468203 0.0888694
314 4 0.073234 0.472121 0.0928231
1691 4 0.0839149 0.48856 0.083685
1786 2 0.103874 0.44636 0.0793334
1788 4 0.115887 0.424733 0.0757075
1787 4 0.0918616 0.467987 0.0829593
1440 4 0.263928 0.48208 0.0930141
1438 2 0.270661 0.493237 0.114353
524 4 0.328144 0.502515 0.147378
659 4 0.352313 0.449643 0.161119
525 4 0.360446 0.46454 0.151277
523 2 0.344295 0.483527 0.149327
658 2 0.348069 0.428489 0.173755
2652 4 0.488318 0.418503 0.142769
688 2 0.132667 0.0768819 0.224788
689 4 0.126924 0.0699735 0.248122
1506 4 0.263693 0.998789 0.211853
22 3 0.340812 0.0564652 0.250722
1785 4 0.339448 0.0450251 0.169533
21 1 0.340928 0.0790604 0.24641
25 3 0.352101 0.0829253 0.226946
1783 2 0.341569 0.0617992 0.187953
1784 4 0.343689 0.0785732 0.206374
757 2 0.389759 0.0746615 0.215404
758 4 0.414372 0.0750551 0.219788
759 4 0.365146 0.0742679 0.21102
312 4 0.430649 0.0622981 0.214289
744 4 0.43314 0.0762994 0.230436
1749 4 0.447844 0.0147477 0.227317
1747 2 0.459925 0.0307458 0.242259
310 2 0.440574 0.0685575 0.19221
311 4 0.450498 0.0748169 0.17013
690 4 0.13841 0.0837903 0.201455
693 4 0.130692 0.102105 0.199425
691 2 0.146394 0.121302 0.19625
692 4 0.162096 0.1405 0.193074
723 4 0.173423 0.138655 0.210686
721 2 0.17859 0.147324 0.233563
23 3 0.319013 0.0864565 0.244562
582 4 0.279428 0.172841 0.201219
707 4 0.36405 0.126232 0.191045
706 2 0.368851 0.149558 0.198664
748 2 0.0431064 0.228302 0.193532
750 4 0.0496621 0.227877 0.217657
396 4 0.0599234 0.224806 0.234267
749 4 0.0365508 0.228726 0.169407
285 4 0.275324 0.182556 0.217444
581 4 0.325945 0.187631 0.19035
580 2 0.302687 0.180236 0.195785
30 3 0.34181 0.199915 0.193828
28 3 0.371429 0.222406 0.187952
27 3 0.353278 0.222952 0.22086
708 4 0.373652 0.172883 0.206282
29 3 0.374123 0.192996 0.211873
26 1 0.360078 0.209464 0.20351
394 2 0.0511504 0.245628 0.244975
442 2 0.00665286 0.285801 0.241548
444 4 0.0274829 0.272035 0.242884
361 2 0.129305 0.287821 0.17315
362 4 0.143085 0.307037 0.181274
372 4 0.149528 0.323093 0.193062
370 2 0.169571 0.313628 0.204631
371 4 0.189615 0.304163 0.2162
279 4 0.202635 0.307385 0.232777
612 4 0.201133 0.322308 0.217526
277 2 0.211454 0.292314 0.250673
765 4 0.387252 0.288948 0.231643
763 2 0.368071 0.303797 0.225578
764 4 0.348891 0.318646 0.219514
542 4 0.400387 0.291854 0.217229
541 2 0.420827 0.285157 0.229978
543 4 0.441266 0.27846 0.242728
520 2 0.483545 0.260458 0.245902
521 4 0.459639 0.267594 0.244243
536 4 0.0881193 0.373436 0.172931
603 4 0.161433 0.408532 0.24402
300 4 0.150547 0.391274 0.240732
610 2 0.215412 0.342544 0.214092
417 4 0.244174 0.375866 0.208138
611 4 0.229692 0.362779 0.210658
415 2 0.251287 0.397884 0.217613
438 4 0.314617 0.404281 0.253771
303 4 0.323951 0.395339 0.236373
660 4 0.343825 0.407335 0.186391
301 2 0.336888 0.391982 0.215241
302 4 0.349824 0.388625 0.194108
644 4 0.442215 0.389359 0.21577
643 2 0.437756 0.385155 0.191529
645 4 0.433297 0.380952 0.167288
447 4 0.435705 0.406506 0.221646
445 2 0.436192 0.41014 0.246379
263 4 0.0210701 0.477798 0.171591
262 2 0.0307013 0.464303 0.190308
1757 4 0.0335029 0.455234 0.228402
264 4 0.0403326 0.450808 0.209024
1756 2 0.0238121 0.443324 0.248136
1435 2 0.231341 0.447953 0.245786
1437 4 0.209367 0.458439 0.251474
637 2 0.274206 0.498787 0.169711
436 2 0.293898 0.416479 0.24691
416 4 0.2584 0.419903 0.227089
437 4 0.273178 0.428677 0.240049
1436 4 0.253315 0.437467 0.240098
291 4 0.2664 0.439671 0.222756
638 4 0.286556 0.496676 0.19135
289 2 0.270366 0.459373 0.207881
290 4 0.274332 0.479075 0.193005
767 4 0.294876 0.478584 0.199674
766 2 0.313817 0.493845 0.205462
1573 2 0.357614 0.491516 0.239701
673 2 0.0823425 0.0782315 0.258424
1403 4 0.112308 0.0559312 0.256339
675 4 0.104529 0.0741065 0.247658
1402 2 0.114499 0.0314074 0.251985
249 4 0.172409 0.0727972 0.323722
1700 4 0.221381 0.0347649 0.254464
1699 2 0.216385 0.0298932 0.278474
248 4 0.195982 0.0292775 0.316574
247 2 0.184195 0.0510374 0.320148
1701 4 0.211389 0.0250214 0.302484
605 4 0.204194 0.00933488 0.31501
604 2 0.225191 0.998133 0.322681
24 3 0.351524 0.0899851 0.263925
1496 4 0.335742 0.0378525 0.247231
1497 4 0.366572 0.0110992 0.276119
699 4 0.373673 0.00627916 0.295867
1495 2 0.351157 0.0244758 0.261675
697 2 0.384972 0.0258784 0.306514
698 4 0.396272 0.0454776 0.317162
1517 4 0.384344 0.99881 0.278722
349 2 0.399655 0.0788986 0.303133
351 4 0.396825 0.0660633 0.324403
1748 4 0.472006 0.046744 0.257202
478 2 0.501599 0.0590236 0.284669
480 4 0.489588 0.0480342 0.265692
674 4 0.0601556 0.0823565 0.26919
398 4 0.0116672 0.1422 0.324479
397 2 0.0334659 0.138011 0.335988
399 4 0.0552647 0.133822 0.347496
404 4 0.167113 0.0923085 0.32938
600 4 0.151802 0.155549 0.33087
545 4 0.163896 0.145691 0.313822
405 4 0.145414 0.136779 0.32215
403 2 0.156263 0.114544 0.325765
544 2 0.167519 0.155425 0.291077
722 4 0.183756 0.155992 0.25644
332 4 0.406831 0.161854 0.278584
331 2 0.408045 0.137152 0.282263
350 4 0.402485 0.0917339 0.281863
742 2 0.426747 0.0878749 0.251657
333 4 0.40926 0.112451 0.285943
743 4 0.420354 0.0994503 0.272877
577 2 0.0242114 0.169534 0.26468
578 4 0.0459301 0.181767 0.266637
391 2 0.0534889 0.184845 0.309875
393 4 0.0532816 0.187741 0.28504
546 4 0.171143 0.165159 0.268333
283 2 0.269943 0.192224 0.239867
343 2 0.24796 0.24222 0.268959
284 4 0.264562 0.201892 0.262289
344 4 0.257724 0.219249 0.270431
762 4 0.420511 0.176177 0.285419
760 2 0.422472 0.199256 0.294837
614 4 0.411266 0.235623 0.314648
761 4 0.424434 0.222335 0.304255
419 4 0.419651 0.241265 0.295886
395 4 0.0423774 0.26645 0.255684
345 4 0.238196 0.265191 0.267487
278 4 0.220274 0.277243 0.268569
309 4 0.235063 0.278417 0.284139
307 2 0.24475 0.294435 0.300715
308 4 0.254438 0.310452 0.317291
496 2 0.29254 0.322136 0.318578
498 4 0.313815 0.328402 0.307033
418 2 0.431499 0.251806 0.276555
420 4 0.443347 0.262347 0.257225
407 4 0.0187509 0.378648 0.323747
548 4 0.0339156 0.390959 0.32647
547 2 0.0490952 0.410561 0.329712
549 4 0.0642748 0.430164 0.332954
298 2 0.142189 0.376858 0.259373
734 4 0.129607 0.356073 0.295885
299 4 0.133831 0.362442 0.278015
733 2 0.144492 0.35122 0.31538
729 4 0.335605 0.400873 0.254693
727 2 0.355078 0.406795 0.269216
751 2 0.413995 0.403879 0.306476
753 4 0.393288 0.410218 0.293977
728 4 0.374551 0.412717 0.283739
752 4 0.434702 0.39754 0.318974
561 4 0.453664 0.396597 0.325234
1758 4 0.0141213 0.431415 0.26787
601 2 0.165387 0.431939 0.251872
412 2 0.143596 0.462425 0.294478
602 4 0.169341 0.455346 0.259724
414 4 0.160669 0.454066 0.278236
413 4 0.126522 0.470783 0.310721
776 4 0.113854 0.458501 0.32309
1545 4 0.108159 0.479107 0.319041
4 3 0.330047 0.46139 0.315686
3 3 0.325595 0.498888 0.311386
2 3 0.330362 0.476754 0.281386
1 1 0.336393 0.479989 0.303348
1575 4 0.376499 0.478709 0.249924
5 3 0.358957 0.482811 0.304592
1803 4 0.386989 0.429644 0.28778
1802 4 0.380674 0.476231 0.270735
1801 2 0.383832 0.452937 0.279258
1689 4 0.389705 0.49265 0.259447
1687 2 0.411527 0.502921 0.266042
116 1 0.496147 0.457928 0.327624
120 3 0.495552 0.457619 0.30486
446 4 0.436678 0.413774 0.271113
713 4 0.445152 0.419057 0.287931
712 2 0.46059 0.438415 0.291406
714 4 0.476029 0.457774 0.294881
119 3 0.477024 0.468131 0.335906
231 4 0.46617 0.478251 0.318945
3990 4 0.454893 0.467163 0.334336
229 2 0.458285 0.495497 0.302649
233 4 0.0125118 0.0513027 0.378085
318 4 0.0748355 0.0710567 0.386925
234 4 0.0591159 0.0598391 0.394082
232 2 0.0358139 0.0555709 0.386083
1464 4 0.134445 0.00545843 0.345386
316 2 0.093577 0.0566505 0.395073
428 4 0.0998883 0.0286634 0.414585
606 4 0.246187 0.986931 0.330353
632 4 0.284293 0.0275932 0.353974
631 2 0.307222 0.022687 0.362656
682 2 0.256259 0.0500894 0.370479
683 4 0.266119 0.037661 0.351154
684 4 0.246399 0.0625179 0.389805
1182 4 0.260701 0.0632645 0.40561
633 4 0.330151 0.0177808 0.371339
725 4 0.336703 0.000649262 0.380274
257 4 0.38796 0.0503266 0.336124
256 2 0.400496 0.0494646 0.357741
425 4 0.419043 0.0333982 0.393051
258 4 0.413032 0.0486026 0.379358
452 4 0.475476 0.0402311 0.353547
451 2 0.454738 0.0421559 0.36738
453 4 0.433999 0.0440808 0.381214
515 4 0.423653 0.0546767 0.396886
514 2 0.421982 0.0787176 0.403551
732 4 0.0657796 0.131437 0.363809
730 2 0.0851016 0.145605 0.370958
598 2 0.136593 0.162597 0.349422
685 2 0.136536 0.16017 0.407405
731 4 0.104424 0.159773 0.378107
686 4 0.121088 0.167194 0.389042
599 4 0.121385 0.169645 0.367975
320 4 0.255153 0.0816301 0.395386
319 2 0.256115 0.1064 0.398659
467 4 0.265076 0.150648 0.397416
321 4 0.257077 0.13117 0.401933
575 4 0.420059 0.120627 0.41613
574 2 0.424244 0.132589 0.394576
576 4 0.428429 0.144551 0.373022
305 4 0.444936 0.149261 0.361281
392 4 0.0536961 0.181949 0.334709
2654 4 0.0456603 0.195643 0.346809
2653 2 0.0378384 0.219256 0.349343
2655 4 0.0300165 0.242869 0.351876
616 2 0.0973827 0.237277 0.413096
617 4 0.0964425 0.223325 0.392367
388 2 0.114551 0.230674 0.361999
390 4 0.0935014 0.222404 0.372662
389 4 0.1356 0.238945 0.351336
275 4 0.150449 0.241121 0.336122
276 4 0.186097 0.206238 0.332489
474 4 0.189361 0.203641 0.353232
274 2 0.168273 0.22368 0.334305
472 2 0.213501 0.203178 0.359732
473 4 0.23764 0.202715 0.366232
466 2 0.260106 0.170567 0.383142
409 2 0.264532 0.224145 0.395912
468 4 0.255136 0.190485 0.368868
410 4 0.254288 0.20945 0.378468
411 4 0.274776 0.23884 0.413356
487 2 0.315357 0.243971 0.40735
489 4 0.291717 0.251933 0.409069
613 2 0.390427 0.23579 0.328465
715 2 0.367559 0.24087 0.384721
717 4 0.358961 0.246038 0.407624
615 4 0.369588 0.235957 0.342281
716 4 0.376157 0.235701 0.361818
488 4 0.338996 0.23601 0.40563
304 2 0.444575 0.174262 0.36131
269 4 0.435097 0.202413 0.379196
306 4 0.444214 0.199263 0.361339
268 2 0.433707 0.221531 0.395251
270 4 0.432318 0.240649 0.411306
2814 4 0.00819916 0.332999 0.406613
2801 4 0.0142303 0.314686 0.407281
401 4 0.152994 0.250562 0.355059
400 2 0.165155 0.262386 0.37343
402 4 0.177316 0.274209 0.391801
375 4 0.18668 0.279424 0.409649
373 2 0.20727 0.289514 0.399679
374 4 0.22786 0.299604 0.389708
510 4 0.243562 0.313557 0.38456
378 4 0.246513 0.298125 0.400327
509 4 0.250276 0.320585 0.335506
508 2 0.246919 0.317071 0.360033
497 4 0.271265 0.315871 0.330123
376 2 0.259968 0.278877 0.408909
2812 2 0.995937 0.336207 0.38506
777 4 0.0829435 0.423076 0.34013
735 4 0.159378 0.346367 0.334874
677 4 0.15984 0.364187 0.347028
676 2 0.173432 0.371324 0.366764
678 4 0.187024 0.378462 0.3865
650 4 0.196985 0.382169 0.404862
503 4 0.175185 0.385331 0.403343
649 2 0.214929 0.371783 0.418837
669 4 0.389348 0.387562 0.395101
336 4 0.369318 0.384109 0.39926
667 2 0.413834 0.392588 0.394487
559 2 0.449668 0.393591 0.349733
560 4 0.445672 0.390585 0.374231
668 4 0.43832 0.397613 0.393872
588 4 0.459382 0.392091 0.392375
586 2 0.468896 0.401608 0.413449
775 2 0.0983986 0.440788 0.33161
1543 2 0.1161 0.492908 0.338319
435 4 0.315491 0.468924 0.328529
433 2 0.316883 0.459324 0.351574
434 4 0.318276 0.449724 0.374619
593 4 0.455334 0.494003 0.382875
3989 4 0.454351 0.473466 0.383942
3988 2 0.454622 0.470314 0.359139
317 4 0.112319 0.0422443 0.403221
1781 4 0.117774 0.035877 0.42338
1780 2 0.135502 0.0419761 0.439923
1782 4 0.153231 0.0480752 0.456466
341 4 0.169919 0.055985 0.467627
2430 4 0.156794 0.040239 0.476479
2428 2 0.162646 0.0321183 0.499392
340 2 0.179373 0.0769105 0.457731
1180 2 0.271167 0.0578785 0.427669
1181 4 0.281634 0.0524925 0.449728
963 4 0.292587 0.0515033 0.467881
432 4 0.302735 0.0503124 0.448674
961 2 0.278893 0.0418599 0.486446
430 2 0.324536 0.0401109 0.455444
962 4 0.265198 0.0322164 0.50501
431 4 0.346337 0.0299093 0.462214
841 2 0.383065 0.0124099 0.45963
842 4 0.403035 0.000975627 0.449852
843 4 0.363094 0.0238442 0.469408
1217 4 0.42248 0.00689786 0.457036
426 4 0.418034 0.0067436 0.43535
424 2 0.418538 0.0200709 0.4142
458 4 0.00473044 0.139079 0.454772
457 2 0.0253796 0.13052 0.465976
719 4 0.0599137 0.107602 0.476256
459 4 0.0460287 0.12196 0.477179
718 2 0.0498643 0.0870636 0.486373
687 4 0.151985 0.153146 0.425767
368 4 0.134323 0.0948143 0.482112
367 2 0.112728 0.10356 0.473037
369 4 0.091133 0.112305 0.463962
939 4 0.0938212 0.131802 0.467524
937 2 0.0840045 0.153047 0.476324
1151 4 0.160004 0.158895 0.445159
1150 2 0.173722 0.13814 0.44765
342 4 0.188827 0.0978359 0.447836
1152 4 0.18744 0.117384 0.450141
899 4 0.267525 0.141506 0.417237
898 2 0.274049 0.148685 0.440282
900 4 0.280573 0.155864 0.463327
516 4 0.420311 0.102759 0.410215
938 4 0.0741877 0.174293 0.485124
261 4 0.0866208 0.243884 0.493178
1034 4 0.0923863 0.181403 0.485062
1035 4 0.0991614 0.228204 0.501325
1033 2 0.0957738 0.204803 0.493193
267 4 0.353843 0.229582 0.42177
813 4 0.359802 0.20026 0.479848
266 4 0.361256 0.219105 0.470102
265 2 0.357549 0.224343 0.445936
2924 4 0.424152 0.236997 0.429125
3159 4 0.491685 0.239217 0.498143
2847 4 0.00215206 0.294099 0.473114
2802 4 0.00402002 0.295694 0.4524
2800 2 0.00912516 0.30519 0.429841
618 4 0.098323 0.251228 0.433824
259 2 0.0858106 0.252954 0.469892
260 4 0.0850003 0.262024 0.446605
347 4 0.0963806 0.272267 0.430872
346 2 0.103543 0.295781 0.435453
348 4 0.110705 0.319295 0.440034
10 3 0.127354 0.314617 0.450992
9 3 0.135728 0.316176 0.487667
6 1 0.13964 0.325497 0.466782
1259 4 0.150299 0.30739 0.496837
377 4 0.273424 0.259629 0.417492
238 2 0.391091 0.319676 0.440032
2925 4 0.412412 0.281397 0.448913
239 4 0.402013 0.297316 0.44247
872 4 0.409131 0.279614 0.487447
871 2 0.400914 0.259224 0.499358
2923 2 0.418282 0.259197 0.439019
584 4 0.455342 0.329817 0.47639
583 2 0.437104 0.312951 0.479236
585 4 0.418867 0.296085 0.482081
502 2 0.16059 0.395974 0.420631
8 3 0.162213 0.324111 0.461591
7 3 0.133464 0.347651 0.46725
504 4 0.145995 0.406617 0.437919
711 4 0.121728 0.362239 0.475355
709 2 0.126606 0.384087 0.464219
710 4 0.131484 0.405936 0.453083
651 4 0.232873 0.361396 0.432812
240 4 0.380169 0.342035 0.437595
335 4 0.368545 0.339193 0.42123
334 2 0.368931 0.361651 0.410245
2456 4 0.474469 0.327486 0.483356
2455 2 0.488563 0.340186 0.499644
383 4 0.0604779 0.483573 0.499486
681 4 0.0662384 0.463226 0.495601
539 4 0.0455155 0.468827 0.496139
382 2 0.0618917 0.494493 0.477037
679 2 0.0806614 0.44438 0.503473
680 4 0.0950844 0.425533 0.511344
774 4 0.172296 0.475243 0.459445
773 4 0.200549 0.453781 0.424204
635 4 0.186925 0.485609 0.467807
772 2 0.186422 0.464512 0.441824
634 2 0.196046 0.490471 0.490574
1910 4 0.45671 0.468151 0.482481
661 2 0.467353 0.451148 0.454713
587 4 0.47841 0.411125 0.434522
662 4 0.460941 0.473545 0.463793
663 4 0.473764 0.428751 0.445632
2507 4 0.492675 0.426812 0.435942
720 4 0.0398148 0.0665253 0.496491
2429 4 0.168498 0.0239976 0.522305
1090 2 0.326533 0.0132338 0.564164
1091 4 0.335206 0.0215746 0.542246
2196 4 0.341667 0.0312912 0.525071
2194 2 0.34569 0.0105871 0.511642
1060 2 0.489144 0.0317537 0.558693
810 4 0.473069 0.0644875 0.560617
1062 4 0.472336 0.04814 0.550081
808 2 0.486195 0.0853744 0.564693
695 4 0.104467 0.248734 0.503903
694 2 0.0953317 0.250661 0.527098
857 4 0.205277 0.236458 0.526641
796 2 0.262009 0.244942 0.585795
798 4 0.260414 0.220583 0.580382
953 4 0.397222 0.229975 0.530125
812 4 0.380242 0.223269 0.519262
952 2 0.418723 0.231843 0.542751
811 2 0.370022 0.211764 0.499555
791 4 0.380006 0.242397 0.528958
873 4 0.392696 0.238833 0.51127
954 4 0.440224 0.233711 0.555377
905 4 0.43588 0.217012 0.565871
3066 4 0.503457 0.255109 0.499074
982 2 0.0203491 0.29442 0.547362
984 4 0.0432179 0.289995 0.556451
326 4 0.0449292 0.285168 0.577395
1136 4 0.0511197 0.304613 0.569796
325 2 0.0600023 0.265782 0.572688
983 4 0.99748 0.298845 0.538273
1135 2 0.068096 0.320759 0.56106
327 4 0.0750753 0.246395 0.567982
696 4 0.0861963 0.252588 0.550293
878 4 0.093728 0.258126 0.569672
1258 2 0.157268 0.290721 0.514122
1260 4 0.164237 0.274052 0.531406
856 2 0.191005 0.253687 0.537806
858 4 0.176733 0.270916 0.548971
797 4 0.263604 0.2693 0.591207
1237 2 0.328408 0.297181 0.565006
1238 4 0.339276 0.276221 0.573236
1239 4 0.317539 0.318141 0.556776
790 2 0.363536 0.252341 0.544928
792 4 0.347066 0.262285 0.560898
936 4 0.000930507 0.392109 0.549187
934 2 0.0191155 0.405607 0.559785
991 2 0.139757 0.391277 0.579852
1137 4 0.0850724 0.336904 0.552325
993 4 0.116719 0.400503 0.576801
1040 4 0.100429 0.410174 0.56542
1161 4 0.119473 0.406396 0.556478
992 4 0.162795 0.382052 0.582904
897 4 0.173691 0.397235 0.590105
804 4 0.307397 0.33631 0.562107
802 2 0.292221 0.340817 0.58146
929 4 0.329601 0.335879 0.563163
928 2 0.343876 0.356319 0.561263
882 4 0.372195 0.393439 0.562152
930 4 0.358151 0.376759 0.559362
1001 4 0.511935 0.417592 0.55574
3430 2 0.0319269 0.462629 0.569324
3431 4 0.0221949 0.485294 0.565225
935 4 0.0373005 0.419104 0.570382
3432 4 0.041659 0.439965 0.573423
1039 2 0.0778573 0.417666 0.573137
540 4 0.00329594 0.447676 0.512597
1041 4 0.0552853 0.425157 0.580855
4434 4 0.00538513 0.498343 0.565678
538 2 0.0244057 0.458251 0.504368
1159 2 0.117586 0.417316 0.534064
1160 4 0.115698 0.428235 0.51165
1453 2 0.33164 0.473575 0.554054
1455 4 0.324754 0.494023 0.541419
1454 4 0.338525 0.453126 0.56669
1445 4 0.307163 0.498384 0.52961
880 2 0.360935 0.415695 0.560395
881 4 0.349674 0.43795 0.558637
925 2 0.496051 0.416638 0.525674
4086 4 0.462837 0.497221 0.580509
1911 4 0.477587 0.50308 0.511547
4084 2 0.470329 0.501633 0.557066
1000 2 0.51011 0.428587 0.578122
1909 2 0.467148 0.485616 0.497014
926 4 0.49833 0.420395 0.501059
1183 2 0.0105963 0.064723 0.642227
1892 4 0.996812 0.0262051 0.636837
1891 2 0.00596624 0.0106292 0.619552
1284 4 0.220224 0.0704053 0.592402
1282 2 0.234467 0.0563378 0.607381
2131 2 0.24024 0.0328752 0.655636
2133 4 0.221089 0.0288617 0.671202
2132 4 0.259391 0.0368887 0.640071
1283 4 0.248711 0.0422703 0.622361
1031 4 0.269381 0.0350889 0.620995
1030 2 0.288678 0.0213825 0.612937
1032 4 0.307975 0.00767611 0.604878
831 4 0.348942 0.0885535 0.608666
1185 4 0.0277096 0.0817126 0.648835
1081 2 0.0159799 0.123319 0.639722
1082 4 0.02509 0.102893 0.650901
943 2 0.068465 0.103669 0.645114
944 4 0.0450207 0.0952804 0.647387
1083 4 0.00686972 0.143745 0.628543
945 4 0.0919094 0.112058 0.642841
1059 4 0.204765 0.0820703 0.589061
1057 2 0.19603 0.0955774 0.608203
1058 4 0.187295 0.109085 0.627346
1155 4 0.190986 0.130434 0.629506
1153 2 0.188825 0.153378 0.619807
909 4 0.202522 0.11664 0.641403
907 2 0.218655 0.108484 0.658677
886 2 0.337423 0.161924 0.609891
888 4 0.322173 0.179487 0.600716
830 4 0.359026 0.130544 0.633882
829 2 0.353984 0.109549 0.621274
887 4 0.352673 0.144362 0.619065
1194 4 0.349209 0.148808 0.639742
1192 2 0.364796 0.15356 0.658706
1026 4 0.440808 0.139273 0.652231
1024 2 0.444511 0.152528 0.631356
1143 4 0.442855 0.122899 0.665578
1025 4 0.448215 0.165784 0.610481
852 4 0.0548459 0.224347 0.674764
1209 4 0.063389 0.233405 0.656655
877 2 0.108443 0.24103 0.580459
1272 4 0.140902 0.221359 0.601811
1270 2 0.162041 0.208035 0.600911
879 4 0.123159 0.223935 0.591247
1154 4 0.186664 0.176323 0.610108
1271 4 0.18318 0.194712 0.60001
1221 4 0.203091 0.188412 0.604334
1219 2 0.225325 0.197606 0.59753
1220 4 0.247559 0.2068 0.590726
1212 4 0.268931 0.204198 0.590992
1211 4 0.304988 0.176562 0.611894
1210 2 0.286959 0.19038 0.601443
904 2 0.438508 0.198642 0.582629
906 4 0.441136 0.180273 0.599387
1245 4 0.044714 0.241933 0.666076
1207 2 0.0774548 0.252799 0.663809
1243 2 0.0216036 0.24835 0.659012
948 4 0.160254 0.252514 0.664548
1208 4 0.0915207 0.272194 0.670963
946 2 0.137044 0.261231 0.667786
3112 2 0.486988 0.328189 0.634438
3114 4 0.476418 0.305542 0.635164
1068 4 0.165174 0.34286 0.645962
1066 2 0.142673 0.353093 0.649721
1067 4 0.120171 0.363326 0.653481
941 4 0.112031 0.372547 0.668775
1191 4 0.223413 0.356297 0.617679
896 4 0.21043 0.369514 0.609662
895 2 0.192061 0.383374 0.599883
1028 4 0.172815 0.358323 0.655737
1189 2 0.246421 0.359479 0.608421
803 4 0.277045 0.345323 0.600813
1190 4 0.269429 0.362661 0.599164
3264 4 0.036291 0.427513 0.590586
3263 4 0.01116 0.427603 0.63382
3239 4 0.0114286 0.443331 0.649954
3262 2 0.0237255 0.427558 0.612203
3238 2 0.0265645 0.458273 0.6631
2436 4 0.257551 0.492009 0.601684
1173 4 0.314061 0.47619 0.601109
1171 2 0.323903 0.466604 0.622
2435 4 0.303126 0.481854 0.58378
2434 2 0.280338 0.486932 0.592732
2154 4 0.319277 0.494724 0.59123
1172 4 0.333745 0.457018 0.64289
891 4 0.324795 0.464311 0.65989
3183 4 0.468126 0.489248 0.599669
1204 2 0.492306 0.433582 0.643169
3181 2 0.486513 0.473387 0.605631
1205 4 0.481038 0.429228 0.665061
824 4 0.220469 0.0123734 0.682484
2255 4 0.183682 0.999193 0.727062
825 4 0.179483 0.996438 0.706296
823 2 0.199976 0.0044058 0.69439
43 3 0.473658 0.0634533 0.717106
846 4 0.471901 0.0674967 0.737412
44 3 0.480574 0.0752551 0.681647
41 1 0.483055 0.0577478 0.696672
45 3 0.473049 0.0390014 0.688481
1142 4 0.460603 0.0773304 0.676027
1077 4 0.0212441 0.0952679 0.714752
1075 2 0.0283884 0.0933926 0.690864
864 4 0.0196491 0.103309 0.732751
1076 4 0.0355327 0.0915173 0.666977
1177 2 0.0178693 0.157277 0.685694
1072 2 0.134852 0.153249 0.730136
1074 4 0.157295 0.156443 0.719589
1073 4 0.112408 0.150056 0.740684
1106 4 0.094323 0.154043 0.729105
1215 4 0.0963498 0.135741 0.740077
908 4 0.234789 0.100328 0.67595
1227 4 0.227918 0.0921142 0.693056
1226 4 0.22028 0.112475 0.738088
1225 2 0.224099 0.102294 0.715572
1130 4 0.220751 0.131638 0.74745
1263 4 0.438459 0.142805 0.673116
1141 2 0.451729 0.100115 0.670803
3424 2 0.48865 0.154399 0.696334
1261 2 0.417697 0.155255 0.679372
850 2 0.0510113 0.200556 0.681434
1178 4 0.0421002 0.156197 0.691767
851 4 0.0471767 0.176766 0.688104
1107 4 0.051695 0.16804 0.707022
1105 2 0.073009 0.161041 0.718063
1298 4 0.226601 0.250717 0.748397
1297 2 0.244519 0.247723 0.731218
1086 4 0.278527 0.234309 0.721172
1299 4 0.262438 0.244728 0.714039
1084 2 0.290245 0.220638 0.738521
1193 4 0.380383 0.158312 0.677671
1262 4 0.396935 0.167704 0.685627
3270 4 0.477215 0.179659 0.722408
3426 4 0.469637 0.166062 0.707635
1146 4 0.476259 0.185784 0.701908
1145 4 0.494586 0.23014 0.687859
1144 2 0.485423 0.207962 0.694883
3123 4 0.511379 0.242454 0.684911
3268 2 0.46562 0.186808 0.743375
947 4 0.113834 0.269949 0.671024
821 4 0.108618 0.298886 0.733513
820 2 0.106163 0.289456 0.710486
822 4 0.103709 0.280026 0.687459
1242 4 0.0924012 0.307522 0.742969
1096 2 0.33199 0.315102 0.748088
1098 4 0.335669 0.298783 0.729505
816 4 0.0229438 0.372124 0.685353
892 2 0.0679218 0.404208 0.734953
893 4 0.0751636 0.38436 0.72158
815 4 0.0622765 0.368089 0.715969
814 2 0.0426102 0.370107 0.700661
942 4 0.0831526 0.368865 0.709434
940 2 0.097592 0.370706 0.689105
1027 2 0.194078 0.358328 0.668892
1029 4 0.215341 0.358333 0.682047
1139 4 0.216378 0.379788 0.682689
1063 2 0.232197 0.359872 0.720274
1064 4 0.244726 0.351148 0.740076
1065 4 0.219668 0.368595 0.700473
1138 2 0.228456 0.401661 0.683641
1101 4 0.449639 0.383462 0.680626
1099 2 0.465446 0.402695 0.682945
894 4 0.06068 0.424055 0.748325
3240 4 0.0417004 0.473215 0.676246
2172 4 0.0593835 0.481651 0.685483
1279 2 0.0524903 0.455256 0.717163
1280 4 0.0586567 0.442548 0.737795
1281 4 0.0463239 0.467964 0.696532
2170 2 0.0630458 0.504951 0.677184
3276 4 0.0442373 0.437041 0.752827
1140 4 0.240533 0.423533 0.684592
1176 4 0.201071 0.492453 0.721089
889 2 0.318795 0.48378 0.674386
890 4 0.312796 0.503249 0.688883
1100 4 0.481254 0.421928 0.685264
1269 4 0.489044 0.441325 0.680878
1267 2 0.490157 0.46331 0.692735
1268 4 0.49127 0.485295 0.704592
911 4 0.0965248 0.0288261 0.800777
1203 4 0.0846171 0.0115284 0.797152
1201 2 0.0811196 0.995921 0.777933
1196 4 0.085877 0.0194362 0.816834
910 2 0.104607 0.0518127 0.806387
912 4 0.112688 0.0747993 0.811998
1287 4 0.132585 0.0779322 0.821674
1149 4 0.210134 0.0704497 0.783946
2400 4 0.31716 0.0296954 0.756359
2398 2 0.336523 0.0409428 0.767484
1049 4 0.361664 0.0691619 0.790061
1111 2 0.39939 0.0520075 0.779827
2399 4 0.355885 0.0521902 0.778608
1112 4 0.375757 0.0596842 0.777049
1113 4 0.423023 0.0443308 0.782605
844 2 0.456398 0.0583471 0.754765
845 4 0.440895 0.0491974 0.772118
980 4 0.442209 0.0418699 0.793234
979 2 0.440261 0.0274365 0.813558
981 4 0.438314 0.0130032 0.833882
862 2 0.00353023 0.108704 0.751088
1214 4 0.0997592 0.123291 0.788389
33 3 0.099342 0.119578 0.807435
1213 2 0.0980545 0.129516 0.764233
31 1 0.101842 0.109916 0.828383
32 3 0.115618 0.0915882 0.826522