ITEM: TIMESTEP
560000
ITEM: NUMBER OF ATOMS
4590
ITEM: BOX BOUNDS pp pp pp
-9.9985700000000008e+00 9.9985700000000008e+00
-9.9985700000000008e+00 9.9985700000000008e+00
-9.9985700000000008e+00 9.9985700000000008e+00
ITEM: ATOMS id type xs ys zs
463 2 0.0322526 0.0320257 0.042987
465 4 0.0284102 0.0404941 0.066197
464 4 0.036095 0.0235574 0.0197771
1666 2 0.0884101 0.017897 0.0475933
1667 4 0.0995679 0.0303058 0.0662133
700 2 0.0945726 0.0700804 0.0681595
702 4 0.0977459 0.0477744 0.0573173
1668 4 0.0772523 0.00548823 0.0289733
534 4 0.18569 0.0394483 0.0174417
1475 4 0.174554 0.00642058 0.0860336
491 4 0.276234 0.0683806 0.992904
490 2 0.296638 0.063777 0.00660277
492 4 0.317042 0.0591734 0.0203016
747 4 0.474254 0.0627589 0.0296266
2975 4 0.4745 0.0435774 0.0237933
2974 2 0.494171 0.0361107 0.0373014
987 4 0.425468 0.036609 0.994462
701 4 0.0913993 0.0923864 0.0790016
589 2 0.052453 0.123179 0.0513965
590 4 0.0301017 0.119986 0.0406539
3233 4 0.0295785 0.11707 0.021501
591 4 0.0748043 0.126372 0.0621392
3232 2 0.0223521 0.127867 0.000137948
358 2 0.24368 0.146601 0.00550883
360 4 0.220079 0.142488 0.998347
359 4 0.26728 0.150714 0.0126704
557 4 0.365537 0.125561 0.0359128
556 2 0.374231 0.13639 0.0567051
558 4 0.382926 0.147219 0.0774975
745 2 0.463602 0.08538 0.0295147
746 4 0.452951 0.108001 0.0294028
914 4 0.171653 0.212393 0.00897753
566 4 0.231774 0.166267 0.0856862
355 2 0.23953 0.239257 0.0155856
357 4 0.245913 0.252412 0.035868
666 4 0.312658 0.198966 0.0263306
572 4 0.324958 0.210936 0.0372709
571 2 0.330334 0.233432 0.0467691
1071 4 0.375245 0.249688 0.0343818
771 4 0.463839 0.222629 0.056378
770 4 0.473674 0.182977 0.0275382
769 2 0.468756 0.202803 0.0419581
323 4 0.453747 0.240866 0.0622841
518 4 0.473838 0.236966 0.068356
322 2 0.435863 0.239182 0.0796762
517 2 0.490755 0.24272 0.0858464
292 2 0.132372 0.312465 0.0352573
293 4 0.154613 0.301875 0.030968
507 4 0.170131 0.297424 0.0177063
505 2 0.187729 0.287674 0.0325539
506 4 0.205326 0.277925 0.0474014
482 4 0.247833 0.323613 0.0731464
483 4 0.206785 0.333265 0.046266
481 2 0.227309 0.328439 0.0597062
756 4 0.264738 0.323341 0.0863158
573 4 0.33571 0.255928 0.0562672
1069 2 0.370678 0.27416 0.0367156
1070 4 0.366112 0.298632 0.0390494
330 4 0.0553945 0.390442 0.99039
328 2 0.0411592 0.410316 0.995639
1169 4 0.0585012 0.371504 0.98769
294 4 0.110132 0.323055 0.0395465
454 2 0.13418 0.389922 0.0827192
456 4 0.145982 0.409659 0.0729021
288 4 0.201328 0.395866 0.0293646
287 4 0.196052 0.349398 0.0470741
286 2 0.19869 0.372632 0.0382193
252 4 0.258213 0.341911 0.0780956
250 2 0.264266 0.366025 0.0754364
251 4 0.270319 0.390138 0.0727772
609 4 0.271646 0.40585 0.085133
281 4 0.457305 0.347376 0.0736556
280 2 0.451724 0.360644 0.0532108
282 4 0.446144 0.373912 0.0327661
329 4 0.0269238 0.43019 0.000888359
550 2 0.0607163 0.434094 0.0661273
551 4 0.074686 0.432802 0.0454305
242 4 0.14576 0.493102 0.0742979
245 4 0.241867 0.477694 0.0481801
607 2 0.285923 0.421318 0.0716393
244 2 0.256013 0.48275 0.0281923
246 4 0.270159 0.487805 0.00820449
608 4 0.3002 0.436786 0.0581457
228 4 0.50598 0.451851 0.0157385
16 1 0.00702854 0.0735132 0.158668
450 4 0.191101 0.0653037 0.141277
652 2 0.317979 0.0420902 0.094735
654 4 0.295494 0.0312027 0.0957619
653 4 0.340465 0.0529777 0.093708
296 4 0.370213 0.0438077 0.0961648
295 2 0.389703 0.0593525 0.0942389
2723 4 0.488482 0.0365978 0.162053
1759 2 0.477336 0.000490908 0.152139
20 3 0.0114171 0.0951356 0.153024
379 2 0.00887613 0.156234 0.156114
2624 4 0.999765 0.169155 0.112864
380 4 0.00240998 0.16125 0.132488
448 2 0.190465 0.0875293 0.12984
565 2 0.237661 0.142001 0.0869866
567 4 0.243548 0.117735 0.088287
449 4 0.189828 0.109755 0.118404
235 2 0.201342 0.13946 0.141151
236 4 0.188179 0.118378 0.138424
237 4 0.214506 0.160543 0.143879
297 4 0.409192 0.0748973 0.092313
311 4 0.468232 0.108814 0.159646
476 4 0.161294 0.172484 0.0957388
475 2 0.139147 0.170352 0.107147
477 4 0.117 0.16822 0.118555
339 4 0.104824 0.22019 0.126403
337 2 0.0939246 0.235324 0.143056
738 4 0.183392 0.250185 0.124296
736 2 0.207398 0.257154 0.124862
461 4 0.294712 0.201056 0.107491
354 4 0.285264 0.217024 0.114616
352 2 0.276372 0.239828 0.109507
460 2 0.317803 0.197739 0.0984906
462 4 0.340893 0.194421 0.0894901
255 4 0.353732 0.180454 0.097201
254 4 0.398666 0.193333 0.11497
253 2 0.376199 0.186894 0.106086
630 4 0.400205 0.212274 0.119454
628 2 0.417856 0.209239 0.136901
629 4 0.435507 0.206204 0.154348
324 4 0.417978 0.237499 0.0970683
338 4 0.0830248 0.250458 0.159709
737 4 0.231404 0.264123 0.125429
353 4 0.26748 0.262631 0.104399
754 2 0.272297 0.300497 0.0931114
755 4 0.279855 0.277652 0.0999069
741 4 0.376277 0.311411 0.107829
622 2 0.401751 0.279359 0.0964193
624 4 0.39235 0.302442 0.0984197
623 4 0.411152 0.256276 0.0944188
528 4 0.484854 0.279344 0.127905
672 4 0.45833 0.308532 0.129637
670 2 0.457612 0.319613 0.107235
619 2 0.012421 0.370158 0.129626
620 4 0.0297304 0.378406 0.145674
621 4 0.995112 0.361909 0.113579
455 4 0.122379 0.370185 0.0925363
535 2 0.135645 0.350362 0.164565
536 4 0.118289 0.368135 0.161721
417 4 0.162315 0.381458 0.135545
415 2 0.183965 0.388987 0.145534
416 4 0.205615 0.396516 0.155522
612 4 0.230203 0.326063 0.162111
610 2 0.240918 0.348582 0.163913
387 4 0.319713 0.395078 0.121312
739 2 0.368129 0.335045 0.107368
385 2 0.342398 0.387257 0.114282
740 4 0.359981 0.35868 0.106907
386 4 0.365082 0.379437 0.107252
14 3 0.407756 0.380178 0.130788
495 4 0.39983 0.39467 0.121821
13 3 0.413159 0.352614 0.156389
671 4 0.456893 0.330694 0.0848325
15 3 0.43457 0.354288 0.125463
11 1 0.423534 0.366641 0.141092
12 3 0.43861 0.37996 0.15225
595 2 0.476879 0.373738 0.150377
597 4 0.454805 0.368157 0.160709
552 4 0.0467465 0.435386 0.086824
315 4 0.0410625 0.423991 0.102421
313 2 0.020733 0.432851 0.113971
1467 4 0.0109775 0.49799 0.136058
627 4 0.170775 0.430705 0.0950225
626 4 0.219331 0.435951 0.105771
625 2 0.195053 0.433328 0.100397
637 2 0.238505 0.475773 0.148164
639 4 0.238231 0.483986 0.12455
1439 4 0.23671 0.503501 0.117709
493 2 0.397395 0.419363 0.124906
525 4 0.357799 0.471877 0.137686
523 2 0.356136 0.494282 0.126712
658 2 0.354549 0.445067 0.167689
659 4 0.357706 0.45286 0.144142
494 4 0.39496 0.444056 0.127991
19 3 0.0268915 0.0621299 0.162449
673 2 0.106548 0.053927 0.212654
675 4 0.107054 0.0289488 0.211646
1403 4 0.110792 0.0205461 0.229313
1402 2 0.0949237 0.00506429 0.240875
690 4 0.200394 0.0435717 0.224196
688 2 0.19131 0.0361874 0.24629
1785 4 0.411675 0.00496586 0.182532
21 1 0.372329 0.0670576 0.240055
25 3 0.384689 0.0528478 0.22725
759 4 0.394874 0.0596677 0.208651
1784 4 0.39919 0.0390226 0.216956
1783 2 0.405433 0.0219943 0.199744
757 2 0.411878 0.0767979 0.202123
23 3 0.350584 0.0591745 0.241895
1760 4 0.474577 0.0225003 0.163679
743 4 0.491205 0.0982841 0.238084
381 4 0.0153423 0.151218 0.179741
511 2 0.018771 0.13381 0.220248
512 4 0.0140913 0.147114 0.199602
577 2 0.0644709 0.115852 0.252113
513 4 0.0234508 0.120506 0.240895
674 4 0.106041 0.0789051 0.213661
578 4 0.0887177 0.110083 0.250115
722 4 0.165764 0.149292 0.214977
546 4 0.171507 0.146891 0.232917
693 4 0.239814 0.0834283 0.19193
692 4 0.1923 0.0943776 0.180826
723 4 0.182838 0.108206 0.192148
691 2 0.216057 0.088903 0.186378
721 2 0.174301 0.128749 0.203563
582 4 0.276303 0.129942 0.181438
580 2 0.279125 0.112928 0.199541
581 4 0.281946 0.0959139 0.217645
26 1 0.332888 0.150514 0.232106
28 3 0.317952 0.149585 0.214373
29 3 0.328929 0.132936 0.246726
27 3 0.354299 0.14868 0.223898
24 3 0.372301 0.0882455 0.230596
310 2 0.447334 0.109957 0.173325
758 4 0.428881 0.0939282 0.195595
312 4 0.426435 0.111101 0.187005
394 2 0.0202926 0.241999 0.226479
395 4 0.00101631 0.227238 0.232457
344 4 0.238445 0.239468 0.232052
285 4 0.266305 0.15985 0.156313
284 4 0.26558 0.201347 0.184209
283 2 0.265943 0.180598 0.170261
764 4 0.383167 0.250983 0.189155
763 2 0.406189 0.241769 0.185952
765 4 0.429212 0.232556 0.182748
396 4 0.039569 0.256759 0.220501
363 4 0.077444 0.253684 0.179474
750 4 0.0494518 0.25494 0.238056
537 4 0.153 0.332589 0.167409
362 4 0.110021 0.265834 0.215415
361 2 0.0937327 0.259759 0.197444
372 4 0.125461 0.273523 0.224766
370 2 0.146434 0.268341 0.212177
371 4 0.167406 0.263158 0.199589
279 4 0.215477 0.309262 0.213025
277 2 0.237152 0.309302 0.20056
343 2 0.253338 0.259543 0.231426
278 4 0.258827 0.309343 0.188095
307 2 0.293286 0.298294 0.206569
309 4 0.268394 0.300431 0.205568
308 4 0.318178 0.296157 0.207569
345 4 0.26823 0.279617 0.2308
648 4 0.0677082 0.372802 0.183456
646 2 0.0697481 0.395875 0.192871
300 4 0.0775685 0.345684 0.228622
298 2 0.0998061 0.348198 0.239773
291 4 0.212858 0.407711 0.171189
611 4 0.251632 0.371102 0.165716
729 4 0.339079 0.397048 0.241004
303 4 0.33102 0.394504 0.223358
643 2 0.447473 0.382738 0.197459
644 4 0.45046 0.38121 0.222237
645 4 0.444486 0.384265 0.172682
447 4 0.438148 0.376841 0.238244
647 4 0.0717881 0.418948 0.202286
262 2 0.0708853 0.449275 0.211323
264 4 0.0744863 0.46354 0.231539
263 4 0.0672844 0.435009 0.191107
289 2 0.224518 0.428923 0.177454
290 4 0.236179 0.450135 0.18372
638 4 0.238778 0.46756 0.171779
767 4 0.250108 0.465025 0.190014
768 4 0.2823 0.4885 0.220235
766 2 0.266204 0.476762 0.205124
1574 4 0.333262 0.483617 0.201145
1573 2 0.325885 0.489354 0.224336
301 2 0.332122 0.415207 0.209382
302 4 0.333224 0.435911 0.195406
1575 4 0.318509 0.495091 0.247528
660 4 0.351392 0.437273 0.191236
232 2 0.0159924 0.0457539 0.331658
234 4 0.0392037 0.0542708 0.327933
1462 2 0.144267 0.00476997 0.312915
1464 4 0.146242 0.0278568 0.32231
1700 4 0.211498 0.992548 0.299035
689 4 0.182227 0.0288031 0.268384
1699 2 0.206777 0.0147567 0.309507
1701 4 0.202056 0.0369655 0.319979
248 4 0.210702 0.0564667 0.320994
247 2 0.22412 0.0774286 0.318599
697 2 0.381228 0.0199944 0.320919
351 4 0.401743 0.0552385 0.315415
349 2 0.412696 0.0735301 0.302352
632 4 0.349505 0.0508116 0.313154
698 4 0.390107 0.0419428 0.328958
22 3 0.381588 0.068311 0.261076
631 2 0.354244 0.0746306 0.319102
699 4 0.37235 0.998046 0.31288
742 2 0.471712 0.0835586 0.243409
744 4 0.452219 0.068833 0.248733
579 4 0.0402241 0.12162 0.254111
529 2 0.0099051 0.102217 0.277769
530 4 0.0208242 0.118428 0.262175
392 4 0.0793757 0.140542 0.29765
531 4 0.998986 0.0860063 0.293362
391 2 0.0763947 0.165175 0.300737
2654 4 0.0206495 0.142771 0.326103
399 4 0.104742 0.103546 0.328173
544 2 0.181252 0.154429 0.254675
249 4 0.237538 0.0983905 0.316203
403 2 0.214327 0.130541 0.298806
404 4 0.22982 0.116293 0.312301
405 4 0.198833 0.144789 0.285311
545 4 0.190998 0.161966 0.276432
30 3 0.330726 0.170366 0.243054
708 4 0.289107 0.159271 0.289989
633 4 0.358984 0.0984497 0.325049
350 4 0.423649 0.0918216 0.289289
333 4 0.42486 0.111414 0.287603
331 2 0.439596 0.130773 0.293373
332 4 0.454332 0.150131 0.299144
762 4 0.47121 0.141029 0.303146
760 2 0.481599 0.163583 0.306065
749 4 0.0704249 0.2629 0.282749
393 4 0.0734137 0.189807 0.303824
706 2 0.302457 0.175598 0.30342
707 4 0.315807 0.191925 0.316851
520 2 0.484959 0.23963 0.27505
418 2 0.433046 0.221398 0.289579
419 4 0.426035 0.198514 0.296814
521 4 0.460029 0.241375 0.275853
420 4 0.440057 0.244282 0.282345
364 2 0.013973 0.318359 0.25516
748 2 0.0599384 0.25892 0.260403
365 4 0.0122347 0.301259 0.273319
444 4 0.030964 0.254446 0.31229
2493 4 0.998939 0.3086 0.28819
442 2 0.0242088 0.276713 0.30314
443 4 0.0174535 0.29898 0.29399
389 4 0.144094 0.280975 0.322456
388 2 0.121542 0.286849 0.331514
401 4 0.162832 0.275155 0.325406
497 4 0.326257 0.316195 0.287648
496 2 0.332667 0.294114 0.297472
498 4 0.339077 0.272033 0.307297
614 4 0.393399 0.321488 0.32473
543 4 0.454056 0.260759 0.282046
541 2 0.448596 0.283592 0.273443
542 4 0.443137 0.306425 0.26484
601 2 0.080877 0.394957 0.30483
603 4 0.0653287 0.384405 0.321325
299 4 0.122044 0.350711 0.250925
602 4 0.0964253 0.405509 0.288335
734 4 0.13048 0.360124 0.267377
733 2 0.146009 0.367127 0.285681
735 4 0.161538 0.374129 0.303984
677 4 0.177912 0.377981 0.314644
437 4 0.270883 0.398379 0.267667
436 2 0.271861 0.422818 0.272857
510 4 0.267293 0.348359 0.319121
727 2 0.342398 0.399393 0.265675
434 4 0.336108 0.408626 0.307857
728 4 0.345717 0.401739 0.290346
753 4 0.400052 0.400995 0.304522
751 2 0.406933 0.401822 0.328546
445 2 0.438205 0.386325 0.26138
446 4 0.438263 0.395808 0.284515
1757 4 0.0767777 0.479545 0.243599
549 4 0.0504524 0.468849 0.329773
777 4 0.0682461 0.474657 0.335457
412 2 0.148613 0.496487 0.316188
775 2 0.0865229 0.490397 0.328872
414 4 0.171872 0.487318 0.315846
1802 4 0.316929 0.484919 0.264803
438 4 0.272839 0.447258 0.278047
1803 4 0.340028 0.488037 0.309046
1801 2 0.328478 0.486478 0.286925
231 4 0.415263 0.456537 0.249524
229 2 0.422204 0.480397 0.252294
713 4 0.432899 0.412336 0.295198
712 2 0.440207 0.436248 0.295329
714 4 0.447515 0.460159 0.295461
318 4 0.0584562 0.048684 0.327367
316 2 0.0703626 0.0357531 0.345149
428 4 0.0877571 0.0030721 0.359827
317 4 0.082269 0.0228222 0.362931
731 4 0.152897 0.0706272 0.360612
606 4 0.229556 0.028836 0.380098
604 2 0.218147 0.037326 0.359532
605 4 0.206739 0.045816 0.338967
441 4 0.241882 0.0154909 0.388728
440 4 0.283654 0.0126401 0.416072
1818 4 0.294505 0.9958 0.408063
439 2 0.262768 0.0140655 0.4024
257 4 0.408986 0.0505013 0.335645
256 2 0.409834 0.0566547 0.359865
258 4 0.410681 0.0628082 0.384085
425 4 0.381734 0.0207185 0.416156
398 4 0.059522 0.118292 0.343612
2653 2 0.0115165 0.145482 0.349221
397 2 0.0821322 0.110919 0.335893
2655 4 0.00238351 0.148193 0.372338
732 4 0.122573 0.102912 0.337399
730 2 0.137735 0.0867696 0.349006
686 4 0.176174 0.13303 0.397119
685 2 0.175747 0.110994 0.408926
598 2 0.17507 0.142622 0.363495
599 4 0.189042 0.139608 0.38401
687 4 0.175321 0.0889575 0.420733
600 4 0.161099 0.145636 0.342979
683 4 0.314357 0.103769 0.384544
682 2 0.302141 0.102288 0.40631
467 4 0.339619 0.134267 0.402338
514 2 0.413971 0.136544 0.412588
451 2 0.466571 0.127825 0.398826
453 4 0.446078 0.126827 0.384536
515 4 0.429727 0.125341 0.396732
452 4 0.487064 0.128823 0.413117
260 4 0.0836211 0.192498 0.413752
474 4 0.214519 0.212881 0.374188
274 2 0.208086 0.227353 0.41281
276 4 0.203491 0.215287 0.391398
472 2 0.235335 0.207563 0.361399
473 4 0.256152 0.202245 0.34861
487 2 0.299417 0.245353 0.401048
269 4 0.497449 0.229404 0.387904
304 2 0.464904 0.211244 0.413033
306 4 0.481437 0.222504 0.398031
618 4 0.0557177 0.312741 0.382513
347 4 0.0639825 0.31751 0.399333
616 2 0.0699714 0.309812 0.36218
346 2 0.068552 0.317802 0.423914
390 4 0.0989892 0.292724 0.340573
617 4 0.0842251 0.306884 0.341847
400 2 0.178346 0.275718 0.345007
375 4 0.179924 0.303845 0.389935
402 4 0.193859 0.276282 0.364608
373 2 0.17136 0.319221 0.407695
378 4 0.251623 0.274403 0.345358
489 4 0.284026 0.247112 0.381422
376 2 0.269035 0.27028 0.362822
377 4 0.286447 0.266158 0.380287
613 2 0.384243 0.306535 0.342556
615 4 0.375087 0.291583 0.360382
716 4 0.364718 0.276349 0.353513
715 2 0.360753 0.267959 0.37673
717 4 0.356789 0.259569 0.399948
267 4 0.360479 0.277401 0.41045
2925 4 0.498805 0.336183 0.37939
2927 4 0.00360115 0.415448 0.347723
406 2 0.0612597 0.399978 0.368601
408 4 0.0664847 0.376007 0.373427
407 4 0.0560346 0.423948 0.363775
509 4 0.235575 0.379262 0.342352
676 2 0.183743 0.38083 0.338791
678 4 0.189574 0.383679 0.362938
503 4 0.233951 0.351073 0.41592
508 2 0.251434 0.36381 0.330737
435 4 0.330024 0.420512 0.356049
433 2 0.333066 0.414569 0.331953
336 4 0.353287 0.387461 0.403838
752 4 0.413814 0.402649 0.35257
561 4 0.411059 0.398207 0.371599
559 2 0.427764 0.400948 0.39
560 4 0.444469 0.403689 0.408401
548 4 0.0404796 0.437114 0.367112
547 2 0.045466 0.452982 0.348443
680 4 0.0194129 0.465124 0.416148
501 4 0.0931362 0.485645 0.378683
5 3 0.324687 0.495582 0.357663
4 3 0.293378 0.475066 0.361723
1 1 0.316574 0.474802 0.362246
2 3 0.323467 0.468439 0.383249
3 3 0.324673 0.459546 0.346751
720 4 0.0232133 0.0776011 0.477992
2238 4 0.0162948 0.0111504 0.500274
367 2 0.0973414 0.0428788 0.4571
369 4 0.109407 0.0642443 0.461907
368 4 0.0852754 0.0215132 0.452294
2430 4 0.16108 0.0471629 0.486241
2428 2 0.159215 0.0222599 0.484999
340 2 0.183394 0.0790993 0.489413
341 4 0.181473 0.0544558 0.485647
726 4 0.304846 0.0118558 0.417888
1180 2 0.287084 0.0709481 0.477328
724 2 0.322425 0.0268826 0.427396
1182 4 0.281274 0.0871618 0.459202
725 4 0.340003 0.0419093 0.436903
424 2 0.372331 0.00052033 0.427505
718 2 0.0320629 0.0983303 0.467168
457 2 0.0200443 0.139549 0.431781
719 4 0.0409126 0.11906 0.456344
459 4 0.0411248 0.135366 0.44456
1151 4 0.1621 0.148356 0.457082
1150 2 0.176015 0.129544 0.465896
1152 4 0.18993 0.110733 0.474709
342 4 0.185316 0.103743 0.493178
321 4 0.2475 0.138521 0.442705
684 4 0.289925 0.100807 0.428076
320 4 0.281953 0.102409 0.445809
319 2 0.264727 0.120465 0.444257
466 2 0.332999 0.151225 0.419478
575 4 0.41207 0.161273 0.435112
516 4 0.398215 0.147748 0.428444
2880 4 0.486187 0.109789 0.487814
642 4 0.482301 0.127647 0.497668
640 2 0.48471 0.152422 0.495307
261 4 0.0997453 0.215806 0.454952
259 2 0.0916832 0.204152 0.434352
1035 4 0.117527 0.205295 0.461285
1033 2 0.120411 0.192655 0.482664
695 4 0.116088 0.226429 0.463916
694 2 0.105743 0.245466 0.476397
275 4 0.212681 0.239418 0.434222
411 4 0.288856 0.200455 0.485145
409 2 0.299934 0.188715 0.46605
410 4 0.311011 0.176974 0.446955
488 4 0.314809 0.243595 0.420674
468 4 0.326379 0.168183 0.436618
305 4 0.44837 0.199985 0.428035
574 2 0.426131 0.181177 0.440709
576 4 0.440192 0.20108 0.446305
641 4 0.487119 0.177197 0.492946
2847 4 0.00108334 0.274734 0.491687
348 4 0.0731214 0.318095 0.448495
327 4 0.0829913 0.280244 0.48751
696 4 0.0953986 0.264502 0.488878
374 4 0.162796 0.334597 0.425455
650 4 0.240972 0.341906 0.433937
651 4 0.272592 0.305144 0.446163
649 2 0.256782 0.323525 0.44005
266 4 0.373276 0.259574 0.455385
265 2 0.366877 0.268488 0.432918
812 4 0.360265 0.298846 0.502234
585 4 0.442728 0.263056 0.481046
2456 4 0.491145 0.300654 0.47713
583 2 0.458906 0.280926 0.474402
584 4 0.475083 0.298796 0.467759
872 4 0.433554 0.247573 0.491209
10 3 0.139021 0.348477 0.480375
7 3 0.10388 0.348608 0.492945
502 2 0.219404 0.36731 0.428164
504 4 0.204858 0.383547 0.440409
709 2 0.181201 0.407717 0.452832
710 4 0.204178 0.402696 0.444344
773 4 0.237278 0.396709 0.460878
334 2 0.353496 0.372491 0.423864
238 2 0.393332 0.361879 0.461933
240 4 0.369174 0.362681 0.455537
335 4 0.353705 0.357521 0.443889
239 4 0.417491 0.361078 0.468329
2506 2 0.501659 0.384552 0.453586
2508 4 0.500448 0.382061 0.478436
383 4 0.053385 0.43629 0.45256
681 4 0.0392667 0.426625 0.441135
679 2 0.0293398 0.445875 0.428642
538 2 0.0548423 0.494762 0.48743
382 2 0.0780362 0.438576 0.456063
540 4 0.038452 0.489249 0.46937
711 4 0.158224 0.412738 0.46132
570 4 0.119072 0.506354 0.444278
568 2 0.112333 0.483518 0.451914
384 4 0.102687 0.440863 0.459566
569 4 0.105593 0.460683 0.45955
1395 4 0.193289 0.500829 0.485082
774 4 0.232263 0.442444 0.441286
635 4 0.222132 0.459672 0.44071
634 2 0.207362 0.474444 0.454452
636 4 0.192593 0.489216 0.468194
772 2 0.234771 0.419577 0.451082
1455 4 0.368954 0.506478 0.478109
586 2 0.421433 0.447794 0.439337
588 4 0.399729 0.440366 0.42939
668 4 0.389655 0.422958 0.426556
667 2 0.368738 0.425373 0.413072
669 4 0.347821 0.427788 0.399587
587 4 0.443137 0.455222 0.449284
663 4 0.459899 0.485972 0.485939
1126 2 0.00959734 0.027013 0.528383
1127 4 0.000146969 0.0105062 0.512153
1128 4 0.0190477 0.0435197 0.544612
1030 2 0.244441 0.0765904 0.576769
1032 4 0.253535 0.0680184 0.555113
961 2 0.294335 0.0144357 0.500877
430 2 0.330574 0.0706099 0.510591
963 4 0.300401 0.0379552 0.506811
432 4 0.30969 0.0568745 0.509994
950 4 0.256962 0.98729 0.586692
1181 4 0.292893 0.0547345 0.495454
431 4 0.351459 0.0843453 0.511188
1217 4 0.423516 0.04822 0.524526
841 2 0.393158 0.068214 0.510189
842 4 0.416786 0.0600669 0.509478
843 4 0.369529 0.0763612 0.5109
1216 2 0.427097 0.0444178 0.548978
1218 4 0.430678 0.0406156 0.57343
1062 4 0.460676 0.0221828 0.553254
1060 2 0.4848 0.0172765 0.548883
469 2 0.0370461 0.170047 0.524024
470 4 0.0585999 0.169863 0.511352
937 2 0.103517 0.142204 0.505842
939 4 0.0987477 0.117758 0.503641
899 4 0.324315 0.164986 0.517551
471 4 0.0154923 0.170232 0.536696
877 2 0.097349 0.236151 0.545143
938 4 0.108287 0.166649 0.508043
1272 4 0.130379 0.216027 0.561781
879 4 0.119952 0.226039 0.54861
1034 4 0.123296 0.180014 0.504044
857 4 0.218528 0.228369 0.528429
1154 4 0.186275 0.17934 0.580443
856 2 0.241905 0.219993 0.525506
858 4 0.265281 0.211616 0.522583
898 2 0.324734 0.175461 0.540251
900 4 0.325152 0.185936 0.562951
791 4 0.281945 0.248764 0.546925
3064 2 0.502741 0.244948 0.545576
878 4 0.0747456 0.246262 0.541676
326 4 0.0763543 0.31271 0.524962
325 2 0.0796728 0.296477 0.506236
1258 2 0.148745 0.294569 0.51982
1260 4 0.159504 0.273457 0.5278
1259 4 0.137986 0.315681 0.511839
9 3 0.131216 0.334147 0.514307
803 4 0.232713 0.32395 0.546097
790 2 0.288074 0.261896 0.567301
802 2 0.250339 0.318659 0.563024
813 4 0.393605 0.288303 0.537984
811 2 0.376935 0.293574 0.520109
3065 4 0.495422 0.259987 0.526989
873 4 0.425752 0.268618 0.535896
871 2 0.429653 0.258096 0.513553
953 4 0.440601 0.280583 0.543347
952 2 0.449934 0.275175 0.565904
1136 4 0.0738548 0.345104 0.574032
984 4 0.0541545 0.343566 0.571285
8 3 0.129243 0.37164 0.508403
6 1 0.125994 0.350713 0.498921
1189 2 0.2058 0.357422 0.555485
1190 4 0.223643 0.342902 0.545688
1191 4 0.187956 0.371942 0.565282
896 4 0.175251 0.362308 0.577767
928 2 0.400074 0.371411 0.577348
930 4 0.402216 0.389176 0.559884
925 2 0.450716 0.400768 0.553528
926 4 0.459918 0.388423 0.533828
927 4 0.441513 0.413113 0.573228
935 4 0.023494 0.430011 0.516545
1160 4 0.159151 0.432198 0.551457
1159 2 0.159648 0.453007 0.56531
1161 4 0.160145 0.473816 0.579164
1173 4 0.25715 0.459107 0.578897
1171 2 0.268594 0.438038 0.585991
1172 4 0.280038 0.416969 0.593085
882 4 0.368676 0.424973 0.563326
880 2 0.368822 0.4449 0.548224
881 4 0.368967 0.464827 0.533122
1454 4 0.361501 0.477842 0.518422
1453 2 0.365227 0.49216 0.498265
662 4 0.435454 0.477705 0.528774
1910 4 0.431582 0.466486 0.546531
1909 2 0.438752 0.483791 0.563093
661 2 0.447676 0.481838 0.507357
1001 4 0.443367 0.431962 0.579751
1185 4 0.0168855 0.0477568 0.617227
1183 2 0.00854646 0.035397 0.637299
944 4 0.0605637 0.0722474 0.656746
943 2 0.076123 0.0542866 0.664524
823 2 0.157359 0.0171573 0.628185
825 4 0.157078 0.041478 0.633982
1283 4 0.218652 0.0719413 0.599731
951 4 0.268644 0.0336046 0.601497
949 2 0.262803 0.0104471 0.594094
2281 2 0.391736 0.00973452 0.666337
2282 4 0.382756 0.009 0.643013
3008 4 0.493428 0.0716926 0.591565
1082 4 0.0524358 0.0917728 0.654729
1083 4 0.0261144 0.104623 0.614198
1081 2 0.0392751 0.0981977 0.634464
1155 4 0.14433 0.155505 0.593605
1059 4 0.154513 0.0928358 0.617097
1058 4 0.138652 0.138333 0.603713
1057 2 0.146583 0.115584 0.610405
907 2 0.167302 0.140636 0.658131
909 4 0.152727 0.151908 0.641228
1031 4 0.235346 0.0851624 0.598425
1284 4 0.173667 0.0905467 0.611174
1282 2 0.196159 0.081244 0.605452
809 4 0.482415 0.0814975 0.606021
810 4 0.449838 0.10332 0.637057
808 2 0.466127 0.0924086 0.621539
1245 4 0.048491 0.239244 0.652838
1209 4 0.0694999 0.241144 0.657225
852 4 0.0572093 0.227575 0.668639
1270 2 0.12101 0.201412 0.579776
1271 4 0.111641 0.186797 0.59777
1153 2 0.165303 0.167423 0.587024
1221 4 0.205331 0.183068 0.587994
1212 4 0.232764 0.205277 0.646123
1219 2 0.213023 0.195448 0.60831
1220 4 0.220715 0.207828 0.628627
796 2 0.246137 0.239763 0.622118
798 4 0.232143 0.224243 0.635846
1210 2 0.250972 0.188431 0.649263
1211 4 0.269181 0.171586 0.652403
886 2 0.311881 0.168622 0.667084
888 4 0.289061 0.170259 0.656998
1193 4 0.375252 0.207078 0.659629
904 2 0.45196 0.231096 0.610617
906 4 0.443956 0.210614 0.622517
1024 2 0.434177 0.191149 0.660229
1025 4 0.435184 0.204832 0.639326
983 4 0.0243597 0.32081 0.604378
1243 2 0.0342392 0.249066 0.634793
1244 4 0.0199874 0.258887 0.616749
982 2 0.0392571 0.332188 0.587831
948 4 0.156509 0.257141 0.606106
797 4 0.260132 0.255283 0.60839
946 2 0.164694 0.26173 0.629282
947 4 0.172878 0.26632 0.652458
804 4 0.267965 0.313368 0.579951
792 4 0.294203 0.275028 0.587677
1238 4 0.306492 0.268919 0.602951
1237 2 0.306257 0.277138 0.626563
1239 4 0.306022 0.285357 0.650176
905 4 0.459963 0.251579 0.598718
954 4 0.459267 0.269767 0.588461
1039 2 0.0593038 0.381909 0.625868
1041 4 0.0345361 0.382982 0.622614
3264 4 0.0175821 0.372717 0.625661
3262 2 0.00897215 0.34981 0.630792
1137 4 0.115674 0.369903 0.585732
1040 4 0.0840715 0.380836 0.629123
993 4 0.0966516 0.383652 0.6434
1135 2 0.0947645 0.357503 0.579882
991 2 0.117277 0.388202 0.630019
992 4 0.137903 0.392751 0.616637
897 4 0.149227 0.39834 0.600684
895 2 0.162239 0.380324 0.589226
891 4 0.29939 0.413965 0.598173
929 4 0.397932 0.353646 0.594812
1204 2 0.41633 0.402065 0.65231
3431 4 0.0012661 0.485264 0.594721
1281 4 0.0409945 0.422594 0.652627
1175 4 0.215992 0.489305 0.661523
2154 4 0.264301 0.477138 0.582856
889 2 0.318797 0.428424 0.604459
890 4 0.338203 0.442883 0.610745
1206 4 0.412532 0.423765 0.640484
1002 4 0.417962 0.421301 0.621484
1000 2 0.430665 0.426632 0.600618
1911 4 0.445921 0.501096 0.579656
1076 4 0.047481 0.0799737 0.67194
945 4 0.0916823 0.0363258 0.672302
2256 4 0.169347 0.0166764 0.68781
1147 2 0.226192 0.0725743 0.73904
1148 4 0.229169 0.0931125 0.725094
2254 2 0.1908 0.00400123 0.685739
2399 4 0.308158 0.00501326 0.745966
1004 4 0.350193 0.0767831 0.731747
2283 4 0.400716 0.010469 0.689661
42 3 0.453393 0.0677653 0.697706
4226 4 0.481994 0.0125618 0.680507
864 4 0.0249031 0.103927 0.725268
1075 2 0.0440482 0.0932955 0.692819
1077 4 0.0406154 0.106617 0.713698
862 2 0.0205161 0.117024 0.74611
908 4 0.181877 0.129364 0.675033
1225 2 0.200348 0.11107 0.700568
1226 4 0.221866 0.100369 0.707469
1227 4 0.178829 0.121772 0.693667
1005 4 0.31037 0.0977982 0.709994
830 4 0.334716 0.163529 0.698145
1003 2 0.330281 0.0872906 0.720871
829 2 0.334896 0.150067 0.719215
831 4 0.335075 0.136605 0.740284
1086 4 0.348916 0.123112 0.744058
43 3 0.446954 0.0811665 0.732226
45 3 0.418967 0.0786394 0.707166
41 1 0.441158 0.0830092 0.709834
44 3 0.446006 0.104352 0.702127
1142 4 0.45102 0.121219 0.693833
1141 2 0.446766 0.145719 0.696443
1143 4 0.442512 0.17022 0.699053
3426 4 0.488947 0.114636 0.684514
851 4 0.0548675 0.185619 0.695748
850 2 0.0560384 0.206597 0.682194
1107 4 0.0526534 0.184148 0.715273
1178 4 0.0338481 0.236446 0.693282
1105 2 0.0648716 0.182995 0.737057
1177 2 0.0166932 0.252289 0.70222
1130 4 0.161738 0.182923 0.711147
1129 2 0.175462 0.192468 0.72974
1276 2 0.209618 0.228571 0.750163
1131 4 0.189186 0.202012 0.748334
1278 4 0.231342 0.237453 0.741539
887 4 0.334701 0.166984 0.677171
978 4 0.292622 0.204855 0.693192
976 2 0.290787 0.207199 0.718018
977 4 0.288951 0.209542 0.742844
1192 2 0.361276 0.192927 0.674781
1194 4 0.3473 0.178775 0.689934
1145 4 0.500558 0.194313 0.72476
1026 4 0.433171 0.177466 0.681133
1261 2 0.442219 0.202724 0.716402
1263 4 0.430541 0.187947 0.699957
1262 4 0.453898 0.217502 0.732846
1207 2 0.0865402 0.255604 0.668438
1208 4 0.103581 0.270064 0.67965
822 4 0.14426 0.261767 0.689475
820 2 0.161779 0.264184 0.70715
821 4 0.179298 0.266601 0.724826
1065 4 0.248424 0.326893 0.678056
1063 2 0.258686 0.336609 0.698683
1019 4 0.379461 0.315453 0.720055
3123 4 0.46842 0.298829 0.685016
3121 2 0.492375 0.292054 0.682689
3274 2 0.00597538 0.407515 0.7302
3276 4 0.0300676 0.402683 0.725574
892 2 0.0587756 0.392585 0.724202
894 4 0.0398548 0.396472 0.708324
893 4 0.0776963 0.388699 0.740079
940 2 0.123069 0.37987 0.734432
941 4 0.147717 0.376041 0.732696
942 4 0.0984215 0.383698 0.736168
1067 4 0.163956 0.372893 0.721559
1028 4 0.213752 0.401686 0.683416
1066 2 0.180159 0.387089 0.708865
1068 4 0.196361 0.401284 0.69617
1027 2 0.237113 0.392836 0.684463
1029 4 0.260475 0.383986 0.68551
806 4 0.287079 0.351916 0.715751
807 4 0.336168 0.348259 0.72456
805 2 0.311623 0.350087 0.720155
1064 4 0.268947 0.346325 0.719311
1139 4 0.295056 0.408062 0.70085
1018 2 0.364915 0.333516 0.7294
1020 4 0.350369 0.351579 0.738746
1205 4 0.420129 0.380365 0.664137
1101 4 0.42504 0.398457 0.741278
1100 4 0.438976 0.426581 0.702348
1099 2 0.432008 0.412519 0.721813
1981 2 0.0080691 0.47664 0.728569
1280 4 0.0517105 0.445101 0.695978
1279 2 0.0463525 0.433848 0.674302
1982 4 0.0210352 0.48195 0.749278
885 4 0.0377424 0.475453 0.741093
1174 2 0.206622 0.496778 0.683468
1176 4 0.197253 0.504251 0.705412
2016 4 0.185167 0.500634 0.721753
1138 2 0.282891 0.428698 0.693684
1989 4 0.321752 0.476579 0.685957
1140 4 0.270726 0.449334 0.686518
1987 2 0.310906 0.482896 0.707581
1988 4 0.300059 0.489213 0.729206
1228 2 0.376543 0.481329 0.72682
1230 4 0.397412 0.467839 0.724044
1229 4 0.355674 0.494818 0.729595
1268 4 0.442745 0.487522 0.683091
1267 2 0.434733 0.465164 0.690909
1269 4 0.426721 0.442807 0.698727
2169 4 0.4578 0.49334 0.693695
1296 4 0.00421174 0.019366 0.816528
1203 4 0.113892 0.0483784 0.808383
1201 2 0.116466 0.0393575 0.785206
1202 4 0.119039 0.0303367 0.762029
2049 4 0.123562 0.0115022 0.76168
911 4 0.125461 0.0609335 0.822453
1196 4 0.118029 0.0407255 0.827768
1149 4 0.223214 0.0520361 0.752986
1049 4 0.308586 0.00579436 0.765902
1048 2 0.316349 0.0273163 0.775987
1050 4 0.324113 0.0488383 0.786072
974 4 0.336795 0.0120459 0.81584
1255 2 0.322054 0.0844044 0.790093
1257 4 0.336398 0.0644904 0.785313
1112 4 0.405335 0.994644 0.771835
1111 2 0.422302 0.0111265 0.779936
846 4 0.494136 0.0695829 0.776902
1113 4 0.439269 0.0276092 0.788036
844 2 0.474849 0.0537768 0.778735
845 4 0.455562 0.0379707 0.780568
980 4 0.440203 0.0245926 0.80813
979 2 0.459813 0.0242501 0.823638
863 4 0.0161292 0.130122 0.766952
833 4 0.998748 0.137434 0.774263
34 3 0.131559 0.162322 0.819545
31 1 0.113015 0.150601 0.811986
32 3 0.11084 0.131336 0.824366
35 3 0.115686 0.145149 0.790036
910 2 0.119614 0.0851351 0.82475
1256 4 0.307709 0.104318 0.794873
839 4 0.299105 0.14669 0.796729
838 2 0.275128 0.139649 0.795902
840 4 0.25115 0.132608 0.795075