ITEM: TIMESTEP
1160000
ITEM: NUMBER OF ATOMS
4590
ITEM: BOX BOUNDS pp pp pp
-9.9985700000000008e+00 9.9985700000000008e+00
-9.9985700000000008e+00 9.9985700000000008e+00
-9.9985700000000008e+00 9.9985700000000008e+00
ITEM: ATOMS id type xs ys zs
1668 4 0.0541902 0.0451066 0.0559516
1666 2 0.0711268 0.0634782 0.0568543
1667 4 0.0880634 0.0818498 0.0577569
1474 2 0.230138 0.00378545 0.0757613
1475 4 0.240715 0.0147805 0.0559519
490 2 0.303171 0.0360629 0.0197498
491 4 0.30873 0.0346383 0.0440859
653 4 0.298315 0.0402908 0.0603751
652 2 0.312079 0.0362291 0.0808507
987 4 0.389155 0.043554 0.00740325
297 4 0.399913 0.0660059 0.0701591
1842 4 0.375702 0.0036333 0.0614424
2162 4 0.37012 0.00725109 0.0425744
2974 2 0.489292 0.052079 0.0133863
589 2 0.0395977 0.104988 0.0164557
590 4 0.0177326 0.099794 0.00549594
591 4 0.0614629 0.110182 0.0274154
3233 4 0.00299364 0.116378 0.0032532
702 4 0.0949364 0.0981013 0.0670731
422 4 0.149842 0.111154 0.0117048
700 2 0.116211 0.106012 0.0775605
565 2 0.247444 0.143053 0.0629977
566 4 0.229034 0.156541 0.0527833
358 2 0.234993 0.166649 0.0140642
567 4 0.265853 0.129564 0.0732122
557 4 0.367355 0.130565 0.0266776
556 2 0.387569 0.139034 0.0387141
558 4 0.407782 0.147502 0.0507506
746 4 0.461936 0.123193 0.0114838
745 2 0.459881 0.0994629 0.00387799
477 4 0.0818722 0.196377 0.0716784
913 2 0.141786 0.191297 0.00724922
837 4 0.0996333 0.193734 0.0110581
915 4 0.117512 0.185313 0.0068824
359 4 0.233238 0.169834 0.0388018
914 4 0.16606 0.197281 0.00761603
666 4 0.324649 0.193673 0.00290205
572 4 0.340013 0.201482 0.0131588
571 2 0.347383 0.225272 0.0109414
771 4 0.473472 0.243089 0.0500835
769 2 0.458986 0.235812 0.0310478
323 4 0.463565 0.251925 0.0673704
770 4 0.444499 0.228534 0.012012
322 2 0.446209 0.247183 0.084733
1054 2 0.000809199 0.314717 0.00153293
1056 4 0.0258094 0.31472 0.00194506
292 2 0.134512 0.305845 0.058826
293 4 0.142215 0.313229 0.0362138
294 4 0.126809 0.298461 0.0814383
288 4 0.159395 0.319617 0.0246325
507 4 0.159396 0.299408 0.034809
505 2 0.174001 0.283106 0.0227222
506 4 0.188606 0.266803 0.0106354
482 4 0.237277 0.330456 0.0763815
357 4 0.221937 0.259764 0.00214745
573 4 0.354753 0.249061 0.00872408
1069 2 0.349522 0.286288 0.000784856
1070 4 0.355908 0.310293 0.00364216
518 4 0.483336 0.258372 0.061428
481 2 0.221643 0.340364 0.0595715
483 4 0.206009 0.350273 0.0427615
287 4 0.18817 0.358574 0.0370825
286 2 0.173783 0.339095 0.0308575
280 2 0.471282 0.378544 0.0588267
282 4 0.46339 0.385917 0.0362759
281 4 0.479174 0.371171 0.0813775
315 4 0.0670661 0.434249 0.0774738
552 4 0.058554 0.432232 0.0601712
550 2 0.0678069 0.444074 0.040188
551 4 0.0770599 0.455916 0.0202047
1786 2 0.134738 0.49989 0.055834
1788 4 0.147958 0.488661 0.0738429
625 2 0.239236 0.444001 0.058568
627 4 0.218066 0.451496 0.0475749
626 4 0.260406 0.436506 0.069561
245 4 0.322627 0.441444 0.0523532
244 2 0.313439 0.454377 0.0330278
246 4 0.304251 0.467311 0.0137023
608 4 0.276055 0.435754 0.0829618
272 4 0.322348 0.472037 0.00756932
2388 4 0.416617 0.497901 0.0112652
18 3 0.0304435 0.0660058 0.139204
17 3 0.0597377 0.0511667 0.12092
2481 4 0.0132414 0.0610558 0.149499
16 1 0.0477242 0.0704764 0.124378
20 3 0.0392467 0.0776962 0.104512
2479 2 0.00775035 0.0419691 0.164689
1805 4 0.082189 0.00341775 0.110212
1415 4 0.0811837 0.00664897 0.13069
448 2 0.155249 0.0793479 0.105422
450 4 0.156926 0.0560304 0.114291
654 4 0.325842 0.0321675 0.101326
295 2 0.415368 0.0531144 0.0849957
296 4 0.430824 0.0402229 0.0998324
19 3 0.0618361 0.0865958 0.13329
701 4 0.137486 0.113922 0.0880479
236 4 0.140207 0.113338 0.109673
449 4 0.153573 0.102665 0.0965531
235 2 0.140253 0.134187 0.123475
237 4 0.140299 0.155036 0.137277
476 4 0.0959413 0.155803 0.0973022
254 4 0.406265 0.150559 0.121867
253 2 0.382869 0.159346 0.122624
630 4 0.42018 0.163314 0.114526
339 4 0.0633345 0.217131 0.163582
337 2 0.0822497 0.22804 0.151401
475 2 0.0889067 0.17609 0.0844903
338 4 0.101165 0.238949 0.139219
363 4 0.117312 0.247519 0.14867
738 4 0.217145 0.236609 0.143385
736 2 0.236746 0.247783 0.132608
461 4 0.30512 0.210253 0.126891
354 4 0.310104 0.224639 0.113211
460 2 0.323707 0.193551 0.127746
352 2 0.291973 0.241766 0.111458
462 4 0.342294 0.176848 0.1286
255 4 0.359472 0.168133 0.123381
628 2 0.438187 0.177933 0.123865
629 4 0.456195 0.192552 0.133203
324 4 0.428853 0.242442 0.102096
454 2 0.13139 0.331474 0.111384
456 4 0.129837 0.31091 0.0972456
756 4 0.238817 0.318217 0.0938121
754 2 0.249644 0.29709 0.101661
737 4 0.256347 0.258956 0.121831
755 4 0.260471 0.275963 0.10951
353 4 0.273841 0.258894 0.109705
741 4 0.362943 0.299005 0.116583
622 2 0.400426 0.273199 0.115149
624 4 0.380312 0.28764 0.118624
739 2 0.359561 0.323673 0.11887
527 4 0.487931 0.250577 0.131015
623 4 0.420539 0.258757 0.111673
526 2 0.481869 0.273092 0.121986
528 4 0.475807 0.295606 0.112957
672 4 0.484272 0.314574 0.114763
619 2 0.0120167 0.368283 0.127797
620 4 0.014665 0.389157 0.141305
648 4 0.0112465 0.393478 0.160322
621 4 0.00936829 0.34741 0.114289
646 2 0.0307006 0.408275 0.165591
455 4 0.132943 0.352037 0.125523
537 4 0.129721 0.339103 0.140064
535 2 0.124999 0.33638 0.164467
252 4 0.248096 0.33738 0.0938635
607 2 0.281009 0.4128 0.0915479
251 4 0.276596 0.374401 0.111691
250 2 0.262346 0.35589 0.102777
609 4 0.285963 0.389845 0.100134
387 4 0.295594 0.370521 0.102605
385 2 0.318716 0.361315 0.105018
302 4 0.323546 0.413249 0.163699
386 4 0.341837 0.352108 0.10743
740 4 0.35618 0.348341 0.121156
495 4 0.393763 0.386621 0.132944
493 2 0.3901 0.405066 0.116466
14 3 0.410112 0.378078 0.125449
13 3 0.404006 0.348803 0.148903
670 2 0.477469 0.335826 0.103483
671 4 0.470665 0.357078 0.0922032
15 3 0.437384 0.352954 0.131983
11 1 0.419739 0.364017 0.141198
595 2 0.461446 0.401465 0.148401
597 4 0.438799 0.395624 0.157243
12 3 0.42715 0.37667 0.158922
596 4 0.484093 0.407307 0.139559
314 4 0.0432625 0.445051 0.120105
313 2 0.0551643 0.43965 0.0987894
1438 2 0.234924 0.493439 0.0942448
637 2 0.245782 0.47191 0.154131
1439 4 0.23808 0.476764 0.112607
639 4 0.243878 0.480871 0.130866
660 4 0.338587 0.42622 0.166227
658 2 0.338939 0.450337 0.159638
494 4 0.386437 0.423511 0.0999871
659 4 0.339291 0.474454 0.153049
525 4 0.355273 0.484503 0.160122
523 2 0.362198 0.500474 0.142174
2480 4 0.00225926 0.0228825 0.179878
1422 4 0.0102002 0.00715749 0.189859
673 2 0.114064 0.0689381 0.224449
675 4 0.125054 0.0487069 0.214697
1403 4 0.127212 0.029294 0.224041
1402 2 0.120543 0.0117961 0.24061
689 4 0.144588 0.0404639 0.217271
688 2 0.163467 0.0491857 0.231152
690 4 0.182347 0.0579076 0.245033
693 4 0.193514 0.0755022 0.24215
23 3 0.331601 0.0359064 0.211931
21 1 0.351516 0.0335836 0.223611
25 3 0.369001 0.0400106 0.210511
759 4 0.389009 0.046273 0.202332
1784 4 0.37503 0.0336652 0.1898
1783 2 0.388795 0.0130095 0.186793
22 3 0.354162 0.0114997 0.22948
24 3 0.35093 0.0464555 0.242907
757 2 0.403125 0.0626973 0.214828
758 4 0.417242 0.0791216 0.227324
744 4 0.423066 0.0825679 0.247771
511 2 0.013759 0.124548 0.239878
674 4 0.103075 0.0891692 0.234201
722 4 0.130625 0.146738 0.235273
721 2 0.147989 0.135869 0.220935
723 4 0.165352 0.125 0.206598
691 2 0.186001 0.0965616 0.230959
692 4 0.178488 0.117621 0.219768
582 4 0.259561 0.138045 0.212117
580 2 0.25656 0.121469 0.19364
581 4 0.253559 0.104892 0.175164
285 4 0.257298 0.157195 0.219319
30 3 0.321182 0.126703 0.23109
29 3 0.332453 0.160638 0.242883
27 3 0.319785 0.15585 0.207822
26 1 0.331608 0.145984 0.224911
28 3 0.353087 0.141335 0.217464
312 4 0.435993 0.0895728 0.231207
311 4 0.479024 0.0887682 0.205743
310 2 0.457508 0.0891705 0.218475
394 2 0.0181989 0.247108 0.22087
395 4 0.00799232 0.23697 0.200419
344 4 0.241616 0.21907 0.249256
284 4 0.246692 0.201021 0.240942
283 2 0.251995 0.179108 0.23013
343 2 0.248372 0.242388 0.243273
764 4 0.389869 0.232766 0.24737
396 4 0.0284054 0.257245 0.24132
361 2 0.130556 0.254373 0.16874
372 4 0.142006 0.27932 0.197275
362 4 0.1438 0.261227 0.18881
370 2 0.165963 0.281104 0.204208
536 4 0.120277 0.333656 0.188869
371 4 0.18992 0.282887 0.21114
279 4 0.203394 0.29515 0.201155
277 2 0.220458 0.281435 0.213234
612 4 0.214338 0.310704 0.194032
278 4 0.237522 0.267721 0.225314
610 2 0.230186 0.32525 0.181286
345 4 0.255129 0.265706 0.237291
307 2 0.270276 0.298993 0.231894
309 4 0.251776 0.28346 0.225439
308 4 0.288775 0.314526 0.238349
763 2 0.380532 0.255928 0.248605
765 4 0.371195 0.27909 0.24984
300 4 0.117707 0.368998 0.212802
298 2 0.133094 0.353812 0.225362
299 4 0.148482 0.338625 0.237923
417 4 0.187881 0.378394 0.169907
415 2 0.195708 0.394184 0.187644
611 4 0.246033 0.339796 0.16854
416 4 0.203535 0.409973 0.205381
303 4 0.309676 0.403113 0.210663
729 4 0.319793 0.395828 0.226964
301 2 0.316611 0.408181 0.187181
727 2 0.330795 0.403683 0.247998
645 4 0.436795 0.385484 0.176888
643 2 0.443543 0.377686 0.199666
644 4 0.450291 0.369887 0.222443
447 4 0.458714 0.368143 0.240285
263 4 0.0655868 0.432064 0.181249
647 4 0.0501547 0.423073 0.17086
262 2 0.0641895 0.45504 0.191012
1757 4 0.0631465 0.478645 0.220466
264 4 0.0627921 0.478017 0.200774
291 4 0.213766 0.421296 0.21778
290 4 0.241673 0.457372 0.197275
289 2 0.227719 0.439334 0.207527
638 4 0.247686 0.462948 0.177396
767 4 0.262336 0.460767 0.193128
768 4 0.309479 0.477445 0.192792
766 2 0.285907 0.469106 0.19296
1574 4 0.328901 0.482434 0.192551
1573 2 0.338327 0.483197 0.215697
1575 4 0.347753 0.483959 0.238843
1700 4 0.175378 0.00190167 0.274759
1699 2 0.193997 0.0160471 0.283614
248 4 0.214778 0.0451766 0.307595
247 2 0.212966 0.0695512 0.302324
1701 4 0.212616 0.0301924 0.29247
605 4 0.219721 0.024547 0.311933
604 2 0.235006 0.0284175 0.331338
633 4 0.314882 0.0756001 0.279999
697 2 0.376855 0.0200906 0.318828
349 2 0.406826 0.0692835 0.322614
698 4 0.378966 0.0431008 0.32838
480 4 0.492764 0.00784559 0.293488
350 4 0.427225 0.0762674 0.309954
742 2 0.432098 0.0813997 0.271057
743 4 0.44113 0.0802316 0.294343
579 4 0.0470818 0.134278 0.270398
513 4 0.0311221 0.129468 0.257184
577 2 0.0688345 0.12262 0.266388
530 4 0.0295388 0.122499 0.277583
529 2 0.0160234 0.109626 0.29422
531 4 0.00250805 0.0967527 0.310857
398 4 0.0483942 0.116783 0.334581
546 4 0.122505 0.148465 0.253125
578 4 0.0905872 0.110961 0.262377
544 2 0.131711 0.147546 0.276354
545 4 0.140916 0.146628 0.299583
405 4 0.154633 0.13153 0.295965
249 4 0.211155 0.0939258 0.297054
403 2 0.177385 0.121208 0.296959
404 4 0.200137 0.110886 0.297954
631 2 0.313862 0.094669 0.29614
632 4 0.312842 0.113738 0.31228
708 4 0.331154 0.155168 0.262734
706 2 0.337652 0.164599 0.28496
333 4 0.432794 0.0965944 0.305306
331 2 0.436618 0.119456 0.314681
332 4 0.440442 0.142318 0.324056
762 4 0.449537 0.154627 0.309981
707 4 0.34415 0.17403 0.307186
614 4 0.370827 0.224285 0.32983
760 2 0.45784 0.177703 0.305109
418 2 0.454872 0.229296 0.283971
419 4 0.447917 0.207292 0.293595
761 4 0.466143 0.200779 0.300236
750 4 0.0417447 0.259453 0.256323
748 2 0.0525793 0.268199 0.277091
442 2 0.017587 0.280283 0.324563
443 4 0.00194217 0.295746 0.312675
749 4 0.063414 0.276945 0.297859
734 4 0.15874 0.333909 0.255477
497 4 0.299218 0.322952 0.252373
510 4 0.255424 0.32534 0.31097
496 2 0.314183 0.316132 0.271207
498 4 0.329147 0.309312 0.290042
420 4 0.461828 0.2513 0.274347
521 4 0.482834 0.257744 0.27727
543 4 0.467006 0.268512 0.286457
541 2 0.456151 0.287163 0.273829
542 4 0.445297 0.305814 0.2612
676 2 0.160743 0.386097 0.319042
677 4 0.161027 0.383289 0.294198
603 4 0.117222 0.412181 0.319888
733 2 0.166065 0.3512 0.271986
735 4 0.17339 0.368491 0.288495
509 4 0.275894 0.344375 0.269505
508 2 0.265659 0.334857 0.290237
436 2 0.270896 0.409578 0.290347
438 4 0.270155 0.384707 0.287892
728 4 0.341796 0.411538 0.269033
753 4 0.421167 0.367072 0.297923
445 2 0.460626 0.380868 0.261723
446 4 0.462538 0.393593 0.283161
713 4 0.47956 0.394958 0.294683
712 2 0.498157 0.411664 0.295189
751 2 0.419217 0.365573 0.322805
412 2 0.133007 0.49858 0.293166
776 4 0.115322 0.497957 0.332531
602 4 0.110488 0.451228 0.289381
601 2 0.113855 0.431705 0.304634
414 4 0.147799 0.492707 0.273882
437 4 0.271637 0.43445 0.292801
1437 4 0.26106 0.476641 0.326091
1435 2 0.258415 0.460956 0.306799
1436 4 0.25577 0.445271 0.287508
433 2 0.329637 0.419028 0.312619
1802 4 0.354424 0.470987 0.252636
434 4 0.337775 0.417903 0.289003
1801 2 0.353629 0.449325 0.265098
1803 4 0.352834 0.427663 0.27756
231 4 0.433504 0.494194 0.279687
318 4 0.056049 0.0419133 0.337138
234 4 0.0363462 0.0463387 0.339877
232 2 0.0148144 0.0341407 0.343449
316 2 0.0713187 0.0345119 0.355502
428 4 0.0782448 0.0110174 0.381753
317 4 0.0865884 0.0271105 0.373866
441 4 0.249332 0.0267216 0.369966
440 4 0.275925 0.00634127 0.40709
606 4 0.250291 0.0322881 0.350744
439 2 0.262629 0.0165314 0.388528
683 4 0.32913 0.0678323 0.39918
682 2 0.310626 0.0774544 0.412971
351 4 0.386426 0.0622995 0.335273
257 4 0.386687 0.0448051 0.348288
256 2 0.385658 0.0371444 0.372066
258 4 0.384628 0.0294836 0.395845
425 4 0.370171 0.0353984 0.409772
452 4 0.456027 0.0700865 0.410282
397 2 0.060929 0.103187 0.35141
399 4 0.0734638 0.0895917 0.368239
392 4 0.0544139 0.144183 0.341969
2653 2 0.015235 0.156988 0.354049
391 2 0.0764107 0.156052 0.342648
2654 4 0.0365709 0.144281 0.351135
732 4 0.0929217 0.0966829 0.365925
731 4 0.122749 0.132529 0.383984
730 2 0.107835 0.114606 0.374954
686 4 0.14079 0.142124 0.374293
599 4 0.120595 0.149469 0.370244
685 2 0.157756 0.133947 0.390739
393 4 0.0984075 0.16792 0.343326
687 4 0.174721 0.125769 0.407186
451 2 0.436442 0.0853511 0.413213
598 2 0.130784 0.169665 0.35959
600 4 0.140973 0.18986 0.348937
260 4 0.111101 0.216387 0.392401
275 4 0.183664 0.242247 0.374012
474 4 0.214251 0.188354 0.350979
276 4 0.211591 0.201619 0.365635
472 2 0.239041 0.185096 0.351039
274 2 0.197628 0.221933 0.369823
473 4 0.263831 0.181837 0.351099
613 2 0.382204 0.240318 0.34528
269 4 0.472574 0.23789 0.403509
444 4 0.0332317 0.264819 0.33645
616 2 0.087587 0.292402 0.370035
618 4 0.087667 0.296821 0.394645
617 4 0.0875071 0.287982 0.345426
389 4 0.153836 0.296251 0.337241
401 4 0.160715 0.279889 0.346693
388 2 0.129937 0.288925 0.337827
390 4 0.106038 0.281599 0.338414
347 4 0.0951751 0.287642 0.411033
400 2 0.176074 0.282911 0.36619
375 4 0.204641 0.290118 0.400193
402 4 0.191434 0.285934 0.385687
378 4 0.277002 0.288075 0.344949
489 4 0.30217 0.262566 0.399576
376 2 0.287994 0.283163 0.366863
377 4 0.298986 0.278251 0.388777
487 2 0.325613 0.267644 0.406636
615 4 0.393582 0.25635 0.360729
716 4 0.396158 0.273224 0.371541
488 4 0.349055 0.272722 0.413696
715 2 0.382915 0.276198 0.39254
717 4 0.369672 0.279173 0.413539
270 4 0.481922 0.285776 0.392546
268 2 0.477248 0.261833 0.398027
2924 4 0.476238 0.294455 0.408905
406 2 0.0480473 0.385184 0.34181
408 4 0.0506805 0.36085 0.336701
407 4 0.0454142 0.409518 0.34692
678 4 0.160458 0.388904 0.343886
773 4 0.21938 0.413644 0.417207
559 2 0.414152 0.399848 0.374005
752 4 0.417267 0.364074 0.347687
561 4 0.412899 0.381867 0.356675
548 4 0.0373093 0.426129 0.356959
547 2 0.0547023 0.443508 0.352416
777 4 0.071314 0.474328 0.334906
549 4 0.0720953 0.460887 0.347873
775 2 0.0933182 0.486142 0.333718
435 4 0.321499 0.420153 0.336234
3 3 0.323687 0.470269 0.37615
668 4 0.402956 0.42585 0.406543
560 4 0.415405 0.417828 0.391334
4 3 0.350884 0.449341 0.359818
2 3 0.347712 0.485937 0.351861
5 3 0.359792 0.475347 0.385548
1 1 0.345594 0.470198 0.368502
588 4 0.423807 0.429826 0.407233
1781 4 0.150268 0.0170794 0.420388
368 4 0.118532 0.0584204 0.443497
367 2 0.11918 0.0826941 0.449459
2430 4 0.152526 0.0567748 0.498896
341 4 0.148963 0.077716 0.494379
1180 2 0.281263 0.0692914 0.461251
1181 4 0.28338 0.0510487 0.478219
963 4 0.285189 0.0384679 0.4956
432 4 0.297256 0.055909 0.493697
430 2 0.320857 0.0482484 0.496774
424 2 0.380674 0.017463 0.423671
841 2 0.386236 0.041255 0.494464
843 4 0.361744 0.0430105 0.489749
1217 4 0.41186 0.0195155 0.497897
842 4 0.410728 0.0394995 0.499179
458 4 0.000102608 0.155226 0.463173
457 2 0.0241524 0.154114 0.456424
719 4 0.0514274 0.134576 0.456506
459 4 0.0482022 0.153002 0.449675
718 2 0.0576634 0.112789 0.467072
720 4 0.0638994 0.0910027 0.477637
369 4 0.119828 0.106968 0.455421
939 4 0.125111 0.124145 0.449495
937 2 0.127439 0.144728 0.463499
340 2 0.169061 0.0875 0.483176
342 4 0.189159 0.0972841 0.471972
1151 4 0.172742 0.133768 0.425338
1150 2 0.186433 0.120506 0.44152
1152 4 0.200123 0.107243 0.457702
684 4 0.292122 0.0870765 0.426762
1182 4 0.279145 0.0875341 0.444284
321 4 0.304613 0.139283 0.456939
320 4 0.280378 0.10432 0.430654
319 2 0.292496 0.121801 0.443796
899 4 0.310488 0.155337 0.466618
898 2 0.319563 0.148278 0.488822
467 4 0.352946 0.16196 0.425066
516 4 0.404984 0.152161 0.461015
514 2 0.408197 0.132786 0.44554
453 4 0.416856 0.100616 0.416143
515 4 0.41141 0.113412 0.430065
259 2 0.102342 0.220491 0.415458
938 4 0.129766 0.165312 0.477502
1034 4 0.133542 0.184246 0.480002
261 4 0.093583 0.224595 0.438515
1035 4 0.106095 0.2172 0.454284
1033 2 0.119818 0.200723 0.467143
695 4 0.0894272 0.229557 0.458772
694 2 0.0884962 0.244619 0.478708
857 4 0.163019 0.225738 0.493278
468 4 0.321522 0.199914 0.416535
410 4 0.312844 0.203237 0.433592
411 4 0.263221 0.201042 0.427812
409 2 0.288033 0.20214 0.430702
466 2 0.337234 0.180937 0.4208
575 4 0.398638 0.169736 0.451875
266 4 0.379224 0.243856 0.469672
813 4 0.369711 0.251445 0.486479
574 2 0.414964 0.18661 0.460472
2657 4 0.496192 0.180745 0.488869
306 4 0.476221 0.231257 0.422588
304 2 0.461066 0.220446 0.43928
305 4 0.445911 0.209635 0.455972
576 4 0.431291 0.203484 0.469068
2847 4 0.00667868 0.289985 0.470453
346 2 0.102834 0.300873 0.430819
348 4 0.110493 0.314104 0.450604
10 3 0.122518 0.312742 0.466306
6 1 0.122584 0.32453 0.485792
7 3 0.100886 0.328596 0.49226
373 2 0.196921 0.296947 0.422974
374 4 0.189201 0.303776 0.445754
265 2 0.371342 0.253561 0.448019
267 4 0.36346 0.263266 0.426366
2923 2 0.458134 0.309503 0.417329
872 4 0.466626 0.251145 0.484323
2456 4 0.491631 0.307933 0.478002
584 4 0.490169 0.297222 0.460187
585 4 0.466293 0.253486 0.464405
583 2 0.478231 0.275354 0.462296
2925 4 0.440031 0.324552 0.425754
2812 2 0.0194718 0.352968 0.44246
2813 4 0.0438953 0.356361 0.446602
8 3 0.133427 0.344815 0.482738
504 4 0.231947 0.389081 0.491643
502 2 0.250215 0.390759 0.474654
710 4 0.221057 0.407915 0.495051
709 2 0.197312 0.415707 0.495858
651 4 0.312524 0.360309 0.428224
503 4 0.268484 0.392437 0.457665
650 4 0.286791 0.398547 0.447624
649 2 0.299657 0.379428 0.437924
334 2 0.370519 0.382632 0.454301
238 2 0.410676 0.35073 0.438138
240 4 0.387778 0.358246 0.4448
335 4 0.379548 0.361119 0.463293
336 4 0.361491 0.404145 0.445309
239 4 0.433574 0.343214 0.431476
680 4 0.0190198 0.43596 0.419401
383 4 0.0776603 0.432672 0.453872
681 4 0.060606 0.424699 0.444787
679 2 0.0398129 0.430329 0.432094
384 4 0.11779 0.462219 0.449716
569 4 0.134225 0.472156 0.45652
382 2 0.0977251 0.447446 0.451794
568 2 0.137416 0.494989 0.446843
1395 4 0.213049 0.49953 0.490397
635 4 0.186401 0.453158 0.465297
634 2 0.190544 0.473822 0.478751
774 4 0.19248 0.44149 0.448857
772 2 0.20593 0.427567 0.433032
636 4 0.194688 0.494485 0.492206
711 4 0.173567 0.423499 0.496665
669 4 0.364327 0.422203 0.43809
667 2 0.383642 0.424026 0.422317
2507 4 0.477021 0.425704 0.454255
2506 2 0.493111 0.423122 0.473219
586 2 0.441997 0.429377 0.424383
663 4 0.461881 0.440668 0.459331
661 2 0.445657 0.453882 0.473018
587 4 0.460187 0.428927 0.441532
662 4 0.429432 0.467097 0.486705
2428 2 0.138627 0.0566202 0.51968
2429 4 0.124729 0.0564657 0.540465
961 2 0.271419 0.0322398 0.515519
962 4 0.257649 0.0260117 0.535438
431 4 0.344459 0.0405878 0.49985
1062 4 0.477841 0.033034 0.545795
1060 2 0.478626 0.0210196 0.567709
810 4 0.465376 0.0729408 0.539202
1032 4 0.264702 0.100778 0.572681
900 4 0.328639 0.141219 0.511025
808 2 0.471335 0.0833479 0.561142
640 2 0.493722 0.119878 0.518396
641 4 0.479369 0.139511 0.524203
809 4 0.477295 0.093755 0.583082
469 2 0.0429078 0.210578 0.538493
470 4 0.0576094 0.203756 0.557532
1199 4 0.0102596 0.222669 0.559813
471 4 0.0282062 0.2174 0.519453
877 2 0.11499 0.223263 0.54822
879 4 0.131016 0.215707 0.565863
878 4 0.0989644 0.230818 0.530578
856 2 0.181777 0.239321 0.502701
873 4 0.435328 0.245682 0.522941
871 2 0.450977 0.248413 0.503632
953 4 0.44624 0.246091 0.53981
982 2 0.046181 0.31324 0.554885
983 4 0.0224307 0.319036 0.549641
984 4 0.0699312 0.307443 0.56013
326 4 0.0758934 0.28884 0.551443
1136 4 0.0791607 0.292078 0.572441
325 2 0.0870446 0.281235 0.530396
327 4 0.0981958 0.27363 0.509348
1258 2 0.161158 0.305479 0.534346
1259 4 0.150065 0.314532 0.513848
696 4 0.0875652 0.259681 0.498644
9 3 0.133197 0.312297 0.502409
1260 4 0.172252 0.296427 0.554844
858 4 0.200536 0.252904 0.512124
802 2 0.237737 0.323303 0.55743
803 4 0.214499 0.327628 0.549278
804 4 0.260975 0.318978 0.565582
792 4 0.325993 0.270536 0.579852
1239 4 0.266794 0.306299 0.579569
1238 4 0.308686 0.279092 0.577225
1237 2 0.28774 0.292695 0.578397
811 2 0.362641 0.252548 0.510437
812 4 0.355571 0.253651 0.534395
790 2 0.341281 0.271742 0.560104
791 4 0.356569 0.272949 0.540356
952 2 0.447217 0.253982 0.563516
935 4 0.0372603 0.404874 0.570378
934 2 0.028785 0.392756 0.550217
936 4 0.0203097 0.380637 0.530056
3353 4 0.00653682 0.366971 0.534557
1191 4 0.193605 0.380422 0.581386
1190 4 0.198388 0.341678 0.550134
1189 2 0.195996 0.36105 0.56576
896 4 0.173904 0.38392 0.576568
882 4 0.38813 0.388679 0.570829
880 2 0.371838 0.400837 0.55627
881 4 0.355547 0.412994 0.541711
1454 4 0.336624 0.415331 0.537893
925 2 0.452674 0.380743 0.547972
926 4 0.44703 0.356385 0.547833
927 4 0.458319 0.4051 0.548111
1001 4 0.449755 0.407971 0.566321
539 4 0.0497708 0.446661 0.525101
538 2 0.0388029 0.467594 0.533268
540 4 0.0278349 0.488526 0.541435
3431 4 0.00177922 0.48356 0.573613
1159 2 0.139128 0.461527 0.544223
1160 4 0.136857 0.447841 0.565025
1161 4 0.141399 0.475213 0.523421
1453 2 0.33041 0.431526 0.519886
1455 4 0.324195 0.447721 0.501879
1910 4 0.43823 0.477761 0.500325
1909 2 0.456824 0.488663 0.512998
3182 4 0.500425 0.451428 0.573691
1059 4 0.165117 0.0793199 0.610641
1282 2 0.200317 0.0626571 0.597979
1283 4 0.224567 0.0577427 0.594373
1284 4 0.176068 0.0675714 0.601586
824 4 0.211663 0.00969647 0.64105
1031 4 0.244746 0.0628464 0.598443
1030 2 0.254724 0.0818123 0.585562
949 2 0.27852 0.00341 0.591151
951 4 0.265995 0.0250161 0.589936
2281 2 0.384258 0.0424552 0.650133
2282 4 0.372608 0.0348475 0.629358
1092 4 0.379958 0.0249313 0.613951
1090 2 0.374828 0.00799584 0.596286
1061 4 0.479411 0.00900529 0.589623
89 3 0.478231 0.00360958 0.609011
943 2 0.0753187 0.0831881 0.661605
1083 4 0.00975804 0.118042 0.640063
1081 2 0.0227366 0.105684 0.657499
945 4 0.0976996 0.0858941 0.650791
1058 4 0.158011 0.124828 0.630115
1057 2 0.161564 0.102074 0.620378
909 4 0.165138 0.121117 0.650056
1155 4 0.169544 0.139977 0.641025
1153 2 0.166826 0.161029 0.627812
888 4 0.27654 0.158468 0.660008
886 2 0.300558 0.154256 0.665538
1211 4 0.275423 0.166452 0.642071
1194 4 0.344576 0.151582 0.664119
1192 2 0.366251 0.158847 0.653991
1193 4 0.387927 0.166112 0.643863
3008 4 0.486487 0.100661 0.600215
1272 4 0.138897 0.221602 0.583124
1270 2 0.155036 0.21194 0.599597
1154 4 0.164107 0.182082 0.614599
948 4 0.173221 0.220749 0.664463
1271 4 0.171176 0.202279 0.61607
1221 4 0.184607 0.186479 0.610492
1219 2 0.207735 0.195897 0.60924
1220 4 0.230864 0.205315 0.607989
1212 4 0.250068 0.200563 0.615722
798 4 0.243108 0.220506 0.617451
796 2 0.255209 0.238599 0.629756
1210 2 0.262746 0.183508 0.628897
904 2 0.444198 0.241011 0.617823
906 4 0.454679 0.227347 0.635951
1024 2 0.446072 0.192268 0.648507
1025 4 0.44776 0.209319 0.630297
1145 4 0.499265 0.207233 0.663433
1243 2 0.0528291 0.264653 0.644852
1244 4 0.0343908 0.265224 0.627974
1245 4 0.0712675 0.264081 0.66173
1135 2 0.0944213 0.289126 0.592026
1137 4 0.109682 0.286175 0.611611
797 4 0.26731 0.256691 0.64206
954 4 0.448194 0.261872 0.587222
905 4 0.433718 0.254676 0.599695
3123 4 0.482213 0.287948 0.665419
3264 4 0.0248871 0.392776 0.582997
1041 4 0.0430627 0.40076 0.590566
3262 2 0.0107543 0.383042 0.601182
895 2 0.159268 0.391682 0.595296
992 4 0.133919 0.416356 0.617618
897 4 0.144632 0.399444 0.614023
930 4 0.392551 0.374941 0.584839
928 2 0.409505 0.356623 0.583344
929 4 0.426458 0.338306 0.581849
1206 4 0.431667 0.413854 0.629917
1000 2 0.441865 0.414259 0.589198
1039 2 0.0567838 0.42024 0.598144
1040 4 0.0705049 0.439721 0.605723
993 4 0.0864756 0.43155 0.613259
991 2 0.110197 0.423953 0.615439
1173 4 0.271494 0.485174 0.59134
1172 4 0.287211 0.447986 0.620848
1171 2 0.279352 0.46658 0.606094
891 4 0.307184 0.452803 0.621156
889 2 0.325704 0.461125 0.635748
890 4 0.344223 0.469446 0.650341
1204 2 0.440499 0.423466 0.651242
1002 4 0.433974 0.420547 0.612076
3183 4 0.458216 0.463616 0.597577
3181 2 0.47932 0.457522 0.585634
1268 4 0.474351 0.489545 0.658265
1892 4 0.023174 0.00622575 0.680936
1183 2 0.0340844 0.0495531 0.686523
1184 4 0.0310676 0.0247676 0.687848
4338 4 0.0273815 0.00930462 0.702107
4336 2 0.00665284 0.00753021 0.715976
1185 4 0.0371012 0.0743387 0.685198
944 4 0.0529377 0.0804821 0.672419
2254 2 0.172406 0.00202408 0.713261
2256 4 0.168972 0.0195108 0.730799
2398 2 0.30876 0.00636736 0.741306
2400 4 0.294485 0.00272478 0.721103
2283 4 0.395907 0.0500629 0.670908
42 3 0.424719 0.0674676 0.726359
1082 4 0.0357151 0.0933251 0.674934
1076 4 0.0498608 0.0909358 0.690971
864 4 0.0268871 0.117027 0.730379
1075 2 0.0458832 0.0991238 0.714258
1077 4 0.0419056 0.107312 0.737546
1106 4 0.0828199 0.164628 0.749424
1179 4 0.0034919 0.157392 0.697181
862 2 0.0110904 0.118928 0.749667
907 2 0.17714 0.120576 0.671984
1226 4 0.240576 0.114859 0.738971
908 4 0.189142 0.120036 0.693912
1225 2 0.222066 0.114462 0.722166
1227 4 0.203556 0.114065 0.705361
1129 2 0.233719 0.164782 0.743279
1130 4 0.248103 0.16019 0.723349
887 4 0.324575 0.150045 0.671068
1005 4 0.289438 0.0873782 0.70488
1003 2 0.294768 0.0965044 0.72754
1004 4 0.300099 0.105631 0.7502
45 3 0.40682 0.100209 0.725633
831 4 0.354951 0.0944446 0.697853
830 4 0.337616 0.131952 0.669685
829 2 0.346284 0.113198 0.683769
1084 2 0.36477 0.157663 0.743943
1085 4 0.384615 0.142935 0.747747
41 1 0.427018 0.0902123 0.728917
44 3 0.442336 0.098004 0.713328
1142 4 0.434983 0.115656 0.704768
1141 2 0.438279 0.135743 0.690248
1143 4 0.441575 0.15583 0.675728
1177 2 0.00111728 0.181775 0.692181
850 2 0.0609873 0.22972 0.688355
851 4 0.0598579 0.207535 0.699833
1107 4 0.0629133 0.19795 0.717896
1105 2 0.0728666 0.181289 0.73366
1178 4 0.998743 0.206158 0.687181
946 2 0.160043 0.241438 0.669304
978 4 0.249969 0.24009 0.706631
976 2 0.270338 0.23391 0.719749
977 4 0.290707 0.22773 0.732867
1299 4 0.326442 0.178197 0.73922
1298 4 0.312049 0.225634 0.732641
1297 2 0.319246 0.201916 0.73593
918 4 0.30334 0.24139 0.744196
1086 4 0.344925 0.17239 0.740139
1026 4 0.444385 0.175218 0.666717
1262 4 0.422742 0.20127 0.725299
1146 4 0.491181 0.175655 0.701356
1263 4 0.434547 0.17342 0.685477
1261 2 0.428644 0.187345 0.705388
1144 2 0.495223 0.191444 0.682394
852 4 0.0621167 0.251905 0.676878
1209 4 0.0827313 0.248897 0.67254
1208 4 0.127575 0.270982 0.671119
1207 2 0.105153 0.25994 0.671829
821 4 0.139092 0.305638 0.726996
820 2 0.140958 0.293145 0.705417
822 4 0.142824 0.280653 0.683839
947 4 0.146864 0.262128 0.674146
1242 4 0.136865 0.318995 0.742492
1065 4 0.264772 0.319383 0.710456
3121 2 0.491163 0.268251 0.677953
892 2 0.0463244 0.407833 0.739577
893 4 0.0640858 0.393759 0.750143
1279 2 0.00573147 0.415923 0.691206
942 4 0.0847861 0.388261 0.748058
940 2 0.108279 0.392864 0.740841
941 4 0.131772 0.397466 0.733624
1067 4 0.136748 0.381879 0.723784
1066 2 0.150789 0.379083 0.703286
1068 4 0.164831 0.376287 0.682787
1139 4 0.238659 0.398477 0.691369
1028 4 0.181477 0.38766 0.687798
1027 2 0.203066 0.400136 0.68966
1236 4 0.212293 0.366209 0.726153
1029 4 0.224655 0.412612 0.691521
1234 2 0.203593 0.382363 0.743139
1063 2 0.264841 0.343764 0.715999
1064 4 0.264911 0.368145 0.721542
806 4 0.279996 0.381543 0.723182
805 2 0.292836 0.384127 0.744481
1138 2 0.261619 0.398147 0.681474
1140 4 0.284579 0.397818 0.671579
894 4 0.028563 0.421908 0.729012
3276 4 0.00650013 0.42059 0.727928
1983 4 0.0166249 0.439851 0.72677
1981 2 0.0212273 0.464405 0.725707
1280 4 0.018036 0.426194 0.710397
1982 4 0.0258297 0.488958 0.724644
1174 2 0.221232 0.498336 0.690437
1175 4 0.237511 0.492631 0.672337
1988 4 0.313066 0.499557 0.727206
1987 2 0.326803 0.491571 0.707901
1088 4 0.294146 0.49832 0.717794
1989 4 0.34054 0.483584 0.688596
2169 4 0.489564 0.490213 0.671177
1250 4 0.492617 0.465512 0.710105
1249 2 0.49081 0.456024 0.733167
1205 4 0.449331 0.433079 0.672568
1100 4 0.438705 0.44203 0.688667
1099 2 0.439229 0.44586 0.71337
1267 2 0.466141 0.469486 0.670731
1269 4 0.457931 0.449427 0.683197
1101 4 0.439753 0.449691 0.738073
2049 4 0.113303 0.00667352 0.747825
1203 4 0.0917036 0.0275487 0.803162
1201 2 0.0940925 0.0205698 0.779271
1202 4 0.0964815 0.0135909 0.755381
911 4 0.0980088 0.0478545 0.800248
1196 4 0.09223 0.0407737 0.819788
910 2 0.110186 0.0688791 0.806151
2399 4 0.323035 0.0100099 0.761508
1048 2 0.314015 0.045002 0.788029
1050 4 0.309554 0.062063 0.805755
1257 4 0.317044 0.0744381 0.819058
1049 4 0.318476 0.0279411 0.770304
1112 4 0.405669 0.0089264 0.807122
846 4 0.46693 0.0484019 0.755311
1111 2 0.430303 0.0131998 0.806813
1113 4 0.454936 0.0174731 0.806504
844 2 0.469044 0.0398935 0.778727
845 4 0.471157 0.0313852 0.802144
980 4 0.474508 0.0102004 0.801598
979 2 0.487758 0.00688514 0.822542
1214 4 0.0401826 0.159862 0.765353
33 3 0.113692 0.128128 0.778767
31 1 0.114251 0.128261 0.801963
35 3 0.122434 0.148162 0.809425
32 3 0.12796 0.111252 0.809169
912 4 0.122364 0.0899036 0.812055
1287 4 0.120132 0.105006 0.830011
34 3 0.0929231 0.124799 0.810421
1148 4 0.230778 0.104704 0.752818
1147 2 0.252409 0.0977717 0.763268
1149 4 0.274041 0.0908398 0.773718
958 2 0.309002 0.157039 0.79964
960 4 0.331717 0.15326 0.789897
959 4 0.286287 0.160818 0.809384