ITEM: TIMESTEP
3410000
ITEM: NUMBER OF ATOMS
4590
ITEM: BOX BOUNDS pp pp pp
-9.9985700000000008e+00 9.9985700000000008e+00
-9.9985700000000008e+00 9.9985700000000008e+00
-9.9985700000000008e+00 9.9985700000000008e+00
ITEM: ATOMS id type xs ys zs
1666 2 0.0622695 0.0390166 0.0770865
1667 4 0.0563557 0.0610641 0.0668829
591 4 0.0413071 0.075151 0.0611827
702 4 0.0570295 0.0807398 0.0753463
533 4 0.159589 0.0177896 0.0553707
1476 4 0.159539 0.00688427 0.0737122
532 2 0.164891 0.0328008 0.0360904
534 4 0.170193 0.047812 0.0168101
423 4 0.185873 0.0601325 0.0120163
421 2 0.195253 0.0789814 0.0255036
490 2 0.272723 0.0775829 0.0628246
492 4 0.276034 0.0561371 0.075246
296 4 0.435135 0.0779541 0.066523
589 2 0.0295722 0.0909064 0.0457154
590 4 0.0178373 0.106662 0.0302481
3232 2 0.0361007 0.138219 0.00653226
3233 4 0.0197894 0.120697 0.0137503
1248 4 0.000307133 0.117938 0.0237438
422 4 0.204633 0.0978303 0.038991
652 2 0.23872 0.116392 0.0395338
654 4 0.213745 0.115855 0.0384645
491 4 0.269412 0.0990288 0.0504031
653 4 0.263695 0.11693 0.0406031
565 2 0.300892 0.117923 0.0251933
566 4 0.317286 0.12341 0.00712916
567 4 0.284498 0.112436 0.0432574
866 4 0.323867 0.14292 0.00206623
665 4 0.334925 0.13171 0.0167258
556 2 0.397907 0.150446 0.0531601
664 2 0.348395 0.14589 0.032303
557 4 0.414171 0.134989 0.0641941
558 4 0.381643 0.165902 0.0421261
666 4 0.361866 0.16007 0.0478803
297 4 0.4331 0.127919 0.0668916
295 2 0.434118 0.102936 0.0667073
237 4 0.109267 0.168552 0.0787958
255 4 0.329951 0.242148 0.0833205
571 2 0.367356 0.196479 0.0199411
572 4 0.364548 0.175393 0.0330821
573 4 0.370164 0.217564 0.00680015
1071 4 0.372648 0.234163 0.0181948
322 2 0.448196 0.24208 0.0490737
323 4 0.471018 0.238816 0.0393947
518 4 0.486683 0.236337 0.0535814
324 4 0.425374 0.245344 0.0587527
623 4 0.431638 0.249831 0.0777212
505 2 0.141181 0.304035 0.00275316
292 2 0.143016 0.319871 0.0618589
507 4 0.143106 0.323524 0.0182981
288 4 0.164591 0.323338 0.0216077
293 4 0.151392 0.321148 0.0383349
286 2 0.188074 0.328817 0.0282204
483 4 0.217764 0.319834 0.046523
481 2 0.227213 0.320567 0.0696608
1069 2 0.379041 0.258202 0.015651
957 4 0.394 0.30047 0.00964341
1070 4 0.385433 0.28224 0.0131073
955 2 0.415436 0.305309 0.0215716
771 4 0.488649 0.250963 0.0378466
956 4 0.436872 0.310147 0.0334997
282 4 0.439174 0.329631 0.0376094
1168 2 0.01296 0.392408 0.0367676
1170 4 0.00651461 0.369459 0.0443142
1169 4 0.0194055 0.415358 0.029221
1056 4 0.0177205 0.354123 0.0384707
287 4 0.211557 0.334296 0.0348331
607 2 0.292329 0.386983 0.0790139
608 4 0.280977 0.405297 0.0663291
626 4 0.265162 0.416303 0.0671903
280 2 0.452712 0.345344 0.0515743
281 4 0.46625 0.361057 0.0655392
494 4 0.446991 0.367871 0.0723899
330 4 0.00243894 0.420583 0.0171564
551 4 0.00612318 0.430486 0.0361628
550 2 0.0108771 0.443638 0.0568896
552 4 0.0156309 0.45679 0.0776164
1786 2 0.0981116 0.451694 0.0756544
1788 4 0.109969 0.429858 0.072871
1787 4 0.0862539 0.473531 0.0784378
241 2 0.245143 0.493448 0.0642956
243 4 0.260404 0.479996 0.0788337
625 2 0.268975 0.439732 0.0750462
627 4 0.272788 0.463162 0.0829022
245 4 0.349111 0.421045 0.0729416
244 2 0.344184 0.42296 0.0485031
246 4 0.339258 0.424875 0.0240646
40 3 0.341418 0.426026 0.00201314
272 4 0.341658 0.44499 0.0143009
271 2 0.356749 0.461007 0.00243028
2388 4 0.410273 0.491101 0.00523958
564 4 0.466534 0.457437 0.0062539
562 2 0.447946 0.473784 0.00273073
1668 4 0.0681834 0.0169691 0.0872901
2481 4 0.0212255 0.0227791 0.124676
18 3 0.0154065 0.0422287 0.122726
2479 2 0.0104617 0.00241004 0.134393
16 1 0.0245204 0.0617112 0.114021
19 3 0.0474844 0.0593546 0.111675
20 3 0.0198744 0.0792748 0.127754
17 3 0.0152938 0.0656338 0.0933178
1474 2 0.153854 0.0237955 0.09123
1475 4 0.14817 0.0407068 0.108748
1785 4 0.334996 0.0587764 0.162728
700 2 0.0750756 0.0943438 0.0860444
450 4 0.151126 0.0852203 0.0839774
236 4 0.104282 0.12561 0.103933
235 2 0.106775 0.147081 0.0913642
701 4 0.0931216 0.107948 0.0967425
448 2 0.131627 0.0956756 0.0956251
449 4 0.112128 0.106131 0.107273
749 4 0.0526763 0.226519 0.154767
477 4 0.0992209 0.180425 0.0909457
476 4 0.091554 0.226754 0.108137
339 4 0.108054 0.224615 0.119066
475 2 0.0953875 0.203589 0.0995412
337 2 0.119365 0.241408 0.133736
352 2 0.253378 0.237443 0.132978
461 4 0.281589 0.209121 0.109767
354 4 0.271429 0.224175 0.121874
460 2 0.302183 0.215879 0.0973006
462 4 0.322777 0.222637 0.0848342
254 4 0.370533 0.245882 0.112301
253 2 0.350242 0.244015 0.0978107
630 4 0.386936 0.231735 0.111128
628 2 0.384945 0.21917 0.132653
629 4 0.382953 0.206606 0.154179
537 4 0.0749432 0.320275 0.139201
294 4 0.134639 0.318593 0.085383
455 4 0.0864385 0.306205 0.13045
456 4 0.122968 0.307322 0.0963171
338 4 0.130676 0.258202 0.148406
363 4 0.115425 0.263218 0.159386
454 2 0.104703 0.306763 0.113384
353 4 0.235328 0.250711 0.144083
736 2 0.204305 0.268719 0.158936
737 4 0.228279 0.26958 0.151888
755 4 0.233427 0.267214 0.130467
482 4 0.236662 0.321299 0.0927986
754 2 0.239622 0.28918 0.120254
756 4 0.245816 0.311146 0.110042
738 4 0.180331 0.267859 0.165984
252 4 0.254477 0.328919 0.102268
622 2 0.410348 0.250836 0.0907933
624 4 0.389057 0.251841 0.103865
741 4 0.394525 0.285931 0.0934837
739 2 0.379368 0.305392 0.0975729
740 4 0.36421 0.324853 0.101662
386 4 0.365278 0.334381 0.0834719
535 2 0.080315 0.335192 0.158536
609 4 0.30368 0.368668 0.0916987
387 4 0.31975 0.354204 0.089386
250 2 0.277358 0.338175 0.0982733
251 4 0.300239 0.347432 0.0942783
385 2 0.342514 0.344292 0.086429
11 1 0.411528 0.398684 0.133471
15 3 0.388955 0.396975 0.135963
671 4 0.463508 0.36694 0.0862283
14 3 0.418144 0.3882 0.113857
495 4 0.420898 0.401045 0.0992106
12 3 0.421911 0.388429 0.151252
493 2 0.433945 0.384458 0.0858002
595 2 0.468332 0.393261 0.141422
596 4 0.492426 0.397827 0.136542
597 4 0.444238 0.388695 0.146301
670 2 0.486432 0.359983 0.0933874
645 4 0.437781 0.382039 0.166497
2652 4 0.489982 0.410995 0.121391
1691 4 0.0743508 0.48854 0.0881953
315 4 0.0224148 0.469234 0.0939997
620 4 0.00201119 0.461212 0.0934175
313 2 0.0474076 0.468536 0.0937645
314 4 0.0724003 0.467839 0.0935292
1467 4 0.0100466 0.492109 0.163934
1440 4 0.258221 0.469279 0.0971172
1438 2 0.27018 0.485622 0.111782
637 2 0.275424 0.497753 0.166159
639 4 0.271523 0.495836 0.141537
659 4 0.33547 0.455653 0.155857
525 4 0.354204 0.462645 0.15492
523 2 0.348272 0.482311 0.140664
13 3 0.417773 0.421026 0.133006
688 2 0.123506 0.0790549 0.223548
689 4 0.117871 0.0701226 0.246212
1403 4 0.110495 0.0506534 0.241721
1402 2 0.103831 0.0265764 0.240693
1404 4 0.0971659 0.0024994 0.239664
22 3 0.329897 0.0561288 0.231851
21 1 0.338308 0.0753167 0.241351
1783 2 0.339966 0.0717817 0.183497
757 2 0.389722 0.0753628 0.215939
758 4 0.413585 0.0700678 0.221201
759 4 0.365859 0.0806578 0.210676
1496 4 0.340736 0.0411175 0.241025
312 4 0.434525 0.0707325 0.217315
744 4 0.426544 0.0797179 0.234929
310 2 0.448789 0.0736373 0.196985
311 4 0.463052 0.0765422 0.176656
690 4 0.129141 0.0879872 0.200885
693 4 0.143189 0.101258 0.193692
691 2 0.155136 0.122565 0.199028
692 4 0.167083 0.143872 0.204363
723 4 0.181997 0.154488 0.213715
721 2 0.177467 0.152801 0.238247
23 3 0.320615 0.0886251 0.248298
1784 4 0.344937 0.0847869 0.204266
25 3 0.350824 0.0864585 0.225928
707 4 0.36227 0.136068 0.200581
706 2 0.372298 0.157815 0.193388
748 2 0.0575666 0.234185 0.178059
750 4 0.0624568 0.24185 0.20135
396 4 0.0514811 0.234067 0.216972
394 2 0.0443918 0.249414 0.235395
582 4 0.286806 0.183438 0.207348
285 4 0.286206 0.175156 0.22491
581 4 0.327648 0.193019 0.180129
580 2 0.307227 0.188228 0.193739
283 2 0.272621 0.190012 0.23974
344 4 0.262491 0.222455 0.245725
30 3 0.33794 0.205693 0.192494
28 3 0.360722 0.226321 0.170743
27 3 0.362496 0.229006 0.20819
708 4 0.382325 0.179561 0.186196
29 3 0.37471 0.197665 0.191421
26 1 0.358833 0.214569 0.190661
361 2 0.128647 0.282311 0.168651
362 4 0.141868 0.301404 0.177915
372 4 0.14646 0.313377 0.19305
370 2 0.167115 0.308901 0.206411
371 4 0.18777 0.304425 0.219772
279 4 0.204809 0.291776 0.218143
612 4 0.207082 0.313297 0.220896
277 2 0.216662 0.284251 0.238833
765 4 0.390341 0.313301 0.233614
763 2 0.366663 0.314066 0.22562
764 4 0.342984 0.314832 0.217625
542 4 0.390931 0.293027 0.22986
541 2 0.410973 0.284313 0.242007
521 4 0.448176 0.263799 0.249992
536 4 0.0856869 0.350108 0.17787
603 4 0.13328 0.40964 0.242545
610 2 0.218643 0.335419 0.219436
417 4 0.241217 0.373639 0.223542
611 4 0.230204 0.357541 0.217976
415 2 0.249008 0.397357 0.222156
303 4 0.328768 0.403774 0.237639
301 2 0.339645 0.403194 0.215132
660 4 0.355271 0.416528 0.179895
302 4 0.350522 0.402614 0.192626
644 4 0.437275 0.402289 0.212218
643 2 0.437528 0.392164 0.189358
447 4 0.425486 0.40511 0.228393
263 4 0.0168754 0.474291 0.174071
262 2 0.0260223 0.456095 0.188578
1757 4 0.0380652 0.436651 0.223187
264 4 0.0351692 0.4379 0.203085
1756 2 0.0312147 0.436488 0.247233
647 4 0.000730219 0.485503 0.182061
1436 4 0.248971 0.430966 0.238188
436 2 0.293469 0.420587 0.244292
416 4 0.2568 0.421075 0.220771
437 4 0.270312 0.426371 0.236843
291 4 0.261888 0.441599 0.224483
638 4 0.279326 0.499671 0.190782
289 2 0.270306 0.463333 0.215431
290 4 0.278724 0.485067 0.206378
767 4 0.297553 0.493227 0.199849
658 2 0.345371 0.43609 0.167876
673 2 0.0798628 0.0740171 0.255202
675 4 0.101232 0.0613866 0.258205
249 4 0.158837 0.0686098 0.319017
1700 4 0.234638 0.0503321 0.26904
1699 2 0.216813 0.038626 0.282094
248 4 0.187206 0.0278643 0.313038
247 2 0.173021 0.0482371 0.316027
1701 4 0.198988 0.0269199 0.295149
605 4 0.199393 0.0107407 0.309047
1497 4 0.359592 0.00488401 0.269874
699 4 0.378011 0.00234876 0.280404
1495 2 0.350164 0.0230007 0.255449
697 2 0.388895 0.0176319 0.296932
698 4 0.399778 0.0329151 0.313459
349 2 0.40061 0.0725044 0.305282
351 4 0.390565 0.0520601 0.315592
24 3 0.351485 0.0695236 0.25955
257 4 0.393903 0.0398003 0.3328
1749 4 0.436607 0.012731 0.25759
478 2 0.488586 0.0713415 0.285401
1747 2 0.4482 0.0325765 0.267436
1748 4 0.459793 0.0524221 0.277281
480 4 0.472934 0.0647279 0.267058
579 4 0.00306178 0.158641 0.258331
674 4 0.0584939 0.0866477 0.252199
398 4 0.00456162 0.144813 0.329301
600 4 0.148685 0.149706 0.332599
545 4 0.150746 0.136393 0.316133
544 2 0.159793 0.149569 0.296905
546 4 0.16884 0.162745 0.277677
722 4 0.172937 0.151114 0.262778
332 4 0.396391 0.159127 0.276126
331 2 0.401206 0.134935 0.280216
350 4 0.410656 0.0929486 0.294972
333 4 0.406021 0.110742 0.284306
742 2 0.425763 0.0898179 0.257789
743 4 0.424982 0.0999179 0.280648
577 2 0.0252825 0.16891 0.263425
578 4 0.0475032 0.17918 0.268519
391 2 0.0477482 0.195282 0.30999
393 4 0.0494414 0.189612 0.285697
276 4 0.183956 0.202138 0.321923
474 4 0.19968 0.19549 0.332206
274 2 0.171284 0.22179 0.330776
343 2 0.2539 0.24358 0.255978
284 4 0.259035 0.204867 0.25457
614 4 0.393585 0.234237 0.303696
613 2 0.381005 0.235482 0.325268
762 4 0.406264 0.171363 0.288763
760 2 0.405242 0.19394 0.29946
419 4 0.414949 0.232539 0.301076
761 4 0.404219 0.216518 0.310156
418 2 0.426892 0.247695 0.285176
442 2 0.00960595 0.298923 0.252726
444 4 0.0280673 0.282584 0.256899
395 4 0.0373024 0.26476 0.253818
278 4 0.228514 0.276726 0.259523
309 4 0.230949 0.273115 0.281607
345 4 0.245308 0.264704 0.266231
307 2 0.244446 0.28608 0.298187
509 4 0.24808 0.294557 0.333095
308 4 0.257943 0.299046 0.314767
497 4 0.269885 0.294068 0.331773
2682 4 0.496921 0.252328 0.278314
543 4 0.431016 0.275599 0.254153
520 2 0.471826 0.266126 0.257766
522 4 0.495476 0.268453 0.26554
420 4 0.438835 0.262852 0.269275
407 4 0.0202692 0.38639 0.322844
548 4 0.0327416 0.398117 0.312797
547 2 0.045236 0.414516 0.326945
300 4 0.141638 0.400779 0.258389
298 2 0.137369 0.379045 0.269991
734 4 0.134514 0.340535 0.293412
299 4 0.133099 0.357312 0.281593
733 2 0.145392 0.345272 0.315422
438 4 0.316626 0.414804 0.251742
729 4 0.332849 0.402041 0.258704
751 2 0.405362 0.413587 0.305498
727 2 0.350887 0.413797 0.271415
445 2 0.431258 0.413581 0.251199
752 4 0.422349 0.399429 0.317167
561 4 0.442382 0.397388 0.318926
1758 4 0.0243642 0.436326 0.27128
777 4 0.0628823 0.443173 0.326439
601 2 0.144198 0.43071 0.250419
412 2 0.138956 0.451121 0.30087
413 4 0.129881 0.449105 0.324082
776 4 0.110528 0.457995 0.323135
775 2 0.0867052 0.450584 0.324787
414 4 0.148031 0.453137 0.277659
602 4 0.155116 0.45178 0.258294
1435 2 0.230155 0.440756 0.251429
1437 4 0.211339 0.450545 0.26467
435 4 0.3207 0.463994 0.325581
2 3 0.339474 0.468755 0.284868
4 3 0.340369 0.464787 0.322233
753 4 0.388375 0.427746 0.29383
728 4 0.368926 0.425553 0.284126
1 1 0.34774 0.477669 0.304396
5 3 0.370501 0.477587 0.303635
1803 4 0.381965 0.441331 0.277709
1802 4 0.395979 0.485969 0.260051
1801 2 0.388972 0.46365 0.26888
3 3 0.33997 0.499422 0.306591
446 4 0.43703 0.422053 0.274004
2862 4 0.499281 0.45259 0.278534
116 1 0.499513 0.45789 0.322365
713 4 0.435159 0.432062 0.290132
712 2 0.458926 0.439792 0.290879
714 4 0.482693 0.447522 0.291626
231 4 0.462919 0.475872 0.323077
229 2 0.455373 0.498621 0.315956
119 3 0.477671 0.460384 0.329788
233 4 0.01184 0.0503493 0.366229
318 4 0.0730745 0.0702347 0.392521
234 4 0.0563324 0.0602501 0.386799
232 2 0.0340862 0.0552997 0.376514
1464 4 0.126575 0.0109338 0.340723
404 4 0.153261 0.0799011 0.334919
316 2 0.0942639 0.0602201 0.401233
317 4 0.115453 0.0502056 0.409945
427 2 0.0970796 0.00778273 0.41191
428 4 0.106289 0.0310211 0.412501
684 4 0.265748 0.0672138 0.398685
632 4 0.276202 0.0357225 0.347131
631 2 0.300133 0.0291448 0.350163
682 2 0.26173 0.0551447 0.377159
683 4 0.257712 0.0430757 0.355632
1182 4 0.254405 0.0704896 0.41649
633 4 0.324065 0.0225672 0.353195
725 4 0.327625 0.00458956 0.362579
724 2 0.351565 0.0111932 0.359672
726 4 0.375505 0.0177969 0.356766
256 2 0.401807 0.0415382 0.356458
258 4 0.409712 0.0432761 0.380115
424 2 0.415067 0.0109727 0.407408
514 2 0.41959 0.07231 0.402328
2643 4 0.49156 0.0373587 0.348385
425 4 0.420976 0.0274276 0.389534
452 4 0.47846 0.0399063 0.363026
451 2 0.454686 0.0412782 0.370649
453 4 0.430912 0.0426502 0.378272
515 4 0.42166 0.0479456 0.397106
397 2 0.0276133 0.13851 0.336655
399 4 0.0506651 0.132207 0.344008
732 4 0.056742 0.137593 0.361488
730 2 0.080357 0.145456 0.363872
405 4 0.156951 0.129763 0.335864
403 2 0.155106 0.104832 0.335392
598 2 0.132598 0.160044 0.348708
685 2 0.128161 0.150592 0.403536
731 4 0.103972 0.153318 0.366257
686 4 0.119745 0.156428 0.380725
320 4 0.262691 0.0873372 0.406559
319 2 0.265116 0.111732 0.401643
467 4 0.278521 0.152613 0.387103
321 4 0.267542 0.136127 0.396726
899 4 0.270711 0.154555 0.40686
574 2 0.43643 0.124129 0.39274
576 4 0.436534 0.142865 0.376184
305 4 0.432627 0.157332 0.363435
575 4 0.436326 0.105392 0.409297
516 4 0.417519 0.0966744 0.40755
392 4 0.0460551 0.200953 0.334283
2654 4 0.0513377 0.216201 0.347369
2653 2 0.0327312 0.232827 0.34577
599 4 0.11651 0.170382 0.364817
616 2 0.084297 0.247192 0.407224
617 4 0.0858842 0.233512 0.386355
388 2 0.124308 0.2291 0.366645
390 4 0.104678 0.227032 0.381993
389 4 0.143939 0.231167 0.351297
275 4 0.158611 0.241443 0.339628
401 4 0.158979 0.242825 0.361217
472 2 0.220157 0.200728 0.345565
473 4 0.240633 0.205966 0.358924
410 4 0.248781 0.207106 0.378846
468 4 0.250929 0.189182 0.367052
466 2 0.264725 0.170898 0.377078
409 2 0.259974 0.224811 0.3925
411 4 0.271167 0.242516 0.406154
717 4 0.348803 0.243489 0.405234
615 4 0.368424 0.236728 0.34684
715 2 0.361667 0.245236 0.383864
716 4 0.374531 0.246984 0.362495
304 2 0.443851 0.179549 0.365803
269 4 0.443243 0.218745 0.366102
306 4 0.455075 0.201766 0.36817
268 2 0.434871 0.229566 0.387031
270 4 0.426498 0.240387 0.407959
2655 4 0.0141247 0.249453 0.344171
2814 4 0.00859912 0.326437 0.400769
400 2 0.170961 0.258001 0.377069
402 4 0.182944 0.273178 0.39292
375 4 0.180208 0.293206 0.393717
373 2 0.20412 0.29986 0.396743
374 4 0.228031 0.306514 0.399769
510 4 0.237344 0.306967 0.380333
378 4 0.248851 0.301155 0.398133
508 2 0.242712 0.300762 0.356714
498 4 0.317391 0.309303 0.335207
496 2 0.293638 0.301685 0.33349
376 2 0.257161 0.279947 0.408446
406 2 0.00671333 0.374504 0.340168
735 4 0.156269 0.350008 0.337431
677 4 0.147749 0.362391 0.351443
502 2 0.156845 0.404217 0.416404
676 2 0.163279 0.374887 0.366537
678 4 0.178809 0.387384 0.38163
650 4 0.191766 0.385689 0.398458
503 4 0.174883 0.398475 0.400069
649 2 0.211482 0.378263 0.411922
669 4 0.396188 0.40326 0.399753
336 4 0.379597 0.394595 0.399314
334 2 0.371863 0.37338 0.41005
667 2 0.41926 0.405582 0.3904
559 2 0.448693 0.397529 0.343119
560 4 0.455004 0.39767 0.367313
668 4 0.442331 0.407904 0.381046
588 4 0.458479 0.395178 0.388338
586 2 0.470969 0.40646 0.406828
549 4 0.0577304 0.430914 0.341093
1545 4 0.123807 0.463449 0.338893
1543 2 0.125135 0.485684 0.350252
433 2 0.316925 0.460352 0.350029
434 4 0.31315 0.45671 0.374476
3990 4 0.470057 0.475599 0.344206
593 4 0.439035 0.494667 0.394896
3989 4 0.45546 0.484836 0.391135
3988 2 0.462758 0.480218 0.367671
1781 4 0.116131 0.040471 0.429234
1780 2 0.135374 0.0413 0.445177
1782 4 0.154618 0.0421289 0.46112
368 4 0.132714 0.081404 0.466679
341 4 0.168972 0.0578433 0.463574
2430 4 0.171414 0.0390147 0.474072
2428 2 0.179007 0.0307858 0.496429
340 2 0.176866 0.0811754 0.459275
1180 2 0.273003 0.0655066 0.432441
1181 4 0.291602 0.0605235 0.448392
963 4 0.288803 0.0544087 0.468532
432 4 0.305402 0.0465897 0.457379
961 2 0.274541 0.0449124 0.486742
430 2 0.326937 0.0345499 0.461436
842 4 0.397643 7.54044e-05 0.442269
431 4 0.348472 0.0225101 0.465493
841 2 0.381218 0.0162148 0.452011
843 4 0.364793 0.0323542 0.461754
1216 2 0.43904 0.00520405 0.457856
1218 4 0.458497 0.0083968 0.473232
1217 4 0.419583 0.00201129 0.44248
2585 4 0.00795412 0.149089 0.443342
458 4 0.00992338 0.157178 0.463338
457 2 0.0277137 0.140002 0.467034
719 4 0.0463212 0.110928 0.48608
459 4 0.0455041 0.122826 0.47073
718 2 0.0441312 0.0894027 0.498611
938 4 0.0832254 0.163656 0.495186
939 4 0.0824999 0.128194 0.459935
937 2 0.0828627 0.145925 0.477561
687 4 0.136576 0.144756 0.426346
367 2 0.113099 0.0968978 0.466062
369 4 0.0934845 0.112392 0.465446
1151 4 0.14571 0.147235 0.446166
1150 2 0.16625 0.133178 0.44378
342 4 0.184759 0.104507 0.454976
1152 4 0.18679 0.119122 0.441393
898 2 0.269574 0.159232 0.431396
900 4 0.268438 0.163909 0.455932
261 4 0.0955834 0.238363 0.485623
1035 4 0.0923765 0.221236 0.498072
487 2 0.309258 0.246901 0.421475
489 4 0.284366 0.249192 0.422027
488 4 0.33415 0.244611 0.420922
267 4 0.354507 0.240617 0.425434
813 4 0.363211 0.204042 0.481551
266 4 0.363491 0.207834 0.462112
265 2 0.358999 0.224226 0.443773
2924 4 0.412735 0.249675 0.418945
3157 2 0.499447 0.21555 0.492355
3159 4 0.482784 0.234153 0.493567
618 4 0.0827099 0.260871 0.428094
260 4 0.08074 0.268134 0.448286
347 4 0.0820643 0.282096 0.432263
259 2 0.0881617 0.253248 0.466954
346 2 0.100434 0.298708 0.435697
348 4 0.118803 0.31532 0.439132
10 3 0.131892 0.323898 0.451339
9 3 0.15767 0.324615 0.478773
1259 4 0.163585 0.306218 0.485671
377 4 0.26547 0.258739 0.418758
238 2 0.364074 0.318645 0.436267
2925 4 0.386972 0.28183 0.447282
239 4 0.376737 0.297479 0.440367
872 4 0.409079 0.289308 0.496028
2923 2 0.399853 0.265752 0.433113
584 4 0.451266 0.323336 0.488781
6 1 0.147913 0.336551 0.461431
8 3 0.164079 0.342676 0.445953
7 3 0.138249 0.355579 0.470015
504 4 0.138807 0.409958 0.43274
711 4 0.121294 0.365829 0.471163
709 2 0.123241 0.387675 0.459158
710 4 0.125188 0.409521 0.447153
651 4 0.231199 0.370836 0.425386
335 4 0.364128 0.352164 0.420785
240 4 0.351411 0.339812 0.432167
2456 4 0.468025 0.333631 0.484603
679 2 0.0809501 0.442918 0.494873
681 4 0.0615118 0.458631 0.495529
382 2 0.0606244 0.491594 0.474918
383 4 0.0529089 0.478216 0.494583
680 4 0.100388 0.427205 0.494218
774 4 0.201108 0.464092 0.472123
773 4 0.177327 0.445739 0.432143
772 2 0.189217 0.454916 0.452133
635 4 0.18637 0.475971 0.479993
634 2 0.198493 0.490766 0.496097
663 4 0.487193 0.438102 0.431383
1910 4 0.464461 0.469911 0.475261
661 2 0.471377 0.44704 0.448563
662 4 0.455561 0.455979 0.465743
587 4 0.483459 0.417742 0.425318
1909 2 0.464774 0.482517 0.496852
720 4 0.0419413 0.0678771 0.511143
2429 4 0.1866 0.022557 0.518785
1284 4 0.223882 0.0647455 0.58333
1059 4 0.212737 0.0801928 0.575424
1090 2 0.328341 0.0133714 0.573776
962 4 0.260278 0.0354162 0.504951
1091 4 0.344659 0.023443 0.55773
2196 4 0.357552 0.00858033 0.552001
2194 2 0.358771 0.00723448 0.527064
2195 4 0.359991 0.00588862 0.502126
1060 2 0.488167 0.024708 0.56877
810 4 0.474251 0.0619909 0.555021
1062 4 0.472551 0.043827 0.564799
808 2 0.492286 0.0792523 0.556419
327 4 0.0692748 0.240257 0.570588
696 4 0.0832331 0.245424 0.554341
695 4 0.0844282 0.240074 0.504636
694 2 0.0838306 0.242749 0.529488
1034 4 0.0998145 0.17202 0.502889
1033 2 0.0960955 0.196628 0.50048
878 4 0.0898165 0.234504 0.572272
857 4 0.205679 0.229056 0.533045
856 2 0.193463 0.249755 0.526152
796 2 0.26068 0.244311 0.582049
953 4 0.394151 0.232943 0.533508
812 4 0.376651 0.23228 0.520573
791 4 0.378907 0.248646 0.535501
873 4 0.391858 0.247663 0.517704
952 2 0.413718 0.228249 0.548349
811 2 0.369931 0.218161 0.501062
954 4 0.433286 0.223556 0.56319
905 4 0.438505 0.219716 0.582479
3066 4 0.491084 0.247775 0.504988
982 2 0.012751 0.294455 0.547912
984 4 0.0362566 0.292934 0.5563
326 4 0.0418481 0.281927 0.574069
1136 4 0.056094 0.295488 0.565166
325 2 0.0555615 0.261092 0.572329
1135 2 0.0674172 0.315375 0.555092
1258 2 0.174431 0.297626 0.506497
1260 4 0.185276 0.289033 0.527323
858 4 0.181247 0.270454 0.519259
797 4 0.259643 0.266817 0.571205
1237 2 0.331603 0.29525 0.579637
1238 4 0.330613 0.27184 0.57091
790 2 0.35678 0.255846 0.544651
792 4 0.334652 0.263046 0.553801
871 2 0.400468 0.268485 0.506866
585 4 0.413452 0.300855 0.512559
583 2 0.432359 0.312095 0.50067
936 4 0.0136362 0.391483 0.546968
934 2 0.0287464 0.40556 0.561064
1137 4 0.0787404 0.335261 0.545018
991 2 0.139932 0.399772 0.578572
993 4 0.116999 0.402986 0.56914
1159 2 0.116779 0.416831 0.528019
1160 4 0.114458 0.416664 0.503124
928 2 0.335246 0.359029 0.576214
882 4 0.337966 0.397601 0.561591
930 4 0.346642 0.379549 0.567597
925 2 0.485314 0.412598 0.530144
926 4 0.468124 0.41102 0.512056
2455 2 0.487413 0.336367 0.500152
1039 2 0.0790735 0.426475 0.572197
3430 2 0.0341888 0.461568 0.569154
3431 4 0.0326713 0.484159 0.558546
935 4 0.0438566 0.419636 0.575161
3432 4 0.0357062 0.438977 0.579762
4434 4 0.0121946 0.489731 0.56069
538 2 0.0199479 0.464424 0.507393
4251 4 0.0225854 0.494321 0.542189
1041 4 0.0570831 0.436229 0.579013
539 4 0.0449352 0.463932 0.50815
1040 4 0.101064 0.416722 0.56538
1161 4 0.119101 0.416999 0.552914
1455 4 0.32982 0.491905 0.537432
1445 4 0.309218 0.492043 0.529116
2046 4 0.326566 0.498305 0.517129
1453 2 0.341158 0.472378 0.548171
1454 4 0.352495 0.45285 0.55891
880 2 0.343388 0.420596 0.569775
881 4 0.348811 0.443591 0.57796
4086 4 0.476481 0.499258 0.583295
1911 4 0.465087 0.495123 0.518444
1183 2 0.0168859 0.0615723 0.654465
1891 2 0.0151149 0.0154407 0.614542
1185 4 0.0287149 0.0828311 0.660237
1184 4 0.00505686 0.0403135 0.648693
1892 4 0.0048711 0.02314 0.636012
1893 4 0.0253587 0.00774141 0.593072
1282 2 0.243046 0.0579249 0.597869
2131 2 0.244552 0.0301271 0.649726
1283 4 0.262211 0.0511043 0.612409
2132 4 0.252299 0.0406242 0.628396
1031 4 0.270713 0.0333789 0.620507
1030 2 0.286995 0.0153205 0.614679
1092 4 0.312022 0.00329992 0.589821
1081 2 0.0208133 0.122628 0.643144
1082 4 0.0321628 0.103878 0.655177
943 2 0.0689061 0.0946486 0.653876
944 4 0.0469573 0.0928809 0.665721
1083 4 0.00946381 0.141379 0.631111
945 4 0.0908549 0.0964163 0.642031
1057 2 0.207474 0.100533 0.58898
1058 4 0.202211 0.120873 0.602536
1155 4 0.181202 0.129742 0.603726
1153 2 0.182586 0.154671 0.605077
909 4 0.189904 0.119352 0.621091
907 2 0.201095 0.119025 0.643447
908 4 0.212286 0.118699 0.665804
886 2 0.325295 0.157838 0.624724
831 4 0.35487 0.0948945 0.601362
830 4 0.342152 0.121571 0.641702
829 2 0.348511 0.108233 0.621532
887 4 0.338021 0.142656 0.63998
1194 4 0.34902 0.134565 0.657017
1026 4 0.444561 0.145781 0.651764
1024 2 0.443369 0.150274 0.627197
1143 4 0.455042 0.129936 0.662877
1025 4 0.442176 0.154768 0.602629
1209 4 0.0581193 0.249082 0.660702
877 2 0.108738 0.22959 0.58786
1272 4 0.130168 0.204109 0.604896
1270 2 0.15504 0.202273 0.606686
879 4 0.12766 0.224676 0.603448
948 4 0.149996 0.228708 0.663479
1154 4 0.183971 0.179599 0.606428
1271 4 0.179912 0.200436 0.608475
1221 4 0.199876 0.193707 0.604744
1219 2 0.223784 0.200236 0.601431
1220 4 0.247691 0.206765 0.598118
798 4 0.261716 0.221806 0.592894
1212 4 0.265882 0.201124 0.588484
888 4 0.31257 0.17302 0.609468
1211 4 0.305239 0.189044 0.61687
1210 2 0.285561 0.195084 0.602677
904 2 0.44371 0.19594 0.588205
906 4 0.448915 0.172164 0.593931
1243 2 0.0185221 0.264385 0.663411
1207 2 0.0793935 0.261799 0.663997
804 4 0.312214 0.322822 0.593774
1239 4 0.332593 0.31866 0.588364
802 2 0.293106 0.332858 0.606396
992 4 0.162865 0.396559 0.588003
1068 4 0.15709 0.36669 0.640591
1066 2 0.133853 0.358109 0.643998
1067 4 0.110617 0.349529 0.647405
941 4 0.103768 0.345506 0.664649
1028 4 0.172599 0.363545 0.651365
897 4 0.176044 0.39199 0.602473
1191 4 0.219591 0.350412 0.625646
896 4 0.201671 0.350954 0.615123
895 2 0.188858 0.371472 0.608798
1189 2 0.24221 0.352907 0.615284
929 4 0.32385 0.33851 0.58483
803 4 0.273998 0.342894 0.619019
1190 4 0.264828 0.355402 0.604922
3113 4 0.494371 0.350531 0.632456
3264 4 0.0455666 0.427663 0.595167
3263 4 0.00981875 0.423139 0.629842
3239 4 0.0158115 0.437492 0.64497
3262 2 0.0276927 0.425401 0.612505
3238 2 0.0266172 0.454131 0.660187
1187 4 0.249245 0.493696 0.593936
2436 4 0.253652 0.472464 0.592853
1173 4 0.324254 0.478313 0.602558
1171 2 0.330155 0.46488 0.622804
2435 4 0.30312 0.478596 0.596849
2434 2 0.278386 0.47553 0.594851
2154 4 0.313872 0.496724 0.599474
891 4 0.329622 0.464877 0.658488
1172 4 0.336055 0.451446 0.64305
3183 4 0.480083 0.495406 0.603969
1204 2 0.498723 0.438406 0.643082
3181 2 0.493411 0.474256 0.603518
1205 4 0.485707 0.429279 0.662381
2133 4 0.236804 0.0196301 0.671055
824 4 0.232284 0.00174028 0.678396
2255 4 0.169039 0.00222541 0.706026
825 4 0.185717 0.00377313 0.696511
823 2 0.209 0.0027567 0.687454
42 3 0.497202 0.0529494 0.704119
43 3 0.459696 0.0531269 0.706558
846 4 0.451945 0.0614971 0.722671
44 3 0.477438 0.0756838 0.681642
41 1 0.477717 0.0549504 0.692056
45 3 0.47683 0.0383981 0.67644
844 2 0.44566 0.0503631 0.744159
862 2 0.000926872 0.115564 0.743993
1076 4 0.0288931 0.0973582 0.676059
1077 4 0.0359873 0.10262 0.72528
1075 2 0.0324402 0.0999892 0.700669
864 4 0.0237082 0.106062 0.740004
1105 2 0.0726563 0.163402 0.712063
1177 2 0.00812789 0.163812 0.687235
1072 2 0.133443 0.140495 0.715307
1074 4 0.153118 0.131763 0.702586
1073 4 0.113767 0.149228 0.728027
1106 4 0.0945503 0.157643 0.722677
1215 4 0.0956034 0.14348 0.738664
1227 4 0.221457 0.11134 0.682281
1226 4 0.220513 0.11344 0.732235
1225 2 0.220985 0.11239 0.707258
1130 4 0.223425 0.127517 0.748139
1148 4 0.207041 0.113221 0.749341
1192 2 0.368483 0.14677 0.666886
1193 4 0.387946 0.158975 0.676756
1142 4 0.461977 0.0862606 0.686224
1263 4 0.440863 0.142949 0.672935
1141 2 0.45851 0.108098 0.674551
3424 2 0.486572 0.155142 0.698694
1261 2 0.421278 0.158064 0.676556
1245 4 0.037947 0.249265 0.667796
852 4 0.0498761 0.231759 0.670192
1107 4 0.0507624 0.169161 0.701448
1178 4 0.0326097 0.168235 0.689736
850 2 0.0473823 0.208697 0.679523
851 4 0.0448884 0.185634 0.688854
946 2 0.135561 0.248888 0.666576
1084 2 0.299801 0.241378 0.740623
1262 4 0.401692 0.173179 0.680177
3123 4 0.497776 0.24285 0.675053
3270 4 0.463352 0.190413 0.713581
3426 4 0.469617 0.173121 0.702502
1146 4 0.458734 0.189242 0.692477
1145 4 0.48468 0.227245 0.672898
1144 2 0.471707 0.208243 0.682687
3268 2 0.464072 0.186569 0.738277
1208 4 0.100668 0.274517 0.667292
947 4 0.121126 0.269068 0.669672
821 4 0.095915 0.299736 0.728641
820 2 0.103592 0.28955 0.707135
822 4 0.11127 0.279363 0.68563
1242 4 0.11217 0.302133 0.738566
1297 2 0.245276 0.259088 0.73883
1298 4 0.222381 0.256422 0.74852
1086 4 0.288691 0.259718 0.727763
1299 4 0.268171 0.261753 0.72914
1096 2 0.326881 0.32285 0.739034
1098 4 0.319316 0.327066 0.715579
816 4 0.0218561 0.366979 0.692546
892 2 0.07425 0.407309 0.732298
893 4 0.0799407 0.387076 0.718755
815 4 0.0665609 0.369965 0.714756
814 2 0.0442085 0.368472 0.703651
942 4 0.0847957 0.372259 0.702399
940 2 0.0942817 0.358883 0.683524
1027 2 0.186085 0.368677 0.671785
1029 4 0.19957 0.373809 0.692205
1139 4 0.214211 0.389236 0.68925
1063 2 0.226197 0.369344 0.728072
1065 4 0.215653 0.376107 0.706432
1138 2 0.234741 0.401362 0.681723
1140 4 0.255272 0.413488 0.674197
1101 4 0.440593 0.406211 0.708846
1099 2 0.460014 0.415183 0.695905
2170 2 0.067386 0.499137 0.685683
894 4 0.0685592 0.427542 0.74584
3240 4 0.037423 0.47077 0.675405
2172 4 0.0558212 0.47697 0.68545
1279 2 0.0478225 0.454585 0.717269
1280 4 0.0549429 0.441996 0.737665
1281 4 0.0407021 0.467174 0.696873
1983 4 0.0725144 0.448429 0.748628
2016 4 0.179721 0.491246 0.729555
1176 4 0.191498 0.491399 0.714714
889 2 0.325579 0.48507 0.672669
1100 4 0.479436 0.424155 0.682963
1269 4 0.479446 0.444397 0.675938
1267 2 0.480436 0.467673 0.685018
1268 4 0.481425 0.490949 0.694097
2169 4 0.487616 0.49708 0.676665
1203 4 0.0907309 0.0256741 0.78596
1201 2 0.0852979 0.00617636 0.77128
911 4 0.109392 0.0324686 0.793854
1196 4 0.0961645 0.0214014 0.806285
910 2 0.118081 0.0558455 0.795644
912 4 0.12677 0.0792223 0.797434
1195 2 0.0859098 0.00739855 0.824283
1287 4 0.131173 0.0767889 0.819652
1149 4 0.18178 0.0802336 0.777169
2400 4 0.328615 0.0207469 0.759692
2398 2 0.34214 0.0397812 0.768634
1049 4 0.36408 0.0758019 0.78731
1111 2 0.399936 0.0586054 0.773276
2399 4 0.355665 0.0588155 0.777575
1112 4 0.375962 0.0656726 0.772558
1113 4 0.423909 0.0515383 0.773995
845 4 0.439374 0.0392292 0.765646
980 4 0.430611 0.0349637 0.785713
979 2 0.430227 0.0263419 0.80918
981 4 0.429844 0.0177201 0.832647
152 3 0.0323404 0.160095 0.815983
34 3 0.0914344 0.0891388 0.827123