ITEM: TIMESTEP
2190000
ITEM: NUMBER OF ATOMS
4590
ITEM: BOX BOUNDS pp pp pp
-9.9985700000000008e+00 9.9985700000000008e+00
-9.9985700000000008e+00 9.9985700000000008e+00
-9.9985700000000008e+00 9.9985700000000008e+00
ITEM: ATOMS id type xs ys zs
1666 2 0.0639887 0.0462292 0.0484659
1667 4 0.074513 0.0689077 0.0487863
1668 4 0.0534643 0.0235507 0.0481455
1806 4 0.0751502 0.00713944 0.0830956
423 4 0.16616 0.0843883 0.0254735
534 4 0.172598 0.0755559 0.00918322
1475 4 0.237818 0.0170695 0.0588217
1474 2 0.216622 0.00959605 0.0697802
490 2 0.302787 0.0693067 0.00779848
653 4 0.29803 0.0808871 0.0433636
652 2 0.297352 0.0699632 0.0658444
295 2 0.409398 0.0154708 0.0744909
296 4 0.430268 0.0274245 0.067653
591 4 0.0614489 0.0857993 0.0448141
702 4 0.0788361 0.0888918 0.0567769
589 2 0.0416966 0.0959124 0.0332924
590 4 0.0219443 0.106026 0.0217707
235 2 0.0780024 0.160523 0.0785781
3232 2 0.0139696 0.137752 0.00519935
3233 4 0.0108248 0.112963 0.00432078
421 2 0.146439 0.0997307 0.0245474
422 4 0.126718 0.115073 0.0236213
700 2 0.0918468 0.110221 0.0577663
701 4 0.104857 0.13155 0.0587558
236 4 0.0983381 0.148119 0.0709774
449 4 0.119067 0.145047 0.0670779
448 2 0.142742 0.145323 0.0751172
450 4 0.166416 0.1456 0.0831565
966 4 0.229995 0.118234 0.000189155
491 4 0.299359 0.0884507 0.0235127
565 2 0.287273 0.125053 0.0373089
566 4 0.277111 0.147783 0.0350107
567 4 0.297434 0.102323 0.0396071
359 4 0.277055 0.159565 0.0189749
665 4 0.34519 0.141595 0.999771
664 2 0.354653 0.153552 0.0195863
557 4 0.417579 0.142433 0.0666289
556 2 0.398863 0.15723 0.0591509
987 4 0.464248 0.148364 0.0112665
3234 4 0.0171145 0.162542 0.00607792
914 4 0.165873 0.239009 0.0085991
357 4 0.238412 0.230897 0.0155362
558 4 0.380147 0.172027 0.0516728
666 4 0.364116 0.165509 0.039402
571 2 0.380191 0.202196 0.0238683
572 4 0.369264 0.186305 0.0397831
1071 4 0.382064 0.234985 0.0138994
573 4 0.391117 0.218086 0.00795344
771 4 0.496914 0.255051 0.0584214
1056 4 0.022234 0.33279 0.0141964
293 4 0.15355 0.310959 0.0509045
292 2 0.133427 0.321452 0.0613995
507 4 0.162699 0.291977 0.0469893
288 4 0.16814 0.309299 0.0355201
294 4 0.113304 0.331945 0.0718946
505 2 0.168558 0.271578 0.0337708
506 4 0.174417 0.251178 0.0205523
286 2 0.187034 0.325487 0.0379958
482 4 0.242663 0.3274 0.0830033
287 4 0.205928 0.341675 0.0404716
955 2 0.371716 0.316092 0.00563207
1069 2 0.383731 0.25925 0.00810146
623 4 0.412464 0.257143 0.0635935
1070 4 0.385397 0.283514 0.00230356
324 4 0.425979 0.25811 0.0504454
323 4 0.475836 0.25651 0.0539826
322 2 0.450908 0.25731 0.052214
280 2 0.468616 0.322026 0.0429469
282 4 0.463026 0.297672 0.0420594
518 4 0.482673 0.25906 0.0739547
1170 4 0.027429 0.351328 0.0225376
1168 2 0.0284255 0.374234 0.0125634
1169 4 0.029422 0.397141 0.00258916
481 2 0.22942 0.341142 0.066849
483 4 0.216177 0.354884 0.0506947
608 4 0.283058 0.403997 0.0655908
607 2 0.292432 0.384548 0.0782022
956 4 0.372661 0.338842 0.015963
281 4 0.474207 0.34638 0.0438345
671 4 0.475577 0.354811 0.0623405
551 4 0.0282849 0.416421 0.0126966
550 2 0.0255363 0.429223 0.0339975
552 4 0.0227878 0.442025 0.0552984
315 4 0.041711 0.445221 0.0651982
313 2 0.061028 0.460798 0.0621369
314 4 0.080345 0.476376 0.0590756
620 4 0.0265248 0.433085 0.074318
619 2 0.00781177 0.421449 0.086133
1787 4 0.101873 0.476201 0.0560399
1786 2 0.114683 0.471234 0.0769307
1691 4 0.090775 0.494698 0.0540426
243 4 0.235404 0.485804 0.0569245
625 2 0.242098 0.415839 0.0634614
627 4 0.2175 0.416839 0.059088
1440 4 0.25483 0.485574 0.0636424
246 4 0.316857 0.454308 0.0149197
244 2 0.325841 0.446859 0.0370322
1438 2 0.271362 0.484482 0.0823687
626 4 0.266696 0.41484 0.0678347
245 4 0.334825 0.439409 0.0591448
2388 4 0.390485 0.49022 0.00633925
562 2 0.431622 0.477475 0.997473
564 4 0.455823 0.471221 0.996834
2481 4 0.993639 0.0559587 0.135297
16 1 0.0088352 0.0800461 0.107525
2479 2 0.999586 0.0331058 0.143517
2480 4 0.00553187 0.0102528 0.151736
17 3 3.61827e-05 0.065902 0.0916607
654 4 0.296674 0.0590392 0.0883252
1785 4 0.328669 0.0176757 0.168662
297 4 0.388529 0.00351714 0.0813288
311 4 0.418902 0.0623036 0.155405
19 3 0.031952 0.0780482 0.107361
237 4 0.0576667 0.172928 0.0861787
477 4 0.0513273 0.188 0.0966313
476 4 0.0695958 0.234355 0.0923572
475 2 0.0604616 0.211177 0.0944942
339 4 0.0731723 0.239925 0.110936
337 2 0.093734 0.246342 0.123633
338 4 0.114296 0.252759 0.13633
363 4 0.128274 0.245924 0.14954
738 4 0.176417 0.237219 0.105464
736 2 0.199305 0.245587 0.111058
461 4 0.293059 0.219824 0.129868
354 4 0.278997 0.232193 0.1249
460 2 0.315975 0.219038 0.119896
352 2 0.259894 0.245998 0.116552
462 4 0.33889 0.218251 0.109925
254 4 0.393149 0.201435 0.130023
630 4 0.405846 0.195842 0.144403
253 2 0.369671 0.200797 0.121448
255 4 0.346192 0.200159 0.112874
628 2 0.429637 0.190154 0.139226
629 4 0.453429 0.184466 0.134049
456 4 0.116236 0.33728 0.0909152
353 4 0.240791 0.259802 0.108204
737 4 0.222193 0.253956 0.116652
755 4 0.225246 0.274614 0.112408
754 2 0.235042 0.297101 0.107556
756 4 0.244838 0.319588 0.102704
252 4 0.258744 0.31404 0.0872468
386 4 0.330616 0.327176 0.142448
741 4 0.382668 0.286411 0.119454
739 2 0.364308 0.300418 0.12904
624 4 0.385204 0.278737 0.0995281
622 2 0.398834 0.26794 0.0815608
740 4 0.345948 0.314425 0.138625
15 3 0.435332 0.322284 0.154846
526 2 0.491374 0.330067 0.134961
454 2 0.127816 0.337778 0.11307
455 4 0.139396 0.338276 0.135225
537 4 0.1347 0.346842 0.152499
250 2 0.277741 0.329647 0.0917958
251 4 0.296739 0.345254 0.0963448
609 4 0.301805 0.365098 0.0908136
387 4 0.31527 0.354219 0.103283
385 2 0.322943 0.340698 0.122866
495 4 0.398744 0.352321 0.135394
14 3 0.403631 0.342427 0.15221
493 2 0.407425 0.344724 0.11321
494 4 0.416105 0.337127 0.0910265
670 2 0.478528 0.360842 0.0864258
528 4 0.483328 0.349224 0.121053
595 2 0.465318 0.381107 0.150459
596 4 0.484866 0.390274 0.137848
672 4 0.481478 0.366873 0.110511
646 2 0.0163453 0.469938 0.125444
647 4 0.0297198 0.455317 0.140692
263 4 0.0386416 0.453521 0.158655
1788 4 0.127492 0.466267 0.0978216
1439 4 0.287894 0.483389 0.101095
637 2 0.283947 0.475781 0.143109
639 4 0.289358 0.474059 0.118759
525 4 0.341068 0.47086 0.15433
659 4 0.334239 0.457573 0.167295
688 2 0.129844 0.0669771 0.224478
690 4 0.150331 0.0731993 0.211564
689 4 0.109358 0.060755 0.237392
693 4 0.170177 0.0730763 0.20865
1700 4 0.1941 0.0171579 0.24379
1506 4 0.249294 0.000747925 0.196696
23 3 0.298846 0.0425628 0.250021
21 1 0.318728 0.0535092 0.245195
25 3 0.322747 0.0528033 0.22279
1784 4 0.320834 0.0553481 0.200601
1783 2 0.324751 0.0365119 0.184631
759 4 0.340123 0.0598531 0.212016
757 2 0.364574 0.0650443 0.211395
312 4 0.403977 0.0814357 0.19913
310 2 0.411439 0.0718696 0.177268
758 4 0.389025 0.0702354 0.210773
744 4 0.408584 0.0742153 0.218733
742 2 0.414821 0.0833171 0.241171
511 2 0.00477335 0.131632 0.239062
691 2 0.179734 0.0959859 0.205649
692 4 0.18929 0.118895 0.202648
723 4 0.198709 0.135519 0.206543
721 2 0.1862 0.150445 0.222225
285 4 0.244109 0.150818 0.21464
580 2 0.285073 0.157674 0.200041
30 3 0.328602 0.155507 0.193685
581 4 0.309763 0.1601 0.196921
706 2 0.358698 0.158663 0.236226
707 4 0.36318 0.136327 0.246531
748 2 0.0599849 0.2025 0.224272
749 4 0.0533725 0.179929 0.215786
750 4 0.0665974 0.225071 0.232759
722 4 0.173691 0.165371 0.237907
284 4 0.229296 0.195383 0.231822
283 2 0.236702 0.173101 0.223231
582 4 0.260384 0.155249 0.20316
27 3 0.318471 0.190636 0.186189
28 3 0.348541 0.17591 0.169112
708 4 0.354215 0.180999 0.225922
29 3 0.349613 0.184135 0.206202
26 1 0.336325 0.176375 0.188835
361 2 0.140011 0.253449 0.170296
362 4 0.151748 0.260975 0.191051
372 4 0.165443 0.274308 0.187509
370 2 0.184831 0.28767 0.195922
371 4 0.204218 0.301031 0.204334
279 4 0.224664 0.297169 0.209066
277 2 0.229072 0.282626 0.228922
612 4 0.215572 0.31608 0.214482
278 4 0.23348 0.268082 0.248777
13 3 0.413678 0.32672 0.185327
535 2 0.116541 0.351016 0.169172
536 4 0.0983815 0.355189 0.185846
298 2 0.146936 0.389682 0.247502
300 4 0.131814 0.40707 0.237797
610 2 0.221053 0.339531 0.20776
417 4 0.21779 0.380588 0.19853
415 2 0.240102 0.391811 0.19971
611 4 0.226534 0.362983 0.201038
301 2 0.325382 0.400107 0.237672
302 4 0.338059 0.413908 0.221118
416 4 0.262414 0.403035 0.200889
644 4 0.413046 0.401967 0.206626
11 1 0.421483 0.336628 0.165851
12 3 0.433133 0.355684 0.171354
597 4 0.44577 0.37194 0.16307
447 4 0.42689 0.407382 0.220775
645 4 0.424508 0.375368 0.165861
643 2 0.418777 0.388667 0.186243
445 2 0.440472 0.409494 0.241661
262 2 0.0431463 0.460654 0.182193
1757 4 0.0337872 0.481556 0.210823
264 4 0.0476509 0.467787 0.20573
1756 2 0.0332927 0.477099 0.235421
603 4 0.128081 0.42549 0.225696
601 2 0.115892 0.436596 0.244491
638 4 0.278537 0.477504 0.167459
660 4 0.336465 0.422727 0.203094
291 4 0.265145 0.421118 0.197156
289 2 0.276365 0.439853 0.184979
290 4 0.287585 0.458588 0.172802
767 4 0.29227 0.476927 0.183715
766 2 0.307082 0.485493 0.201947
768 4 0.321893 0.49406 0.220179
658 2 0.335352 0.44015 0.185195
1574 4 0.337156 0.487764 0.231024
673 2 0.0818781 0.0788269 0.26684
1404 4 0.116752 0.00738531 0.278074
675 4 0.0980363 0.0635784 0.25537
1403 4 0.116926 0.0523072 0.256104
1402 2 0.116839 0.0298463 0.267089
1699 2 0.196689 0.0192241 0.268573
248 4 0.202937 0.0415828 0.301396
247 2 0.188372 0.0603871 0.309106
1701 4 0.199279 0.0212904 0.293356
605 4 0.208286 0.0238454 0.312399
249 4 0.173808 0.0791915 0.316816
24 3 0.317569 0.0755549 0.25234
632 4 0.31348 0.0466924 0.318322
631 2 0.32038 0.0257366 0.330087
1495 2 0.359146 0.0173006 0.277009
22 3 0.335899 0.0429832 0.256308
1496 4 0.352175 0.0309629 0.257263
697 2 0.399831 0.0192541 0.321053
698 4 0.41945 0.0322767 0.329461
1497 4 0.366117 0.0036383 0.296756
699 4 0.380213 0.00623159 0.312645
351 4 0.425068 0.0515141 0.320416
349 2 0.424412 0.0636425 0.29856
350 4 0.423756 0.0757709 0.276705
674 4 0.0657199 0.0940755 0.278311
579 4 0.0349014 0.129039 0.260016
513 4 0.012832 0.129976 0.262673
577 2 0.0563555 0.137017 0.270078
530 4 0.0238924 0.115256 0.274253
529 2 0.0163381 0.109498 0.297382
531 4 0.00878382 0.103739 0.320511
578 4 0.0778095 0.144996 0.28014
393 4 0.0693157 0.156545 0.293957
391 2 0.071886 0.166609 0.316701
600 4 0.152132 0.150439 0.314834
405 4 0.155272 0.131287 0.304224
545 4 0.163642 0.149922 0.296934
403 2 0.169805 0.113137 0.313419
546 4 0.182667 0.168096 0.254408
544 2 0.173155 0.159009 0.275671
404 4 0.184337 0.0949864 0.322615
743 4 0.421057 0.092419 0.263608
762 4 0.437359 0.158705 0.299871
332 4 0.442447 0.140062 0.299082
333 4 0.433394 0.0942475 0.2812
331 2 0.437921 0.117155 0.290141
396 4 0.0648084 0.227332 0.253398
344 4 0.225733 0.204881 0.25101
343 2 0.230905 0.228592 0.257028
472 2 0.225258 0.208565 0.335214
473 4 0.246997 0.217634 0.326825
613 2 0.402401 0.235974 0.326836
521 4 0.473382 0.24663 0.2571
614 4 0.414741 0.224637 0.308279
761 4 0.426753 0.20719 0.305985
520 2 0.497838 0.249002 0.26173
760 2 0.432056 0.182947 0.302928
418 2 0.438606 0.236112 0.275724
419 4 0.424743 0.220553 0.289541
394 2 0.0540916 0.249556 0.257451
442 2 0.0169422 0.296046 0.265894
395 4 0.0433748 0.271779 0.261505
444 4 0.0395235 0.290635 0.256621
389 4 0.151433 0.274253 0.318497
388 2 0.128498 0.268694 0.326759
677 4 0.170378 0.332947 0.312441
401 4 0.171515 0.272671 0.314781
345 4 0.236077 0.252304 0.263045
309 4 0.241401 0.272286 0.268108
307 2 0.25014 0.2895 0.283998
308 4 0.25888 0.306714 0.299888
497 4 0.278584 0.308774 0.307498
496 2 0.303189 0.304904 0.30531
509 4 0.261918 0.318632 0.317328
498 4 0.327794 0.301034 0.303122
763 2 0.393977 0.30046 0.25509
764 4 0.371786 0.292099 0.263018
542 4 0.436653 0.305966 0.249474
420 4 0.45247 0.251671 0.261907
765 4 0.416168 0.308822 0.247163
543 4 0.466779 0.266852 0.257423
541 2 0.451716 0.286409 0.253449
299 4 0.162057 0.372295 0.257208
734 4 0.148285 0.366482 0.269805
733 2 0.155017 0.358754 0.292611
735 4 0.16175 0.351026 0.315418
676 2 0.188465 0.33086 0.329578
303 4 0.312706 0.386306 0.254225
729 4 0.315845 0.379469 0.274586
438 4 0.297581 0.390241 0.270189
436 2 0.277344 0.403174 0.277147
437 4 0.257107 0.416106 0.284104
727 2 0.334897 0.384227 0.290063
728 4 0.35395 0.388984 0.30554
753 4 0.365269 0.399152 0.318804
751 2 0.390022 0.400218 0.322174
752 4 0.414774 0.401283 0.325544
434 4 0.342674 0.415716 0.313941
446 4 0.454055 0.411605 0.262547
713 4 0.449387 0.41813 0.281133
1758 4 0.0327982 0.472641 0.260019
775 2 0.0637133 0.454962 0.328139
776 4 0.0862449 0.462563 0.320411
412 2 0.113328 0.456942 0.297436
602 4 0.103704 0.447702 0.263287
414 4 0.119575 0.44725 0.275251
413 4 0.107081 0.466634 0.319622
1545 4 0.0926539 0.482842 0.318838
1436 4 0.239389 0.424 0.283807
1435 2 0.228279 0.444763 0.2754
1437 4 0.21717 0.465525 0.266993
433 2 0.328877 0.433086 0.325477
1803 4 0.365531 0.417169 0.295636
1573 2 0.352974 0.47716 0.247226
1575 4 0.368792 0.466556 0.263429
1802 4 0.383609 0.451861 0.264485
1801 2 0.37457 0.434515 0.28006
5 3 0.340211 0.496271 0.326056
231 4 0.481075 0.483871 0.296196
712 2 0.471979 0.428684 0.282982
714 4 0.494571 0.439238 0.28483
233 4 0.0051393 0.044365 0.377403
318 4 0.0625986 0.052099 0.407309
234 4 0.0508916 0.0574374 0.392783
232 2 0.0280155 0.0509012 0.385093
1464 4 0.141071 0.00776016 0.356176
368 4 0.0953562 0.0869691 0.389616
604 2 0.227479 0.0185181 0.327512
606 4 0.246672 0.0131908 0.342626
682 2 0.283159 0.0508408 0.403462
683 4 0.281709 0.0385735 0.381722
633 4 0.32728 0.00478086 0.341852
425 4 0.400267 0.0432793 0.404005
258 4 0.405538 0.0568138 0.387606
256 2 0.409609 0.0540588 0.363091
257 4 0.41368 0.0513038 0.338575
398 4 0.0166769 0.104147 0.340645
2756 4 0.995712 0.103034 0.337221
397 2 0.037843 0.114682 0.348781
399 4 0.0590092 0.125216 0.356917
732 4 0.0764447 0.125656 0.364858
731 4 0.109285 0.16335 0.363676
730 2 0.092865 0.144503 0.364267
599 4 0.128287 0.155326 0.358518
598 2 0.140209 0.152882 0.336676
685 2 0.142813 0.160387 0.389888
687 4 0.159141 0.150152 0.40582
367 2 0.0983482 0.0977456 0.411979
1151 4 0.176112 0.137484 0.409738
467 4 0.328785 0.15916 0.387506
516 4 0.39403 0.116416 0.406388
575 4 0.392218 0.132868 0.396802
574 2 0.395796 0.157613 0.396671
515 4 0.425517 0.0797816 0.393458
514 2 0.409774 0.0980989 0.399923
452 4 0.486081 0.0786449 0.374435
453 4 0.438216 0.0908955 0.382153
451 2 0.462149 0.0847702 0.378294
392 4 0.0744563 0.176673 0.339445
2653 2 0.0632954 0.191793 0.372961
2655 4 0.0498306 0.208238 0.386131
2654 4 0.0767603 0.175349 0.359791
686 4 0.126484 0.170621 0.373956
275 4 0.151172 0.227308 0.360614
274 2 0.175123 0.222722 0.355094
474 4 0.20352 0.199496 0.343603
276 4 0.199075 0.218136 0.349575
409 2 0.252103 0.209974 0.392112
411 4 0.233695 0.226864 0.391081
466 2 0.308975 0.174397 0.388266
468 4 0.289166 0.189635 0.389027
410 4 0.27051 0.193083 0.393143
615 4 0.390062 0.247312 0.345394
576 4 0.399374 0.182359 0.396539
716 4 0.376495 0.257844 0.355642
269 4 0.455652 0.227892 0.3627
306 4 0.447501 0.214951 0.374407
304 2 0.43355 0.197174 0.385108
305 4 0.419598 0.179397 0.395809
268 2 0.454767 0.248575 0.376723
2814 4 0.00801879 0.332743 0.392532
2801 4 0.00169636 0.328597 0.412345
390 4 0.105563 0.263136 0.335021
618 4 0.103338 0.267745 0.403624
617 4 0.109009 0.268415 0.353944
616 2 0.106174 0.26808 0.378784
400 2 0.182666 0.27578 0.336942
375 4 0.188385 0.293782 0.370316
402 4 0.193818 0.278889 0.359104
373 2 0.209939 0.305741 0.37451
374 4 0.231492 0.317701 0.378705
510 4 0.243237 0.30978 0.362862
508 2 0.252577 0.314206 0.340095
378 4 0.248055 0.305089 0.383301
489 4 0.292251 0.274236 0.404321
376 2 0.27145 0.299336 0.38999
377 4 0.294846 0.293584 0.396679
487 2 0.316306 0.269299 0.409028
267 4 0.35334 0.247272 0.415912
715 2 0.367165 0.260158 0.378724
717 4 0.357836 0.262473 0.401806
488 4 0.340362 0.264362 0.413734
239 4 0.400506 0.313603 0.411997
270 4 0.453882 0.269257 0.390745
2924 4 0.441048 0.268135 0.405908
2923 2 0.430422 0.290768 0.405752
2925 4 0.419797 0.313401 0.405596
408 4 0.035121 0.336351 0.350516
548 4 0.0180901 0.397778 0.353053
406 2 0.034054 0.360862 0.355335
407 4 0.0329869 0.385374 0.360154
678 4 0.206552 0.328772 0.346715
504 4 0.181674 0.397599 0.404843
502 2 0.204245 0.395529 0.394286
503 4 0.226815 0.393459 0.383728
650 4 0.245494 0.39434 0.389423
649 2 0.260717 0.39221 0.409144
561 4 0.432384 0.411553 0.329868
559 2 0.431622 0.415054 0.354614
777 4 0.0411816 0.447361 0.335867
547 2 0.0316216 0.418803 0.353176
549 4 0.0451532 0.439828 0.3533
773 4 0.214216 0.472138 0.412246
435 4 0.315079 0.450456 0.337013
2 3 0.31747 0.494254 0.35558
4 3 0.331454 0.462703 0.340691
669 4 0.381809 0.409533 0.403027
1 1 0.335884 0.484995 0.345364
667 2 0.406215 0.414848 0.401885
3 3 0.354039 0.486623 0.359722
560 4 0.43086 0.418554 0.379359
588 4 0.448581 0.414898 0.39051
668 4 0.43062 0.420162 0.400743
3989 4 0.486313 0.491516 0.38963
586 2 0.464021 0.419051 0.409734
1127 4 0.0150521 0.0136239 0.460935
316 2 0.0812551 0.0411876 0.419881
317 4 0.0999115 0.0302761 0.432453
1781 4 0.107733 0.015636 0.446152
428 4 0.0971458 0.00959198 0.42777
1780 2 0.120846 0.0263223 0.464564
1782 4 0.13396 0.0370086 0.482976
341 4 0.150764 0.0443476 0.471946
2430 4 0.145911 0.0525914 0.490969
340 2 0.160058 0.0651199 0.461586
1180 2 0.274854 0.0485713 0.465353
1181 4 0.275966 0.0368565 0.487415
1182 4 0.273742 0.0602861 0.443292
684 4 0.284608 0.0631081 0.425201
963 4 0.270606 0.0158275 0.48793
320 4 0.275374 0.0797139 0.434796
430 2 0.314235 0.0148024 0.489727
432 4 0.290456 0.0219648 0.49263
431 4 0.338014 0.00763996 0.486824
426 4 0.389995 0.00604703 0.435769
424 2 0.395131 0.0246632 0.419887
1216 2 0.408906 0.0196153 0.474123
1217 4 0.403555 0.00727333 0.453046
1218 4 0.414256 0.0319573 0.4952
457 2 0.00127094 0.110645 0.452503
719 4 0.0329453 0.104174 0.476246
459 4 0.0223557 0.0993813 0.459833
718 2 0.043315 0.109815 0.498287
369 4 0.10134 0.108522 0.434341
939 4 0.0946585 0.125679 0.440233
937 2 0.11088 0.140549 0.452105
938 4 0.127101 0.155418 0.463978
342 4 0.169352 0.0858921 0.451227
1152 4 0.175902 0.0951391 0.436339
1150 2 0.176007 0.116311 0.423039
321 4 0.279825 0.129477 0.436916
319 2 0.277599 0.104596 0.435856
899 4 0.271885 0.144691 0.445904
1034 4 0.130557 0.172485 0.454309
261 4 0.10539 0.228042 0.456785
1035 4 0.118949 0.218244 0.470805
1033 2 0.124753 0.195365 0.462557
695 4 0.10213 0.229427 0.477809
259 2 0.0994024 0.244957 0.439371
898 2 0.275157 0.168423 0.438745
900 4 0.278429 0.192156 0.431587
813 4 0.36143 0.221004 0.46681
266 4 0.372545 0.218649 0.452143
265 2 0.362942 0.232961 0.434027
811 2 0.369468 0.229852 0.488771
2656 2 0.486735 0.193951 0.452348
2657 4 0.463028 0.198874 0.446109
2845 2 0.00978392 0.292841 0.486032
2847 4 0.0167773 0.291484 0.462065
2800 2 0.00102009 0.315207 0.43345
347 4 0.101723 0.281446 0.419739
260 4 0.0934148 0.261871 0.421958
346 2 0.113763 0.298758 0.433174
348 4 0.125803 0.31607 0.44661
10 3 0.126851 0.325809 0.464928
9 3 0.132271 0.329379 0.502017
8 3 0.16196 0.328204 0.478319
238 2 0.388526 0.33202 0.423933
2456 4 0.476867 0.314157 0.477934
584 4 0.458982 0.322689 0.476078
583 2 0.437966 0.309927 0.48062
585 4 0.41695 0.297165 0.485162
680 4 0.0303168 0.397747 0.434391
679 2 0.0439847 0.408549 0.452327
6 1 0.140008 0.335248 0.480943
7 3 0.139244 0.358143 0.478851
711 4 0.143454 0.371737 0.449392
709 2 0.158118 0.386757 0.435808
710 4 0.172782 0.401778 0.422224
651 4 0.275939 0.390081 0.428865
240 4 0.376546 0.350437 0.43587
335 4 0.363589 0.365042 0.443685
334 2 0.372113 0.386521 0.434137
336 4 0.380637 0.408 0.424588
681 4 0.0576527 0.419351 0.470262
383 4 0.0652789 0.433506 0.456475
540 4 0.0325311 0.47395 0.486277
382 2 0.0855053 0.446765 0.450128
568 2 0.114944 0.498044 0.440004
384 4 0.105732 0.460023 0.44378
569 4 0.11241 0.476635 0.452669
634 2 0.179961 0.468507 0.488452
774 4 0.184434 0.460907 0.450815
772 2 0.199325 0.466523 0.431531
635 4 0.175257 0.474769 0.464706
663 4 0.491565 0.433632 0.442991
662 4 0.46345 0.457707 0.476617
1909 2 0.464378 0.496121 0.487612
661 2 0.477507 0.44567 0.459804
1910 4 0.453779 0.475654 0.477919
587 4 0.47946 0.423204 0.428958
2428 2 0.152665 0.0542848 0.514983
2429 4 0.159418 0.0559782 0.538998
1030 2 0.230687 0.0519973 0.566224
1032 4 0.238987 0.0607801 0.544334
1091 4 0.383053 0.00122401 0.586951
720 4 0.0536846 0.115455 0.520329
810 4 0.455674 0.0940283 0.556997
808 2 0.474642 0.0960747 0.573158
809 4 0.493611 0.0981212 0.58932
471 4 0.00787521 0.228234 0.502443
327 4 0.0784041 0.246818 0.537211
879 4 0.135669 0.219555 0.565086
1272 4 0.144462 0.223991 0.583565
877 2 0.11743 0.231633 0.552977
878 4 0.0991904 0.243711 0.540868
696 4 0.0890339 0.231953 0.526005
694 2 0.095582 0.23069 0.501907
857 4 0.203213 0.204767 0.52168
856 2 0.197847 0.22431 0.536324
858 4 0.192481 0.243853 0.550968
952 2 0.406631 0.22408 0.543192
953 4 0.388875 0.233101 0.528074
812 4 0.377507 0.2387 0.510732
873 4 0.394397 0.251093 0.516752
954 4 0.424387 0.215059 0.558309
982 2 0.0260371 0.305734 0.542424
984 4 0.047268 0.307646 0.555492
326 4 0.059731 0.291722 0.548858
1136 4 0.065161 0.312097 0.544353
325 2 0.0690676 0.26927 0.543035
1135 2 0.0701577 0.331493 0.55932
2846 4 0.00279057 0.294198 0.509999
1258 2 0.142273 0.299526 0.530048
1260 4 0.141609 0.285768 0.550915
1259 4 0.142937 0.313285 0.509181
1238 4 0.330366 0.276631 0.560051
1237 2 0.312389 0.293654 0.56355
804 4 0.293526 0.324978 0.554363
1239 4 0.294413 0.310677 0.56705
792 4 0.343491 0.260525 0.564495
790 2 0.360041 0.255483 0.546444
791 4 0.376592 0.250441 0.528393
871 2 0.400777 0.274071 0.509236
872 4 0.407157 0.297049 0.50172
936 4 0.027593 0.396815 0.550446
3353 4 0.0298502 0.405614 0.533296
3352 2 0.0135177 0.394966 0.517643
1137 4 0.0751545 0.350889 0.574287
1160 4 0.119041 0.396937 0.528361
1191 4 0.200883 0.381867 0.572919
1189 2 0.225334 0.377302 0.575466
896 4 0.190888 0.394855 0.584049
1190 4 0.249785 0.372738 0.578013
803 4 0.263235 0.359127 0.574784
802 2 0.278381 0.342052 0.564574
881 4 0.361618 0.42036 0.58043
925 2 0.461107 0.380559 0.518093
927 4 0.473537 0.391867 0.536608
926 4 0.448676 0.369251 0.499579
1001 4 0.481635 0.402477 0.551107
1000 2 0.490618 0.412278 0.572284
934 2 0.0360481 0.414666 0.565777
3430 2 0.0350692 0.475418 0.569202
539 4 0.0386059 0.452617 0.531095
538 2 0.0355685 0.463284 0.508686
3431 4 0.0299927 0.497379 0.558379
3432 4 0.0401456 0.453457 0.580024
1161 4 0.10294 0.439198 0.549702
1159 2 0.110991 0.418068 0.539032
1395 4 0.186501 0.479921 0.519599
636 4 0.184665 0.462246 0.512197
1393 2 0.198433 0.499604 0.529365
1454 4 0.345544 0.424803 0.567772
1453 2 0.349975 0.434623 0.545209
1455 4 0.354406 0.444442 0.522645
1183 2 0.0223764 0.049736 0.662059
1184 4 0.00956408 0.029233 0.655683
1185 4 0.0351887 0.0702389 0.668435
1892 4 0.997715 0.0143033 0.645463
1059 4 0.154052 0.0749062 0.610404
1284 4 0.163924 0.0598327 0.602727
1283 4 0.203822 0.0327297 0.589525
2133 4 0.238474 0.025481 0.646786
1282 2 0.183873 0.0462812 0.596126
2132 4 0.220813 0.0253386 0.600002
1031 4 0.222386 0.0432145 0.588113
2131 2 0.229643 0.0254098 0.623394
824 4 0.23717 0.0208868 0.667328
2281 2 0.334276 0.0123863 0.645494
2283 4 0.337987 0.0281623 0.664534
1062 4 0.483968 0.0294658 0.598885
1060 2 0.481918 0.00519048 0.593256
1083 4 0.011994 0.121659 0.626305
1081 2 0.0189817 0.104542 0.643139
1082 4 0.0259694 0.087425 0.659972
943 2 0.0700504 0.0951851 0.666044
944 4 0.0473018 0.086094 0.661041
1057 2 0.162912 0.097124 0.617688
1058 4 0.171771 0.119342 0.624972
1155 4 0.187712 0.133812 0.627194
1153 2 0.185211 0.157659 0.620105
909 4 0.186011 0.116633 0.640656
907 2 0.200856 0.107336 0.658499
886 2 0.328969 0.161966 0.634711
1193 4 0.395684 0.139675 0.59492
887 4 0.345599 0.144137 0.640259
1194 4 0.365553 0.139127 0.634826
1192 2 0.380619 0.139401 0.614873
830 4 0.358261 0.133134 0.653984
1026 4 0.452678 0.154346 0.64854
1143 4 0.459731 0.1404 0.662937
1024 2 0.451631 0.158114 0.623844
1025 4 0.450583 0.161882 0.599148
852 4 0.0740038 0.234297 0.658384
1270 2 0.1637 0.21327 0.595402
1154 4 0.182709 0.181505 0.613016
1271 4 0.182939 0.202548 0.607239
1221 4 0.201016 0.193237 0.615257
1219 2 0.224207 0.201859 0.61886
1220 4 0.247399 0.210481 0.622463
798 4 0.247515 0.230385 0.630661
888 4 0.312339 0.179794 0.629164
1212 4 0.265849 0.221196 0.62515
1211 4 0.310355 0.198508 0.622854
1210 2 0.288102 0.209852 0.624002
796 2 0.254826 0.250986 0.642799
905 4 0.422426 0.213805 0.578853
904 2 0.438669 0.195018 0.58175
906 4 0.454912 0.176231 0.584646
1245 4 0.060943 0.251638 0.656555
1209 4 0.0780503 0.249164 0.643707
1243 2 0.0421871 0.267842 0.653263
1244 4 0.0234312 0.284045 0.649971
946 2 0.156961 0.282767 0.658553
1207 2 0.0965565 0.2585 0.65769
947 4 0.133809 0.27475 0.663542
948 4 0.180113 0.290785 0.653564
797 4 0.262136 0.271588 0.654937
929 4 0.394048 0.329959 0.622507
895 2 0.175486 0.413222 0.591162
880 2 0.362188 0.405406 0.60046
882 4 0.362757 0.390451 0.620491
930 4 0.365989 0.371347 0.621835
928 2 0.380019 0.350653 0.622171
1099 2 0.431449 0.394008 0.662742
1100 4 0.447186 0.411035 0.653382
1205 4 0.468784 0.415623 0.656832
935 4 0.0445032 0.432516 0.581108
3264 4 0.0275114 0.440436 0.591367
1041 4 0.0473175 0.445303 0.598667
1039 2 0.0674331 0.433079 0.6071
3262 2 0.0125154 0.443007 0.611209
3238 2 0.00670044 0.471632 0.661598
897 4 0.160084 0.43159 0.598276
992 4 0.146992 0.446727 0.604722
1040 4 0.0875486 0.420854 0.615533
993 4 0.100515 0.435915 0.619678
991 2 0.123754 0.441321 0.6122
1186 2 0.219862 0.497549 0.654636
2154 4 0.303299 0.498935 0.599015
1173 4 0.287687 0.488234 0.592018
1172 4 0.28589 0.455648 0.629908
1171 2 0.286789 0.471941 0.610963
891 4 0.293092 0.459393 0.649466
3182 4 0.493216 0.442404 0.59833
1206 4 0.488807 0.426759 0.612383
1204 2 0.478796 0.421191 0.634607
1002 4 0.499601 0.422079 0.59346
3181 2 0.485433 0.466165 0.598232
1269 4 0.453268 0.429041 0.663678
3183 4 0.477651 0.489927 0.598134
2049 4 0.119013 0.00768132 0.745042
823 2 0.216604 0.00998853 0.676462
2400 4 0.332869 0.0483331 0.713859
2398 2 0.338876 0.0503505 0.738046
43 3 0.457621 0.0626035 0.7286
846 4 0.444737 0.062411 0.744212
45 3 0.494137 0.0683548 0.721446
41 1 0.473221 0.0771397 0.719448
44 3 0.468336 0.0809477 0.697086
1076 4 0.0353545 0.0890572 0.679033
1075 2 0.025377 0.101824 0.698076
1077 4 0.0153995 0.114591 0.717119
864 4 0.0251189 0.103192 0.729207
945 4 0.0927989 0.104276 0.671048
908 4 0.2157 0.0980381 0.676342
1227 4 0.222357 0.113959 0.685334
1226 4 0.222999 0.101315 0.733712
1225 2 0.222678 0.107637 0.709523
1148 4 0.212417 0.100795 0.75248
1130 4 0.211263 0.118429 0.740336
1129 2 0.208388 0.140699 0.751334
829 2 0.363374 0.111394 0.665226
831 4 0.368487 0.0896535 0.676469
1263 4 0.446436 0.156766 0.66895
42 3 0.47229 0.09714 0.730774
1142 4 0.462322 0.0948063 0.683314
1141 2 0.461027 0.117603 0.673125
3426 4 0.497374 0.154245 0.728868
3270 4 0.491346 0.165055 0.74613
1261 2 0.44317 0.167286 0.691396
1179 4 0.00678524 0.190123 0.722615
850 2 0.068293 0.214233 0.672168
1177 2 0.0301993 0.190733 0.713864
1178 4 0.0536134 0.191343 0.705113
851 4 0.0625823 0.194168 0.685952
1107 4 0.066505 0.17621 0.697096
1105 2 0.0850745 0.173392 0.713601
1106 4 0.103644 0.170574 0.730106
1073 4 0.114965 0.184756 0.738219
1299 4 0.299887 0.213526 0.730377
1298 4 0.256632 0.232661 0.746613
1297 2 0.278259 0.223094 0.738495
1086 4 0.318003 0.208714 0.735684
1084 2 0.33848 0.195159 0.74039
1085 4 0.358957 0.181605 0.745095
1262 4 0.439903 0.177806 0.713843
1145 4 0.476666 0.219433 0.723997
1144 2 0.479772 0.194678 0.725644
1146 4 0.482878 0.169922 0.727291
1208 4 0.115063 0.267837 0.671674
820 2 0.121427 0.281507 0.707872
822 4 0.129498 0.276816 0.684676
821 4 0.113356 0.286197 0.731067
1242 4 0.110726 0.304007 0.739311
1065 4 0.230279 0.324946 0.690037
1098 4 0.325555 0.298663 0.73188
3123 4 0.478827 0.26574 0.708658
892 2 0.0475654 0.394967 0.734651
893 4 0.0515905 0.370794 0.72969
942 4 0.06863 0.358004 0.730058
815 4 0.053123 0.354603 0.744275
940 2 0.0917827 0.350185 0.735348
941 4 0.114935 0.342366 0.740639
1067 4 0.1354 0.343135 0.741528
1066 2 0.145516 0.35069 0.719946
1068 4 0.155631 0.358244 0.698364
1139 4 0.2209 0.403178 0.695236
1029 4 0.203703 0.39869 0.703238
1028 4 0.175229 0.358218 0.696027
1027 2 0.189466 0.378454 0.699632
1063 2 0.247533 0.337417 0.70315
1064 4 0.264787 0.349887 0.716264
806 4 0.279161 0.355157 0.73093
805 2 0.300622 0.367985 0.73073
807 4 0.322084 0.380813 0.730531
1236 4 0.258832 0.352091 0.736793
1101 4 0.415713 0.376981 0.672102
894 4 0.0435402 0.419141 0.739612
2172 4 0.0423716 0.482682 0.684619
1279 2 0.0301846 0.450415 0.708681
3276 4 0.0261337 0.4312 0.744931
1983 4 0.0446756 0.440615 0.740334
1280 4 0.0331954 0.431296 0.72451
1281 4 0.0271737 0.469534 0.692851
3240 4 0.0224334 0.48362 0.676893
2016 4 0.169429 0.498632 0.736612
1138 2 0.239639 0.416708 0.685698
1174 2 0.201249 0.501797 0.707837
1188 4 0.220796 0.484445 0.67591
1175 4 0.215969 0.50031 0.687681
889 2 0.291568 0.477174 0.666979
1140 4 0.258378 0.430237 0.67616
890 4 0.290045 0.494955 0.684491
1088 4 0.272362 0.499442 0.695562
2169 4 0.474679 0.484859 0.689236
1268 4 0.463517 0.468269 0.692949
1267 2 0.458393 0.448655 0.678313
1195 2 0.0801437 0.0130197 0.822526
1196 4 0.0783106 0.0328963 0.807468
911 4 0.0912272 0.050635 0.806111
1203 4 0.0982754 0.0315384 0.800156
1201 2 0.111257 0.0264262 0.779407
1202 4 0.12424 0.0213139 0.758658
910 2 0.0928473 0.0718457 0.819251
1149 4 0.235442 0.0620693 0.77418
1049 4 0.35224 0.0629316 0.779339
1048 2 0.34241 0.0761094 0.798177
2399 4 0.344882 0.0523679 0.762234
1112 4 0.361931 0.0446129 0.772635
1111 2 0.383954 0.0357284 0.780461
1113 4 0.405977 0.0268439 0.788286
2321 4 0.43901 0.000941642 0.784542
845 4 0.422702 0.0390055 0.782517
844 2 0.43372 0.0507082 0.763364
980 4 0.425358 0.0179871 0.78531
979 2 0.430723 0.0192511 0.809698
863 4 0.00575115 0.117268 0.77311
862 2 0.015435 0.11023 0.751159
1214 4 0.0748483 0.147168 0.798569
1213 2 0.0500233 0.149505 0.796717
33 3 0.0758729 0.137142 0.815253
1215 4 0.0251982 0.151843 0.794864
3038 4 0.0169609 0.160699 0.77933
32 3 0.101264 0.113836 0.830247