ITEM: TIMESTEP
2400000
ITEM: NUMBER OF ATOMS
4590
ITEM: BOX BOUNDS pp pp pp
-9.9985700000000008e+00 9.9985700000000008e+00
-9.9985700000000008e+00 9.9985700000000008e+00
-9.9985700000000008e+00 9.9985700000000008e+00
ITEM: ATOMS id type xs ys zs
1666 2 0.0685177 0.0546939 0.0454813
1667 4 0.0769888 0.0755956 0.034686
1668 4 0.0600466 0.0337922 0.0562766
534 4 0.14704 0.0580948 0.00524828
423 4 0.161988 0.070823 0.00486485
532 2 0.164006 0.0397292 0.00511377
1475 4 0.200204 0.042733 0.0480645
1474 2 0.186592 0.0246508 0.0586917
1476 4 0.17298 0.00656874 0.0693189
490 2 0.301394 0.0713664 0.0130135
653 4 0.284719 0.0786236 0.043517
652 2 0.286312 0.0687974 0.0664536
491 4 0.289825 0.0896241 0.0255836
591 4 0.0596673 0.0883668 0.035287
702 4 0.0744111 0.0892016 0.0508981
589 2 0.0385857 0.101789 0.0345168
590 4 0.0175041 0.115211 0.0337466
3232 2 0.0137929 0.140571 0.997211
3233 4 0.0112977 0.122875 0.014698
3134 4 0.0422814 0.0833376 0.00351151
421 2 0.156552 0.0931409 0.0147412
422 4 0.151116 0.115459 0.0246176
700 2 0.0903858 0.107113 0.0579094
701 4 0.106361 0.125025 0.0649207
236 4 0.0942983 0.135834 0.0790361
449 4 0.115505 0.134336 0.0817863
448 2 0.137308 0.123949 0.0882621
1133 4 0.1783 0.15535 0.00632345
565 2 0.276427 0.119357 0.0322414
566 4 0.279951 0.143588 0.0271804
567 4 0.272904 0.0951261 0.0373023
359 4 0.274803 0.157698 0.0127787
358 2 0.252781 0.161354 0.00151586
664 2 0.345807 0.160409 0.00803497
556 2 0.381029 0.163586 0.0572234
987 4 0.455715 0.14128 0.0297418
985 2 0.456637 0.134025 0.00583182
913 2 0.143968 0.24417 0.00340137
357 4 0.264421 0.233362 0.999955
558 4 0.369147 0.178516 0.0410654
666 4 0.363144 0.17351 0.0204025
571 2 0.364434 0.213649 0.0313738
572 4 0.373818 0.191553 0.0243792
1071 4 0.366926 0.248569 0.0302949
573 4 0.35505 0.235744 0.0383683
623 4 0.401403 0.236285 0.07164
324 4 0.419631 0.241105 0.0643641
771 4 0.48687 0.254955 0.0514991
518 4 0.483287 0.237295 0.0637198
322 2 0.443975 0.246749 0.0635284
2835 4 0.985259 0.24284 0.0648422
914 4 0.153863 0.247453 0.0261277
293 4 0.135568 0.321692 0.0511965
292 2 0.118417 0.328298 0.0681489
507 4 0.152696 0.309619 0.055497
288 4 0.154881 0.330519 0.0496797
505 2 0.153548 0.285858 0.0477588
506 4 0.1544 0.262097 0.0400206
756 4 0.246675 0.308477 0.0880284
955 2 0.392775 0.327971 0.00668281
1069 2 0.372894 0.267785 0.0154524
957 4 0.385904 0.30404 0.00898565
1070 4 0.378862 0.287001 0.000609938
323 4 0.468319 0.252392 0.0626928
282 4 0.445491 0.325072 0.0294491
1170 4 0.0112227 0.354314 0.0137845
1168 2 0.0133149 0.379225 0.0132937
1169 4 0.0154071 0.404136 0.0128028
286 2 0.177553 0.340543 0.0529469
287 4 0.200225 0.350567 0.0562141
481 2 0.229477 0.338109 0.0677735
483 4 0.218403 0.347143 0.0472571
608 4 0.280932 0.415037 0.0782763
956 4 0.399645 0.351901 0.00437997
1047 4 0.416407 0.390692 0.0081356
280 2 0.448076 0.33733 0.0510877
281 4 0.450662 0.349588 0.0727263
671 4 0.463563 0.364863 0.0754549
551 4 0.0134358 0.424647 0.00739641
550 2 0.0126506 0.43138 0.0314634
552 4 0.0118654 0.438114 0.0555303
315 4 0.0273993 0.451314 0.0615572
313 2 0.0485851 0.464283 0.0644117
620 4 0.00689552 0.456078 0.0656891
314 4 0.0697709 0.477252 0.0672662
1691 4 0.083189 0.493949 0.0595833
1787 4 0.0908189 0.473569 0.0617903
1786 2 0.105371 0.466734 0.0809392
1788 4 0.119924 0.459898 0.100088
242 4 0.216221 0.496943 0.0402673
241 2 0.239287 0.49246 0.0488131
1440 4 0.275951 0.486963 0.0740429
626 4 0.275238 0.421936 0.0604391
243 4 0.262354 0.487978 0.0573588
627 4 0.276258 0.471881 0.0581718
625 2 0.275748 0.446909 0.0593055
244 2 0.323244 0.461563 0.0368729
245 4 0.312368 0.446842 0.0539081
272 4 0.336694 0.48179 0.998109
246 4 0.334119 0.476284 0.0198376
2386 2 0.396564 0.5027 0.00878495
2388 4 0.420798 0.498079 0.00471647
854 4 0.487026 0.462955 0.998525
19 3 0.031613 0.0797827 0.0990779
2481 4 0.0190618 0.0503489 0.136981
16 1 0.0138426 0.0777539 0.11386
2479 2 0.0212899 0.0311094 0.152794
18 3 0.0112433 0.0555636 0.120124
2480 4 0.023518 0.0118698 0.168607
654 4 0.287905 0.0589712 0.0893901
1785 4 0.320306 0.0332546 0.165599
297 4 0.412527 0.0282818 0.0799699
295 2 0.431673 0.0398684 0.091121
296 4 0.45082 0.0514549 0.102272
20 3 0.0175374 0.0906429 0.132268
235 2 0.0819567 0.156545 0.0856636
450 4 0.159111 0.113563 0.0947379
557 4 0.392911 0.148655 0.0733814
237 4 0.0696152 0.177256 0.0922912
477 4 0.0517418 0.184268 0.0889805
476 4 0.0731733 0.22905 0.0829836
475 2 0.0624576 0.206659 0.0859821
339 4 0.0885323 0.230953 0.0965888
337 2 0.104782 0.241445 0.112433
338 4 0.121032 0.251936 0.128277
363 4 0.128323 0.248178 0.146893
461 4 0.292577 0.213683 0.131668
354 4 0.273883 0.217142 0.126203
460 2 0.316818 0.208223 0.134452
352 2 0.257974 0.236367 0.124639
462 4 0.341059 0.202763 0.137235
254 4 0.403486 0.186191 0.124081
253 2 0.381187 0.196866 0.127825
255 4 0.358889 0.20754 0.13157
630 4 0.413315 0.201104 0.114464
629 4 0.461821 0.197408 0.126049
628 2 0.437568 0.199256 0.120257
517 2 0.496559 0.241453 0.0844983
361 2 0.133676 0.265473 0.164138
294 4 0.101266 0.334905 0.0851012
482 4 0.240552 0.329075 0.0882898
738 4 0.182346 0.248359 0.116243
353 4 0.242064 0.255593 0.123075
736 2 0.204798 0.259295 0.117471
737 4 0.22725 0.27023 0.1187
755 4 0.246052 0.276405 0.126391
754 2 0.246363 0.292441 0.10721
252 4 0.261818 0.323666 0.0835041
741 4 0.380703 0.288926 0.106205
739 2 0.361091 0.302493 0.113722
624 4 0.378073 0.268262 0.1022
622 2 0.389738 0.252274 0.0869198
740 4 0.341479 0.316059 0.121238
526 2 0.491211 0.318245 0.138281
527 4 0.488939 0.300923 0.156169
528 4 0.493482 0.335566 0.120394
456 4 0.108371 0.335444 0.103703
454 2 0.121329 0.350126 0.119249
455 4 0.134288 0.364808 0.134796
537 4 0.133986 0.369684 0.153684
607 2 0.288848 0.393259 0.0876681
250 2 0.279189 0.337531 0.0949577
251 4 0.296561 0.351395 0.106411
609 4 0.296764 0.37148 0.0970598
387 4 0.306822 0.36803 0.115819
385 2 0.324751 0.351663 0.121806
386 4 0.34268 0.335295 0.127792
495 4 0.410614 0.335181 0.127025
14 3 0.406189 0.348679 0.142489
12 3 0.419293 0.369568 0.170853
11 1 0.412879 0.34835 0.164704
493 2 0.423807 0.338837 0.106102
494 4 0.437 0.342492 0.0851794
670 2 0.479045 0.359815 0.0944287
595 2 0.453582 0.386196 0.144249
596 4 0.470749 0.396671 0.129392
672 4 0.494527 0.354767 0.113403
597 4 0.436414 0.37572 0.159105
2652 4 0.491614 0.396886 0.126958
15 3 0.430485 0.334141 0.167308
646 2 0.020405 0.475601 0.122955
647 4 0.0131748 0.477436 0.14682
263 4 0.0156466 0.462955 0.160301
648 4 0.0276351 0.473766 0.0990898
1438 2 0.271526 0.492188 0.0980907
1439 4 0.267101 0.497414 0.122139
637 2 0.273079 0.475613 0.152711
639 4 0.271382 0.479314 0.128041
525 4 0.32879 0.463963 0.163776
659 4 0.319509 0.446034 0.16203
524 4 0.347725 0.49742 0.131795
523 2 0.338257 0.480691 0.147786
688 2 0.133035 0.0701661 0.228797
690 4 0.141701 0.0739514 0.205651
693 4 0.153223 0.0809423 0.192038
1506 4 0.300831 0.000403045 0.211431
21 1 0.324993 0.0589535 0.24323
1783 2 0.329483 0.043526 0.186467
23 3 0.306661 0.0489616 0.233106
25 3 0.340708 0.0640484 0.227555
1784 4 0.338661 0.0537973 0.207334
759 4 0.347754 0.0732378 0.207549
757 2 0.371878 0.0795022 0.209542
312 4 0.415619 0.0763867 0.211027
758 4 0.396002 0.0857666 0.211534
311 4 0.465134 0.0815863 0.206344
310 2 0.440376 0.0789865 0.208685
1749 4 0.49586 0.0216496 0.226836
511 2 0.00756719 0.148728 0.231384
691 2 0.157106 0.105629 0.191211
692 4 0.16099 0.130315 0.190385
723 4 0.175318 0.13743 0.204114
721 2 0.166994 0.150274 0.223885
580 2 0.3031 0.165581 0.204351
582 4 0.279751 0.169588 0.212348
581 4 0.326449 0.161575 0.196355
744 4 0.403439 0.0773809 0.229761
706 2 0.370385 0.159205 0.228849
707 4 0.380085 0.141194 0.243225
748 2 0.0557174 0.195956 0.21756
749 4 0.0639687 0.17589 0.205133
750 4 0.0474662 0.216023 0.229987
396 4 0.0373387 0.215239 0.247057
722 4 0.15867 0.163118 0.243657
284 4 0.237313 0.19728 0.247183
344 4 0.223283 0.210856 0.252138
285 4 0.259238 0.166679 0.214265
283 2 0.248275 0.181979 0.230724
30 3 0.332964 0.178339 0.188141
708 4 0.360685 0.177217 0.214472
27 3 0.358672 0.199819 0.17169
28 3 0.356627 0.163308 0.163005
29 3 0.369302 0.174264 0.197118
26 1 0.354252 0.178856 0.180065
543 4 0.453904 0.24932 0.245831
362 4 0.139029 0.282768 0.181384
372 4 0.15076 0.288831 0.197081
370 2 0.172096 0.295834 0.208077
371 4 0.193432 0.302836 0.219073
279 4 0.212405 0.312343 0.22252
277 2 0.219821 0.296767 0.240619
612 4 0.201181 0.317122 0.20493
610 2 0.214612 0.332104 0.190088
765 4 0.421592 0.298249 0.255106
542 4 0.431759 0.293606 0.238827
541 2 0.442832 0.271463 0.242329
535 2 0.119352 0.362837 0.172766
536 4 0.104718 0.35599 0.191849
298 2 0.137745 0.385893 0.245203
300 4 0.128994 0.401592 0.227821
417 4 0.225504 0.366678 0.17823
415 2 0.231806 0.386152 0.19259
611 4 0.228044 0.347087 0.175246
416 4 0.238109 0.405626 0.206951
301 2 0.328094 0.384178 0.223913
303 4 0.319662 0.372103 0.244119
302 4 0.336526 0.396253 0.203707
660 4 0.341989 0.409879 0.188263
13 3 0.39523 0.341644 0.178194
645 4 0.43365 0.385294 0.178892
644 4 0.425834 0.411595 0.2207
447 4 0.41956 0.408282 0.24004
643 2 0.429742 0.398444 0.199796
262 2 0.0345121 0.458761 0.176165
1757 4 0.0624569 0.459488 0.209758
264 4 0.0533776 0.454567 0.19203
1756 2 0.0487852 0.460875 0.230647
603 4 0.12389 0.420722 0.229978
601 2 0.123495 0.439756 0.246187
291 4 0.25334 0.418493 0.205863
638 4 0.274777 0.471913 0.17738
289 2 0.265623 0.439608 0.200528
290 4 0.277907 0.460722 0.195192
767 4 0.294009 0.473071 0.188682
766 2 0.31542 0.476454 0.201144
658 2 0.330749 0.427957 0.175147
768 4 0.336831 0.479838 0.213606
1574 4 0.353777 0.475006 0.204628
1573 2 0.369257 0.470473 0.223732
689 4 0.12437 0.0663809 0.251943
675 4 0.119985 0.0726949 0.271734
1404 4 0.124205 0.0154077 0.300968
1403 4 0.11938 0.0516418 0.266843
1402 2 0.121793 0.0335247 0.283906
1799 4 0.124596 0.994632 0.303926
1700 4 0.208277 0.0361613 0.25333
1699 2 0.208294 0.0357582 0.278331
248 4 0.19577 0.0446983 0.317672
247 2 0.188108 0.066627 0.326924
1701 4 0.208312 0.0353551 0.303331
605 4 0.213266 0.0346268 0.324588
604 2 0.233248 0.0222409 0.333101
632 4 0.329903 0.0539799 0.322246
24 3 0.318377 0.0782094 0.254359
699 4 0.386237 0.00777215 0.306644
22 3 0.333987 0.0442681 0.258482
1495 2 0.357269 0.0159971 0.286078
1496 4 0.347456 0.0327698 0.270344
697 2 0.400787 0.0234356 0.31961
351 4 0.40737 0.0550699 0.321013
1497 4 0.367082 0.999224 0.301812
698 4 0.415338 0.039099 0.332577
349 2 0.407827 0.0769583 0.308936
513 4 0.0194496 0.154122 0.252713
579 4 0.0328844 0.150898 0.269397
577 2 0.0572299 0.15586 0.2722
530 4 0.0116076 0.152814 0.272555
529 2 0.00974196 0.141644 0.294847
578 4 0.0815753 0.160822 0.275003
393 4 0.0769345 0.17058 0.292647
398 4 0.016447 0.11882 0.33272
674 4 0.0835664 0.106946 0.272865
673 2 0.101776 0.0898204 0.272299
600 4 0.146592 0.162327 0.32364
544 2 0.160102 0.166565 0.288705
249 4 0.180446 0.0885558 0.336177
545 4 0.164463 0.167416 0.31331
404 4 0.188232 0.104931 0.326401
742 2 0.406751 0.0865026 0.252804
743 4 0.410063 0.0956243 0.275848
332 4 0.411597 0.151138 0.310985
333 4 0.423332 0.109438 0.286002
331 2 0.417465 0.130288 0.298493
350 4 0.408284 0.0988468 0.296858
762 4 0.424215 0.161983 0.322699
394 2 0.031742 0.234693 0.261734
546 4 0.155741 0.165714 0.264099
391 2 0.0827521 0.183762 0.313081
343 2 0.223428 0.235854 0.252624
474 4 0.211538 0.204576 0.344622
276 4 0.202628 0.215398 0.330809
613 2 0.405781 0.237275 0.330443
614 4 0.406711 0.228732 0.306963
761 4 0.40923 0.207837 0.309524
520 2 0.488529 0.239625 0.27447
760 2 0.416723 0.18491 0.316111
418 2 0.437015 0.230647 0.284616
419 4 0.426258 0.219757 0.304387
420 4 0.447772 0.241537 0.264846
521 4 0.468415 0.242696 0.259938
442 2 0.0129549 0.288079 0.280836
395 4 0.0261453 0.254146 0.276411
444 4 0.0314641 0.27133 0.282265
389 4 0.13693 0.276113 0.335971
278 4 0.227237 0.281192 0.258718
345 4 0.223572 0.260852 0.25311
309 4 0.2349 0.265784 0.271407
307 2 0.24633 0.277082 0.290561
308 4 0.257759 0.28838 0.309716
497 4 0.265613 0.308315 0.308129
496 2 0.289058 0.311449 0.300026
509 4 0.255799 0.302488 0.326415
498 4 0.312504 0.314583 0.291923
763 2 0.415699 0.309795 0.276487
764 4 0.409806 0.32134 0.297868
734 4 0.136971 0.363296 0.27884
733 2 0.145343 0.353316 0.300182
299 4 0.146497 0.370194 0.262586
735 4 0.153715 0.343335 0.321524
729 4 0.323805 0.373849 0.264969
438 4 0.312769 0.389169 0.254926
436 2 0.290569 0.398231 0.262013
437 4 0.26837 0.407293 0.269101
727 2 0.339886 0.386895 0.278983
728 4 0.355967 0.399941 0.292997
753 4 0.358626 0.418008 0.305688
751 2 0.37624 0.405084 0.31785
561 4 0.41063 0.402725 0.331264
445 2 0.423269 0.415128 0.263801
1758 4 0.0351135 0.462263 0.251536
776 4 0.0796741 0.475163 0.33292
412 2 0.108056 0.463658 0.300586
602 4 0.1231 0.458789 0.262397
414 4 0.11894 0.452957 0.280781
413 4 0.0971728 0.474359 0.32039
1545 4 0.0992452 0.474659 0.342309
1435 2 0.246256 0.43288 0.263828
1437 4 0.227742 0.445924 0.274422
1436 4 0.264771 0.419836 0.253234
1575 4 0.384738 0.46594 0.242837
1803 4 0.353833 0.420224 0.28512
1802 4 0.378931 0.455922 0.260698
1801 2 0.366382 0.438073 0.272909
5 3 0.342217 0.484544 0.319658
1689 4 0.397829 0.466313 0.259559
1687 2 0.41197 0.486485 0.263839
446 4 0.426977 0.421974 0.287561
713 4 0.446601 0.422518 0.28588
712 2 0.470299 0.424573 0.293584
231 4 0.479063 0.496826 0.303745
714 4 0.493997 0.426628 0.301289
233 4 0.0165306 0.0356399 0.370774
318 4 0.0765127 0.06004 0.38951
234 4 0.0586315 0.0605052 0.38126
232 2 0.037581 0.0480725 0.376017
1376 4 0.00621609 0.0167631 0.375577
316 2 0.0910022 0.0447788 0.403012
317 4 0.105492 0.0295175 0.416515
1464 4 0.140885 0.0112878 0.353346
631 2 0.326062 0.0317837 0.333098
606 4 0.25323 0.00985505 0.341615
682 2 0.275017 0.0596076 0.405358
683 4 0.279655 0.0520479 0.38198
633 4 0.322221 0.0095875 0.343949
425 4 0.413221 0.0369717 0.402941
258 4 0.414238 0.0515714 0.389832
256 2 0.414991 0.0557043 0.365184
257 4 0.415744 0.0598373 0.340536
452 4 0.471399 0.0504229 0.383282
451 2 0.460201 0.0712943 0.391292
2643 4 0.48272 0.0611504 0.372269
397 2 0.0343451 0.12875 0.34708
399 4 0.0522432 0.13868 0.361441
732 4 0.0712064 0.134285 0.367204
368 4 0.0746066 0.0905398 0.417567
405 4 0.162248 0.147411 0.321815
731 4 0.115279 0.149175 0.38555
730 2 0.0932429 0.14173 0.376377
599 4 0.119998 0.153248 0.365004
598 2 0.133295 0.157787 0.344322
685 2 0.144428 0.149288 0.397344
686 4 0.131491 0.162361 0.380405
403 2 0.17524 0.126171 0.324108
467 4 0.278789 0.15994 0.410951
515 4 0.432311 0.0923676 0.409194
453 4 0.449002 0.0921657 0.399301
2653 2 0.066153 0.194237 0.367065
2655 4 0.0465537 0.188362 0.381436
2654 4 0.0857523 0.200112 0.352693
392 4 0.0885697 0.196944 0.333516
275 4 0.159933 0.213912 0.356803
472 2 0.235921 0.206941 0.349629
274 2 0.18128 0.214655 0.343806
473 4 0.260304 0.209305 0.354636
409 2 0.289098 0.230767 0.377195
466 2 0.288931 0.175985 0.394676
468 4 0.299074 0.19203 0.378402
410 4 0.288607 0.206752 0.370251
305 4 0.398863 0.182666 0.397859
576 4 0.397248 0.178963 0.417793
304 2 0.417029 0.199037 0.392648
615 4 0.40485 0.245819 0.353924
717 4 0.371667 0.247597 0.402132
488 4 0.351522 0.240023 0.401106
269 4 0.446627 0.221427 0.372236
306 4 0.435195 0.215408 0.387438
268 2 0.449658 0.246236 0.371539
2814 4 0.00576874 0.330346 0.403745
617 4 0.0909536 0.267632 0.369118
616 2 0.0877095 0.262715 0.393418
388 2 0.113631 0.279049 0.344557
401 4 0.147141 0.280062 0.353938
390 4 0.0903315 0.281985 0.353142
618 4 0.0844654 0.257797 0.417718
400 2 0.167387 0.278079 0.368477
375 4 0.190944 0.294462 0.390386
402 4 0.187632 0.276096 0.383015
373 2 0.215889 0.296128 0.38997
374 4 0.240833 0.297795 0.389554
678 4 0.205986 0.333328 0.359217
676 2 0.1867 0.341715 0.345694
411 4 0.289588 0.254782 0.384138
510 4 0.256681 0.303036 0.376411
508 2 0.25624 0.302762 0.351413
378 4 0.259802 0.286726 0.390501
376 2 0.278424 0.278262 0.404881
487 2 0.333772 0.255875 0.408774
716 4 0.387272 0.255106 0.355219
715 2 0.379469 0.251352 0.378675
270 4 0.452688 0.271045 0.370841
2924 4 0.435112 0.281952 0.374765
2923 2 0.425859 0.287556 0.397308
408 4 0.00741436 0.341401 0.349556
548 4 0.0343959 0.393179 0.362469
406 2 0.0125386 0.365858 0.350447
407 4 0.0176629 0.390315 0.351338
677 4 0.167414 0.350102 0.33217
503 4 0.20458 0.411493 0.405234
650 4 0.222543 0.403565 0.408086
649 2 0.240377 0.386919 0.402604
434 4 0.328174 0.386275 0.339859
651 4 0.258211 0.370273 0.397123
433 2 0.327713 0.411228 0.341375
752 4 0.393853 0.392161 0.330012
667 2 0.412447 0.415251 0.400938
669 4 0.392753 0.41423 0.41631
559 2 0.427067 0.407499 0.34949
560 4 0.443505 0.412274 0.367716
668 4 0.432141 0.416272 0.385567
588 4 0.451868 0.408412 0.386936
586 2 0.469333 0.41785 0.402138
547 2 0.0351885 0.418164 0.363021
775 2 0.0609019 0.459751 0.338858
777 4 0.0421297 0.44434 0.344797
549 4 0.0359811 0.443149 0.363574
1543 2 0.10604 0.496949 0.351374
2 3 0.32954 0.49038 0.354272
435 4 0.327252 0.436181 0.342891
4 3 0.328614 0.455736 0.339726
1 1 0.340584 0.475597 0.340537
3 3 0.361771 0.47173 0.349172
593 4 0.483354 0.50774 0.365831
3988 2 0.504458 0.473098 0.357178
3989 4 0.501618 0.497449 0.362095
2238 4 0.0170669 0.0166975 0.477807
1127 4 0.996511 0.0152044 0.478149
428 4 0.120154 0.0131348 0.417288
1781 4 0.122885 0.030867 0.428673
1780 2 0.124363 0.0455632 0.448847
1782 4 0.125842 0.0602594 0.469022
341 4 0.141341 0.0708504 0.479627
2430 4 0.127732 0.0590556 0.490947
340 2 0.161925 0.0836348 0.473462
1180 2 0.264883 0.0461302 0.463208
1181 4 0.272027 0.0306164 0.481469
1182 4 0.257739 0.0616439 0.444947
684 4 0.27038 0.0671672 0.428736
963 4 0.262031 0.0156192 0.493201
432 4 0.283292 0.0147113 0.490024
320 4 0.274924 0.073659 0.448465
1217 4 0.414978 0.00246449 0.460012
841 2 0.37105 0.0055036 0.465402
842 4 0.394118 0.00593749 0.455764
426 4 0.407378 0.00325697 0.439409
424 2 0.4103 0.0201143 0.421175
843 4 0.347983 0.00506972 0.47504
1216 2 0.429901 0.0192917 0.470935
1218 4 0.444825 0.0361188 0.481857
458 4 0.00728052 0.141027 0.441166
457 2 0.0160664 0.123583 0.456777
719 4 0.0200491 0.0957762 0.490112
459 4 0.0248522 0.106139 0.472387
367 2 0.0908555 0.102383 0.432429
687 4 0.157364 0.136214 0.414283
369 4 0.107105 0.114227 0.447291
939 4 0.117528 0.12277 0.461505
937 2 0.127556 0.143607 0.451996
938 4 0.137584 0.164445 0.442487
1151 4 0.172144 0.14439 0.425318
342 4 0.18251 0.0964192 0.467298
1152 4 0.190936 0.105784 0.450954
1150 2 0.18154 0.125087 0.438136
321 4 0.281383 0.123192 0.446125
319 2 0.278153 0.0984256 0.447295
899 4 0.274582 0.140443 0.43968
898 2 0.277598 0.158251 0.456971
574 2 0.392314 0.154782 0.421804
575 4 0.387381 0.1306 0.425816
516 4 0.395743 0.115865 0.43392
514 2 0.414027 0.104116 0.421557
1034 4 0.15373 0.176251 0.449216
261 4 0.124892 0.222554 0.464394
1035 4 0.136574 0.212546 0.479033
1033 2 0.145152 0.194399 0.464124
695 4 0.118372 0.22218 0.484667
259 2 0.110009 0.235456 0.448993
900 4 0.280613 0.176059 0.474262
813 4 0.380752 0.22373 0.471421
266 4 0.392809 0.228292 0.455906
265 2 0.376868 0.235413 0.438007
811 2 0.382262 0.232494 0.494789
267 4 0.360927 0.242534 0.420109
2656 2 0.485293 0.180632 0.449485
2657 4 0.460361 0.182335 0.448658
2801 4 0.00816984 0.314943 0.414166
2802 4 0.0155951 0.278677 0.447787
2847 4 0.0183595 0.29308 0.461712
2800 2 0.0118825 0.29681 0.430977
2845 2 0.0107062 0.289302 0.485214
347 4 0.0971669 0.269448 0.430308
260 4 0.0951252 0.248357 0.433591
346 2 0.104803 0.292363 0.436771
348 4 0.112439 0.315278 0.443233
10 3 0.127296 0.309944 0.45573
9 3 0.130318 0.31703 0.492585
8 3 0.161482 0.313088 0.471192
6 1 0.139565 0.320694 0.471621
489 4 0.316021 0.271728 0.416442
377 4 0.297045 0.269798 0.419261
2925 4 0.416607 0.293159 0.419851
239 4 0.406097 0.307846 0.430831
584 4 0.462151 0.310428 0.481562
2456 4 0.481579 0.311858 0.488126
680 4 0.03507 0.39601 0.441334
679 2 0.0486188 0.410893 0.45617
504 4 0.161593 0.393381 0.423255
7 3 0.139448 0.343285 0.467287
711 4 0.131157 0.360219 0.475843
709 2 0.139507 0.373374 0.456288
710 4 0.147858 0.386528 0.436733
502 2 0.183086 0.402437 0.414245
238 2 0.396151 0.329791 0.437514
240 4 0.386205 0.351737 0.444197
335 4 0.366717 0.35933 0.44852
334 2 0.373278 0.379709 0.435603
336 4 0.379838 0.400088 0.422687
2507 4 0.493419 0.420698 0.437052
681 4 0.0621676 0.425777 0.471006
383 4 0.0785033 0.431513 0.479047
540 4 0.0232911 0.476641 0.450026
538 2 0.0347588 0.469544 0.471081
382 2 0.090441 0.449205 0.466021
568 2 0.122538 0.491329 0.436188
384 4 0.102379 0.466896 0.452994
569 4 0.119005 0.467325 0.442229
634 2 0.188731 0.477474 0.50081
773 4 0.236532 0.456917 0.436442
635 4 0.188609 0.470236 0.476878
772 2 0.220529 0.467444 0.452513
774 4 0.204527 0.47797 0.468585
661 2 0.465998 0.448606 0.453072
1910 4 0.472181 0.474854 0.47415
1909 2 0.470919 0.491444 0.492814
662 4 0.456083 0.463857 0.470226
663 4 0.475912 0.433355 0.435917
587 4 0.486797 0.427289 0.417339
2428 2 0.132845 0.0545823 0.51501
2429 4 0.137957 0.0501089 0.539073
1030 2 0.256227 0.0298142 0.569454
1283 4 0.216794 0.028222 0.575014
1031 4 0.235446 0.0176976 0.576274
1032 4 0.277007 0.0419309 0.562633
1091 4 0.362402 0.992372 0.574239
720 4 0.00708303 0.109581 0.536395
718 2 0.0135661 0.102679 0.513254
327 4 0.0940128 0.241318 0.548063
877 2 0.113544 0.219752 0.565968
878 4 0.111184 0.229096 0.542897
696 4 0.102579 0.241471 0.528016
694 2 0.110475 0.231826 0.506342
857 4 0.183275 0.21484 0.552679
856 2 0.203833 0.221788 0.565099
858 4 0.224391 0.228736 0.577519
952 2 0.409408 0.214593 0.544883
953 4 0.398576 0.229559 0.528034
812 4 0.383773 0.241257 0.518158
791 4 0.384261 0.24091 0.539631
954 4 0.420239 0.199627 0.561732
905 4 0.438625 0.208111 0.559749
982 2 0.0216939 0.284082 0.537685
984 4 0.043829 0.290931 0.547083
326 4 0.0619478 0.279668 0.549421
1136 4 0.0630071 0.300221 0.544079
1135 2 0.0644458 0.323369 0.553422
983 4 0.999559 0.277234 0.528288
325 2 0.0779803 0.260493 0.548742
2846 4 0.00305293 0.285524 0.508715
1258 2 0.152232 0.301608 0.523655
1259 4 0.144259 0.317592 0.506159
1260 4 0.160206 0.285624 0.54115
1237 2 0.322053 0.291836 0.547865
1239 4 0.307495 0.308827 0.536705
873 4 0.399768 0.251439 0.528183
1238 4 0.336611 0.274845 0.559025
792 4 0.34063 0.265204 0.542244
790 2 0.362445 0.253057 0.540937
871 2 0.415297 0.270861 0.530795
872 4 0.430826 0.290283 0.533407
585 4 0.437493 0.307445 0.524965
583 2 0.449822 0.308936 0.503264
936 4 0.0390663 0.398151 0.528065
3353 4 0.0202352 0.403228 0.524836
1137 4 0.0658846 0.346516 0.562766
934 2 0.0442328 0.416262 0.544512
1160 4 0.0925144 0.420575 0.513134
804 4 0.304808 0.326514 0.54672
803 4 0.290932 0.35389 0.586201
802 2 0.29787 0.340202 0.56646
1454 4 0.348937 0.426328 0.555794
880 2 0.370404 0.400328 0.580681
882 4 0.388131 0.383629 0.586346
925 2 0.467515 0.395986 0.526746
927 4 0.473732 0.38873 0.549852
1001 4 0.49279 0.388733 0.555692
1000 2 0.496128 0.402004 0.576618
926 4 0.461298 0.403241 0.50364
3430 2 0.0350093 0.469104 0.562489
539 4 0.0462265 0.462448 0.492136
3431 4 0.0283641 0.489566 0.549748
935 4 0.0493993 0.434373 0.560959
3432 4 0.0416545 0.448643 0.575231
1041 4 0.0575494 0.434883 0.580647
3264 4 0.0377707 0.427575 0.577871
4434 4 0.00727146 0.493612 0.551725
1159 2 0.101776 0.424528 0.53602
1161 4 0.111038 0.428482 0.558906
1395 4 0.185735 0.50386 0.530526
636 4 0.188852 0.484713 0.524743
1455 4 0.321549 0.467997 0.559568
1453 2 0.335243 0.447162 0.557681
881 4 0.352678 0.417027 0.575017
1183 2 0.0262441 0.0554043 0.65381
1184 4 0.018388 0.0325669 0.647335
1185 4 0.0341001 0.0782416 0.660284
4338 4 0.00796813 0.0266771 0.665762
1892 4 0.00555133 0.0156493 0.647549
1059 4 0.187967 0.0709336 0.605503
1284 4 0.184908 0.0653125 0.58542
1282 2 0.200851 0.0467673 0.580217
2132 4 0.218954 0.0120629 0.589031
2131 2 0.229539 0.0069154 0.611091
1060 2 0.499973 0.0201967 0.596745
810 4 0.459344 0.0902678 0.594775
1083 4 0.00869975 0.128512 0.626013
1081 2 0.0206814 0.114158 0.642614
1082 4 0.0326631 0.0998044 0.659215
3179 4 0.00470608 0.143769 0.638147
1057 2 0.190024 0.0952963 0.610738
1058 4 0.192082 0.119659 0.615973
1155 4 0.180558 0.137114 0.620201
1153 2 0.183373 0.161663 0.616381
909 4 0.189235 0.12555 0.636323
907 2 0.191693 0.125836 0.661203
886 2 0.331315 0.16335 0.636777
1193 4 0.409796 0.136924 0.603464
887 4 0.354541 0.154683 0.640034
1194 4 0.371503 0.14241 0.635154
1192 2 0.390649 0.139667 0.619309
830 4 0.35535 0.134076 0.646644
808 2 0.480865 0.102993 0.594486
809 4 0.502386 0.115719 0.594197
1026 4 0.456186 0.146814 0.658358
1024 2 0.453492 0.158682 0.636516
1025 4 0.450798 0.17055 0.614674
1209 4 0.0819564 0.246136 0.647741
1245 4 0.0629662 0.256197 0.653085
879 4 0.115905 0.210408 0.58904
1272 4 0.131166 0.214083 0.601928
1270 2 0.155589 0.208736 0.601553
1154 4 0.186187 0.186213 0.612562
1271 4 0.180011 0.20339 0.601179
1221 4 0.200805 0.199233 0.6036
1219 2 0.224128 0.200782 0.612476
1220 4 0.247452 0.202331 0.621352
796 2 0.249377 0.242401 0.636929
798 4 0.252917 0.217675 0.635807
888 4 0.308089 0.172017 0.633521
1212 4 0.268256 0.206799 0.625549
1211 4 0.291988 0.16629 0.642771
1210 2 0.280122 0.186544 0.63416
904 2 0.44668 0.196533 0.580395
906 4 0.454735 0.184954 0.60104
1243 2 0.0430242 0.267178 0.642744
1244 4 0.0230823 0.278159 0.632404
1207 2 0.100331 0.260804 0.65625
1208 4 0.118705 0.275472 0.66476
948 4 0.173448 0.298693 0.664528
797 4 0.245838 0.267127 0.638052
3113 4 0.497004 0.320166 0.625335
3112 2 0.497126 0.299381 0.611437
3123 4 0.509812 0.260043 0.649839
897 4 0.172058 0.4004 0.590468
1191 4 0.234271 0.37307 0.597354
1189 2 0.25376 0.358944 0.590588
896 4 0.218996 0.383153 0.590769
895 2 0.195527 0.391777 0.590619
1190 4 0.27325 0.344817 0.583823
929 4 0.367222 0.342087 0.629567
930 4 0.396188 0.371203 0.601038
928 2 0.381705 0.356645 0.615302
1039 2 0.0798278 0.44037 0.590585
3262 2 0.0262394 0.42875 0.600026
3238 2 0.0143407 0.461366 0.652627
3239 4 0.0101832 0.448648 0.631504
3263 4 0.0147081 0.429925 0.622181
992 4 0.155931 0.405331 0.601385
1040 4 0.102106 0.445857 0.600522
993 4 0.111616 0.428142 0.605447
991 2 0.133774 0.416737 0.603416
1188 4 0.192614 0.489966 0.663878
1173 4 0.274695 0.49363 0.603876
1172 4 0.298357 0.474196 0.643413
1171 2 0.286526 0.483913 0.623644
891 4 0.305537 0.469881 0.661353
1205 4 0.458349 0.412861 0.654877
1206 4 0.490738 0.41567 0.616881
1204 2 0.474543 0.414265 0.635879
3182 4 0.495072 0.433921 0.60687
3181 2 0.486753 0.455473 0.597306
3183 4 0.478434 0.477025 0.587742
2991 4 0.997798 0.0122078 0.725473
1202 4 0.114568 0.0157349 0.735565
2400 4 0.35698 0.0571695 0.714401
2283 4 0.351433 0.00262946 0.671894
2398 2 0.357856 0.0614994 0.739011
43 3 0.455725 0.0596513 0.721098
846 4 0.453952 0.0394225 0.720998
41 1 0.475024 0.0721523 0.717988
844 2 0.437601 0.0363552 0.739664
45 3 0.492936 0.0610795 0.72666
944 4 0.0488089 0.0907614 0.670646
943 2 0.0705235 0.103137 0.669945
1076 4 0.0284488 0.0896112 0.677654
1075 2 0.0169969 0.0966644 0.698732
1077 4 0.00554506 0.103718 0.71981
864 4 0.00258755 0.0960886 0.737352
945 4 0.092238 0.115513 0.669243
908 4 0.194151 0.126123 0.686084
1227 4 0.192798 0.110122 0.699988
1226 4 0.19756 0.1027 0.749211
1225 2 0.195179 0.106411 0.724599
1005 4 0.323529 0.106417 0.752162
829 2 0.351849 0.120452 0.667316
831 4 0.348348 0.106829 0.687987
44 3 0.478349 0.076096 0.695365
1143 4 0.450845 0.129859 0.669902
1263 4 0.456842 0.147875 0.679684
42 3 0.472637 0.0923257 0.728781
1142 4 0.465348 0.0836219 0.682253
1141 2 0.458097 0.10674 0.676077
3426 4 0.491356 0.161838 0.721109
1261 2 0.447538 0.1549 0.701803
3270 4 0.476508 0.159537 0.736689
852 4 0.070497 0.239228 0.664815
850 2 0.0650019 0.216647 0.674039
1179 4 0.00619226 0.177745 0.7206
1177 2 0.028218 0.185576 0.711727
1178 4 0.0502438 0.193406 0.702855
851 4 0.0595067 0.194066 0.683263
1107 4 0.0703043 0.187058 0.70015
1105 2 0.0892358 0.18722 0.716482
1106 4 0.108167 0.187381 0.732815
1073 4 0.1274 0.188165 0.7277
1072 2 0.133939 0.201864 0.747569
1299 4 0.298667 0.210345 0.748831
1086 4 0.310641 0.196947 0.738951
1262 4 0.438234 0.161926 0.723922
1145 4 0.481533 0.226664 0.742582
1144 2 0.484806 0.202127 0.739064
1146 4 0.48808 0.177589 0.735546
816 4 0.0330703 0.32418 0.740737
946 2 0.153916 0.284981 0.671989
947 4 0.134385 0.271268 0.679451
820 2 0.112791 0.278785 0.710199
822 4 0.115461 0.281302 0.685466
821 4 0.110121 0.276267 0.734932
1242 4 0.119947 0.293469 0.73811
1098 4 0.332186 0.323361 0.715642
1065 4 0.263526 0.316165 0.684161
1096 2 0.336194 0.319702 0.740049
1063 2 0.266193 0.331339 0.703855
892 2 0.0575438 0.399228 0.724438
893 4 0.0653843 0.375548 0.722715
942 4 0.0828642 0.362876 0.724916
815 4 0.0664601 0.361354 0.738766
814 2 0.0497652 0.342767 0.739751
1067 4 0.13687 0.339617 0.703237
940 2 0.104006 0.349758 0.722439
941 4 0.125147 0.33664 0.719962
1066 2 0.154068 0.35774 0.702245
1068 4 0.171266 0.375863 0.701253
1028 4 0.164544 0.386898 0.684713
1139 4 0.217475 0.410111 0.676047
1029 4 0.206998 0.401412 0.662629
1027 2 0.185771 0.394155 0.673671
1064 4 0.26886 0.346513 0.723548
806 4 0.282158 0.35114 0.740137
805 2 0.289752 0.374454 0.745029
1236 4 0.265484 0.338404 0.743468
1099 2 0.430896 0.398545 0.689239
1101 4 0.416034 0.387505 0.706043
1100 4 0.445759 0.409585 0.672434
894 4 0.0497034 0.422908 0.726161
2172 4 0.0279511 0.493233 0.677329
1279 2 0.0432468 0.459278 0.701949
3276 4 0.0443181 0.436924 0.741645
1983 4 0.0642465 0.436698 0.734335
1280 4 0.0486273 0.44377 0.72081
1281 4 0.0378663 0.474787 0.683089
3240 4 0.0184981 0.474084 0.673749
1981 2 0.081536 0.452929 0.74226
3274 2 0.0199042 0.435717 0.746906
1176 4 0.200136 0.479931 0.732952
2016 4 0.18348 0.486715 0.74136
1138 2 0.231827 0.420403 0.693746
1174 2 0.195179 0.482936 0.70863
1175 4 0.190223 0.485941 0.684308
889 2 0.302281 0.485674 0.680462
1140 4 0.246179 0.430696 0.711445
890 4 0.299025 0.501467 0.699571
1269 4 0.449566 0.430352 0.66461
2169 4 0.472376 0.48935 0.679415
1268 4 0.468179 0.470771 0.687426
1267 2 0.458873 0.450561 0.676018
1195 2 0.0877118 0.00929132 0.811021
1196 4 0.0994106 0.0272309 0.798118
911 4 0.1032 0.0478932 0.793384