ITEM: TIMESTEP
2080000
ITEM: NUMBER OF ATOMS
4590
ITEM: BOX BOUNDS pp pp pp
-9.9985700000000008e+00 9.9985700000000008e+00
-9.9985700000000008e+00 9.9985700000000008e+00
-9.9985700000000008e+00 9.9985700000000008e+00
ITEM: ATOMS id type xs ys zs
1666 2 0.0474924 0.0528756 0.0715812
1667 4 0.0635939 0.0707581 0.0647887
702 4 0.069904 0.0865964 0.0521663
591 4 0.0498771 0.0779466 0.0494232
423 4 0.147244 0.0801074 0.00763404
532 2 0.167133 0.0485238 0.00360128
534 4 0.151153 0.0626849 0.0166123
1475 4 0.225473 0.002962 0.0448255
490 2 0.302676 0.0686772 0.00792227
491 4 0.296227 0.0792475 0.0296448
653 4 0.289295 0.0785244 0.0502059
652 2 0.278136 0.0799119 0.0725383
589 2 0.0341348 0.0919479 0.0359576
590 4 0.0183925 0.105949 0.022492
3233 4 0.0115137 0.122587 0.0109302
235 2 0.0794673 0.158397 0.0681816
1248 4 0.00530932 0.102396 0.00497277
421 2 0.146284 0.105079 0.00846959
422 4 0.145325 0.13005 0.00930515
700 2 0.0864953 0.104841 0.0562967
701 4 0.103087 0.123085 0.0604271
236 4 0.097259 0.143648 0.0586375
449 4 0.117699 0.137624 0.0537987
448 2 0.135759 0.133035 0.0704706
450 4 0.153819 0.128445 0.0871425
565 2 0.284953 0.11805 0.0326926
566 4 0.273926 0.138769 0.0240731
567 4 0.29598 0.0973305 0.0413121
665 4 0.326395 0.1355 0.997145
359 4 0.27443 0.157058 0.0153124
664 2 0.335278 0.152452 0.0132354
557 4 0.398561 0.150825 0.0596338
556 2 0.378361 0.163308 0.0518048
987 4 0.456472 0.159321 0.0211096
985 2 0.45392 0.142175 0.00309079
237 4 0.0616756 0.173147 0.0777257
666 4 0.344161 0.169404 0.0293256
558 4 0.35816 0.175791 0.0439757
571 2 0.3697 0.203648 0.0148017
572 4 0.354137 0.188795 0.0275448
1071 4 0.396854 0.236409 0.00555148
769 2 0.498006 0.217067 0.0363483
771 4 0.496131 0.241959 0.0349208
323 4 0.478691 0.247542 0.0460588
322 2 0.455736 0.25338 0.0540715
324 4 0.432782 0.259218 0.0620841
770 4 0.499882 0.192174 0.0377757
914 4 0.152295 0.24581 0.0152356
506 4 0.166702 0.253972 0.0256666
293 4 0.148228 0.321514 0.0409627
292 2 0.139397 0.321804 0.0643532
507 4 0.157841 0.302004 0.0363945
505 2 0.162271 0.277988 0.0310306
288 4 0.16546 0.320686 0.0279096
1070 4 0.386083 0.285045 0.00116804
1069 2 0.391468 0.260727 0.00335976
957 4 0.371086 0.300258 0.0020111
955 2 0.370892 0.322796 0.0128373
280 2 0.466589 0.309866 0.0383035
282 4 0.455252 0.29154 0.0256231
518 4 0.498084 0.248541 0.0551
551 4 0.0387942 0.405707 0.0135682
1170 4 0.0152684 0.343177 0.0258158
1168 2 0.0217867 0.365504 0.0166382
1169 4 0.028305 0.38783 0.00746053
1056 4 0.0124941 0.333187 0.00921032
286 2 0.189375 0.327868 0.0292011
481 2 0.229847 0.337765 0.0698556
483 4 0.215725 0.342021 0.0496656
287 4 0.21329 0.33505 0.0304927
956 4 0.370698 0.345333 0.0236635
671 4 0.462215 0.332765 0.0609481
670 2 0.469258 0.346773 0.080425
281 4 0.477926 0.328193 0.0509839
550 2 0.0349171 0.417123 0.035473
552 4 0.0310401 0.428539 0.0573779
315 4 0.0409085 0.447001 0.0614513
313 2 0.0576667 0.464171 0.0544135
314 4 0.0744249 0.481341 0.0473758
620 4 0.0380105 0.432248 0.0773442
1787 4 0.0932234 0.487213 0.0556136
1691 4 0.0866664 0.496094 0.0373263
1786 2 0.110632 0.479365 0.0717549
243 4 0.233259 0.49038 0.0687943
627 4 0.217953 0.415546 0.0743761
625 2 0.242128 0.42017 0.0787774
246 4 0.313085 0.457308 0.0173041
272 4 0.310834 0.473106 0.00163113
244 2 0.318261 0.449976 0.0406415
40 3 0.317931 0.452442 0.996029
271 2 0.298662 0.494944 0.00130763
245 4 0.323437 0.442645 0.0639789
2388 4 0.399484 0.489299 0.0192069
563 4 0.416364 0.477943 0.0271254
562 2 0.431487 0.470337 0.00872393
1668 4 0.0313908 0.0349932 0.0783736
18 3 0.0169758 0.0632328 0.122872
2481 4 0.00657205 0.065737 0.139936
16 1 0.0124696 0.081786 0.109686
2479 2 0.0101298 0.0475224 0.156691
654 4 0.266978 0.0812994 0.0948707
297 4 0.38871 0.0130916 0.0893168
311 4 0.42673 0.0710685 0.161208
19 3 0.0316513 0.0883165 0.0983805
20 3 0.00489884 0.0988945 0.122672
477 4 0.059149 0.187065 0.0908236
476 4 0.0649713 0.233924 0.107289
475 2 0.0620602 0.210494 0.0990563
738 4 0.175346 0.241515 0.1202
736 2 0.199116 0.249241 0.120905
353 4 0.240605 0.24702 0.112426
461 4 0.293501 0.227912 0.127622
354 4 0.276078 0.219678 0.13467
460 2 0.312048 0.217463 0.114507
352 2 0.258342 0.233349 0.123548
462 4 0.330594 0.207013 0.101391
254 4 0.385024 0.176126 0.117933
630 4 0.395614 0.186737 0.131406
253 2 0.364296 0.184597 0.106806
255 4 0.343569 0.193068 0.09568
628 2 0.418473 0.196833 0.132233
629 4 0.441333 0.206928 0.13306
339 4 0.0646252 0.250361 0.119426
294 4 0.130567 0.322095 0.0877437
337 2 0.0872483 0.255253 0.128883
338 4 0.109871 0.260145 0.13834
363 4 0.128041 0.265115 0.136105
361 2 0.130439 0.279206 0.156619
456 4 0.144751 0.331754 0.0985503
482 4 0.243969 0.333509 0.0900456
737 4 0.222886 0.256967 0.12161
755 4 0.233823 0.265907 0.105498
754 2 0.239563 0.290005 0.102106
756 4 0.245304 0.314103 0.0987137
252 4 0.262328 0.322562 0.0893126
741 4 0.380941 0.292926 0.121982
739 2 0.365888 0.308092 0.134966
624 4 0.395598 0.284112 0.112389
622 2 0.412677 0.274808 0.0966741
740 4 0.350835 0.323258 0.14795
623 4 0.429755 0.265505 0.0809597
15 3 0.446639 0.319386 0.142677
11 1 0.432516 0.333033 0.154208
454 2 0.131041 0.33989 0.117812
455 4 0.117332 0.348026 0.137074
537 4 0.126163 0.351785 0.154085
250 2 0.279096 0.34047 0.0941395
607 2 0.295417 0.392446 0.0867465
251 4 0.295864 0.358378 0.0989664
609 4 0.308712 0.371309 0.0854699
387 4 0.315478 0.364855 0.105876
385 2 0.329992 0.351743 0.121452
608 4 0.282123 0.413584 0.088023
495 4 0.411185 0.341058 0.120372
386 4 0.344505 0.33863 0.137027
14 3 0.416684 0.342017 0.139819
528 4 0.48303 0.351844 0.116532
494 4 0.425557 0.381898 0.0953472
493 2 0.418371 0.361478 0.10786
595 2 0.460437 0.385578 0.14606
12 3 0.444584 0.350197 0.163639
597 4 0.444991 0.372027 0.160306
2652 4 0.497414 0.40266 0.131029
596 4 0.475884 0.39913 0.131814
672 4 0.476302 0.360781 0.0999018
648 4 0.0350847 0.450523 0.109371
646 2 0.0304373 0.450125 0.133935
647 4 0.0257899 0.449728 0.1585
619 2 0.0167559 0.423523 0.0872077
1788 4 0.12804 0.471518 0.0878962
1440 4 0.250535 0.482157 0.0794455
626 4 0.266303 0.424795 0.0831786
1438 2 0.269418 0.477374 0.0951218
1439 4 0.2883 0.472591 0.110798
637 2 0.291466 0.47567 0.153821
639 4 0.295485 0.473944 0.129203
523 2 0.349682 0.486111 0.142798
525 4 0.348626 0.466159 0.15783
659 4 0.336852 0.450241 0.155018
2480 4 0.0136876 0.0293078 0.173447
1422 4 0.0101206 0.00969345 0.173026
688 2 0.137266 0.0616796 0.228952
690 4 0.150857 0.0682614 0.209023
693 4 0.169748 0.0749 0.202302
1506 4 0.249425 0.00489704 0.195537
23 3 0.30901 0.0339667 0.241026
21 1 0.324571 0.0511617 0.240264
25 3 0.3299 0.0558664 0.218628
24 3 0.315984 0.0700802 0.250596
1785 4 0.346731 0.00521018 0.178478
759 4 0.344248 0.0696954 0.209425
1784 4 0.343876 0.0486571 0.203073
1783 2 0.345304 0.0269336 0.190776
757 2 0.36898 0.073363 0.209184
758 4 0.393712 0.0770305 0.208942
310 2 0.419126 0.0798717 0.183341
381 4 0.00191772 0.14691 0.204648
674 4 0.0715001 0.094116 0.243029
511 2 0.0160484 0.13618 0.236155
512 4 0.00894008 0.128753 0.213362
691 2 0.167766 0.0993 0.197214
692 4 0.165783 0.1237 0.192126
723 4 0.163451 0.141332 0.200631
721 2 0.172869 0.150088 0.222074
722 4 0.182286 0.158844 0.243517
580 2 0.291478 0.163641 0.203741
582 4 0.270167 0.153966 0.212539
28 3 0.360362 0.150248 0.18323
312 4 0.411523 0.0886749 0.205474
744 4 0.3994 0.09236 0.222868
29 3 0.346341 0.156975 0.217908
708 4 0.365281 0.159624 0.224863
742 2 0.409185 0.0885223 0.245555
748 2 0.0722721 0.202051 0.226854
749 4 0.0719142 0.189772 0.205076
750 4 0.0726299 0.21433 0.248632
284 4 0.221994 0.196821 0.233727
283 2 0.241298 0.184715 0.223432
344 4 0.219247 0.210029 0.247472
30 3 0.331635 0.174154 0.187804
581 4 0.312789 0.173316 0.194942
285 4 0.260601 0.172608 0.213137
26 1 0.350848 0.166224 0.19711
27 3 0.365712 0.18358 0.199753
706 2 0.364657 0.16246 0.249698
362 4 0.132836 0.293298 0.177134
372 4 0.15263 0.296077 0.178574
370 2 0.176951 0.292669 0.183271
371 4 0.201272 0.289261 0.187969
279 4 0.213588 0.290116 0.2053
277 2 0.224403 0.280987 0.225912
612 4 0.212713 0.306902 0.191275
278 4 0.235219 0.271858 0.246524
763 2 0.388776 0.30704 0.249298
764 4 0.370113 0.314343 0.234347
13 3 0.422001 0.321093 0.171097
520 2 0.494699 0.253357 0.251109
521 4 0.469759 0.251766 0.251905
2693 4 0.000825519 0.399753 0.203402
535 2 0.120957 0.353052 0.178507
536 4 0.115751 0.354318 0.20293
298 2 0.141445 0.379359 0.249729
300 4 0.126622 0.397306 0.240599
603 4 0.112977 0.410158 0.233684
610 2 0.212752 0.3319 0.190781
417 4 0.221849 0.374489 0.184736
415 2 0.227713 0.395783 0.196455
611 4 0.212792 0.356899 0.190288
301 2 0.333159 0.400036 0.219582
303 4 0.321613 0.391774 0.240164
302 4 0.344704 0.408298 0.199001
447 4 0.424004 0.391056 0.225586
645 4 0.4278 0.363049 0.17098
643 2 0.418946 0.375018 0.191068
644 4 0.410091 0.386987 0.211156
445 2 0.443868 0.395337 0.240155
1467 4 0.0123916 0.501642 0.172941
263 4 0.0419668 0.445373 0.169852
262 2 0.0465368 0.459569 0.189921
1757 4 0.0514165 0.473624 0.230129
264 4 0.0511069 0.473764 0.209991
1756 2 0.0339148 0.475337 0.247904
416 4 0.233577 0.417078 0.208174
660 4 0.328606 0.413989 0.188462
291 4 0.251962 0.424038 0.204163
289 2 0.26796 0.440854 0.194864
290 4 0.283957 0.45767 0.185564
638 4 0.287447 0.477395 0.178439
767 4 0.302611 0.467323 0.190068
766 2 0.314029 0.481475 0.20723
658 2 0.332729 0.432115 0.17174
768 4 0.325446 0.495627 0.224392
1574 4 0.343077 0.491125 0.231936
1573 2 0.354664 0.478725 0.250297
675 4 0.103538 0.0579282 0.255864
673 2 0.087519 0.0760221 0.249446
1403 4 0.10982 0.0383203 0.249692
689 4 0.123674 0.0550978 0.24888
1402 2 0.120682 0.0193801 0.261876
1699 2 0.207654 0.00350346 0.272608
248 4 0.204855 0.0473381 0.285792
247 2 0.198731 0.0683504 0.297882
1701 4 0.207358 0.0263809 0.282693
605 4 0.216815 0.0362309 0.299367
604 2 0.229347 0.0265194 0.318701
631 2 0.334116 0.0273126 0.331189
1495 2 0.351283 0.0163448 0.280835
1497 4 0.3635 0.00415706 0.298929
632 4 0.3356 0.0403714 0.309919
22 3 0.343535 0.0445304 0.251469
699 4 0.378271 0.00142015 0.314235
1496 4 0.339067 0.0285325 0.262741
697 2 0.392958 0.0197397 0.322829
698 4 0.407646 0.0380592 0.331422
351 4 0.415836 0.0586263 0.332012
349 2 0.417815 0.0717862 0.310844
350 4 0.419794 0.0849461 0.289676
2756 4 0.00786391 0.0892525 0.331256
579 4 0.0421643 0.133697 0.261464
513 4 0.0231567 0.143607 0.258947
577 2 0.055359 0.151501 0.273044
530 4 0.0270065 0.13091 0.276199
529 2 0.0219718 0.116336 0.295882
531 4 0.0169372 0.101761 0.315564
578 4 0.0685537 0.169305 0.284625
393 4 0.0693342 0.161492 0.303519
600 4 0.156801 0.158192 0.324865
405 4 0.169111 0.140488 0.322805
545 4 0.172241 0.157564 0.310316
544 2 0.178194 0.162881 0.286621
249 4 0.192608 0.0893628 0.309972
403 2 0.170676 0.115817 0.319057
404 4 0.172241 0.0911456 0.315309
762 4 0.42818 0.150487 0.29013
332 4 0.441534 0.141625 0.303186
743 4 0.418971 0.0846846 0.268242
333 4 0.421324 0.103185 0.278392
331 2 0.431429 0.122405 0.290789
396 4 0.058006 0.227347 0.252913
394 2 0.0446012 0.248251 0.255837
391 2 0.0691086 0.172929 0.325752
343 2 0.229385 0.232263 0.252766
546 4 0.184148 0.168198 0.262926
472 2 0.235631 0.217783 0.328348
473 4 0.255675 0.220407 0.313634
707 4 0.364033 0.165296 0.274532
613 2 0.406479 0.234632 0.315838
615 4 0.392952 0.249885 0.330314
614 4 0.420005 0.219379 0.301362
760 2 0.425837 0.175378 0.29042
761 4 0.423494 0.20027 0.290711
418 2 0.450812 0.234719 0.278756
419 4 0.432278 0.218756 0.283935
420 4 0.469346 0.250683 0.273576
442 2 0.0143606 0.297553 0.271614
395 4 0.0311964 0.269154 0.258761
444 4 0.0365401 0.286824 0.267357
389 4 0.132758 0.261815 0.321333
401 4 0.151792 0.267053 0.320784
388 2 0.109337 0.259324 0.329724
345 4 0.239523 0.254498 0.258059
309 4 0.242407 0.27395 0.266648
307 2 0.248835 0.291289 0.283477
308 4 0.255263 0.308628 0.300306
497 4 0.276786 0.309223 0.300422
496 2 0.30101 0.303188 0.299037
509 4 0.265683 0.317646 0.316588
498 4 0.325235 0.297153 0.297652
765 4 0.407439 0.299736 0.264249
543 4 0.461517 0.268218 0.263245
541 2 0.444033 0.286086 0.263724
542 4 0.426549 0.303954 0.264204
548 4 0.0132468 0.395985 0.333665
299 4 0.156269 0.361412 0.258858
734 4 0.141756 0.35655 0.272772
733 2 0.143713 0.35136 0.297152
735 4 0.14567 0.346169 0.321533
677 4 0.160968 0.3579 0.328872
729 4 0.312121 0.394916 0.258924
727 2 0.330385 0.396401 0.275935
438 4 0.299235 0.407116 0.271291
436 2 0.281778 0.419409 0.284303
728 4 0.348649 0.397887 0.292947
753 4 0.362864 0.376798 0.317309
751 2 0.386138 0.385901 0.318112
752 4 0.409412 0.395005 0.318915
446 4 0.463732 0.399618 0.254724
713 4 0.466901 0.402245 0.275693
561 4 0.425258 0.394526 0.33159
1758 4 0.0164131 0.477049 0.265678
775 2 0.0590233 0.463597 0.331618
776 4 0.082877 0.470211 0.328092
412 2 0.105138 0.452311 0.299973
602 4 0.121844 0.445283 0.268156
601 2 0.11741 0.42772 0.25092
414 4 0.106924 0.438249 0.279375
413 4 0.103352 0.466373 0.32057
1545 4 0.0949786 0.487454 0.321964
1435 2 0.228559 0.444967 0.283131
1436 4 0.24967 0.43157 0.283183
1437 4 0.207447 0.458364 0.283079
437 4 0.264321 0.431702 0.297316
433 2 0.32992 0.426497 0.322153
434 4 0.34023 0.415458 0.302229
1575 4 0.366251 0.466324 0.268659
1802 4 0.380627 0.452679 0.266104
1801 2 0.370228 0.434561 0.279844
1803 4 0.359829 0.416442 0.293583
231 4 0.480239 0.500933 0.279002
712 2 0.479171 0.421768 0.285361
714 4 0.491441 0.441292 0.295028
233 4 0.00666261 0.0518825 0.401331
318 4 0.0726152 0.0609275 0.398147
234 4 0.0548673 0.0579503 0.38949
232 2 0.030765 0.0549164 0.395411
1464 4 0.124467 0.0201165 0.37055
316 2 0.0875307 0.0455258 0.411012
368 4 0.13174 0.0885171 0.398227
606 4 0.24188 0.016808 0.338035
441 4 0.241844 0.0144606 0.35785
439 2 0.256244 0.00329408 0.374971
633 4 0.332632 0.0142539 0.35246
682 2 0.278966 0.0542053 0.408146
683 4 0.292286 0.0466902 0.388365
425 4 0.394809 0.0367029 0.403268
258 4 0.409468 0.0446629 0.392967
256 2 0.416413 0.0440462 0.368956
257 4 0.423359 0.0434295 0.344944
398 4 0.0252769 0.100531 0.335564
397 2 0.0480377 0.101675 0.345851
399 4 0.0707985 0.102819 0.356137
732 4 0.0797363 0.109193 0.371874
731 4 0.11168 0.147667 0.371733
730 2 0.095708 0.12843 0.371804
686 4 0.12939 0.159368 0.374273
599 4 0.118004 0.161446 0.356248
598 2 0.137402 0.159819 0.340557
685 2 0.14498 0.153458 0.392906
467 4 0.312878 0.152485 0.390499
514 2 0.402253 0.10986 0.392094
516 4 0.387748 0.12672 0.403518
575 4 0.382945 0.144159 0.393443
574 2 0.39628 0.165248 0.391844
515 4 0.416759 0.0930005 0.38067
452 4 0.485854 0.0968252 0.377807
453 4 0.436094 0.10026 0.381387
451 2 0.460974 0.0985427 0.379597
2653 2 0.0353669 0.181183 0.369285
2655 4 0.0178522 0.189266 0.385193
2654 4 0.0528817 0.173099 0.353376
392 4 0.0688831 0.184367 0.347986
275 4 0.160804 0.217095 0.376956
274 2 0.183454 0.212257 0.367535
474 4 0.215586 0.215158 0.343062
276 4 0.206104 0.207419 0.358113
466 2 0.294661 0.168918 0.395322
468 4 0.276443 0.185351 0.400145
576 4 0.409616 0.186338 0.390245
269 4 0.459221 0.230294 0.370757
306 4 0.453378 0.211263 0.367341
304 2 0.439796 0.198627 0.384106
305 4 0.426215 0.185992 0.400872
2814 4 0.0216953 0.312826 0.391371
2801 4 0.0183757 0.30382 0.408898
390 4 0.0859152 0.256833 0.338115
618 4 0.0955564 0.267464 0.40396
617 4 0.0854724 0.267315 0.35498
616 2 0.0905144 0.267389 0.37947
400 2 0.167795 0.27117 0.339549
375 4 0.191604 0.291756 0.361232
402 4 0.183799 0.275288 0.358313
373 2 0.213215 0.300275 0.370482
374 4 0.234825 0.308795 0.379732
678 4 0.19734 0.327316 0.344445
508 2 0.256022 0.315745 0.339571
378 4 0.253429 0.298857 0.376043
489 4 0.295967 0.261281 0.403042
376 2 0.271487 0.28205 0.380117
377 4 0.289545 0.265242 0.384191
510 4 0.246361 0.313844 0.362555
487 2 0.320806 0.259583 0.400744
716 4 0.387022 0.256991 0.348712
715 2 0.376904 0.256578 0.371574
717 4 0.366787 0.256166 0.394435
488 4 0.345646 0.257884 0.398446
267 4 0.357578 0.245577 0.411338
268 2 0.451099 0.252565 0.378708
270 4 0.442977 0.274836 0.386658
2924 4 0.449282 0.284621 0.403236
408 4 0.0403749 0.339392 0.33981
406 2 0.0291506 0.36131 0.344144
407 4 0.0179264 0.383229 0.348478
2812 2 0.0100358 0.334861 0.393292
680 4 0.0445052 0.41356 0.411943
676 2 0.179154 0.342608 0.336658
710 4 0.163137 0.406432 0.397481
504 4 0.181544 0.397423 0.397301
502 2 0.206538 0.397411 0.396612
503 4 0.231532 0.397399 0.395923
650 4 0.252058 0.399166 0.398559
649 2 0.258838 0.375365 0.402129
651 4 0.265619 0.351565 0.4057
667 2 0.391903 0.417021 0.396646
559 2 0.427053 0.403544 0.354841
560 4 0.428847 0.412561 0.378093
588 4 0.429532 0.422203 0.397259
547 2 0.0219953 0.418297 0.340793
549 4 0.0307439 0.440609 0.347922
777 4 0.0351696 0.456982 0.335144
773 4 0.200111 0.495089 0.40249
435 4 0.319609 0.437537 0.342078
2 3 0.318901 0.479199 0.362407
4 3 0.335581 0.451962 0.342594
668 4 0.412415 0.425224 0.384936
1 1 0.33901 0.471907 0.353944
3 3 0.353783 0.468579 0.371524
5 3 0.347296 0.487627 0.339701
3989 4 0.488753 0.487083 0.377528
586 2 0.450758 0.422007 0.410473
317 4 0.102446 0.030124 0.423876
1781 4 0.10832 0.0160359 0.438842
428 4 0.08943 0.0128636 0.429234
1780 2 0.125714 0.0221808 0.455721
1782 4 0.143107 0.0283258 0.4726
341 4 0.144737 0.0503947 0.471587
2430 4 0.148245 0.0391532 0.490148
340 2 0.157961 0.0656319 0.456817
1180 2 0.282503 0.0502361 0.464272
1181 4 0.293897 0.0348861 0.480389
1182 4 0.27111 0.0655861 0.448156
684 4 0.265646 0.0617204 0.427926
963 4 0.288242 0.0147375 0.484244
961 2 0.26651 0.00460393 0.49133
320 4 0.268373 0.0819303 0.434456
430 2 0.31745 0.0212762 0.494079
431 4 0.340773 0.0153497 0.487292
426 4 0.385859 6.30128e-06 0.436039
424 2 0.390334 0.0183546 0.419654
1216 2 0.408511 0.012511 0.472056
1218 4 0.419158 0.0259176 0.490279
457 2 0.0127078 0.113886 0.457869
719 4 0.0351076 0.116349 0.48032
459 4 0.036838 0.108623 0.461769
718 2 0.054374 0.115803 0.496247
687 4 0.16057 0.147548 0.41154
367 2 0.122427 0.101367 0.417548
369 4 0.113113 0.114218 0.436869
939 4 0.114355 0.12628 0.452844
937 2 0.125758 0.148451 0.45474
1151 4 0.164952 0.134462 0.425697
342 4 0.171184 0.0808691 0.442048
1152 4 0.187427 0.0910796 0.436353
1150 2 0.17619 0.112771 0.431025
321 4 0.292151 0.125923 0.4344
319 2 0.280262 0.103927 0.434428
899 4 0.284097 0.135794 0.451266
898 2 0.280425 0.160517 0.450598
471 4 0.0212556 0.231282 0.503657
938 4 0.13716 0.170622 0.456636
1034 4 0.150953 0.183454 0.449475
261 4 0.104449 0.230768 0.456127
1035 4 0.124479 0.224496 0.460218
1033 2 0.137716 0.203975 0.454846
695 4 0.109363 0.22202 0.475064
694 2 0.10336 0.236904 0.494236
259 2 0.095636 0.247389 0.439657
411 4 0.237008 0.228831 0.426169
409 2 0.248026 0.207761 0.418432
410 4 0.259043 0.186691 0.410696
900 4 0.276753 0.185241 0.449929
813 4 0.352803 0.234066 0.473041
266 4 0.358136 0.223177 0.456045
265 2 0.357857 0.234377 0.433691
811 2 0.360218 0.244915 0.494314
2656 2 0.488323 0.19521 0.452226
2657 4 0.469333 0.209709 0.444854
2802 4 0.00112445 0.277725 0.447913
2800 2 0.00975007 0.290773 0.428406
347 4 0.0958047 0.283192 0.418982
260 4 0.0868232 0.264009 0.423186
346 2 0.105291 0.301352 0.433314
348 4 0.114778 0.319512 0.447646
10 3 0.125006 0.321273 0.46505
9 3 0.134294 0.310652 0.499958
6 1 0.131342 0.328668 0.485637
8 3 0.151063 0.340781 0.483975
238 2 0.379742 0.317454 0.437978
239 4 0.398947 0.302532 0.443783
2925 4 0.408906 0.291613 0.431898
2923 2 0.429094 0.288117 0.417567
2456 4 0.482401 0.322816 0.468098
584 4 0.463619 0.313174 0.463767
583 2 0.447351 0.302031 0.479141
585 4 0.431082 0.290888 0.494514
7 3 0.114918 0.342333 0.494164
711 4 0.148563 0.385087 0.44029
709 2 0.15585 0.395759 0.418886
240 4 0.360536 0.332375 0.432173
335 4 0.36701 0.351745 0.43064
669 4 0.37139 0.408818 0.408355
334 2 0.366199 0.37659 0.427943
336 4 0.365388 0.401435 0.425247
926 4 0.456552 0.362185 0.493475
679 2 0.05277 0.420832 0.434393
681 4 0.0610348 0.428104 0.456843
383 4 0.0798173 0.431519 0.464386
539 4 0.062968 0.475471 0.5169
538 2 0.0419849 0.46691 0.506336
568 2 0.113527 0.490474 0.42763
384 4 0.12123 0.45749 0.453842
569 4 0.120511 0.467718 0.435285
382 2 0.100524 0.444504 0.459114
772 2 0.199167 0.477138 0.41987
634 2 0.183034 0.478071 0.472657
774 4 0.198223 0.459187 0.43725
635 4 0.185595 0.46209 0.453598
636 4 0.180473 0.494051 0.491716
1910 4 0.456356 0.476827 0.488748
661 2 0.462306 0.447593 0.459118
662 4 0.451296 0.459941 0.477866
663 4 0.473316 0.435245 0.44037
2507 4 0.490359 0.422381 0.43655
587 4 0.471984 0.421812 0.423686
1909 2 0.470494 0.494893 0.498692
2428 2 0.15684 0.048012 0.511893
2429 4 0.165435 0.0568707 0.533637
1030 2 0.244357 0.0439998 0.581634
1032 4 0.25975 0.0625451 0.57498
432 4 0.294126 0.0272028 0.500866
720 4 0.0736404 0.115257 0.512175
808 2 0.483974 0.0846288 0.567244
810 4 0.466355 0.0789048 0.550452
879 4 0.132666 0.222163 0.565226
1272 4 0.147853 0.216839 0.577504
877 2 0.116638 0.23036 0.547875
878 4 0.100609 0.238557 0.530523
857 4 0.173877 0.205062 0.528695
856 2 0.191641 0.222095 0.524277
858 4 0.209405 0.239127 0.519859
952 2 0.394584 0.230959 0.54436
954 4 0.410352 0.218239 0.559014
953 4 0.378816 0.243679 0.529706
905 4 0.427572 0.209655 0.564304
904 2 0.436363 0.191768 0.579402
906 4 0.445154 0.173881 0.5945
982 2 0.0207482 0.30362 0.535089
984 4 0.0448907 0.309536 0.537796
326 4 0.061589 0.296614 0.541707
1136 4 0.0618562 0.316968 0.548792
325 2 0.0742135 0.275621 0.536699
696 4 0.0973568 0.251789 0.513409
327 4 0.086838 0.254627 0.531692
1258 2 0.145741 0.291804 0.527141
1260 4 0.159974 0.272646 0.534594
1259 4 0.131508 0.310963 0.519687
1238 4 0.315848 0.278418 0.569157
792 4 0.335504 0.278553 0.564013
812 4 0.367633 0.255763 0.515586
790 2 0.354494 0.271392 0.549409
791 4 0.373484 0.26423 0.534805
873 4 0.388421 0.259287 0.518693
871 2 0.404717 0.277985 0.515537
3113 4 0.498174 0.276903 0.570033
872 4 0.421013 0.296684 0.512382
1135 2 0.0572788 0.336516 0.563695
936 4 0.0344904 0.408233 0.53978
3353 4 0.0181733 0.404731 0.529249
3352 2 0.00434186 0.388329 0.51641
1137 4 0.0527015 0.356064 0.578598
1161 4 0.104325 0.428904 0.545558
897 4 0.159607 0.409618 0.589437
1191 4 0.218226 0.407483 0.566884
1189 2 0.230162 0.385523 0.566205
896 4 0.209334 0.411349 0.584442
895 2 0.18447 0.410484 0.586939
1190 4 0.242099 0.363563 0.565526
803 4 0.252199 0.351148 0.577474
880 2 0.352792 0.387457 0.576826
881 4 0.3536 0.40061 0.555577
925 2 0.46009 0.377396 0.513001
927 4 0.463627 0.392608 0.532528
1001 4 0.471142 0.406344 0.544457
1000 2 0.478903 0.415967 0.566191
934 2 0.0349554 0.421379 0.561044
3430 2 0.0355584 0.478138 0.577771
540 4 0.0210019 0.458349 0.495772
3431 4 0.0316062 0.501035 0.568536
1160 4 0.152105 0.415252 0.551167
1159 2 0.128215 0.422078 0.548362
2154 4 0.298253 0.490975 0.574533
1454 4 0.35359 0.420115 0.553104
1453 2 0.364674 0.441799 0.547433
1455 4 0.375757 0.463483 0.541763
3182 4 0.491525 0.460522 0.580593
1183 2 0.0175133 0.0507754 0.663399
1184 4 0.00435312 0.0297504 0.660246
1185 4 0.0306734 0.0718004 0.666551
1059 4 0.158496 0.0752667 0.597466
1284 4 0.167413 0.0602134 0.586764
1283 4 0.213654 0.0413675 0.589457
2133 4 0.223633 0.0255986 0.653681
1282 2 0.190534 0.0507904 0.58811
2132 4 0.214739 0.0264323 0.604478
1031 4 0.228963 0.0254544 0.588289
2131 2 0.219186 0.0260154 0.629079
2281 2 0.335455 0.0126503 0.653744
2283 4 0.34305 0.027335 0.672502
1062 4 0.478787 0.0286582 0.621855
1060 2 0.488172 0.00842883 0.610547
1083 4 0.00379101 0.124571 0.627053
1081 2 0.0146399 0.106473 0.640467
1082 4 0.0254888 0.088375 0.653881
943 2 0.0662383 0.0991618 0.65906
944 4 0.0445283 0.0880678 0.664608
945 4 0.0879482 0.110256 0.653512
1057 2 0.165882 0.0961668 0.609033
1058 4 0.173268 0.117067 0.620601
1153 2 0.179839 0.159898 0.623447
1155 4 0.183331 0.135329 0.62651
909 4 0.1811 0.11969 0.640755
907 2 0.201565 0.108777 0.650096
908 4 0.22203 0.0978638 0.659437
886 2 0.329702 0.158432 0.638767
888 4 0.313862 0.177109 0.643814
1193 4 0.397504 0.132182 0.60099
887 4 0.345542 0.139756 0.63372
1194 4 0.356703 0.122279 0.628155
1192 2 0.377103 0.127231 0.614572
830 4 0.34258 0.121598 0.644496
1026 4 0.450628 0.152031 0.645968
1143 4 0.453669 0.141148 0.665335
1263 4 0.446668 0.161277 0.665058
1024 2 0.454271 0.155145 0.621429
1025 4 0.457914 0.15826 0.596889
852 4 0.067196 0.243874 0.66608
1270 2 0.16548 0.209126 0.593472
1154 4 0.176346 0.184466 0.620385
1271 4 0.183106 0.201413 0.60944
1221 4 0.197201 0.191449 0.621962
1219 2 0.219005 0.202055 0.628068
1220 4 0.240808 0.212661 0.634175
798 4 0.251584 0.231217 0.63023
1212 4 0.260823 0.211839 0.626896
1211 4 0.297676 0.178225 0.630463
1210 2 0.279249 0.195032 0.628679
1244 4 0.0214856 0.286013 0.672371
1243 2 0.0433301 0.275365 0.666488
1245 4 0.0651747 0.264717 0.660605
1209 4 0.0834087 0.253956 0.656401
946 2 0.162126 0.287646 0.658831
1207 2 0.105064 0.263058 0.664967
948 4 0.180239 0.290876 0.6419
1237 2 0.302317 0.290047 0.586675
796 2 0.263961 0.247783 0.644286
1239 4 0.288786 0.301675 0.604193
804 4 0.286488 0.318431 0.593427
802 2 0.269343 0.33479 0.585451
797 4 0.276338 0.264349 0.658342
929 4 0.371992 0.328109 0.638266
3112 2 0.502222 0.265447 0.591886
992 4 0.147388 0.413283 0.605567
882 4 0.351983 0.374303 0.598074
930 4 0.366489 0.3653 0.605292
928 2 0.369241 0.346704 0.621779
1101 4 0.410608 0.374771 0.649648
1099 2 0.426914 0.392704 0.655788
1206 4 0.479038 0.418942 0.605282
1100 4 0.443219 0.410637 0.661928
1204 2 0.469602 0.418992 0.628437
935 4 0.0354204 0.434524 0.582308
3432 4 0.0395106 0.455241 0.587006
3264 4 0.0228122 0.445628 0.596942
1041 4 0.0434703 0.439907 0.601531
1039 2 0.0650527 0.435519 0.613369
3262 2 0.00560886 0.449395 0.614691
3238 2 0.999784 0.482423 0.660425
1040 4 0.0866351 0.431132 0.625207
993 4 0.101687 0.432359 0.612514
991 2 0.124538 0.422821 0.609041
1187 4 0.234948 0.498888 0.634684
1186 2 0.220381 0.491334 0.65355
1173 4 0.293282 0.474222 0.583124
1172 4 0.27779 0.466921 0.630107
1171 2 0.285536 0.470572 0.606615
891 4 0.286757 0.456278 0.646762
889 2 0.286179 0.471454 0.666625
1002 4 0.486664 0.425589 0.587924
3183 4 0.472195 0.494045 0.612268
3181 2 0.48186 0.477284 0.59643
1205 4 0.460167 0.419041 0.651592
824 4 0.226206 0.0282801 0.672925
823 2 0.211908 0.0108903 0.683803
2400 4 0.339744 0.06867 0.725054
2398 2 0.343165 0.0676118 0.7498
43 3 0.448767 0.0714412 0.724274
846 4 0.444737 0.0542028 0.733442
1076 4 0.0261072 0.0910303 0.675349
1075 2 0.0223706 0.0922704 0.70004
1077 4 0.018634 0.0935106 0.724732
864 4 0.0181261 0.111568 0.73554
1227 4 0.231868 0.106157 0.673935
1226 4 0.226712 0.119138 0.721952
1225 2 0.22929 0.112648 0.697943
1148 4 0.219246 0.106714 0.739033
1130 4 0.209938 0.126111 0.734483
1129 2 0.208919 0.146217 0.749311
1147 2 0.216341 0.0857443 0.752337
1005 4 0.305641 0.086264 0.72764
1003 2 0.302139 0.103913 0.745002
829 2 0.35683 0.117649 0.664658
831 4 0.371079 0.1137 0.684821
45 3 0.475635 0.0954995 0.735089
41 1 0.456556 0.0932526 0.722859
44 3 0.46066 0.0987763 0.700699
42 3 0.44049 0.107442 0.731207
1142 4 0.462304 0.0943056 0.680564
1141 2 0.457986 0.117727 0.67295
3426 4 0.48747 0.159186 0.718167
3270 4 0.486058 0.154895 0.738892
1179 4 0.998489 0.168827 0.707562
850 2 0.0628617 0.221507 0.676383
1177 2 0.0204677 0.176868 0.698763
1178 4 0.0424468 0.184909 0.689963
851 4 0.0585273 0.199141 0.686685
1107 4 0.0629825 0.178591 0.690366
1105 2 0.0819541 0.177928 0.706639
1106 4 0.100926 0.177266 0.722912
1073 4 0.120191 0.17454 0.730838
977 4 0.246454 0.223638 0.745516
1299 4 0.300986 0.206707 0.72342
1298 4 0.263442 0.235433 0.739729
1297 2 0.282214 0.22107 0.731575
1086 4 0.31511 0.193741 0.716466
1084 2 0.330672 0.181143 0.731443
1262 4 0.416694 0.175112 0.70262
1085 4 0.346235 0.168546 0.746419
3121 2 0.500956 0.252632 0.694019
1261 2 0.431681 0.168195 0.683839
1145 4 0.478253 0.222471 0.719583
1144 2 0.478486 0.19813 0.725298
1146 4 0.478719 0.17379 0.731014
3123 4 0.476938 0.251868 0.687113
1208 4 0.126719 0.272161 0.673534
820 2 0.131434 0.283538 0.717481
822 4 0.130658 0.280755 0.692645
947 4 0.144014 0.284415 0.675763
821 4 0.13221 0.286322 0.742317
1242 4 0.116423 0.290478 0.754865
1065 4 0.239982 0.336321 0.691865
1063 2 0.251329 0.33869 0.714019
1098 4 0.307681 0.320799 0.73947
892 2 0.0494187 0.399729 0.731836
893 4 0.0588957 0.376731 0.734382
942 4 0.0796969 0.380294 0.737563
894 4 0.0399417 0.422726 0.729291
940 2 0.104247 0.376138 0.735278
941 4 0.128797 0.371983 0.732994
1067 4 0.125668 0.354138 0.724576
1066 2 0.148619 0.35043 0.715374
1068 4 0.17157 0.346722 0.706171
1139 4 0.224643 0.390045 0.704926
1029 4 0.211961 0.401437 0.71647
1028 4 0.177298 0.365681 0.711914
1027 2 0.194629 0.383559 0.714192
1138 2 0.241298 0.403939 0.692486
1064 4 0.262676 0.341058 0.736174
1140 4 0.257953 0.417832 0.680046
806 4 0.26931 0.359627 0.745465
805 2 0.290701 0.372154 0.742195
807 4 0.312092 0.38468 0.738925
3240 4 0.00942992 0.491391 0.681678
2172 4 0.0290977 0.491666 0.673652
1279 2 0.0267178 0.455414 0.699086
3276 4 0.0218748 0.433808 0.733895
1983 4 0.0409981 0.444439 0.733514
1280 4 0.0325509 0.437304 0.715309
1281 4 0.0208848 0.473525 0.682864
1174 2 0.202894 0.491085 0.715673
1188 4 0.205814 0.48378 0.672415
1176 4 0.19495 0.494796 0.739089
1175 4 0.210837 0.487374 0.692257
2016 4 0.17629 0.491879 0.746304
890 4 0.285601 0.486631 0.686487
1988 4 0.29122 0.506595 0.693283
1250 4 0.448975 0.414445 0.755797
1269 4 0.453755 0.427394 0.670605
2169 4 0.475241 0.490071 0.68257
1268 4 0.461285 0.476707 0.674106
1267 2 0.45752 0.45205 0.672355
1196 4 0.0767012 0.024284 0.821012
911 4 0.079773 0.0451116 0.824138
1203 4 0.0852639 0.0359995 0.805419
1201 2 0.099119 0.0308797 0.785245
1202 4 0.112974 0.0257598 0.76507
2049 4 0.106251 0.00525572 0.76659
910 2 0.0924542 0.0657922 0.830194
1149 4 0.213437 0.0647747 0.765642
1049 4 0.340669 0.0599987 0.79395
1048 2 0.331747 0.0778589 0.809003
2399 4 0.346586 0.0665537 0.774546
1112 4 0.360266 0.054833 0.78676
1111 2 0.384995 0.0553812 0.790418
1113 4 0.409723 0.0559293 0.794075
845 4 0.418683 0.0489238 0.775798
844 2 0.43171 0.0515633 0.75462
980 4 0.421202 0.0378614 0.794233
979 2 0.434479 0.0298282 0.813838
863 4 0.00852425 0.0941738 0.78143