ITEM: TIMESTEP
1040000
ITEM: NUMBER OF ATOMS
4590
ITEM: BOX BOUNDS pp pp pp
-9.9985700000000008e+00 9.9985700000000008e+00
-9.9985700000000008e+00 9.9985700000000008e+00
-9.9985700000000008e+00 9.9985700000000008e+00
ITEM: ATOMS id type xs ys zs
1246 2 0.00641743 0.0734546 0.00197693
1668 4 0.0844079 0.0361975 0.075045
1666 2 0.0887982 0.0595969 0.0674047
1667 4 0.0931886 0.0829962 0.0597644
534 4 0.18867 0.0298285 0.0118521
532 2 0.179907 0.0497358 0.99952
490 2 0.297323 0.0450989 0.0259152
491 4 0.287802 0.0352376 0.0468265
492 4 0.306845 0.0549601 0.00500395
653 4 0.296252 0.026207 0.062288
652 2 0.305143 0.0307002 0.0852214
987 4 0.393904 0.0825145 0.0219137
295 2 0.399351 0.0455353 0.0797858
297 4 0.386088 0.0656963 0.0863291
2974 2 0.486075 0.0464312 0.0171768
747 4 0.465058 0.0732254 0.0131234
2975 4 0.469486 0.0565976 0.0014728
589 2 0.0393324 0.107526 0.0376665
590 4 0.0200242 0.110766 0.0221141
3233 4 0.00804076 0.110134 0.00401931
591 4 0.0586406 0.104286 0.0532188
1248 4 0.0196178 0.0931129 0.0100067
702 4 0.0979411 0.0971621 0.0724867
565 2 0.24344 0.138025 0.0551308
566 4 0.237341 0.133638 0.0312824
359 4 0.254317 0.138407 0.0216279
358 2 0.260905 0.150531 0.000776664
557 4 0.362891 0.123091 0.0615774
556 2 0.376712 0.139064 0.0481977
558 4 0.390533 0.155037 0.034818
746 4 0.460926 0.122959 0.00992556
745 2 0.462992 0.0980921 0.0115245
555 4 0.0225394 0.171144 0.000867562
477 4 0.0816608 0.198305 0.0892676
913 2 0.145279 0.203773 0.00689738
914 4 0.164146 0.203592 0.0233046
666 4 0.322854 0.193589 0.00727994
572 4 0.326108 0.211506 0.0160125
571 2 0.339235 0.23273 0.0175665
771 4 0.467869 0.240229 0.0449618
770 4 0.45731 0.227141 0.997867
769 2 0.462589 0.233685 0.0214144
323 4 0.462238 0.247067 0.0644268
518 4 0.483065 0.247629 0.0577562
1054 2 0.0180871 0.321798 0.00911771
292 2 0.130329 0.30893 0.053977
293 4 0.143513 0.313598 0.0332507
294 4 0.117145 0.304263 0.0747034
288 4 0.161799 0.324641 0.0351616
507 4 0.16215 0.30329 0.0349469
505 2 0.176289 0.287965 0.0211491
506 4 0.190429 0.272639 0.00735125
482 4 0.250075 0.333761 0.0671735
573 4 0.352362 0.253954 0.0191206
481 2 0.23222 0.343215 0.0524417
483 4 0.214366 0.352669 0.0377099
287 4 0.196493 0.360633 0.0364237
286 2 0.179146 0.342637 0.0357927
280 2 0.472646 0.372515 0.0673223
282 4 0.48676 0.378301 0.047511
281 4 0.458532 0.366728 0.0871336
315 4 0.0598903 0.423806 0.0609211
552 4 0.0585654 0.438577 0.0470409
550 2 0.0793404 0.443742 0.0341219
551 4 0.100115 0.448907 0.0212029
625 2 0.234026 0.436033 0.070983
627 4 0.211257 0.445438 0.0752602
626 4 0.256795 0.426628 0.0667058
245 4 0.298347 0.452843 0.0652121
244 2 0.306135 0.46299 0.0437281
246 4 0.313923 0.473137 0.0222442
272 4 0.298934 0.486197 0.0185272
563 4 0.431539 0.494037 0.0207631
562 2 0.439 0.480872 0.000858772
18 3 0.0246872 0.0645486 0.147156
17 3 0.0424592 0.0620529 0.114132
2481 4 0.0137992 0.0712575 0.161823
16 1 0.0442156 0.0697297 0.135746
19 3 0.0623212 0.0593918 0.14593
448 2 0.160467 0.073823 0.117714
1475 4 0.247776 0.0169783 0.086065
1474 2 0.224697 0.00745144 0.0874036
450 4 0.173149 0.0523548 0.119568
1476 4 0.201618 0.997925 0.0887422
654 4 0.314034 0.0351934 0.108155
296 4 0.412613 0.0253743 0.0732426
20 3 0.047298 0.0922923 0.135465
700 2 0.117448 0.102669 0.0871274
701 4 0.136954 0.108176 0.101768
236 4 0.133446 0.109586 0.123159
449 4 0.147784 0.0952913 0.11586
235 2 0.14946 0.127499 0.130077
237 4 0.165474 0.145412 0.136994
567 4 0.249538 0.142412 0.0789791
630 4 0.415238 0.156484 0.123052
339 4 0.0592123 0.2124 0.128527
337 2 0.0758342 0.230496 0.133154
475 2 0.103582 0.187388 0.0943136
476 4 0.125503 0.176471 0.0993596
338 4 0.0924561 0.248593 0.137781
738 4 0.217921 0.244675 0.121452
461 4 0.307276 0.206088 0.107875
354 4 0.308729 0.223283 0.0986019
460 2 0.328424 0.193079 0.110824
352 2 0.294798 0.243799 0.101797
254 4 0.402892 0.17212 0.12565
462 4 0.349572 0.18007 0.113773
255 4 0.362098 0.184675 0.0995938
253 2 0.382495 0.178397 0.112622
628 2 0.430307 0.170212 0.137531
629 4 0.445376 0.183941 0.152009
363 4 0.102007 0.251232 0.156505
361 2 0.123465 0.258074 0.167364
455 4 0.11356 0.322807 0.138949
537 4 0.109372 0.322061 0.158532
736 2 0.239993 0.25592 0.118056
756 4 0.244373 0.320747 0.0832473
754 2 0.257337 0.3017 0.0929595
737 4 0.262065 0.267165 0.11466
755 4 0.270301 0.282653 0.102672
353 4 0.280868 0.264315 0.104992
741 4 0.376079 0.303561 0.133631
622 2 0.409158 0.284195 0.111996
624 4 0.390497 0.297628 0.121821
739 2 0.365644 0.321596 0.11981
322 2 0.4482 0.249306 0.0849962
324 4 0.434162 0.251545 0.105566
623 4 0.427818 0.270762 0.102171
527 4 0.482355 0.252838 0.128943
526 2 0.477872 0.277309 0.131445
528 4 0.47339 0.301779 0.133947
672 4 0.48098 0.310135 0.117847
670 2 0.475874 0.330642 0.104484
619 2 0.0134095 0.364456 0.139636
620 4 0.0204394 0.374753 0.161309
621 4 0.00637961 0.354159 0.117962
648 4 0.0303714 0.391876 0.15671
646 2 0.0406525 0.411523 0.168264
456 4 0.118744 0.339467 0.0920847
454 2 0.116152 0.331137 0.115517
252 4 0.247106 0.341789 0.0869014
607 2 0.276635 0.410629 0.097721
251 4 0.278612 0.371608 0.111779
250 2 0.262859 0.356698 0.0993402
609 4 0.284304 0.392173 0.112747
387 4 0.299175 0.37664 0.113034
385 2 0.320048 0.364919 0.105813
302 4 0.33164 0.411238 0.17444
386 4 0.34092 0.353198 0.0985914
740 4 0.35521 0.339632 0.105988
13 3 0.410895 0.354552 0.1587
495 4 0.412523 0.391378 0.120221
493 2 0.40175 0.412041 0.111158
14 3 0.406784 0.386599 0.138689
671 4 0.470768 0.351149 0.0911211
15 3 0.424719 0.357047 0.123767
11 1 0.420709 0.368548 0.14301
595 2 0.479103 0.404161 0.144088
597 4 0.458036 0.391117 0.147435
12 3 0.440625 0.376373 0.15145
596 4 0.50017 0.417206 0.140741
313 2 0.0566922 0.425544 0.0856584
314 4 0.0534941 0.427282 0.110396
1788 4 0.114715 0.498035 0.0850593
1438 2 0.236229 0.502872 0.104744
1439 4 0.2481 0.489451 0.122183
637 2 0.24584 0.461467 0.156537
639 4 0.243409 0.476756 0.136903
608 4 0.268967 0.429084 0.0826952
658 2 0.338851 0.452992 0.159111
494 4 0.390976 0.432704 0.102094
659 4 0.342282 0.476814 0.152337
1420 2 0.0193676 0.998421 0.186428
2479 2 0.00844576 0.0495166 0.172952
2480 4 0.00309228 0.0277756 0.184081
673 2 0.11292 0.0639304 0.215599
675 4 0.126336 0.0428929 0.213982
1403 4 0.12361 0.0327713 0.231829
1402 2 0.111108 0.0118016 0.237228
688 2 0.169234 0.040755 0.239153
674 4 0.0995038 0.084968 0.217216
690 4 0.183961 0.0523874 0.22263
693 4 0.191494 0.0687559 0.216682
21 1 0.351941 0.0417226 0.224505
25 3 0.367541 0.0400008 0.208003
759 4 0.388149 0.0436156 0.215165
1784 4 0.382485 0.0237594 0.20654
1783 2 0.391382 0.00339938 0.195072
23 3 0.330811 0.0440733 0.215211
22 3 0.352341 0.0226314 0.237332
24 3 0.356714 0.0599548 0.238041
757 2 0.403898 0.0626845 0.218844
758 4 0.419646 0.0817534 0.222524
744 4 0.430867 0.0733579 0.238482
512 4 0.009445 0.139186 0.214161
511 2 0.0198117 0.136972 0.236806
722 4 0.144072 0.151903 0.234384
721 2 0.156823 0.141213 0.215721
723 4 0.169574 0.130523 0.197058
691 2 0.18652 0.0921139 0.209277
692 4 0.181546 0.115472 0.201872
582 4 0.251362 0.146018 0.199215
580 2 0.24766 0.122183 0.192629
581 4 0.243959 0.0983478 0.186043
285 4 0.254472 0.151242 0.217307
30 3 0.314006 0.120633 0.231189
283 2 0.2746 0.165986 0.215672
28 3 0.35161 0.121793 0.232694
26 1 0.332298 0.133898 0.228343
27 3 0.332938 0.141356 0.206592
29 3 0.331072 0.152223 0.242524
312 4 0.440334 0.0867394 0.224229
311 4 0.472412 0.107734 0.19212
310 2 0.456373 0.0972366 0.208175
394 2 0.00863386 0.238345 0.243507
344 4 0.263587 0.216883 0.227925
343 2 0.256164 0.240054 0.222162
284 4 0.294728 0.180729 0.214036
764 4 0.384511 0.225313 0.243577
763 2 0.389904 0.243672 0.227482
366 4 0.00997564 0.319721 0.243296
372 4 0.154086 0.279778 0.189064
362 4 0.144923 0.264917 0.178223
370 2 0.162132 0.281172 0.212697
300 4 0.0930184 0.333287 0.23071
535 2 0.130734 0.324458 0.171304
371 4 0.170178 0.282566 0.236329
279 4 0.210137 0.291589 0.195086
277 2 0.222984 0.2808 0.213626
612 4 0.21429 0.310937 0.20096
278 4 0.235831 0.270011 0.232165
345 4 0.248742 0.263224 0.216399
307 2 0.274295 0.294767 0.230216
309 4 0.254963 0.278935 0.229343
308 4 0.293628 0.3106 0.231088
497 4 0.307842 0.301517 0.241385
765 4 0.395297 0.262031 0.211387
417 4 0.15999 0.385446 0.168473
536 4 0.152095 0.326855 0.184076
298 2 0.116557 0.339499 0.236414
299 4 0.140095 0.345711 0.242117
610 2 0.21146 0.335482 0.19713
415 2 0.174639 0.398663 0.183832
416 4 0.189288 0.41188 0.19919
611 4 0.20863 0.360028 0.1933
291 4 0.195548 0.423778 0.213239
303 4 0.306139 0.396815 0.214967
729 4 0.31577 0.388432 0.229898
301 2 0.31889 0.404027 0.194703
645 4 0.458477 0.375533 0.164062
643 2 0.451579 0.373162 0.187978
644 4 0.444682 0.370792 0.211894
447 4 0.458721 0.375067 0.22461
445 2 0.467835 0.38313 0.246452
263 4 0.0649036 0.429313 0.194236
647 4 0.0509337 0.43117 0.179817
262 2 0.0761824 0.448741 0.205213
1757 4 0.0832459 0.486196 0.223673
264 4 0.0874611 0.46817 0.21619
290 4 0.238887 0.441542 0.195721
289 2 0.217218 0.43266 0.20448
660 4 0.33542 0.429169 0.165886
638 4 0.248272 0.446177 0.176171
767 4 0.260606 0.440118 0.192391
768 4 0.3025 0.464502 0.204683
766 2 0.281553 0.45231 0.198537
1573 2 0.33173 0.481263 0.213934
1574 4 0.317672 0.475874 0.193972
525 4 0.359433 0.483611 0.157199
1575 4 0.345788 0.486652 0.233897
1802 4 0.34318 0.474402 0.249549
689 4 0.154507 0.0291225 0.255675
1464 4 0.122079 0.00236366 0.327394
1700 4 0.178891 0.0133558 0.282142
1699 2 0.200327 0.0227679 0.290922
248 4 0.23178 0.049489 0.307011
247 2 0.230611 0.07258 0.297491
1701 4 0.221763 0.0321799 0.299703
605 4 0.218101 0.0386487 0.31967
633 4 0.324367 0.0685087 0.300156
1496 4 0.365078 0.0102699 0.248587
1495 2 0.359285 0.00653855 0.272622
697 2 0.377184 0.0272705 0.326473
699 4 0.367188 0.0103807 0.310981
1497 4 0.353491 0.00280724 0.296657
579 4 0.0413423 0.143393 0.275314
513 4 0.0301784 0.134757 0.259451
577 2 0.0657279 0.148462 0.273116
530 4 0.0333356 0.123587 0.277711
529 2 0.0214053 0.107529 0.29271
531 4 0.00947504 0.0914705 0.30771
578 4 0.0901136 0.15353 0.270918
546 4 0.139193 0.157061 0.252741
544 2 0.151935 0.150787 0.273319
545 4 0.164677 0.144514 0.293898
249 4 0.229443 0.095671 0.287972
403 2 0.19441 0.117354 0.29096
404 4 0.214435 0.104208 0.298126
405 4 0.174384 0.1305 0.283794
631 2 0.321766 0.0858293 0.318
632 4 0.319165 0.10315 0.335844
708 4 0.340578 0.15819 0.258874
706 2 0.340549 0.164232 0.283137
350 4 0.433375 0.0916504 0.318265
742 2 0.438122 0.085664 0.259003
743 4 0.445376 0.0979701 0.279524
333 4 0.435936 0.0975026 0.298479
331 2 0.444284 0.119977 0.305578
332 4 0.452633 0.142451 0.312677
762 4 0.467438 0.155627 0.316631
707 4 0.34052 0.170274 0.307399
614 4 0.382575 0.24877 0.312083
760 2 0.463342 0.174168 0.300364
418 2 0.451053 0.216112 0.267627
419 4 0.445388 0.191758 0.267636
761 4 0.459246 0.19271 0.284097
420 4 0.456718 0.240465 0.267618
521 4 0.477241 0.234352 0.270549
750 4 0.0422959 0.25039 0.266466
396 4 0.0282495 0.250731 0.252835
364 2 0.00612745 0.308448 0.265281
748 2 0.0554675 0.270651 0.272881
365 4 0.00227927 0.297176 0.287265
442 2 0.0287189 0.284676 0.320852
443 4 0.0122456 0.296257 0.30603
749 4 0.0686392 0.290913 0.279296
510 4 0.291796 0.319933 0.300622
496 2 0.320596 0.293184 0.261212
498 4 0.333349 0.284851 0.281038
543 4 0.473448 0.253149 0.261283
541 2 0.471739 0.277842 0.264819
542 4 0.470031 0.302535 0.268354
734 4 0.143823 0.363258 0.250428
733 2 0.149854 0.361033 0.274592
735 4 0.155885 0.358809 0.298755
677 4 0.152955 0.354496 0.317982
676 2 0.166541 0.374132 0.325399
678 4 0.180128 0.393768 0.332815
727 2 0.328135 0.399754 0.248448
509 4 0.259678 0.358211 0.302605
508 2 0.275737 0.339072 0.301613
728 4 0.340499 0.411076 0.266998
753 4 0.393719 0.369151 0.315138
435 4 0.347023 0.415944 0.329066
446 4 0.476949 0.391193 0.268295
713 4 0.489441 0.391214 0.28322
603 4 0.0769458 0.415723 0.312094
602 4 0.115613 0.422822 0.281188
601 2 0.0962794 0.419273 0.296641
414 4 0.125222 0.490246 0.266263
437 4 0.225127 0.421824 0.292359
436 2 0.249308 0.422355 0.286021
438 4 0.273489 0.422887 0.279682
434 4 0.330912 0.422408 0.282169
1435 2 0.255056 0.482054 0.29701
1436 4 0.257483 0.457646 0.301863
433 2 0.338968 0.419176 0.305617
1801 2 0.345773 0.452269 0.260888
1803 4 0.348366 0.430136 0.272227
712 2 0.496424 0.411345 0.296303
231 4 0.437958 0.487317 0.281973
318 4 0.0562112 0.0439207 0.348817
234 4 0.0407126 0.0381312 0.337483
232 2 0.019284 0.027538 0.344816
316 2 0.0737523 0.0341108 0.363691
428 4 0.0830702 0.00668285 0.386533
317 4 0.0912933 0.0243009 0.378566
604 2 0.228618 0.0296959 0.340513
606 4 0.239135 0.0207432 0.361356
441 4 0.258427 0.0252517 0.368836
439 2 0.268995 0.0109481 0.386412
683 4 0.339377 0.0872647 0.403213
351 4 0.404626 0.0542032 0.334755
698 4 0.38718 0.0441602 0.341965
257 4 0.39545 0.0603895 0.352959
256 2 0.397924 0.0505589 0.375815
258 4 0.400398 0.0407284 0.398672
425 4 0.388099 0.0265156 0.404273
349 2 0.419001 0.0729268 0.32651
398 4 0.031327 0.121107 0.360504
397 2 0.054792 0.120285 0.351908
399 4 0.078257 0.119462 0.343312
392 4 0.046996 0.160784 0.345691
732 4 0.0929538 0.108135 0.352059
731 4 0.13153 0.135866 0.367667
730 2 0.112242 0.122 0.359863
686 4 0.149184 0.141604 0.377927
599 4 0.13127 0.154537 0.378982
685 2 0.162624 0.125699 0.391767
687 4 0.176065 0.109794 0.405608
452 4 0.461081 0.0884887 0.39893
2653 2 0.0151581 0.175112 0.358666
2654 4 0.0337979 0.175186 0.342001
391 2 0.0685628 0.173424 0.346221
393 4 0.0901295 0.186064 0.346751
598 2 0.131299 0.177698 0.369562
600 4 0.131328 0.200859 0.360142
260 4 0.0979516 0.219154 0.396799
275 4 0.163868 0.219417 0.374029
474 4 0.228585 0.20137 0.388041
276 4 0.209783 0.203659 0.38604
472 2 0.240092 0.195136 0.366737
274 2 0.186825 0.211538 0.380035
473 4 0.251599 0.188901 0.345432
613 2 0.392994 0.246816 0.334728
615 4 0.403414 0.244862 0.357374
269 4 0.470922 0.239241 0.404076
306 4 0.470849 0.249341 0.422245
444 4 0.0451922 0.273094 0.335673
616 2 0.0734328 0.279086 0.390096
389 4 0.140487 0.285752 0.340605
401 4 0.157772 0.274582 0.334515
617 4 0.0766818 0.277964 0.36533
388 2 0.117246 0.281097 0.348567
390 4 0.0940058 0.276442 0.356528
400 2 0.173292 0.280929 0.353063
375 4 0.189539 0.280955 0.391009
402 4 0.188811 0.287276 0.371612
373 2 0.175092 0.287376 0.410379
378 4 0.273744 0.274585 0.341194
489 4 0.314322 0.267384 0.393887
376 2 0.288254 0.267628 0.360332
377 4 0.302765 0.260671 0.379469
716 4 0.401698 0.249556 0.376696
487 2 0.335538 0.269312 0.406976
488 4 0.356754 0.271239 0.420066
715 2 0.389344 0.261078 0.395131
717 4 0.376991 0.272599 0.413565
270 4 0.473877 0.28477 0.383606
2923 2 0.452498 0.320034 0.397903
268 2 0.4724 0.262006 0.393841
2924 4 0.468529 0.301726 0.392158
406 2 0.0558684 0.388602 0.345004
408 4 0.065363 0.365541 0.346794
407 4 0.0463739 0.411663 0.343214
651 4 0.310862 0.355915 0.423336
751 2 0.398359 0.373123 0.339384
752 4 0.402998 0.377095 0.363631
561 4 0.415387 0.381917 0.378945
559 2 0.413406 0.401696 0.394111
2925 4 0.436467 0.338342 0.403647
777 4 0.0792197 0.485134 0.362206
549 4 0.0741146 0.467043 0.357272
548 4 0.0615295 0.418886 0.352446
547 2 0.067822 0.442965 0.354859
775 2 0.0902351 0.498947 0.344513
773 4 0.232465 0.431395 0.411012
3 3 0.331326 0.488206 0.374195
2 3 0.333386 0.477592 0.338199
4 3 0.329784 0.451387 0.3649
560 4 0.411426 0.421476 0.409278
5 3 0.361953 0.470596 0.361175
1 1 0.339265 0.471918 0.359702
593 4 0.459254 0.492662 0.372563
1780 2 0.146503 0.00974938 0.428117
2429 4 0.116807 0.011837 0.5031
1781 4 0.135254 0.0317685 0.431831
368 4 0.106718 0.0583829 0.44808
1180 2 0.285764 0.071309 0.458099
1181 4 0.284598 0.054376 0.476459
963 4 0.284889 0.0375758 0.491181
432 4 0.303605 0.0466909 0.484739
430 2 0.324861 0.0560825 0.493967
424 2 0.37651 0.0147936 0.423074
841 2 0.381468 0.056226 0.493079
842 4 0.401773 0.041673 0.494123
426 4 0.364921 0.00307153 0.441874
843 4 0.361163 0.070779 0.492035
1217 4 0.415376 0.0255585 0.497289
457 2 0.0110042 0.151259 0.464694
719 4 0.0419393 0.139532 0.482509
459 4 0.0352632 0.153191 0.470434
718 2 0.0436095 0.117692 0.494568
367 2 0.111183 0.0828507 0.450644
369 4 0.115647 0.107318 0.453208
939 4 0.109694 0.113105 0.471727
937 2 0.119891 0.135934 0.471642
938 4 0.130088 0.158764 0.471557
340 2 0.164148 0.0876749 0.488463
342 4 0.175788 0.108273 0.480375
1151 4 0.187744 0.119265 0.420793
1150 2 0.189957 0.114974 0.445326
1152 4 0.192169 0.110683 0.469859
682 2 0.321168 0.0947132 0.418644
1182 4 0.28693 0.0882421 0.439739
321 4 0.299805 0.152476 0.461193
684 4 0.302959 0.102162 0.434076
320 4 0.284199 0.109387 0.441181
319 2 0.292002 0.130932 0.451187
899 4 0.307579 0.146305 0.478641
467 4 0.3545 0.141055 0.410811
466 2 0.347089 0.159656 0.425787
516 4 0.404121 0.155338 0.440416
451 2 0.449668 0.093889 0.420511
453 4 0.438255 0.0992894 0.442093
515 4 0.430854 0.115081 0.45328
514 2 0.417488 0.13521 0.446848
1034 4 0.120879 0.169803 0.484155
261 4 0.117448 0.227346 0.442115
259 2 0.1077 0.22325 0.419457
1035 4 0.118194 0.209974 0.454494
1033 2 0.119537 0.189888 0.469324
695 4 0.108428 0.227605 0.461756
694 2 0.101608 0.243695 0.479638
410 4 0.322948 0.187796 0.436021
411 4 0.277663 0.203165 0.450641
409 2 0.300306 0.195481 0.443331
468 4 0.339679 0.178256 0.440764
266 4 0.373728 0.237419 0.473182
813 4 0.370312 0.23305 0.492685
575 4 0.411258 0.170245 0.45206
265 2 0.372465 0.247183 0.450199
304 2 0.459523 0.236883 0.44073
305 4 0.448196 0.224425 0.459215
574 2 0.425026 0.190963 0.449532
576 4 0.438794 0.211681 0.447004
872 4 0.454128 0.255597 0.476851
871 2 0.443332 0.248073 0.498112
618 4 0.0701839 0.280209 0.414863
347 4 0.0769633 0.299357 0.424233
346 2 0.0922853 0.314259 0.437208
348 4 0.107607 0.32916 0.450184
696 4 0.0947885 0.259785 0.49752
10 3 0.118698 0.316911 0.460491
9 3 0.133549 0.316041 0.495079
6 1 0.130292 0.32887 0.476021
374 4 0.160644 0.293796 0.42975
267 4 0.371202 0.256947 0.427215
584 4 0.495676 0.303111 0.463169
585 4 0.462658 0.265626 0.46085
583 2 0.479167 0.284369 0.462009
2813 4 0.0288635 0.357958 0.434482
8 3 0.150766 0.335432 0.467294
7 3 0.118253 0.347643 0.481662
502 2 0.245308 0.393058 0.461979
504 4 0.224039 0.405712 0.465541
710 4 0.216377 0.414579 0.48232
503 4 0.266577 0.380404 0.458418
650 4 0.271375 0.381731 0.43992
649 2 0.291118 0.368823 0.431628
334 2 0.35743 0.393141 0.451012
238 2 0.401772 0.35875 0.448659
240 4 0.379182 0.369222 0.450946
335 4 0.360721 0.36952 0.45852
2507 4 0.478459 0.41766 0.452809
239 4 0.424361 0.348278 0.446371
680 4 0.00458945 0.445005 0.438082
383 4 0.06885 0.450715 0.458989
681 4 0.0535693 0.448225 0.447638
679 2 0.0290794 0.446615 0.44286
540 4 0.0178199 0.48858 0.498144
570 4 0.141549 0.507189 0.429695
382 2 0.093489 0.454815 0.457853
568 2 0.139056 0.484834 0.440613
569 4 0.136563 0.462479 0.451532
384 4 0.118128 0.458914 0.456716
711 4 0.168107 0.424593 0.490711
709 2 0.192242 0.419586 0.486515
772 2 0.215056 0.42945 0.428853
774 4 0.197647 0.427505 0.446695
634 2 0.192515 0.469637 0.463795
635 4 0.194735 0.44604 0.45583
668 4 0.405534 0.440191 0.418423
336 4 0.354139 0.416763 0.443504
667 2 0.381628 0.435151 0.423742
669 4 0.357722 0.430112 0.429061
1455 4 0.343015 0.453032 0.498611
661 2 0.435148 0.449365 0.491503
588 4 0.42627 0.43531 0.416658
663 4 0.436169 0.449269 0.46652
587 4 0.452895 0.44201 0.458454
586 2 0.439583 0.43866 0.437556
1127 4 0.00681638 0.0111211 0.495157
341 4 0.152509 0.0670766 0.496551
2428 2 0.127826 0.0341854 0.505177
2430 4 0.138845 0.0565337 0.507254
961 2 0.277543 0.0251345 0.511587
962 4 0.270197 0.0126933 0.531994
431 4 0.346117 0.065474 0.503196
1216 2 0.420084 0.010298 0.516528
1218 4 0.424792 0.995038 0.535767
1062 4 0.480613 0.0373511 0.522286
1060 2 0.491416 0.0276765 0.542654
720 4 0.0452797 0.0958529 0.506628
1030 2 0.250598 0.0947455 0.582198
1032 4 0.269209 0.109185 0.573814
898 2 0.314394 0.148039 0.502635
900 4 0.32121 0.149774 0.526629
810 4 0.453949 0.0826588 0.55634
640 2 0.478433 0.136679 0.511396
641 4 0.464336 0.156034 0.518596
808 2 0.469525 0.0938736 0.572364
642 4 0.49253 0.117324 0.504195
469 2 0.0186829 0.189082 0.523719
470 4 0.0399953 0.19485 0.535453
1199 4 0.00716735 0.201807 0.561096
877 2 0.122767 0.223833 0.544862
1272 4 0.130938 0.227855 0.585094
879 4 0.125302 0.215516 0.568305
878 4 0.120232 0.232151 0.521419
856 2 0.191008 0.244382 0.514085
857 4 0.1977 0.222124 0.504867
873 4 0.432536 0.240549 0.519373
982 2 0.0648185 0.320089 0.556915
983 4 0.0432927 0.307933 0.553166
326 4 0.0933437 0.289495 0.551075
325 2 0.0871116 0.275132 0.531579
1258 2 0.146081 0.306382 0.534027
1259 4 0.132545 0.312004 0.51377
1260 4 0.159617 0.30076 0.554283
1136 4 0.101057 0.319355 0.565314
327 4 0.0808796 0.26077 0.512084
1135 2 0.121343 0.321041 0.579833
858 4 0.184315 0.26664 0.523303
802 2 0.241803 0.32502 0.562347
804 4 0.258253 0.313105 0.576929
790 2 0.339784 0.28176 0.562159
791 4 0.353364 0.279997 0.541239
812 4 0.357643 0.263926 0.529926
811 2 0.363978 0.248488 0.511305
953 4 0.419263 0.246271 0.533404
952 2 0.42488 0.249492 0.557555
935 4 0.0400605 0.390366 0.547987
934 2 0.0200899 0.384504 0.534131
3264 4 0.0120291 0.393632 0.580798
984 4 0.0863443 0.332245 0.560663
896 4 0.16171 0.367158 0.577557
1191 4 0.167473 0.367134 0.557637
803 4 0.225354 0.336934 0.547765
1190 4 0.214081 0.354653 0.544498
1189 2 0.190777 0.360894 0.551067
882 4 0.376968 0.39336 0.57587
880 2 0.371672 0.407091 0.555657
930 4 0.395052 0.388872 0.572965
925 2 0.448545 0.392601 0.550732
926 4 0.439948 0.375453 0.534695
539 4 0.050858 0.478203 0.534221
538 2 0.034339 0.483391 0.516182
1159 2 0.146135 0.458371 0.552564
1160 4 0.138922 0.439565 0.567378
1161 4 0.153348 0.477178 0.537749
993 4 0.0812537 0.431286 0.583067
2154 4 0.285459 0.493031 0.573745
881 4 0.366375 0.420822 0.535443
1454 4 0.370127 0.440639 0.538762
1453 2 0.356571 0.446836 0.518687
927 4 0.457143 0.409749 0.56677
662 4 0.434128 0.449461 0.516485
1910 4 0.441283 0.468993 0.514443
1909 2 0.458459 0.480837 0.528222
1001 4 0.456651 0.424825 0.578729
4085 4 0.494126 0.503369 0.537985
1911 4 0.475636 0.492682 0.542001
2114 4 0.000476708 0.00728921 0.629234
945 4 0.101396 0.0813406 0.649148
943 2 0.0799164 0.0876267 0.660296
1031 4 0.231987 0.0803056 0.590583
1282 2 0.201656 0.0695236 0.606225
1283 4 0.226109 0.0655057 0.602894
1284 4 0.177204 0.0735415 0.609556
2131 2 0.212477 0.0110815 0.615169
2133 4 0.196857 0.0186527 0.633165
824 4 0.183668 0.0171048 0.648303
2132 4 0.228097 0.0035103 0.597172
949 2 0.274653 0.00253194 0.591903
951 4 0.270371 0.0245715 0.602908
2281 2 0.382978 0.0227763 0.657657
2282 4 0.369525 0.0185386 0.637011
1092 4 0.370023 0.999872 0.633592
87 3 0.456985 0.0032861 0.606729
944 4 0.0584368 0.0939128 0.671444
1083 4 0.0105865 0.12447 0.63244
1082 4 0.0400485 0.0951822 0.660278
1081 2 0.0253175 0.109826 0.646359
1059 4 0.16823 0.0915788 0.605512
1058 4 0.145365 0.135731 0.610848
1057 2 0.156797 0.113655 0.60818
1155 4 0.161641 0.145408 0.61489
909 4 0.149845 0.126156 0.658382
1153 2 0.173115 0.167515 0.612692
907 2 0.169718 0.11317 0.66623
888 4 0.295347 0.146018 0.627578
886 2 0.314909 0.152529 0.641723
1211 4 0.281512 0.157782 0.619887
887 4 0.334471 0.15904 0.655869
1194 4 0.354803 0.151844 0.655505
809 4 0.485101 0.105088 0.588389
1026 4 0.434534 0.172794 0.664969
1270 2 0.151287 0.215413 0.592596
1271 4 0.171636 0.202972 0.600099
1154 4 0.18459 0.189621 0.610493
1221 4 0.192656 0.202783 0.595393
1219 2 0.216421 0.206567 0.602181
1220 4 0.240186 0.210351 0.608969
798 4 0.252451 0.215102 0.62563
796 2 0.257534 0.233552 0.641721
1212 4 0.247836 0.194704 0.621732
1210 2 0.264674 0.176243 0.620809
1193 4 0.395446 0.180377 0.64961
1192 2 0.375124 0.16611 0.652557
904 2 0.440177 0.23003 0.611039
906 4 0.440468 0.207629 0.622143
1024 2 0.429971 0.183329 0.642757
1025 4 0.425409 0.193863 0.620545
905 4 0.439886 0.25243 0.599935
1243 2 0.0407149 0.271399 0.658239
1244 4 0.0308456 0.289287 0.643823
948 4 0.169626 0.241658 0.637076
946 2 0.163455 0.257501 0.655409
792 4 0.326205 0.283523 0.58308
1238 4 0.30697 0.288278 0.585999
797 4 0.262617 0.252003 0.657811
1237 2 0.282751 0.293696 0.589047
1239 4 0.258533 0.299115 0.592096
954 4 0.430497 0.252713 0.581705
1041 4 0.0261521 0.399279 0.596712
1039 2 0.0490242 0.409376 0.597
895 2 0.14877 0.382102 0.592868
1137 4 0.14163 0.322727 0.594352
992 4 0.120758 0.405571 0.599767
897 4 0.135829 0.397047 0.608178
928 2 0.407483 0.367696 0.577678
929 4 0.419915 0.346521 0.582392
1206 4 0.42386 0.414769 0.634935
1204 2 0.429133 0.421349 0.658474
1040 4 0.0718963 0.419474 0.597288
3432 4 0.00653096 0.458041 0.595697
991 2 0.101006 0.418428 0.591417
2172 4 0.0889634 0.488301 0.65029
1188 4 0.215653 0.496668 0.657204
1173 4 0.278217 0.478623 0.584548
1172 4 0.288043 0.450832 0.624944
1171 2 0.28313 0.464727 0.604746
891 4 0.304523 0.446557 0.635994
889 2 0.326613 0.447866 0.647635
890 4 0.348703 0.449175 0.659275
3182 4 0.48466 0.452694 0.579834
1002 4 0.424475 0.424851 0.61701
1000 2 0.440563 0.424838 0.597869
3183 4 0.461101 0.496186 0.587192
3181 2 0.47288 0.47444 0.583513
1185 4 0.0445769 0.0772532 0.671216
1183 2 0.0425848 0.0558205 0.683938
1184 4 0.0405927 0.0343877 0.69666
4338 4 0.0284982 0.0191202 0.70118
4336 2 0.00548201 0.018465 0.710927
2049 4 0.116483 0.00623649 0.742425
2255 4 0.162515 0.00536475 0.705217
823 2 0.174712 0.00558388 0.668606
2398 2 0.298602 0.00724371 0.743278
2283 4 0.39643 0.0270141 0.678303
4226 4 0.509563 0.0189272 0.671929
2321 4 0.491617 0.0223393 0.748912
1076 4 0.0396623 0.096199 0.681592
864 4 0.0352801 0.118851 0.738787
1075 2 0.0408018 0.111768 0.701124
1077 4 0.0419413 0.127337 0.720655
1226 4 0.239657 0.0809855 0.706163
908 4 0.189591 0.100183 0.674078
1148 4 0.240544 0.0895666 0.72518
1225 2 0.223657 0.0944115 0.692418
1227 4 0.207657 0.107838 0.678672
1130 4 0.243791 0.14782 0.741654
1005 4 0.308698 0.100673 0.698251
1003 2 0.314353 0.107756 0.721555
1004 4 0.320007 0.114838 0.744858
45 3 0.408585 0.0864008 0.735222
831 4 0.347729 0.130143 0.71535
830 4 0.34571 0.158185 0.673995
829 2 0.34672 0.144164 0.694672
3270 4 0.490416 0.159909 0.709789
41 1 0.429544 0.0952123 0.736539
44 3 0.435128 0.105396 0.716452
1142 4 0.427856 0.110865 0.698507
1141 2 0.428451 0.133232 0.687347
1143 4 0.429045 0.155598 0.676186
3426 4 0.496754 0.146783 0.694384
42 3 0.444603 0.078344 0.740764
852 4 0.055179 0.237299 0.659053
1209 4 0.070915 0.248992 0.667556
1179 4 0.992339 0.179096 0.704494
850 2 0.0574637 0.217956 0.674732
851 4 0.0597484 0.198614 0.69041
1107 4 0.0682281 0.179153 0.697703
1105 2 0.0771952 0.184556 0.720409
1177 2 0.0080501 0.197249 0.711478
1178 4 0.023761 0.215403 0.718463
1106 4 0.0861624 0.189958 0.743115
1129 2 0.225988 0.164507 0.747114
976 2 0.267204 0.226977 0.724701
978 4 0.25299 0.223352 0.704453
1146 4 0.490878 0.166925 0.689554
1263 4 0.435453 0.173376 0.686702
1262 4 0.411647 0.195973 0.724429
1261 2 0.42355 0.184675 0.705566
1144 2 0.495484 0.189876 0.680765
1245 4 0.0505843 0.253512 0.672654
821 4 0.159032 0.309017 0.727358
1207 2 0.0946201 0.256917 0.668217
1208 4 0.118325 0.264843 0.668878
820 2 0.15451 0.291611 0.709988
822 4 0.149987 0.274205 0.692617
947 4 0.157285 0.273343 0.673743
1242 4 0.161244 0.316274 0.746738
1065 4 0.253388 0.306307 0.701752
1063 2 0.261161 0.325622 0.715597
3123 4 0.493374 0.296292 0.677597
892 2 0.0513081 0.404347 0.735027
893 4 0.0711638 0.389431 0.737936
942 4 0.0814841 0.370757 0.735676
1281 4 0.0017407 0.411569 0.678337
815 4 0.0606316 0.37108 0.739812
940 2 0.105678 0.375419 0.73993
941 4 0.129872 0.38008 0.744183
1067 4 0.139904 0.372628 0.727291
1066 2 0.154372 0.386558 0.712397
1028 4 0.186018 0.391231 0.692516
1068 4 0.16884 0.400487 0.697503
1027 2 0.209988 0.397444 0.689048
1236 4 0.220895 0.344818 0.728294
1139 4 0.25114 0.410107 0.674764
1029 4 0.233958 0.403656 0.685579
1234 2 0.221187 0.362443 0.746026
1064 4 0.268935 0.344936 0.729443
806 4 0.265663 0.364546 0.728769
805 2 0.287426 0.371984 0.73858
807 4 0.309188 0.379421 0.748392
1138 2 0.272292 0.405623 0.68732
1140 4 0.293445 0.40114 0.699875
1020 4 0.321769 0.366413 0.756742
894 4 0.0314525 0.419262 0.732119
3276 4 0.0102456 0.418403 0.733638
1983 4 0.0297959 0.447971 0.710909
1981 2 0.0294088 0.472214 0.717019
1280 4 0.0187066 0.432853 0.720288
1279 2 0.0102237 0.422211 0.699313
1982 4 0.0290216 0.496456 0.723129
1176 4 0.195473 0.492231 0.722346
1174 2 0.202271 0.489402 0.698451
1175 4 0.209069 0.486574 0.674556
1988 4 0.297076 0.480108 0.712266
1987 2 0.321466 0.474967 0.710303
1088 4 0.292786 0.491564 0.728558
1989 4 0.345857 0.469825 0.70834
1230 4 0.3906 0.453872 0.757934
1205 4 0.434407 0.427929 0.682013
1100 4 0.450857 0.464364 0.712859
1099 2 0.435806 0.453479 0.729596
1267 2 0.45933 0.468347 0.680773
1269 4 0.442892 0.457166 0.695936
1268 4 0.475769 0.479528 0.66561
2169 4 0.478955 0.499256 0.67296
1203 4 0.112867 0.032187 0.801228
1201 2 0.108322 0.0240567 0.778025
1202 4 0.103776 0.0159265 0.754821
911 4 0.117108 0.0524863 0.808032
1196 4 0.110282 0.0382801 0.822498
910 2 0.121542 0.077049 0.806553
2399 4 0.291075 0.0140816 0.76612
1048 2 0.30304 0.0184906 0.79676
1050 4 0.309601 0.0353262 0.814043
1257 4 0.323575 0.0481163 0.817658
1049 4 0.29648 0.00165494 0.779477
1255 2 0.335805 0.0698603 0.815984
846 4 0.496372 0.0691423 0.775659
1111 2 0.431919 0.00730135 0.803073
1113 4 0.453989 0.0148512 0.794069
844 2 0.482426 0.0493699 0.781962
845 4 0.468479 0.0295975 0.788266
980 4 0.469523 0.0204763 0.807476
979 2 0.479156 0.014335 0.829717
1110 4 0.456028 0.0448771 0.836938
862 2 0.0142442 0.111012 0.749798
33 3 0.0803154 0.135308 0.805502
31 1 0.102395 0.139797 0.811046
35 3 0.11027 0.156957 0.798311
32 3 0.115032 0.120992 0.807069
912 4 0.125976 0.101612 0.805073
1287 4 0.125264 0.112216 0.824816
34 3 0.103959 0.145266 0.833541
1147 2 0.255818 0.0873276 0.744848
1149 4 0.271093 0.0850887 0.764517
1086 4 0.320846 0.156754 0.743465
959 4 0.271365 0.170479 0.805678
958 2 0.294413 0.161759 0.80991
839 4 0.256936 0.162867 0.816525
960 4 0.317462 0.15304 0.814142
1256 4 0.348035 0.0916043 0.814309
1084 2 0.342406 0.150881 0.754683