ITEM: TIMESTEP
2650000
ITEM: NUMBER OF ATOMS
4590
ITEM: BOX BOUNDS pp pp pp
-9.9985700000000008e+00 9.9985700000000008e+00
-9.9985700000000008e+00 9.9985700000000008e+00
-9.9985700000000008e+00 9.9985700000000008e+00
ITEM: ATOMS id type xs ys zs
1666 2 0.0738016 0.0523302 0.027004
1667 4 0.0710586 0.0770211 0.0241727
1668 4 0.0765447 0.0276394 0.0298352
423 4 0.164549 0.0821807 0.00998031
1475 4 0.222299 0.00767566 0.0443518
1474 2 0.199065 0.999509 0.0486724
654 4 0.234297 0.0871833 0.070083
490 2 0.284063 0.0548579 0.017778
652 2 0.255525 0.0813344 0.0582362
491 4 0.293956 0.0701649 0.0348952
296 4 0.44883 0.0384922 0.071869
591 4 0.0511301 0.0831597 0.0285423
702 4 0.068514 0.0935074 0.0383349
589 2 0.0335694 0.0997672 0.0221396
590 4 0.0160087 0.116375 0.015737
3232 2 0.0116907 0.159857 0.011715
3233 4 0.00774901 0.135868 0.0175607
421 2 0.150915 0.0970402 0.0247617
422 4 0.137281 0.1119 0.0395431
700 2 0.0844361 0.104005 0.0545049
701 4 0.100358 0.114502 0.070675
448 2 0.141308 0.114431 0.0830705
450 4 0.165622 0.108606 0.083319
236 4 0.0973807 0.125711 0.0889323
1133 4 0.186419 0.144092 0.00805925
653 4 0.276753 0.0754855 0.0463894
359 4 0.276616 0.150631 0.00204499
565 2 0.28491 0.111913 0.0210022
566 4 0.284775 0.134156 0.00958418
567 4 0.285045 0.0896686 0.0324202
556 2 0.387214 0.166085 0.0498731
557 4 0.388012 0.156877 0.073106
987 4 0.486484 0.16194 0.00104824
913 2 0.146391 0.245628 0.0137418
915 4 0.131697 0.230628 0.000167334
664 2 0.358998 0.167555 0.994438
558 4 0.386416 0.175292 0.0266402
666 4 0.371719 0.180269 0.0118077
571 2 0.372094 0.217857 0.0324682
572 4 0.374229 0.193262 0.0285066
573 4 0.369959 0.242452 0.0364297
623 4 0.410889 0.248654 0.0785853
324 4 0.414227 0.232259 0.0650435
322 2 0.437261 0.235651 0.0559265
771 4 0.476228 0.23309 0.0329049
518 4 0.473648 0.223269 0.0516857
517 2 0.489266 0.232039 0.0691317
323 4 0.460295 0.239043 0.0468095
1056 4 0.0123847 0.334051 0.00654402
914 4 0.161085 0.260627 0.0273163
293 4 0.138626 0.329754 0.0534271
292 2 0.118999 0.328238 0.0688441
507 4 0.155891 0.318831 0.0462686
505 2 0.154214 0.297853 0.0327679
506 4 0.152536 0.276874 0.0192672
294 4 0.0993726 0.326722 0.084261
482 4 0.240895 0.313963 0.078233
481 2 0.227558 0.325742 0.0606678
252 4 0.260104 0.320498 0.0850079
1071 4 0.372641 0.247579 0.0172566
1069 2 0.382484 0.266029 0.00354938
622 2 0.398184 0.270157 0.0797563
769 2 0.48255 0.253353 0.0196901
1170 4 0.0189701 0.353289 0.0104281
1168 2 0.0136261 0.376971 0.00444467
1169 4 0.00828216 0.400652 0.998461
288 4 0.154539 0.339795 0.0423436
286 2 0.178532 0.346396 0.0399044
287 4 0.202525 0.352998 0.0374651
483 4 0.21422 0.337522 0.0431025
607 2 0.290654 0.393019 0.0718857
1047 4 0.409505 0.39722 0.0204653
37 3 0.353851 0.416328 0.996416
282 4 0.440174 0.340982 0.0225681
956 4 0.422705 0.34148 0.0102232
280 2 0.450136 0.350522 0.043423
281 4 0.460098 0.360062 0.0642779
494 4 0.456885 0.35631 0.0850343
671 4 0.47679 0.355623 0.0772941
1045 2 0.421171 0.38863 8.66471e-05
551 4 0.00499831 0.420633 0.00616155
550 2 0.00740515 0.436839 0.0250496
552 4 0.00981199 0.453044 0.0439377
315 4 0.0248351 0.45451 0.0599257
313 2 0.0450826 0.469157 0.0607533
620 4 0.00357992 0.456026 0.0642793
314 4 0.0653301 0.483804 0.0615808
1691 4 0.0790601 0.496012 0.0729957
1787 4 0.0839633 0.475468 0.0688567
1786 2 0.106667 0.471103 0.0783792
1788 4 0.12937 0.466739 0.0879018
241 2 0.234552 0.497663 0.0588637
608 4 0.283945 0.41689 0.068667
626 4 0.272701 0.432584 0.0628091
243 4 0.257694 0.494815 0.0678921
627 4 0.274774 0.482166 0.0689767
625 2 0.273737 0.457375 0.0658929
244 2 0.321389 0.464321 0.0348793
245 4 0.317125 0.464628 0.0595147
246 4 0.325654 0.464014 0.010244
1440 4 0.265878 0.488644 0.0874655
39 3 0.317331 0.422927 0.00236756
2386 2 0.390138 0.492735 0.0260644
40 3 0.342615 0.450576 0.0060992
2387 4 0.365673 0.494397 0.0211769
36 1 0.337101 0.431941 0.994225
563 4 0.426709 0.491941 0.0148823
2480 4 0.0018172 0.00753508 0.165707
16 1 0.0107677 0.0682778 0.112935
2479 2 0.00108367 0.0251848 0.148011
18 3 0.0181357 0.0499754 0.125148
20 3 0.0262641 0.084944 0.1138
297 4 0.434232 0.0111006 0.111078
295 2 0.441531 0.0247964 0.0914733
449 4 0.116994 0.120256 0.0828219
235 2 0.0887746 0.149118 0.0907228
477 4 0.0605314 0.172751 0.0857404
475 2 0.0606168 0.197106 0.0913962
476 4 0.0607022 0.221462 0.0970521
237 4 0.0801685 0.172526 0.0925134
339 4 0.0800057 0.225164 0.0955683
337 2 0.0967302 0.233871 0.11199
338 4 0.113455 0.242577 0.128412
461 4 0.283028 0.210643 0.101545
354 4 0.27865 0.220032 0.118985
460 2 0.307397 0.205049 0.101742
352 2 0.260828 0.237277 0.115801
462 4 0.331766 0.199456 0.10194
254 4 0.393143 0.193502 0.130593
253 2 0.371089 0.191874 0.118923
255 4 0.349036 0.190247 0.107254
630 4 0.401398 0.204567 0.14478
28 3 0.353633 0.18727 0.154861
629 4 0.444162 0.198191 0.119656
628 2 0.42278 0.201379 0.132218
363 4 0.113992 0.259751 0.138027
456 4 0.0897979 0.332369 0.1005
361 2 0.124948 0.272993 0.156188
738 4 0.191211 0.245954 0.155815
736 2 0.21208 0.25221 0.143544
737 4 0.232948 0.258465 0.131274
353 4 0.243005 0.254521 0.112616
756 4 0.243411 0.319799 0.0985662
755 4 0.240709 0.2747 0.120003
754 2 0.24206 0.297249 0.109285
741 4 0.392914 0.296865 0.100576
739 2 0.37604 0.315291 0.101547
624 4 0.385478 0.29166 0.0809274
454 2 0.0899877 0.336617 0.125139
455 4 0.0901775 0.340865 0.149779
537 4 0.102673 0.354047 0.157569
250 2 0.272972 0.34166 0.0884383
251 4 0.28584 0.362822 0.0918687
609 4 0.297363 0.369149 0.0751044
387 4 0.307283 0.360403 0.0923522
385 2 0.328218 0.353091 0.103904
740 4 0.359166 0.333716 0.102518
15 3 0.403378 0.347202 0.164675
386 4 0.349152 0.345779 0.115456
14 3 0.424037 0.352588 0.133661
11 1 0.406763 0.360854 0.146764
13 3 0.387321 0.362388 0.134192
12 3 0.412476 0.381854 0.154216
495 4 0.418255 0.362153 0.116248
493 2 0.43757 0.359232 0.100641
670 2 0.492565 0.350069 0.0958809
595 2 0.453001 0.394539 0.142437
596 4 0.476707 0.394124 0.134498
597 4 0.429294 0.394953 0.150376
2652 4 0.488839 0.410242 0.131388
646 2 0.996069 0.483422 0.138479
647 4 0.0141034 0.468448 0.147181
263 4 0.00864949 0.454585 0.160871
525 4 0.342597 0.459222 0.152877
523 2 0.353395 0.475868 0.137662
524 4 0.364193 0.492514 0.122448
659 4 0.334969 0.440675 0.15492
688 2 0.143503 0.0672903 0.245507
690 4 0.163557 0.0741373 0.232235
693 4 0.158836 0.0889359 0.218084
1700 4 0.202937 0.040873 0.23859
1506 4 0.278477 0.00599633 0.237101
21 1 0.320391 0.0556234 0.243044
23 3 0.298221 0.051788 0.23737
22 3 0.329328 0.036245 0.251632
1785 4 0.34941 0.0340822 0.169315
1783 2 0.346664 0.0391854 0.193637
25 3 0.332189 0.0617785 0.224563
1784 4 0.343918 0.0442886 0.21796
759 4 0.354821 0.0612166 0.226682
757 2 0.378207 0.0700428 0.226079
758 4 0.401594 0.0788689 0.225476
1749 4 0.496987 0.00136312 0.214853
312 4 0.420926 0.0879103 0.226011
744 4 0.414709 0.0736917 0.241424
511 2 0.0133275 0.129009 0.22769
513 4 0.0256826 0.135663 0.248385
691 2 0.161964 0.10965 0.204435
692 4 0.165092 0.130365 0.190785
723 4 0.176317 0.146424 0.195191
721 2 0.179179 0.159988 0.216
285 4 0.286905 0.160543 0.248063
310 2 0.440599 0.0941625 0.211902
311 4 0.460271 0.100415 0.197792
748 2 0.0406489 0.207603 0.208248
749 4 0.0267732 0.205493 0.187556
750 4 0.0545246 0.209714 0.228941
396 4 0.0617312 0.228564 0.22895
394 2 0.0558436 0.246109 0.245762
546 4 0.169273 0.17799 0.250602
722 4 0.18204 0.173551 0.236809
580 2 0.305878 0.177821 0.210421
582 4 0.294444 0.163707 0.227604
581 4 0.317311 0.191934 0.193237
30 3 0.333427 0.181445 0.186093
707 4 0.403429 0.16761 0.240533
27 3 0.358279 0.209267 0.184981
706 2 0.395076 0.165614 0.217051
708 4 0.386722 0.163618 0.193568
29 3 0.370267 0.173666 0.186209
26 1 0.353767 0.187799 0.178058
362 4 0.135904 0.286235 0.174348
372 4 0.149094 0.301712 0.176104
370 2 0.169598 0.302036 0.190411
371 4 0.190102 0.302359 0.204717
279 4 0.207748 0.291965 0.21103
277 2 0.213866 0.279963 0.232094
612 4 0.209468 0.3102 0.199623
610 2 0.220022 0.332697 0.196858
278 4 0.219983 0.267961 0.253158
345 4 0.238035 0.2572 0.256116
763 2 0.410923 0.326063 0.23536
765 4 0.433599 0.315538 0.235746
542 4 0.4345 0.304644 0.251258
541 2 0.441674 0.281453 0.245267
543 4 0.448847 0.258261 0.239277
535 2 0.111207 0.373135 0.17128
536 4 0.119741 0.392223 0.184992
300 4 0.14635 0.40693 0.256347
417 4 0.230613 0.374935 0.198433
611 4 0.230576 0.355195 0.194092
415 2 0.247066 0.378667 0.216887
416 4 0.26352 0.382399 0.23534
303 4 0.325824 0.389761 0.23984
436 2 0.294776 0.411286 0.245981
301 2 0.340385 0.392362 0.21968
660 4 0.344692 0.41256 0.195116
302 4 0.354945 0.394963 0.199521
644 4 0.423525 0.394023 0.221119
643 2 0.422555 0.393556 0.196139
764 4 0.388246 0.336589 0.234975
645 4 0.421584 0.39309 0.171158
447 4 0.434849 0.409142 0.223856
1467 4 0.00939668 0.501787 0.174766
262 2 0.0170286 0.448427 0.18361
1757 4 0.0357277 0.446433 0.222786
264 4 0.0254078 0.442269 0.206349
1756 2 0.0272785 0.46352 0.238967
603 4 0.149009 0.417337 0.240516
437 4 0.280042 0.430078 0.238568
637 2 0.267681 0.494683 0.16725
1436 4 0.260163 0.43179 0.247203
291 4 0.262628 0.429763 0.225959
638 4 0.281402 0.480454 0.182561
289 2 0.270525 0.445236 0.207975
290 4 0.278422 0.460709 0.189992
767 4 0.297061 0.465383 0.180927
766 2 0.317289 0.471597 0.194247
658 2 0.339831 0.426617 0.175018
768 4 0.337516 0.477811 0.207566
1574 4 0.352136 0.472382 0.219797
1573 2 0.369783 0.469235 0.237228
445 2 0.431464 0.423508 0.244038
673 2 0.0831231 0.077264 0.27246
689 4 0.123449 0.0604434 0.258779
675 4 0.103029 0.0656854 0.262721
1404 4 0.103813 0.000196245 0.281715
1403 4 0.108954 0.0448889 0.259879
1402 2 0.106384 0.0225426 0.270797
1699 2 0.202461 0.0399367 0.263572
248 4 0.189038 0.0355808 0.305574
247 2 0.179482 0.0580821 0.310823
1701 4 0.201985 0.0390005 0.288553
605 4 0.209938 0.032355 0.307917
604 2 0.227833 0.0216921 0.321746
249 4 0.169925 0.0805834 0.316071
24 3 0.321677 0.0722644 0.259164
1496 4 0.332873 0.0164893 0.255229
699 4 0.373888 0.0064854 0.309563
1495 2 0.34416 0.0124256 0.277167
697 2 0.381812 0.0258609 0.323237
1497 4 0.355447 0.00836193 0.299105
349 2 0.414454 0.0790611 0.318216
698 4 0.389736 0.0452365 0.336911
742 2 0.418842 0.0838011 0.263917
479 4 0.505098 0.0330444 0.310331
531 4 0.0114133 0.131709 0.313184
579 4 0.0340459 0.154527 0.254448
530 4 0.0174156 0.145678 0.265544
529 2 0.0144145 0.138693 0.289364
674 4 0.0632169 0.0888427 0.2822
398 4 0.0266698 0.128224 0.32806
600 4 0.151943 0.149401 0.31075
545 4 0.165396 0.152083 0.293199
405 4 0.152039 0.135422 0.294504
403 2 0.162876 0.113029 0.297011
598 2 0.14076 0.160716 0.33004
404 4 0.173713 0.0906356 0.299517
350 4 0.425212 0.0988467 0.307355
333 4 0.411193 0.110819 0.29573
762 4 0.431676 0.160993 0.301554
743 4 0.422976 0.0939105 0.286409
332 4 0.42732 0.156328 0.282708
331 2 0.419257 0.133574 0.289219
577 2 0.0515848 0.172069 0.257582
578 4 0.0691236 0.189612 0.260715
391 2 0.0785613 0.205548 0.293687
392 4 0.0740861 0.207139 0.318235
393 4 0.0830365 0.203957 0.269139
544 2 0.167334 0.165037 0.2719
275 4 0.167242 0.22245 0.326657
284 4 0.247145 0.187971 0.261005
344 4 0.245808 0.207801 0.256348
343 2 0.241921 0.2325 0.256232
276 4 0.216665 0.214882 0.325753
274 2 0.191954 0.218666 0.326205
283 2 0.267025 0.174257 0.254534
613 2 0.393129 0.225911 0.315021
614 4 0.408012 0.215553 0.297805
761 4 0.423076 0.209231 0.311548
760 2 0.427376 0.185112 0.306551
419 4 0.428246 0.215236 0.291412
520 2 0.48923 0.247708 0.256717
418 2 0.437659 0.229018 0.272794
420 4 0.447072 0.242799 0.254176
521 4 0.466626 0.248424 0.246052
442 2 0.0156047 0.284411 0.263571
395 4 0.049956 0.263655 0.262575
444 4 0.0344835 0.2704 0.272083
309 4 0.236617 0.277754 0.262121
307 2 0.242096 0.283558 0.285817
308 4 0.247574 0.289362 0.309512
509 4 0.250986 0.293179 0.330633
497 4 0.253497 0.309127 0.316785
496 2 0.266311 0.330183 0.312585
298 2 0.148573 0.382582 0.261583
734 4 0.152862 0.342517 0.280396
733 2 0.157752 0.345231 0.304766
299 4 0.150796 0.358234 0.266819
735 4 0.162641 0.347946 0.329136
677 4 0.178477 0.335543 0.335943
498 4 0.279125 0.351238 0.308386
729 4 0.329832 0.391486 0.260848
438 4 0.309511 0.392494 0.253394
727 2 0.347268 0.402182 0.275228
728 4 0.364704 0.412877 0.289607
751 2 0.395258 0.39019 0.31576
753 4 0.377928 0.401171 0.301468
752 4 0.412588 0.379209 0.330053
561 4 0.430809 0.386274 0.329834
1758 4 0.0188293 0.480607 0.255148
775 2 0.0624621 0.453294 0.32579
777 4 0.0418889 0.439288 0.323391
601 2 0.138281 0.435965 0.253286
412 2 0.112533 0.47342 0.294824
602 4 0.127553 0.454594 0.266055
414 4 0.130208 0.470264 0.277422
413 4 0.0948579 0.476575 0.312225
776 4 0.0830352 0.4673 0.328189
1545 4 0.0984917 0.48147 0.332847
1435 2 0.235815 0.436296 0.250672
1437 4 0.211467 0.440802 0.254142
435 4 0.325667 0.462204 0.336535
1575 4 0.38743 0.466088 0.25466
5 3 0.353295 0.479678 0.300075
1803 4 0.385355 0.419395 0.292588
1802 4 0.397238 0.464404 0.274321
1801 2 0.391297 0.441899 0.283455
1689 4 0.400122 0.48227 0.263109
1 1 0.352315 0.481706 0.322738
4 3 0.345601 0.461613 0.332201
3 3 0.373099 0.487822 0.331045
446 4 0.428078 0.437875 0.264221
231 4 0.488149 0.486592 0.308326
229 2 0.470135 0.495614 0.293517
713 4 0.443843 0.439183 0.277325
712 2 0.467828 0.438297 0.284332
714 4 0.491813 0.437412 0.29134
233 4 0.0136868 0.0510629 0.377855
318 4 0.0712406 0.0429666 0.372343
234 4 0.061315 0.0599335 0.365462
232 2 0.0375009 0.0554982 0.371658
316 2 0.0913405 0.0392261 0.386737
317 4 0.11144 0.0354855 0.40113
428 4 0.11889 0.0163978 0.407441
606 4 0.245729 0.0110292 0.335574
632 4 0.324491 0.0477832 0.339592
631 2 0.320097 0.025641 0.350343
682 2 0.294614 0.0729014 0.400764
683 4 0.313215 0.0728148 0.384055
684 4 0.276014 0.072988 0.417473
351 4 0.403696 0.0592755 0.329078
256 2 0.416207 0.0500122 0.367805
257 4 0.400146 0.058291 0.350523
425 4 0.428427 0.0468465 0.403768
258 4 0.432269 0.0417334 0.385087
452 4 0.48813 0.0789722 0.375242
451 2 0.465735 0.0786052 0.386355
453 4 0.443339 0.0782382 0.397468
515 4 0.428478 0.0668719 0.405725
2756 4 0.0067182 0.132593 0.334755
397 2 0.0475007 0.124286 0.341317
399 4 0.0683315 0.120349 0.354574
732 4 0.0694747 0.139203 0.363874
730 2 0.0925677 0.148253 0.360715
599 4 0.129576 0.172032 0.349329
685 2 0.139872 0.156986 0.390586
686 4 0.130189 0.167464 0.370053
687 4 0.149556 0.146507 0.411119
731 4 0.115661 0.157303 0.357555
1151 4 0.168826 0.145013 0.416544
467 4 0.25989 0.161046 0.419514
514 2 0.411631 0.0849097 0.409726
575 4 0.398813 0.121024 0.406731
2654 4 0.0656433 0.200348 0.334961
2653 2 0.0421849 0.206697 0.34084
2655 4 0.0187266 0.213047 0.346719
617 4 0.0904209 0.237342 0.374962
389 4 0.1526 0.24624 0.349396
388 2 0.128209 0.244403 0.35458
390 4 0.103818 0.242566 0.359764
474 4 0.233313 0.205649 0.331848
472 2 0.251257 0.20523 0.349254
473 4 0.269202 0.204811 0.366661
409 2 0.313307 0.206465 0.370875
466 2 0.267421 0.176266 0.401162
468 4 0.274951 0.191487 0.38281
410 4 0.288837 0.206156 0.376003
411 4 0.337777 0.206773 0.365746
716 4 0.375074 0.235602 0.352132
715 2 0.369642 0.238262 0.376393
615 4 0.378246 0.236269 0.332237
717 4 0.364209 0.240922 0.400654
267 4 0.355718 0.22589 0.413357
304 2 0.442008 0.185934 0.395536
269 4 0.453753 0.210935 0.363179
306 4 0.450583 0.194926 0.373838
268 2 0.443322 0.233527 0.365618
2814 4 0.00260742 0.298131 0.409778
616 2 0.0912811 0.252152 0.395089
401 4 0.154931 0.266541 0.35223
347 4 0.111879 0.272776 0.42127
676 2 0.188843 0.331773 0.358382
400 2 0.170011 0.277979 0.368568
375 4 0.195139 0.291885 0.401578
402 4 0.185092 0.289417 0.384906
373 2 0.218974 0.286269 0.39653
374 4 0.24281 0.280652 0.391481
678 4 0.19921 0.328002 0.380821
510 4 0.25901 0.277582 0.377463
508 2 0.254998 0.285381 0.354048
378 4 0.262385 0.275497 0.398775
376 2 0.282884 0.282827 0.411074
2924 4 0.419582 0.265237 0.379116
488 4 0.351019 0.247084 0.41604
2923 2 0.419789 0.273295 0.402784
487 2 0.337397 0.267881 0.418705
270 4 0.43289 0.25612 0.368057
548 4 0.0171182 0.393455 0.361103
407 4 0.013502 0.381224 0.375877
547 2 0.0308102 0.411754 0.350961
650 4 0.214294 0.394291 0.406913
649 2 0.236101 0.387554 0.417125
651 4 0.257907 0.380817 0.427337
667 2 0.410647 0.40912 0.398829
669 4 0.394252 0.404733 0.417191
559 2 0.437794 0.394136 0.352519
560 4 0.444778 0.401999 0.375203
668 4 0.427041 0.413508 0.380467
549 4 0.0445023 0.430053 0.340819
1543 2 0.102995 0.501245 0.347471
434 4 0.295549 0.424389 0.349327
433 2 0.310608 0.443296 0.342931
2 3 0.337025 0.497991 0.328233
119 3 0.491722 0.436045 0.34799
588 4 0.447356 0.420109 0.387083
586 2 0.463624 0.425695 0.40523
3990 4 0.485456 0.453498 0.357106
3988 2 0.482291 0.476594 0.366148
3989 4 0.479125 0.499689 0.37519
2236 2 0.0278751 0.00246931 0.450443
1127 4 0.018996 0.0408179 0.471269
2238 4 0.0213314 0.0239207 0.461498
1781 4 0.119853 0.0330555 0.420912
1780 2 0.128141 0.0483464 0.438874
1782 4 0.13643 0.0636374 0.456837
341 4 0.139305 0.0773745 0.472927
2430 4 0.139117 0.0561097 0.476574
430 2 0.319029 0.0325292 0.473417
1180 2 0.274378 0.0573744 0.454204
1181 4 0.283485 0.0426614 0.472253
1182 4 0.265271 0.0720874 0.436155
963 4 0.283008 0.0250383 0.484216
432 4 0.298803 0.0392018 0.486516
961 2 0.263455 0.017981 0.49811
431 4 0.339254 0.0258566 0.460318
841 2 0.382021 0.0189829 0.459468
842 4 0.405897 0.0173563 0.452226
843 4 0.358144 0.0206094 0.466711
426 4 0.415538 0.00970891 0.434677
424 2 0.421982 0.0282777 0.419222
1217 4 0.425719 0.00919226 0.454343
1216 2 0.439832 0.0206331 0.471521
1218 4 0.453946 0.032074 0.488699
457 2 0.00719096 0.111611 0.456661
719 4 0.0320483 0.10515 0.488314
459 4 0.0285659 0.109426 0.469448
368 4 0.104751 0.0949108 0.462136
340 2 0.162028 0.08716 0.469309
367 2 0.114594 0.113288 0.448331
369 4 0.124438 0.131665 0.434527
939 4 0.13427 0.147421 0.441989
937 2 0.142613 0.166585 0.455712
342 4 0.184751 0.0969456 0.46569
1152 4 0.179691 0.112065 0.45256
1150 2 0.174259 0.128539 0.434552
320 4 0.265439 0.090613 0.425211
321 4 0.26211 0.140501 0.424293
319 2 0.263774 0.115557 0.424752
899 4 0.271927 0.155543 0.436209
898 2 0.286442 0.156017 0.456563
900 4 0.300956 0.15649 0.476917
574 2 0.40936 0.142265 0.414655
516 4 0.394785 0.102947 0.413728
576 4 0.419906 0.163506 0.422578
938 4 0.150955 0.185749 0.469435
1034 4 0.164575 0.196124 0.479357
261 4 0.118581 0.230069 0.466134
1035 4 0.134055 0.235724 0.480407
1033 2 0.149315 0.215924 0.479882
695 4 0.113897 0.233077 0.486837
259 2 0.112432 0.241146 0.444578
813 4 0.389091 0.212641 0.473197
266 4 0.375661 0.218631 0.458637
265 2 0.365689 0.22226 0.435997
811 2 0.386706 0.218668 0.497346
305 4 0.433432 0.176942 0.417234
2847 4 0.0126148 0.299944 0.475634
2801 4 0.0121748 0.308924 0.423727
2802 4 0.025101 0.286315 0.466417
2800 2 0.0186379 0.297619 0.445072
260 4 0.106283 0.252223 0.423022
618 4 0.0921413 0.266963 0.415216
346 2 0.123078 0.292518 0.431759
348 4 0.134277 0.31226 0.442248
10 3 0.143052 0.32519 0.454891
9 3 0.124616 0.307178 0.482338
6 1 0.133501 0.327472 0.475439
1259 4 0.140986 0.302384 0.492773
1258 2 0.144819 0.278993 0.500734
377 4 0.303383 0.290156 0.423373
489 4 0.323775 0.288679 0.42137
238 2 0.410601 0.317003 0.438552
2455 2 0.50103 0.31041 0.491628
239 4 0.426331 0.297623 0.437082
2925 4 0.419996 0.281352 0.426453
2456 4 0.478067 0.309838 0.481751
584 4 0.465076 0.30803 0.496006
680 4 0.0546145 0.39367 0.486281
679 2 0.0477839 0.416238 0.477962
8 3 0.149317 0.33481 0.49075
504 4 0.156674 0.391156 0.440149
7 3 0.116557 0.342984 0.474238
711 4 0.123062 0.361573 0.469015
709 2 0.130649 0.37702 0.450877
710 4 0.138235 0.392467 0.432738
503 4 0.203591 0.391542 0.422847
502 2 0.180132 0.391349 0.431498
240 4 0.394871 0.336383 0.440022
335 4 0.377687 0.343651 0.432587
334 2 0.38908 0.36574 0.429852
336 4 0.400472 0.387828 0.427117
382 2 0.0732006 0.464719 0.455935
539 4 0.0440657 0.457974 0.478334
538 2 0.0194411 0.462076 0.479742
681 4 0.0409533 0.438806 0.469643
383 4 0.0605039 0.44774 0.46919
568 2 0.116437 0.499025 0.449288
384 4 0.0858974 0.481698 0.442681
569 4 0.0987902 0.483656 0.458094
634 2 0.20077 0.481508 0.474134
774 4 0.23654 0.480842 0.462109
635 4 0.217924 0.472541 0.458306
772 2 0.249881 0.461269 0.454104
773 4 0.263221 0.441695 0.446098
926 4 0.470558 0.419837 0.506659
1910 4 0.443716 0.482257 0.485753
661 2 0.459417 0.455512 0.45428
2507 4 0.490756 0.432597 0.441933
663 4 0.469311 0.436497 0.441407
662 4 0.449522 0.474526 0.467154
587 4 0.479891 0.431281 0.423378
2428 2 0.1468 0.0410012 0.494955
2429 4 0.154484 0.0258927 0.513337
1284 4 0.18042 0.0706178 0.564267
1031 4 0.220238 0.0285382 0.578334
1283 4 0.200375 0.0315833 0.588325
1282 2 0.190398 0.0511005 0.576296
1030 2 0.241192 0.0306536 0.564858
962 4 0.243902 0.0109236 0.512004
1032 4 0.262146 0.0327689 0.551381
1091 4 0.349617 0.00981717 0.57729
720 4 0.0112642 0.107439 0.533739
718 2 0.0216563 0.106294 0.511027
1059 4 0.180662 0.0887555 0.573408
904 2 0.440134 0.167662 0.585439
810 4 0.461508 0.0904156 0.589327
327 4 0.084423 0.237523 0.549153
877 2 0.115955 0.209568 0.557712
878 4 0.0943601 0.218554 0.548876
696 4 0.0896541 0.228539 0.530339
694 2 0.101775 0.230808 0.508588
879 4 0.13755 0.200582 0.566548
856 2 0.210339 0.234861 0.551213
858 4 0.222491 0.213379 0.54721
792 4 0.327326 0.249997 0.55102
953 4 0.390996 0.221939 0.541478
812 4 0.384321 0.224694 0.521495
791 4 0.371132 0.229869 0.537733
873 4 0.388384 0.241923 0.534553
790 2 0.349229 0.239933 0.544376
952 2 0.405626 0.202024 0.545291
954 4 0.420255 0.182109 0.549104
905 4 0.425386 0.175627 0.566885
982 2 0.0347626 0.298538 0.552457
984 4 0.0580383 0.29922 0.561565
326 4 0.0593294 0.278036 0.56431
1136 4 0.0767482 0.289411 0.559612
325 2 0.0718762 0.25778 0.556732
983 4 0.0114868 0.297857 0.54335
2846 4 0.00337792 0.292757 0.524252
2845 2 0.00799634 0.29635 0.499943
1135 2 0.0891099 0.31114 0.560079
1137 4 0.101472 0.332869 0.560546
1260 4 0.148652 0.255603 0.508694
857 4 0.198186 0.256342 0.555216
1239 4 0.330442 0.312697 0.561376
804 4 0.312398 0.32029 0.562871
1237 2 0.32557 0.288196 0.562442
1238 4 0.320698 0.263695 0.563508
802 2 0.291829 0.33268 0.569842
871 2 0.400608 0.26331 0.530273
929 4 0.386101 0.324767 0.569616
872 4 0.412831 0.284698 0.525994
585 4 0.418432 0.298354 0.51122
583 2 0.441754 0.303192 0.503613
936 4 0.0139654 0.401534 0.528028
3353 4 0.00450917 0.384878 0.53372
934 2 0.0300211 0.413246 0.543201
992 4 0.159437 0.392697 0.589228
880 2 0.359686 0.405564 0.577871
928 2 0.374887 0.344166 0.580711
925 2 0.477545 0.402989 0.523761
927 4 0.484532 0.38614 0.540864
1001 4 0.484788 0.397619 0.557597
1000 2 0.487044 0.413433 0.576833
3430 2 0.0372367 0.46913 0.560395
3431 4 0.0322963 0.493223 0.555889
935 4 0.0460767 0.424959 0.558374
3432 4 0.042177 0.445037 0.564902
1041 4 0.0559768 0.432795 0.5762
3264 4 0.0337861 0.428303 0.575905
1159 2 0.115703 0.426989 0.528054
1161 4 0.12041 0.421263 0.551934
1160 4 0.110997 0.432714 0.504174
1039 2 0.0797392 0.427355 0.570638
1040 4 0.103501 0.421915 0.565076
636 4 0.183616 0.490475 0.489962
1455 4 0.331933 0.474583 0.558697
1454 4 0.361989 0.435495 0.550356
1453 2 0.346961 0.455039 0.554527
881 4 0.360936 0.428691 0.56845
1909 2 0.461244 0.495545 0.497643
3183 4 0.461544 0.484602 0.58578
1183 2 0.0136783 0.0542479 0.659827
1184 4 0.999435 0.0347705 0.653275
4338 4 0.00634267 0.017428 0.663466
1892 4 0.00434942 0.0166356 0.642179
2131 2 0.214523 0.01061 0.619981
2132 4 0.21799 0.0246186 0.599562
1060 2 0.493123 0.0268571 0.590931
1061 4 0.482544 0.00746057 0.602637
944 4 0.0426702 0.0891212 0.668319
1081 2 0.014251 0.114574 0.649587
1082 4 0.0242232 0.0933687 0.65831
943 2 0.0656194 0.0987272 0.665821
3179 4 0.00734065 0.152519 0.631307
945 4 0.0885686 0.108333 0.663324
1057 2 0.184301 0.104491 0.592495
1058 4 0.187939 0.120227 0.611583
1155 4 0.176939 0.136212 0.620398
1153 2 0.181687 0.160757 0.619998
909 4 0.191407 0.125572 0.632091
907 2 0.203348 0.121864 0.653743
1194 4 0.386635 0.164206 0.638743
830 4 0.370936 0.150495 0.633441
829 2 0.376586 0.128654 0.644223
831 4 0.382236 0.106813 0.655004
808 2 0.486186 0.091188 0.593277
1026 4 0.474416 0.145288 0.653348
1024 2 0.473156 0.146665 0.628414
1025 4 0.471896 0.148042 0.60348
906 4 0.454881 0.159696 0.603992
1143 4 0.464712 0.12649 0.655319
1263 4 0.453928 0.144737 0.659054
1141 2 0.468101 0.105582 0.668608
1209 4 0.0658971 0.242289 0.647478
1245 4 0.0448605 0.239172 0.648564
852 4 0.0578053 0.222255 0.646916
1272 4 0.137469 0.208906 0.585007
1270 2 0.158828 0.206374 0.597758
1154 4 0.186434 0.185302 0.619598
1271 4 0.180186 0.203842 0.610508
1221 4 0.190134 0.203856 0.629868
1219 2 0.214613 0.208727 0.628389
1220 4 0.239093 0.213598 0.62691
798 4 0.259121 0.220656 0.629019
796 2 0.263757 0.244902 0.625042
1212 4 0.255017 0.199678 0.625061
888 4 0.318448 0.172368 0.626494
1211 4 0.299197 0.176253 0.624843
1210 2 0.277107 0.187965 0.624952
886 2 0.34198 0.170681 0.634777
887 4 0.365512 0.168995 0.643059
1192 2 0.405573 0.179861 0.634111
1193 4 0.424511 0.195517 0.629478
1243 2 0.024456 0.24757 0.636803
1244 4 0.00405141 0.255968 0.625043
1207 2 0.0857624 0.253514 0.657703
948 4 0.147724 0.309232 0.656084
946 2 0.136286 0.289262 0.665859
1208 4 0.105628 0.264739 0.667928
797 4 0.268392 0.269148 0.621065
3112 2 0.495573 0.320826 0.619904
3114 4 0.47882 0.302277 0.619222
991 2 0.141789 0.408395 0.581025
897 4 0.166616 0.373595 0.585926
1191 4 0.225857 0.359709 0.619797
896 4 0.208433 0.366765 0.612486
895 2 0.187524 0.37018 0.599206
1189 2 0.245724 0.359654 0.604615
1190 4 0.265591 0.3596 0.589434
803 4 0.271261 0.34507 0.576813
882 4 0.358435 0.382438 0.587293
930 4 0.363673 0.363565 0.591807
3239 4 0.0142461 0.443842 0.639789
3262 2 0.0245977 0.42989 0.599105
3238 2 0.0218492 0.45504 0.660812
3263 4 0.0154094 0.431478 0.622304
993 4 0.124142 0.424094 0.572822
1140 4 0.22022 0.46092 0.671082
2154 4 0.293011 0.48621 0.602361
1173 4 0.2838 0.468769 0.610494
1172 4 0.304541 0.456519 0.654318
1171 2 0.294171 0.462644 0.632406
2435 4 0.271932 0.482987 0.59961
2434 2 0.252052 0.497919 0.602259
1002 4 0.4893 0.429247 0.596068
1206 4 0.479027 0.430921 0.614666
1204 2 0.467522 0.428471 0.636729
1205 4 0.456016 0.42602 0.658793
3182 4 0.488527 0.448489 0.607425
3181 2 0.475036 0.466546 0.596602
3440 4 0.501041 0.432466 0.613903
1185 4 0.0279215 0.0737253 0.66638
4336 2 0.00161868 0.00573313 0.685056
1077 4 0.0304251 0.0785276 0.728192
1202 4 0.107294 0.0117685 0.741945
2400 4 0.35438 0.0701432 0.723271
2398 2 0.364963 0.0715104 0.745883
43 3 0.450645 0.0622095 0.719071
846 4 0.453885 0.0433902 0.726024
41 1 0.47117 0.0700773 0.711642
45 3 0.487996 0.060153 0.723349
844 2 0.445634 0.0370224 0.748752
44 3 0.473616 0.0656721 0.688992
1076 4 0.024714 0.0899706 0.679848
1075 2 0.0275695 0.0842491 0.70402
864 4 0.0115751 0.0843034 0.733234
908 4 0.215289 0.118155 0.675395
1227 4 0.215285 0.11318 0.694863
1226 4 0.22662 0.116292 0.743469
1225 2 0.220953 0.114736 0.719166
42 3 0.472047 0.0928276 0.71493
1142 4 0.47149 0.0846753 0.681897
1261 2 0.435451 0.154471 0.672804
3424 2 0.497339 0.157711 0.722139
3270 4 0.480991 0.169026 0.75512
850 2 0.0555569 0.208622 0.667755
1177 2 0.022078 0.181872 0.705485
1178 4 0.0458547 0.17752 0.699088
851 4 0.0533086 0.19499 0.688595
1107 4 0.0656311 0.184383 0.703454
1105 2 0.0903342 0.181105 0.705499
1106 4 0.115037 0.177826 0.707545
1073 4 0.122233 0.190327 0.721801
1072 2 0.132979 0.190838 0.744372
1086 4 0.314728 0.226063 0.752497
1299 4 0.302253 0.216601 0.740824
3426 4 0.482407 0.17356 0.734428
1262 4 0.416975 0.164204 0.686554
1146 4 0.495298 0.183409 0.748653
816 4 0.0228737 0.323214 0.731074
1242 4 0.0944811 0.296654 0.736832
821 4 0.0842465 0.303771 0.721077
947 4 0.124848 0.269291 0.675633
820 2 0.0962417 0.290897 0.703313
822 4 0.108237 0.278023 0.685549
1098 4 0.343497 0.282214 0.722366
1096 2 0.342562 0.294117 0.744334
892 2 0.0601165 0.395228 0.731896
893 4 0.067153 0.37243 0.724421
815 4 0.0571802 0.355665 0.714622
814 2 0.040027 0.33944 0.722848
942 4 0.0710895 0.36816 0.703629
1067 4 0.130085 0.344918 0.693803
940 2 0.0910854 0.353735 0.699476
941 4 0.111081 0.33931 0.695322
1066 2 0.153117 0.344043 0.68411
1028 4 0.186013 0.360919 0.674198
1027 2 0.199959 0.381506 0.671577
1068 4 0.176149 0.343168 0.674418
1029 4 0.213904 0.402093 0.668956
1065 4 0.23907 0.361395 0.678086
1063 2 0.254662 0.35777 0.697293
1064 4 0.270255 0.354144 0.7165
806 4 0.283619 0.367894 0.726501
805 2 0.301219 0.375074 0.742745
1236 4 0.272758 0.352601 0.737566
1234 2 0.253334 0.346205 0.751953
1101 4 0.464665 0.373644 0.686053
1099 2 0.455343 0.396312 0.681108
3240 4 0.0294522 0.466237 0.681836
894 4 0.05308 0.418027 0.739371
2172 4 0.037684 0.48563 0.685695
1279 2 0.0475907 0.450492 0.707915
3276 4 0.0377522 0.432232 0.745926
1983 4 0.057857 0.438997 0.742681
1280 4 0.0461747 0.433115 0.725837
1281 4 0.0490068 0.467869 0.689992
1138 2 0.210621 0.438065 0.674347
1139 4 0.201022 0.415209 0.677613
1176 4 0.187324 0.487054 0.70453
2016 4 0.183481 0.492042 0.722679
891 4 0.305414 0.46538 0.671562
889 2 0.305542 0.485462 0.686458
2169 4 0.466669 0.497852 0.701899
1269 4 0.460074 0.435296 0.677635
1100 4 0.446021 0.41898 0.676163
1268 4 0.458311 0.478977 0.701916
1267 2 0.459192 0.457136 0.689775
1196 4 0.0887808 0.0257609 0.795265
1203 4 0.0777238 0.0305434 0.777636
1195 2 0.0910343 0.00858509 0.813296
911 4 0.0859762 0.0463905 0.790303
1201 2 0.0925089 0.021156 0.75979
910 2 0.0929139 0.0682411 0.800283
1147 2 0.220449 0.0766118 0.765766
1149 4 0.217017 0.0537386 0.775264
1049 4 0.364183 0.0679041 0.786156
2399 4 0.375545 0.0728777 0.768496
1112 4 0.385478 0.0727942 0.787274
1111 2 0.40254 0.0546631 0.784963
1113 4 0.419601 0.036532 0.782652
845 4 0.437383 0.0306546 0.77148
980 4 0.432352 0.0201449 0.789497
979 2 0.424345 0.0126172 0.811956
863 4 0.994113 0.112855 0.77039
862 2 0.00284381 0.098579 0.751812
1214 4 0.0794855 0.139446 0.801248
1213 2 0.0710847 0.15134 0.780923
33 3 0.0796365 0.121073 0.810034
32 3 0.107937 0.102589 0.826469
912 4 0.0998516 0.0900916 0.810263
1287 4 0.122008 0.0893902 0.813402
31 1 0.0908445 0.117563 0.830046
1285 2 0.141832 0.0923294 0.828354