ITEM: TIMESTEP
370000
ITEM: NUMBER OF ATOMS
4590
ITEM: BOX BOUNDS pp pp pp
-9.9985700000000008e+00 9.9985700000000008e+00
-9.9985700000000008e+00 9.9985700000000008e+00
-9.9985700000000008e+00 9.9985700000000008e+00
ITEM: ATOMS id type xs ys zs
463 2 0.0395869 0.0265589 0.0423784
465 4 0.0447033 0.0353462 0.0652209
464 4 0.0344704 0.0177716 0.0195358
3291 4 0.0185219 0.015493 0.00755335
1666 2 0.0865522 0.00127246 0.0558913
1667 4 0.0821115 0.0143913 0.0350741
700 2 0.0874016 0.0773122 0.0708613
702 4 0.108656 0.0650871 0.0757584
534 4 0.188408 0.077868 0.01673
491 4 0.228368 0.027902 0.0284341
490 2 0.252178 0.024155 0.0217835
492 4 0.275988 0.0204081 0.0151329
653 4 0.329049 0.0243173 0.0753636
745 2 0.454924 0.0787448 0.0222839
747 4 0.462895 0.0560229 0.0155493
2975 4 0.482675 0.0551558 0.0232035
2974 2 0.49865 0.0398744 0.0348853
589 2 0.0500482 0.135824 0.0475234
590 4 0.0435031 0.135149 0.0234011
3233 4 0.0425909 0.113054 0.0209119
591 4 0.0565934 0.136498 0.0716457
701 4 0.0661473 0.0895373 0.0659642
422 4 0.116579 0.115127 0.999565
565 2 0.216382 0.119487 0.074051
566 4 0.196292 0.134357 0.0733881
567 4 0.236472 0.104616 0.074714
358 2 0.272276 0.144218 0.0245636
359 4 0.279952 0.136978 0.0472316
360 4 0.2646 0.151458 0.00189552
557 4 0.389641 0.108829 0.029407
556 2 0.379918 0.119857 0.0496315
558 4 0.370195 0.130885 0.0698559
746 4 0.446953 0.101467 0.0290185
555 4 0.0436254 0.205612 0.0282756
553 2 0.0479487 0.213954 0.00510466
476 4 0.133019 0.186728 0.0704287
571 2 0.31361 0.248184 0.0370417
572 4 0.313608 0.224519 0.0289718
357 4 0.246184 0.248601 0.00670475
666 4 0.32501 0.210106 0.0213631
664 2 0.32974 0.194208 0.00265327
771 4 0.456121 0.219623 0.0597387
770 4 0.478391 0.183977 0.0326439
769 2 0.467256 0.2018 0.0461913
323 4 0.461863 0.232702 0.0730792
518 4 0.480183 0.23721 0.0738075
292 2 0.13546 0.319441 0.027077
293 4 0.156998 0.306741 0.0269596
507 4 0.163326 0.288176 0.0285254
505 2 0.175121 0.277222 0.0476581
506 4 0.186916 0.266268 0.0667908
483 4 0.21663 0.32324 0.0745594
481 2 0.238039 0.328582 0.0628007
573 4 0.313613 0.27185 0.0451116
1069 2 0.402524 0.27454 0.0170063
1070 4 0.414388 0.285086 0.0363252
955 2 0.374382 0.329714 0.00781923
957 4 0.354408 0.335458 0.0217196
330 4 0.0443338 0.357878 0.0146863
328 2 0.0386552 0.382074 0.0174231
329 4 0.0329766 0.40627 0.0201599
294 4 0.113922 0.33214 0.0271944
455 4 0.105194 0.401781 0.0803369
454 2 0.126197 0.388234 0.0795914
456 4 0.147199 0.374687 0.0788459
288 4 0.169883 0.368886 0.0124095
287 4 0.203318 0.36877 0.0495949
286 2 0.186601 0.368828 0.0310022
482 4 0.259449 0.333925 0.051042
252 4 0.254879 0.353447 0.0454292
250 2 0.264144 0.376147 0.0503324
251 4 0.273409 0.398847 0.0552357
609 4 0.283735 0.399041 0.0715808
281 4 0.456309 0.337445 0.0643043
280 2 0.469286 0.345686 0.0445845
282 4 0.482263 0.353927 0.0248647
550 2 0.0485435 0.432314 0.0665081
551 4 0.0638277 0.436265 0.0471185
245 4 0.246257 0.451763 0.041729
244 2 0.255154 0.465851 0.023086
246 4 0.264052 0.479938 0.00444301
272 4 0.283366 0.483331 0.00726314
271 2 0.302525 0.499389 0.00775125
564 4 0.406114 0.474141 0.0042128
562 2 0.427935 0.484674 0.0103837
228 4 0.492278 0.494757 0.0421062
20 3 0.0428452 0.0712222 0.145126
16 1 0.0384485 0.0552597 0.160763
17 3 0.0273061 0.0377688 0.15081
450 4 0.183351 0.0559953 0.122304
448 2 0.185398 0.0777117 0.134527
1505 4 0.206683 0.0300689 0.156475
1475 4 0.199554 0.0143993 0.0900582
1504 2 0.213671 0.00895815 0.167906
652 2 0.314193 0.0267125 0.0953322
654 4 0.299337 0.0291078 0.115301
296 4 0.393344 0.0481586 0.092123
295 2 0.387877 0.0725569 0.092213
1760 4 0.496682 0.015699 0.137307
1759 2 0.479931 0.99758 0.141343
379 2 0.0107145 0.162719 0.157497
449 4 0.187446 0.0994281 0.146749
237 4 0.179861 0.15974 0.13325
235 2 0.184151 0.135151 0.131772
236 4 0.18844 0.110563 0.130293
693 4 0.224065 0.101273 0.15729
582 4 0.283206 0.125301 0.157661
297 4 0.38241 0.0969553 0.0923031
629 4 0.448915 0.162539 0.145027
310 2 0.432931 0.109671 0.152219
311 4 0.447981 0.123774 0.138085
380 4 0.00199653 0.16595 0.134287
475 2 0.126516 0.180874 0.0938513
477 4 0.120012 0.17502 0.117274
737 4 0.200324 0.241414 0.0891391
736 2 0.198882 0.220752 0.103145
738 4 0.19744 0.200089 0.117152
354 4 0.297763 0.214308 0.100778
352 2 0.282429 0.232701 0.107972
460 2 0.325542 0.193235 0.0900953
461 4 0.301681 0.195521 0.0972079
353 4 0.267095 0.251093 0.115167
255 4 0.362522 0.190753 0.0979137
462 4 0.349404 0.19095 0.0829826
254 4 0.411775 0.189629 0.106495
253 2 0.387148 0.190191 0.102205
322 2 0.443326 0.242997 0.0863303
630 4 0.417352 0.195669 0.124855
628 2 0.433134 0.179104 0.134941
528 4 0.488594 0.255575 0.142652
337 2 0.0946253 0.265352 0.145606
339 4 0.108442 0.278035 0.129071
537 4 0.166577 0.342205 0.145104
754 2 0.283578 0.287023 0.100016
755 4 0.27988 0.26595 0.112956
756 4 0.287276 0.308096 0.0870766
741 4 0.354893 0.318304 0.0994142
622 2 0.407632 0.292748 0.117944
624 4 0.407507 0.288588 0.142599
623 4 0.407758 0.296908 0.0932894
671 4 0.46053 0.333653 0.0835794
324 4 0.42479 0.253292 0.0995814
672 4 0.461981 0.296849 0.117404
670 2 0.461256 0.315251 0.100492
517 2 0.499956 0.247815 0.0848411
526 2 0.49932 0.271248 0.158916
621 4 0.00341281 0.334526 0.117369
619 2 0.0162979 0.355585 0.12133
620 4 0.029183 0.376643 0.12529
535 2 0.15677 0.357585 0.162205
612 4 0.219551 0.349462 0.167141
610 2 0.243187 0.341753 0.16448
626 4 0.246586 0.408705 0.105473
607 2 0.302559 0.411831 0.0819369
387 4 0.312915 0.408403 0.131923
739 2 0.350507 0.341412 0.107897
740 4 0.34612 0.364519 0.11638
385 2 0.333332 0.394038 0.130516
386 4 0.353749 0.379673 0.129109
14 3 0.412381 0.383723 0.136514
495 4 0.398069 0.398187 0.137286
13 3 0.41209 0.356206 0.162728
15 3 0.425538 0.349434 0.128218
11 1 0.423582 0.365095 0.144636
12 3 0.44457 0.371473 0.151563
595 2 0.47657 0.38458 0.145001
597 4 0.457688 0.386292 0.161301
596 4 0.495452 0.382868 0.1287
552 4 0.0332592 0.428363 0.0858978
315 4 0.0302332 0.479357 0.101428
313 2 0.0223824 0.461012 0.116495
314 4 0.0145317 0.442667 0.131561
242 4 0.144959 0.502209 0.0856581
417 4 0.165656 0.416748 0.123969
415 2 0.175087 0.418044 0.147089
625 2 0.223242 0.417646 0.104931
627 4 0.199898 0.426588 0.104388
637 2 0.249978 0.482169 0.155009
639 4 0.251005 0.498773 0.136343
608 4 0.321384 0.424621 0.0922931
524 4 0.345165 0.494134 0.0869274
493 2 0.402639 0.422621 0.139984
525 4 0.344404 0.496915 0.136851
523 2 0.344785 0.495524 0.111889
658 2 0.356548 0.462699 0.161142
659 4 0.344271 0.47746 0.145124
494 4 0.407209 0.447055 0.142683
19 3 0.0583023 0.0473397 0.169791
18 3 0.0250803 0.0640893 0.177548
2481 4 0.0164306 0.0694062 0.196687
2479 2 0.00523615 0.0480469 0.203294
673 2 0.122063 0.0464872 0.21624
674 4 0.127614 0.0634479 0.198727
675 4 0.116513 0.0295264 0.233753
1403 4 0.0986423 0.0186055 0.233544
688 2 0.220022 0.0570252 0.242048
690 4 0.199866 0.0701714 0.235259
1783 2 0.413203 0.00522648 0.194707
21 1 0.37692 0.073987 0.232564
23 3 0.360202 0.0582624 0.229151
25 3 0.397279 0.0647505 0.228222
759 4 0.402378 0.058511 0.209372
757 2 0.407903 0.0670691 0.186538
1784 4 0.413972 0.0301229 0.196887
758 4 0.413429 0.0756272 0.163704
742 2 0.464479 0.0516351 0.245082
743 4 0.487444 0.0602487 0.240222
744 4 0.441515 0.0430215 0.249942
381 4 0.0194326 0.159488 0.180708
511 2 0.0228152 0.150088 0.223987
513 4 0.0244199 0.145899 0.248585
512 4 0.0212105 0.154277 0.19939
577 2 0.0627675 0.106955 0.246892
578 4 0.0583391 0.120943 0.226647
546 4 0.182238 0.151836 0.239795
722 4 0.17114 0.135122 0.238873
692 4 0.201716 0.102802 0.202
723 4 0.186627 0.114118 0.196216
691 2 0.212891 0.102038 0.179645
721 2 0.178883 0.12462 0.217545
580 2 0.27367 0.117543 0.179434
581 4 0.264134 0.109785 0.201207
30 3 0.321299 0.165544 0.241873
26 1 0.330864 0.147081 0.232584
28 3 0.319076 0.140745 0.213629
29 3 0.331087 0.129698 0.247953
24 3 0.373457 0.0923444 0.218801
27 3 0.352524 0.151977 0.226581
312 4 0.417881 0.0955673 0.166353
394 2 0.0355478 0.240255 0.229327
395 4 0.0315775 0.215991 0.233874
284 4 0.286771 0.220399 0.177685
285 4 0.267606 0.174234 0.176201
283 2 0.277188 0.197316 0.176943
344 4 0.262346 0.24749 0.224772
764 4 0.382892 0.201154 0.203614
763 2 0.393266 0.218593 0.218224
765 4 0.40364 0.236031 0.232835
396 4 0.0395181 0.264519 0.22478
750 4 0.0455691 0.268263 0.24461
363 4 0.0782714 0.248723 0.182208
338 4 0.0808087 0.252669 0.162141
362 4 0.114937 0.257169 0.215148
361 2 0.096604 0.252946 0.198678
372 4 0.135027 0.258907 0.211963
300 4 0.0942875 0.313985 0.229351
370 2 0.15808 0.26159 0.202661
298 2 0.112372 0.327475 0.240127
279 4 0.222491 0.297026 0.185434
371 4 0.181133 0.264273 0.193358
277 2 0.242475 0.282123 0.183504
343 2 0.246301 0.255195 0.242333
278 4 0.262459 0.26722 0.181575
307 2 0.296853 0.286838 0.193979
309 4 0.272689 0.283208 0.188679
308 4 0.321017 0.290469 0.199279
299 4 0.130456 0.340966 0.250904
647 4 0.0745513 0.402522 0.19918
648 4 0.096835 0.35814 0.19331
646 2 0.0856932 0.380331 0.196245
536 4 0.146963 0.372964 0.179307
611 4 0.266824 0.334045 0.161818
303 4 0.326212 0.400145 0.204851
301 2 0.342821 0.415893 0.194785
729 4 0.350988 0.3997 0.241539
643 2 0.452127 0.392386 0.203823
644 4 0.444849 0.38746 0.227231
645 4 0.459404 0.397312 0.180415
447 4 0.455336 0.383019 0.242957
262 2 0.0703279 0.442283 0.194454
264 4 0.0586684 0.464395 0.195005
263 4 0.0819874 0.420171 0.193904
416 4 0.184518 0.419341 0.170209
291 4 0.204381 0.417145 0.171233
289 2 0.227103 0.425138 0.177939
290 4 0.249826 0.43313 0.184645
638 4 0.248951 0.465565 0.173676
768 4 0.243216 0.483926 0.227233
766 2 0.245777 0.467883 0.208227
767 4 0.248338 0.45184 0.189221
660 4 0.368825 0.447938 0.17716
302 4 0.359429 0.431641 0.184718
1574 4 0.341681 0.487372 0.219605
232 2 0.0161972 0.0553263 0.300295
233 4 0.00498699 0.0470994 0.279514
318 4 0.0445509 0.0711824 0.326255
234 4 0.0274075 0.0635532 0.321075
689 4 0.240178 0.0438789 0.248838
248 4 0.21634 0.0572192 0.330073
1701 4 0.219075 0.0360744 0.332939
1699 2 0.224175 0.0160484 0.318863
247 2 0.222972 0.078651 0.319034
22 3 0.376259 0.0809035 0.254493
697 2 0.374681 0.0185026 0.322358
698 4 0.39362 0.0332099 0.329442
480 4 0.495177 0.0247488 0.276897
351 4 0.430382 0.0568342 0.310049
1749 4 0.449198 0.00219432 0.256164
349 2 0.430279 0.0784852 0.297543
531 4 0.00387527 0.12882 0.297273
529 2 0.0188746 0.129462 0.277278
530 4 0.0338739 0.130104 0.257284
398 4 0.0480134 0.116138 0.324709
393 4 0.0591782 0.156484 0.276056
579 4 0.0671959 0.0929661 0.267138
392 4 0.103842 0.143245 0.294238
391 2 0.0815101 0.149865 0.285147
544 2 0.180194 0.155135 0.264495
249 4 0.229605 0.100083 0.307994
403 2 0.226838 0.13586 0.28642
404 4 0.232603 0.111984 0.291096
405 4 0.221073 0.159737 0.281745
545 4 0.178149 0.158434 0.289196
706 2 0.304196 0.165217 0.294495
708 4 0.281572 0.154612 0.293562
632 4 0.331555 0.0957507 0.305521
631 2 0.343924 0.0997575 0.326878
333 4 0.446842 0.10287 0.275485
331 2 0.457504 0.125304 0.27262
332 4 0.468166 0.147738 0.269754
350 4 0.430176 0.100136 0.285037
444 4 0.0429137 0.243164 0.328036
401 4 0.173452 0.248106 0.302842
707 4 0.32682 0.175822 0.295428
473 4 0.26484 0.208889 0.33189
520 2 0.482829 0.232739 0.254143
521 4 0.46331 0.238236 0.26877
762 4 0.475266 0.16595 0.272915
418 2 0.428964 0.22724 0.300401
419 4 0.422365 0.203803 0.294713
761 4 0.480647 0.176599 0.321478
760 2 0.477957 0.171274 0.297197
2493 4 0.00159767 0.303248 0.298022
442 2 0.0298288 0.258365 0.313106
443 4 0.016744 0.273565 0.298176
748 2 0.0629806 0.27731 0.260107
749 4 0.0803922 0.286357 0.275604
389 4 0.123891 0.261666 0.328795
345 4 0.230255 0.262901 0.259893
400 2 0.183637 0.262483 0.320583
496 2 0.332051 0.2988 0.284629
498 4 0.33721 0.279689 0.299905
497 4 0.326892 0.317911 0.269354
613 2 0.386657 0.311983 0.321874
543 4 0.440088 0.263945 0.29067
420 4 0.435564 0.250676 0.306088
541 2 0.445296 0.288364 0.28933
542 4 0.450504 0.312782 0.287989
602 4 0.0716593 0.399418 0.271507
601 2 0.0697962 0.402759 0.296216
603 4 0.0679332 0.4061 0.320926
734 4 0.141083 0.3593 0.253751
733 2 0.145436 0.365174 0.277662
735 4 0.149789 0.371048 0.301573
677 4 0.158045 0.366763 0.319122
509 4 0.235723 0.396787 0.325502
437 4 0.297124 0.404139 0.280448
433 2 0.33149 0.416052 0.327848
434 4 0.342949 0.407365 0.307394
728 4 0.338534 0.398798 0.289963
727 2 0.344761 0.399249 0.265751
614 4 0.393608 0.333855 0.311951
445 2 0.448379 0.394557 0.264019
446 4 0.441422 0.406096 0.285082
713 4 0.431922 0.414951 0.299979
549 4 0.0661419 0.462194 0.322483
777 4 0.0801409 0.477954 0.325433
1757 4 0.102558 0.480413 0.277023
775 2 0.100478 0.491973 0.321551
414 4 0.142638 0.481377 0.29241
412 2 0.156014 0.482115 0.313523
413 4 0.169389 0.482853 0.334635
1436 4 0.266721 0.506258 0.310364
436 2 0.286236 0.42284 0.292974
438 4 0.275347 0.441541 0.3055
229 2 0.392973 0.487351 0.250363
231 4 0.386413 0.463712 0.245531
1803 4 0.35152 0.485668 0.313633
594 4 0.391278 0.483942 0.32248
1801 2 0.340408 0.494723 0.293146
119 3 0.493843 0.424306 0.338702
712 2 0.435992 0.439449 0.297067
714 4 0.440061 0.463947 0.294154
316 2 0.0584144 0.0537422 0.337605
317 4 0.072278 0.036302 0.348955
428 4 0.069752 0.0309262 0.368219
1782 4 0.135118 0.00217582 0.395076
427 2 0.0856638 0.0122136 0.363547
606 4 0.195053 0.0562835 0.392126
604 2 0.20776 0.0527915 0.370877
605 4 0.220466 0.0492994 0.349627
439 2 0.265561 0.0146118 0.403623
441 4 0.26714 0.0338918 0.387781
256 2 0.407001 0.0555189 0.35822
257 4 0.389357 0.0436931 0.345029
258 4 0.424646 0.0673447 0.371411
2655 4 0.00035188 0.164249 0.376258
397 2 0.0691171 0.106781 0.334314
399 4 0.0902207 0.097424 0.343919
731 4 0.155227 0.0996431 0.342738
732 4 0.106104 0.108114 0.346725
730 2 0.130666 0.103878 0.344731
685 2 0.162125 0.139054 0.405619
686 4 0.16215 0.153664 0.385328
598 2 0.192518 0.150255 0.35659
599 4 0.17762 0.144715 0.375891
600 4 0.207415 0.155794 0.337288
683 4 0.30263 0.100913 0.384754
682 2 0.299408 0.107853 0.408558
466 2 0.325931 0.162625 0.412583
467 4 0.334148 0.139918 0.4061
633 4 0.356294 0.103764 0.348235
2642 4 0.495085 0.0867138 0.351776
451 2 0.484795 0.142278 0.37445
453 4 0.461555 0.138554 0.366011
515 4 0.449495 0.142297 0.38043
514 2 0.435094 0.142935 0.40086
2653 2 0.0172055 0.180628 0.367721
2654 4 0.034059 0.197007 0.359185
260 4 0.095767 0.186939 0.407861
474 4 0.22197 0.217605 0.356117
274 2 0.219663 0.229009 0.392145
276 4 0.225169 0.212266 0.37441
472 2 0.243405 0.213247 0.344004
275 4 0.214158 0.245752 0.40988
488 4 0.299081 0.224386 0.417071
487 2 0.294919 0.24173 0.399549
305 4 0.464612 0.178497 0.398841
304 2 0.481275 0.194159 0.408954
616 2 0.0795034 0.311611 0.366739
618 4 0.0609111 0.32078 0.380718
347 4 0.0426536 0.315946 0.388156
346 2 0.0381775 0.294907 0.400902
348 4 0.0337014 0.273867 0.413649
390 4 0.102953 0.288501 0.36543
388 2 0.113422 0.275083 0.347113
375 4 0.164601 0.30571 0.395109
617 4 0.0980958 0.302441 0.35276
373 2 0.169144 0.320915 0.414431
402 4 0.193822 0.27686 0.338324
489 4 0.290758 0.259075 0.382027
376 2 0.295327 0.298804 0.354662
377 4 0.311357 0.291225 0.372291
378 4 0.279297 0.306382 0.337033
615 4 0.379705 0.29011 0.331796
716 4 0.379895 0.277976 0.347176
715 2 0.372489 0.27007 0.369711
717 4 0.365083 0.262164 0.392246
267 4 0.374815 0.267778 0.409629
406 2 0.0733751 0.409706 0.382132
408 4 0.065184 0.394476 0.400191
676 2 0.171952 0.357476 0.337711
678 4 0.185859 0.348189 0.356299
503 4 0.225552 0.363224 0.394678
508 2 0.245242 0.375005 0.333255
502 2 0.215051 0.372142 0.415544
510 4 0.254761 0.353223 0.341008
336 4 0.353967 0.353734 0.391269
751 2 0.419511 0.404627 0.354764
334 2 0.351484 0.361032 0.415055
2925 4 0.484744 0.338759 0.361952
561 4 0.445977 0.382977 0.37679
752 4 0.438918 0.389747 0.359971
559 2 0.444368 0.382187 0.401729
407 4 0.0815662 0.424936 0.364073
548 4 0.0668441 0.43797 0.366225
547 2 0.066493 0.450082 0.344354
680 4 0.0509997 0.472562 0.407926
499 2 0.113422 0.484303 0.376634
501 4 0.110122 0.459701 0.37363
435 4 0.32003 0.424739 0.348303
4 3 0.307198 0.461467 0.353304
1 1 0.326364 0.472647 0.360094
2 3 0.325885 0.475007 0.382971
753 4 0.400104 0.419508 0.349557
592 2 0.398968 0.494741 0.34368
5 3 0.327168 0.493258 0.350441
3 3 0.345178 0.460408 0.354207
720 4 0.0402007 0.055966 0.476864
718 2 0.0462147 0.0793884 0.48322
367 2 0.11288 0.0711467 0.441869
369 4 0.134013 0.0827334 0.448525
368 4 0.0917459 0.0595599 0.435214
2430 4 0.19545 0.0245344 0.503368
1181 4 0.256166 0.0420768 0.492181
1180 2 0.259764 0.065745 0.484966
432 4 0.306533 0.0728147 0.482721
726 4 0.339375 0.0118128 0.426326
724 2 0.338999 0.0342355 0.437383
725 4 0.338624 0.0566582 0.44844
426 4 0.380341 0.0128653 0.420683
424 2 0.394955 0.0242731 0.43746
425 4 0.409569 0.0356809 0.454237
457 2 0.00270146 0.15119 0.429688
719 4 0.0522287 0.102811 0.489577
687 4 0.162101 0.124444 0.42591
342 4 0.173899 0.0901046 0.509026
1151 4 0.174983 0.143494 0.47064
1150 2 0.179128 0.124346 0.486176
321 4 0.239015 0.142694 0.447473
1152 4 0.183274 0.105199 0.501712
684 4 0.296185 0.114794 0.432362
320 4 0.284413 0.130887 0.430143
319 2 0.261714 0.136791 0.438808
1182 4 0.263362 0.0894131 0.477751
575 4 0.412191 0.158089 0.432197
516 4 0.420693 0.143572 0.42129
640 2 0.496312 0.136958 0.489378
641 4 0.494297 0.161401 0.494242
459 4 0.0216935 0.167317 0.427586
470 4 0.0283306 0.188406 0.49551
261 4 0.100013 0.214127 0.449616
259 2 0.09789 0.200533 0.428739
1035 4 0.103598 0.202011 0.466799
1033 2 0.108435 0.188307 0.487145
695 4 0.106433 0.223049 0.467869
411 4 0.290589 0.221802 0.493593
409 2 0.305021 0.210948 0.476299
410 4 0.319454 0.200095 0.459005
468 4 0.317714 0.185333 0.419066
266 4 0.372197 0.227807 0.439565
265 2 0.373506 0.247793 0.424597
306 4 0.497937 0.209821 0.419066
574 2 0.422832 0.170663 0.451008
576 4 0.433473 0.183237 0.469818
326 4 0.0801139 0.319989 0.494823
694 2 0.106832 0.248033 0.468774
327 4 0.103612 0.290849 0.461665
696 4 0.107231 0.273017 0.469679
325 2 0.0918627 0.305419 0.478244
651 4 0.251453 0.299043 0.46353
649 2 0.25564 0.312459 0.44285
650 4 0.259827 0.325875 0.42217
812 4 0.355891 0.288617 0.496584
2456 4 0.501104 0.283452 0.4711
583 2 0.467193 0.268336 0.489667
584 4 0.491155 0.272734 0.484041
585 4 0.443231 0.263938 0.495293
2813 4 0.00942296 0.380446 0.444863
10 3 0.149506 0.345605 0.476394
6 1 0.146107 0.347857 0.4988
374 4 0.173687 0.33612 0.433754
772 2 0.240929 0.406509 0.471411
504 4 0.204551 0.381061 0.436409
709 2 0.177806 0.407229 0.459874
710 4 0.19445 0.391828 0.449339
773 4 0.251375 0.383854 0.469726
238 2 0.376863 0.373556 0.467672
240 4 0.355965 0.365511 0.456548
335 4 0.349001 0.36833 0.43884
239 4 0.397762 0.3816 0.478795
560 4 0.442758 0.381397 0.426668
681 4 0.0542652 0.442995 0.448123
679 2 0.0526324 0.457778 0.428024
383 4 0.0599308 0.426094 0.457324
539 4 0.0545633 0.470561 0.475714
538 2 0.072618 0.474753 0.492496
711 4 0.161163 0.42263 0.470408
382 2 0.0849151 0.425216 0.456887
570 4 0.133369 0.487455 0.450937
568 2 0.124849 0.464631 0.456565
384 4 0.109899 0.424337 0.456449
569 4 0.116329 0.441808 0.462193
636 4 0.241542 0.477866 0.427942
634 2 0.235226 0.462192 0.44637
635 4 0.228911 0.446517 0.464799
774 4 0.230483 0.429163 0.473097
1556 4 0.269507 0.503236 0.441103
669 4 0.306449 0.457729 0.460629
667 2 0.329718 0.455123 0.451857
586 2 0.40527 0.443641 0.440236
587 4 0.404772 0.456472 0.418782
588 4 0.405769 0.430809 0.461691
668 4 0.352987 0.452517 0.443085
663 4 0.448926 0.464674 0.493792
1126 2 0.0219721 0.0340667 0.542046
1127 4 0.0306687 0.0155453 0.527676
1128 4 0.0132755 0.0525882 0.556417
2238 4 0.0335619 0.010846 0.508082
341 4 0.19012 0.0430232 0.50445
2428 2 0.186127 0.00350314 0.513163
340 2 0.18201 0.0665639 0.506738
961 2 0.273257 0.0207997 0.522166
962 4 0.284623 0.0016022 0.533456
430 2 0.321769 0.0765318 0.502195
963 4 0.261892 0.0399971 0.510876
1217 4 0.408059 0.0500168 0.529275
1216 2 0.41176 0.0456198 0.553609
841 2 0.375903 0.0789839 0.529081
842 4 0.398224 0.0679856 0.531529
431 4 0.337004 0.0802488 0.521669
1218 4 0.415461 0.0412228 0.577943
1060 2 0.496464 0.0153019 0.550303
1062 4 0.480677 0.031393 0.539486
938 4 0.115957 0.159771 0.520873
937 2 0.110229 0.135797 0.516674
939 4 0.1045 0.111823 0.512475
1155 4 0.153495 0.123437 0.577924
1031 4 0.232653 0.087406 0.560683
1030 2 0.256805 0.0892475 0.566887
1032 4 0.280956 0.0910889 0.57309
899 4 0.312048 0.140641 0.52353
898 2 0.313051 0.164865 0.529645
843 4 0.353582 0.0899821 0.526632
471 4 0.0224619 0.165813 0.539734
877 2 0.0695819 0.238062 0.553886
878 4 0.0581137 0.246075 0.533163
469 2 0.0253963 0.17711 0.517622
1272 4 0.0831913 0.209814 0.574139
879 4 0.0810501 0.230048 0.574609
1034 4 0.113272 0.174603 0.507492
857 4 0.233959 0.223279 0.5244
858 4 0.277765 0.213915 0.546627
856 2 0.255862 0.218597 0.535513
900 4 0.314053 0.189088 0.53576
983 4 0.0465356 0.316103 0.578065
1258 2 0.133805 0.308438 0.534641
1260 4 0.128255 0.308428 0.559021
9 3 0.147852 0.327183 0.50919
1259 4 0.139356 0.308447 0.510261
791 4 0.309131 0.252997 0.564478
790 2 0.299994 0.271497 0.578601
813 4 0.391921 0.299935 0.529363
811 2 0.373906 0.294276 0.512973
872 4 0.441211 0.254898 0.514921
3065 4 0.487537 0.258188 0.523463
873 4 0.422612 0.281938 0.552653
871 2 0.431912 0.268418 0.533787
953 4 0.4675 0.295232 0.571207
935 4 0.0172067 0.408518 0.516029
7 3 0.125009 0.356261 0.502456
8 3 0.161686 0.362551 0.507733
1137 4 0.111876 0.375575 0.579021
1189 2 0.210694 0.354572 0.557621
1190 4 0.231494 0.348273 0.545257
1191 4 0.189895 0.360871 0.569985
896 4 0.189698 0.37925 0.563934
895 2 0.180017 0.395201 0.580578
804 4 0.310139 0.336525 0.537973
802 2 0.289559 0.344417 0.549777
803 4 0.268979 0.35231 0.561582
929 4 0.387333 0.349881 0.560254
925 2 0.443898 0.399562 0.546454
926 4 0.446072 0.378768 0.532741
540 4 0.0906727 0.478945 0.509278
1160 4 0.171789 0.450873 0.571815
1161 4 0.188939 0.465302 0.527112
1159 2 0.180364 0.458088 0.549464
1173 4 0.239665 0.469275 0.570395
1171 2 0.257435 0.451718 0.571461
1172 4 0.275205 0.43416 0.572527
882 4 0.356687 0.429348 0.54751
880 2 0.369123 0.450473 0.542582
881 4 0.38156 0.471597 0.537655
1454 4 0.359457 0.48668 0.49987
927 4 0.441724 0.420356 0.560168
662 4 0.462737 0.49075 0.534166
1910 4 0.443691 0.484606 0.541649
1909 2 0.432245 0.485093 0.563873
1911 4 0.420798 0.485581 0.586097
661 2 0.455831 0.477712 0.513979
1185 4 0.0187585 0.0358902 0.62585
1183 2 0.0141969 0.02762 0.649002
1059 4 0.16275 0.0808965 0.616956
825 4 0.149147 0.0381039 0.641414
823 2 0.159321 0.0154927 0.638188
1284 4 0.182857 0.0806134 0.623085
951 4 0.26091 0.0390642 0.620214
949 2 0.268525 0.0170646 0.611092
1092 4 0.343114 0.0103041 0.661224
1163 4 0.489763 0.0459135 0.662013
808 2 0.464281 0.088798 0.616457
810 4 0.442412 0.0768146 0.618272
1082 4 0.0523041 0.0943698 0.658986
1083 4 0.0728856 0.109641 0.616045
1081 2 0.0625948 0.102005 0.637515
1058 4 0.139099 0.110624 0.584435
1057 2 0.150925 0.09576 0.600695
1153 2 0.16264 0.146513 0.580934
909 4 0.139757 0.161335 0.654542
1154 4 0.171785 0.169588 0.583944
1283 4 0.227821 0.102368 0.620693
1282 2 0.205339 0.0914905 0.621889
809 4 0.486151 0.100781 0.614641
3424 2 0.495283 0.124024 0.660687
1199 4 0.991679 0.177746 0.605462
1245 4 0.0545474 0.248436 0.64816
1270 2 0.10448 0.201067 0.583908
1271 4 0.12577 0.192319 0.593677
1221 4 0.182319 0.181947 0.595275
1210 2 0.247981 0.187169 0.655567
1212 4 0.235404 0.190667 0.634242
1219 2 0.198791 0.188225 0.613007
1220 4 0.215263 0.194504 0.63074
796 2 0.213698 0.248047 0.604156
798 4 0.210136 0.237736 0.626654
904 2 0.46656 0.223677 0.606879
906 4 0.467957 0.214749 0.630193
1024 2 0.438163 0.192942 0.651651
1025 4 0.45212 0.204112 0.63417
905 4 0.465162 0.232605 0.583566
982 2 0.0320332 0.334307 0.587202
1243 2 0.0387239 0.266825 0.642108
1244 4 0.0229005 0.285215 0.636056
1209 4 0.0814134 0.256446 0.637707
1207 2 0.091593 0.260933 0.660099
797 4 0.217261 0.258359 0.581658
946 2 0.186351 0.279774 0.64206
947 4 0.18911 0.258662 0.655169
948 4 0.183591 0.300886 0.628951
792 4 0.290857 0.289997 0.592723
1238 4 0.299722 0.291895 0.60983
1237 2 0.309625 0.295796 0.632455
1239 4 0.319528 0.299696 0.65508
954 4 0.459338 0.250468 0.59195
952 2 0.463419 0.27285 0.581579
984 4 0.0175308 0.352511 0.596339
1040 4 0.074509 0.379353 0.627674
1039 2 0.050307 0.373237 0.629102
1041 4 0.0261051 0.367121 0.63053
1136 4 0.0804046 0.338824 0.591654
993 4 0.0855227 0.369032 0.640575
1135 2 0.0961404 0.357199 0.585338
991 2 0.100539 0.385821 0.65143
992 4 0.115556 0.402609 0.662285
897 4 0.170336 0.411153 0.597221
1029 4 0.245884 0.389447 0.662562
928 2 0.380606 0.358778 0.582632
1002 4 0.389083 0.410954 0.592889
930 4 0.373879 0.367674 0.60501
1204 2 0.400758 0.406996 0.654096
1206 4 0.399693 0.410897 0.629421
1953 4 0.294223 0.493816 0.581819
889 2 0.308083 0.420873 0.597254
891 4 0.286382 0.427545 0.586779
890 4 0.329785 0.414202 0.607729
1000 2 0.413591 0.415849 0.592135
1001 4 0.438099 0.420744 0.59138
944 4 0.0463958 0.0753254 0.666818
943 2 0.0593249 0.0556788 0.675305
945 4 0.0722541 0.0360322 0.683792
1184 4 0.00963524 0.0193498 0.672153
1147 2 0.222044 0.0633679 0.742987
2256 4 0.192173 0.0162101 0.679767
2281 2 0.407228 0.00646946 0.673551
45 3 0.410638 0.077726 0.704321
1004 4 0.352206 0.0823772 0.698027
2283 4 0.431142 0.0133555 0.671128
42 3 0.446177 0.0847315 0.69533
43 3 0.437508 0.0748348 0.730538
1076 4 0.0431252 0.0930567 0.678174
864 4 0.015593 0.136518 0.725816
1075 2 0.0327589 0.110158 0.693183
1077 4 0.0223925 0.127258 0.708193
907 2 0.15502 0.150126 0.670869
1130 4 0.173886 0.15946 0.740534
908 4 0.170282 0.138917 0.687197
1148 4 0.220031 0.0846442 0.730008
1225 2 0.20185 0.117392 0.711387
1226 4 0.218816 0.10341 0.723297
1227 4 0.184884 0.131374 0.699478
1005 4 0.31135 0.111168 0.699625
829 2 0.344454 0.151843 0.715135
1003 2 0.331778 0.0967728 0.698826
831 4 0.35362 0.141179 0.735809
830 4 0.335289 0.162508 0.69446
41 1 0.430258 0.0865089 0.711841
44 3 0.427393 0.108922 0.717116
1142 4 0.420065 0.119859 0.703173
1141 2 0.422225 0.142732 0.693306
3426 4 0.485189 0.1243 0.68356
851 4 0.0653231 0.16935 0.689696
852 4 0.0346481 0.203406 0.669697
850 2 0.0499856 0.186378 0.679696
1213 2 0.0110288 0.208355 0.741881
1214 4 0.0356834 0.208684 0.737732
1107 4 0.0727077 0.176121 0.707387
1178 4 0.0137307 0.23256 0.71397
1105 2 0.0756565 0.185751 0.730273
1277 4 0.178924 0.22391 0.735689
1129 2 0.17084 0.184003 0.736857
1131 4 0.167793 0.208546 0.73318
1276 2 0.195269 0.241317 0.743106
1211 4 0.260558 0.183671 0.676892
978 4 0.289958 0.174759 0.726824
886 2 0.301781 0.175834 0.677832
888 4 0.280307 0.188438 0.680108
887 4 0.323255 0.163229 0.675556
976 2 0.29086 0.19556 0.740669
1193 4 0.375883 0.210026 0.666346
1192 2 0.357922 0.193811 0.672642
1194 4 0.33996 0.177596 0.678938
1026 4 0.424205 0.181772 0.669132
1143 4 0.424385 0.165605 0.68344
1261 2 0.434564 0.200882 0.706265
1263 4 0.434773 0.184256 0.687591
1262 4 0.434355 0.217508 0.724938
1177 2 0.00906653 0.255087 0.704175
1179 4 0.0044024 0.277615 0.69438
1208 4 0.101773 0.26542 0.682491
822 4 0.167038 0.305057 0.714253
820 2 0.16576 0.280165 0.712267
821 4 0.164481 0.255274 0.71028
1065 4 0.22608 0.308693 0.692617
1063 2 0.244648 0.325197 0.695447
807 4 0.31809 0.310811 0.688174
805 2 0.299104 0.32287 0.699097
806 4 0.280119 0.334928 0.710021
1019 4 0.371348 0.329986 0.744004
3123 4 0.478348 0.26601 0.678179
3274 2 0.00744156 0.39869 0.734528
3276 4 0.0278385 0.388807 0.72397
892 2 0.0632611 0.385804 0.726346
894 4 0.0436897 0.385561 0.710788
893 4 0.0828325 0.386047 0.741905
940 2 0.125299 0.377498 0.736507
1067 4 0.164329 0.362938 0.724864
941 4 0.147722 0.374473 0.725866
942 4 0.102876 0.380523 0.747148
1028 4 0.200921 0.397109 0.683063
1066 2 0.181934 0.375857 0.712685
1068 4 0.199539 0.388776 0.700505
1027 2 0.223402 0.393278 0.672813
1064 4 0.263216 0.341701 0.698277
1205 4 0.401823 0.403096 0.67877
1018 2 0.384097 0.349184 0.734305
1020 4 0.396846 0.368383 0.724606
1981 2 0.0134853 0.475755 0.728803
1281 4 0.0500834 0.447122 0.680496
1280 4 0.0630857 0.459882 0.727066
1279 2 0.0565845 0.453502 0.703781
1983 4 0.00770866 0.48537 0.706457
1174 2 0.210498 0.497396 0.695245
1176 4 0.189724 0.489037 0.706368
1989 4 0.30209 0.475527 0.69807
1139 4 0.28617 0.430231 0.73095
1138 2 0.283066 0.432227 0.706221
1140 4 0.279961 0.434224 0.681491
1987 2 0.313579 0.477805 0.72016
1988 4 0.325068 0.480083 0.742251
1228 2 0.39206 0.461305 0.731307
1230 4 0.408196 0.446042 0.74279
1229 4 0.375924 0.476569 0.719825
1268 4 0.442388 0.488001 0.664567
1267 2 0.435768 0.470129 0.680751
1269 4 0.429147 0.452256 0.696935
1100 4 0.427345 0.43452 0.704793
1099 2 0.444732 0.433779 0.722746
1101 4 0.462119 0.433037 0.740699
1295 4 0.0237698 0.0612223 0.809212
1294 2 0.0245087 0.0397186 0.821949
1203 4 0.098144 0.0676863 0.805504
1201 2 0.0953253 0.0476936 0.790756
1202 4 0.0925066 0.0277008 0.776007
2049 4 0.107127 0.0165686 0.768308
911 4 0.0834176 0.0641686 0.818266
910 2 0.083868 0.0840792 0.833384
1149 4 0.224057 0.0420917 0.755966
2399 4 0.297472 0.00732646 0.755213
1255 2 0.292669 0.0680104 0.802003
1256 4 0.279446 0.0769473 0.821251
1257 4 0.305891 0.0590734 0.782756
1049 4 0.305271 0.00701909 0.773593
1048 2 0.321813 0.0255106 0.776691
973 2 0.351622 0.00278971 0.824742
1050 4 0.338355 0.044002 0.77979
1112 4 0.413463 0.0553352 0.796471
974 4 0.337791 0.0197022 0.812582
1111 2 0.431488 0.0459638 0.781894
1113 4 0.449512 0.0365923 0.767317
844 2 0.485566 0.0514779 0.769638
845 4 0.469604 0.0323261 0.771542
980 4 0.439376 0.0155851 0.808742
979 2 0.448481 0.008484 0.830919
862 2 0.0235673 0.138582 0.749424
863 4 0.0315416 0.140646 0.773032
833 4 0.0180348 0.137338 0.787059
34 3 0.083633 0.132788 0.811766
31 1 0.102282 0.143815 0.803459
32 3 0.108095 0.13443 0.783278
35 3 0.119679 0.1417 0.818003
839 4 0.308732 0.14162 0.805893
838 2 0.285896 0.139225 0.795996
840 4 0.26306 0.13683 0.786098
1084 2 0.362607 0.129791 0.773505
1085 4 0.356561 0.108946 0.785919
1086 4 0.368652 0.150636 0.76109
819 4 0.357141 0.102763 0.805009
817 2 0.369129 0.0941738 0.825201