ITEM: TIMESTEP
3060000
ITEM: NUMBER OF ATOMS
4590
ITEM: BOX BOUNDS pp pp pp
-9.9985700000000008e+00 9.9985700000000008e+00
-9.9985700000000008e+00 9.9985700000000008e+00
-9.9985700000000008e+00 9.9985700000000008e+00
ITEM: ATOMS id type xs ys zs
1666 2 0.0622422 0.0318083 0.0492311
1667 4 0.0560412 0.056023 0.0498449
1668 4 0.0684432 0.00759364 0.0486173
702 4 0.0641106 0.0730665 0.0600926
591 4 0.0495008 0.0769271 0.0450216
532 2 0.1558 0.0473771 0.0322562
533 4 0.156685 0.0325074 0.0523382
534 4 0.154915 0.0622467 0.0121741
1474 2 0.189163 0.0332418 0.0842749
1476 4 0.168766 0.0305277 0.0700706
490 2 0.287481 0.0785561 0.0555392
492 4 0.29008 0.0538366 0.0582533
295 2 0.443397 0.0650269 0.0721117
297 4 0.425392 0.0569811 0.0567414
589 2 0.0341256 0.0966003 0.0437008
590 4 0.0187504 0.116274 0.0423799
3232 2 0.0339476 0.149714 0.0206842
3233 4 0.0194272 0.130008 0.0257863
700 2 0.0809064 0.083916 0.0751048
1248 4 0.000646618 0.123907 0.0340938
450 4 0.165119 0.110101 0.0824716
701 4 0.0977022 0.0947656 0.090117
448 2 0.141602 0.104255 0.0886304
421 2 0.19492 0.0827336 0.0110162
422 4 0.215297 0.0968507 0.0142781
652 2 0.243868 0.111081 0.0526819
654 4 0.220462 0.110235 0.0439289
491 4 0.284881 0.103276 0.0528251
653 4 0.267274 0.111928 0.0614348
565 2 0.292112 0.126999 0.0299649
566 4 0.301698 0.129393 0.00699625
567 4 0.282526 0.124605 0.0529335
359 4 0.291723 0.132354 0.989662
556 2 0.387974 0.139586 0.0602775
557 4 0.403221 0.131557 0.0783956
558 4 0.372728 0.147614 0.0421593
664 2 0.341201 0.150935 0.0164918
3234 4 0.048468 0.169419 0.0155821
357 4 0.285672 0.190281 0.998392
666 4 0.354187 0.157139 0.0369383
571 2 0.37018 0.192768 0.0387573
572 4 0.37007 0.16863 0.0452776
573 4 0.37029 0.216907 0.0322371
324 4 0.414452 0.223738 0.0607332
623 4 0.410907 0.242335 0.0649696
1069 2 0.384311 0.242336 0.0130898
322 2 0.436444 0.225638 0.0489893
771 4 0.461289 0.24876 0.0390952
518 4 0.471171 0.235449 0.0528985
517 2 0.490096 0.235411 0.0692397
323 4 0.458436 0.227537 0.0372453
1054 2 0.00620081 0.327555 0.0249923
505 2 0.148849 0.309636 0.00647375
293 4 0.152492 0.340127 0.0410906
507 4 0.151819 0.328765 0.0222986
288 4 0.168997 0.341133 0.0275388
481 2 0.240736 0.330439 0.065472
286 2 0.191055 0.335111 0.0376575
287 4 0.213112 0.329089 0.0477763
483 4 0.230061 0.338839 0.04448
482 4 0.25141 0.322039 0.086464
957 4 0.394141 0.274872 0.0287527
1070 4 0.397573 0.263533 0.0131622
955 2 0.414344 0.28481 0.0396267
769 2 0.469589 0.256567 0.0168389
956 4 0.434547 0.294749 0.0505007
282 4 0.452236 0.285593 0.0540582
280 2 0.461023 0.304595 0.0677295
1056 4 0.0261255 0.342276 0.0283818
1168 2 0.03022 0.380533 0.0122795
1170 4 0.0215397 0.35749 0.0166179
1169 4 0.0389003 0.403577 0.00794117
292 2 0.135444 0.333692 0.0582127
456 4 0.0999348 0.33294 0.0753853
294 4 0.118397 0.327257 0.0753348
608 4 0.300814 0.419133 0.0812779
39 3 0.316564 0.409457 0.00244757
607 2 0.306242 0.394728 0.0815794
281 4 0.469809 0.323597 0.0814008
551 4 0.0280692 0.420181 0.0163848
550 2 0.0208429 0.434601 0.0354903
552 4 0.0136165 0.449021 0.0545958
315 4 0.0258789 0.455027 0.0715195
313 2 0.0447919 0.470649 0.0763599
620 4 0.0031877 0.455227 0.0729003
1786 2 0.103237 0.465143 0.0798823
1788 4 0.123556 0.452348 0.0729103
241 2 0.229291 0.478528 0.0555225
242 4 0.211754 0.486175 0.0394246
243 4 0.246828 0.470881 0.0716203
626 4 0.302061 0.431118 0.06452
627 4 0.266701 0.464523 0.0761169
625 2 0.284381 0.44782 0.0703185
246 4 0.331021 0.453799 0.0116742
245 4 0.337542 0.487678 0.0478732
244 2 0.334281 0.470739 0.0297737
2481 4 0.0112036 0.0483171 0.144302
18 3 0.0149437 0.0654681 0.132931
2479 2 0.0100122 0.0235615 0.140998
1475 4 0.209561 0.0359558 0.0984792
1785 4 0.353592 0.035373 0.170372
20 3 0.023751 0.0987012 0.148282
16 1 0.0134612 0.0885167 0.130702
19 3 0.0233325 0.0952011 0.110795
236 4 0.104253 0.114527 0.0946866
237 4 0.0826583 0.157452 0.0808366
235 2 0.0934558 0.13599 0.0877616
449 4 0.118084 0.0984092 0.0947893
296 4 0.461403 0.0730726 0.087482
477 4 0.0934826 0.173519 0.0845922
476 4 0.0988343 0.210626 0.117685
339 4 0.113427 0.223602 0.113468
475 2 0.0961584 0.192073 0.101138
461 4 0.28958 0.216732 0.103545
354 4 0.274378 0.220904 0.116857
460 2 0.3137 0.222152 0.0998024
352 2 0.264144 0.242576 0.123984
462 4 0.33782 0.227573 0.0960595
255 4 0.356095 0.223271 0.0896203
254 4 0.391781 0.207813 0.121057
253 2 0.373938 0.215542 0.105339
630 4 0.396244 0.200636 0.138849
28 3 0.362039 0.215704 0.166388
628 2 0.418878 0.207882 0.146618
629 4 0.441512 0.215129 0.154387
337 2 0.114542 0.247199 0.121663
338 4 0.115657 0.270795 0.129857
363 4 0.106648 0.283092 0.144062
361 2 0.124386 0.28996 0.160291
738 4 0.194062 0.247055 0.152835
736 2 0.213342 0.257704 0.140999
737 4 0.232621 0.268353 0.129163
755 4 0.247527 0.284387 0.133451
756 4 0.265394 0.307047 0.0926102
754 2 0.25646 0.295717 0.113031
353 4 0.253911 0.264248 0.131111
622 2 0.408349 0.255239 0.0862325
624 4 0.405791 0.268144 0.107495
741 4 0.386718 0.271203 0.111191
739 2 0.379247 0.293833 0.118759
740 4 0.371777 0.316462 0.126328
386 4 0.360933 0.328214 0.11226
537 4 0.110894 0.332424 0.14328
454 2 0.100029 0.332174 0.100377
455 4 0.100123 0.331408 0.125369
535 2 0.108802 0.34876 0.162094
252 4 0.264917 0.325828 0.103196
250 2 0.284816 0.340384 0.0990334
251 4 0.304714 0.35494 0.0948704
609 4 0.311671 0.370322 0.081881
387 4 0.326085 0.358548 0.0931256
385 2 0.343509 0.343381 0.102693
11 1 0.406629 0.369907 0.152134
13 3 0.394506 0.387994 0.144115
14 3 0.411941 0.355568 0.134682
15 3 0.394511 0.358805 0.167899
660 4 0.341313 0.405855 0.177845
494 4 0.461042 0.335889 0.0964603
671 4 0.48186 0.338895 0.0910454
12 3 0.426117 0.377629 0.161607
495 4 0.418783 0.355047 0.115111
493 2 0.439912 0.345468 0.105786
595 2 0.465927 0.385615 0.146186
596 4 0.483838 0.396054 0.132207
597 4 0.448016 0.375175 0.160164
2652 4 0.491555 0.414209 0.12944
314 4 0.0637048 0.486271 0.0812003
263 4 0.0175091 0.479483 0.174573
1787 4 0.0829177 0.477938 0.0868542
1467 4 0.0312364 0.491021 0.162763
1440 4 0.254653 0.474452 0.0912431
1438 2 0.259223 0.48648 0.112682
1439 4 0.263792 0.498508 0.134121
637 2 0.289157 0.490571 0.162977
525 4 0.321803 0.455088 0.1349
523 2 0.336058 0.475485 0.137345
659 4 0.33174 0.441194 0.143783
658 2 0.336527 0.423525 0.160814
2650 2 0.500427 0.437472 0.127138
1700 4 0.197221 0.0269662 0.240574
21 1 0.324081 0.0653965 0.231727
23 3 0.303907 0.0572879 0.223624
22 3 0.333791 0.0492866 0.244969
25 3 0.338026 0.0702622 0.214391
24 3 0.320415 0.0844082 0.244514
1783 2 0.348967 0.0567301 0.182524
1784 4 0.344341 0.0780872 0.194676
759 4 0.356164 0.0841869 0.213036
757 2 0.378486 0.0817179 0.224027
758 4 0.400808 0.0792488 0.235018
312 4 0.418283 0.0754095 0.222599
744 4 0.418496 0.0709172 0.243632
1749 4 0.463997 0.0293616 0.212827
1747 2 0.47293 0.0295103 0.23618
310 2 0.433651 0.0818823 0.203969
311 4 0.44902 0.0883551 0.185339
511 2 0.00271565 0.132794 0.238377
512 4 0.00225082 0.118666 0.217753
693 4 0.154333 0.0950466 0.222173
690 4 0.160858 0.0807871 0.23481
691 2 0.162876 0.115911 0.211363
692 4 0.171419 0.136776 0.200553
723 4 0.177923 0.149967 0.215846
721 2 0.17821 0.159028 0.239148
581 4 0.324338 0.178081 0.173528
707 4 0.383794 0.125801 0.207626
706 2 0.37861 0.150236 0.206532
748 2 0.0312843 0.211491 0.20508
750 4 0.0453406 0.208282 0.225508
396 4 0.0450111 0.225338 0.23658
749 4 0.0172281 0.2147 0.184652
582 4 0.288528 0.163165 0.205085
580 2 0.306433 0.170623 0.189306
285 4 0.283626 0.174712 0.220968
283 2 0.269217 0.193412 0.229205
30 3 0.331742 0.195195 0.175284
284 4 0.254807 0.212113 0.237442
27 3 0.344285 0.221067 0.199079
708 4 0.373425 0.174672 0.205438
29 3 0.364003 0.1895 0.193845
26 1 0.35043 0.205252 0.183546
362 4 0.142125 0.296828 0.176519
372 4 0.160695 0.292449 0.180268
370 2 0.172189 0.295364 0.202281
371 4 0.183682 0.298279 0.224294
279 4 0.198149 0.295499 0.23999
612 4 0.202804 0.307405 0.222998
610 2 0.213764 0.329861 0.223885
765 4 0.411476 0.308151 0.240294
542 4 0.431314 0.308852 0.237173
541 2 0.440881 0.286357 0.242429
543 4 0.450449 0.263861 0.247684
536 4 0.106709 0.365095 0.180907
417 4 0.228108 0.369848 0.232234
611 4 0.224725 0.352317 0.224773
415 2 0.240259 0.391526 0.229477
416 4 0.25241 0.413204 0.226719
436 2 0.295745 0.405253 0.238572
437 4 0.272774 0.413228 0.232751
438 4 0.318717 0.397278 0.244392
303 4 0.328972 0.387726 0.227972
301 2 0.34003 0.388188 0.205551
302 4 0.351088 0.38865 0.18313
644 4 0.449403 0.373607 0.225372
643 2 0.442946 0.370675 0.201395
645 4 0.436489 0.367743 0.177419
447 4 0.436472 0.388493 0.226277
445 2 0.43788 0.410447 0.23816
647 4 0.011279 0.486335 0.155463
262 2 0.0293998 0.464179 0.190371
1757 4 0.0360643 0.44846 0.224965
264 4 0.0412905 0.448875 0.206169
1756 2 0.0397919 0.460438 0.246594
1436 4 0.261457 0.43135 0.2335
291 4 0.266852 0.4239 0.214387
638 4 0.299525 0.475863 0.180336
289 2 0.274933 0.443143 0.200618
290 4 0.283014 0.462386 0.18685
767 4 0.29951 0.467631 0.200154
766 2 0.309427 0.485776 0.21421
768 4 0.319344 0.50392 0.228267
1574 4 0.336499 0.497911 0.23507
1573 2 0.354905 0.486912 0.24793
673 2 0.0747399 0.0663893 0.26613
674 4 0.0544843 0.0716081 0.279828
688 2 0.138566 0.0718211 0.241727
689 4 0.116274 0.0628551 0.248645
675 4 0.0949956 0.0611705 0.252431
1403 4 0.108982 0.0474532 0.261407
1402 2 0.116026 0.0243586 0.267903
1699 2 0.201016 0.0319442 0.264781
248 4 0.197945 0.0432672 0.308097
247 2 0.182031 0.0604141 0.316922
1701 4 0.20481 0.0369221 0.288989
605 4 0.216295 0.0315562 0.30639
604 2 0.23378 0.0146041 0.312056
249 4 0.166117 0.077561 0.325748
1497 4 0.365196 0.014372 0.283994
1496 4 0.346863 0.0342389 0.241923
699 4 0.380428 0.0135267 0.299124
1495 2 0.356029 0.0243054 0.262959
697 2 0.387977 0.0337291 0.311776
351 4 0.401891 0.0725567 0.332446
698 4 0.395525 0.0539315 0.324428
2642 4 0.496279 0.0536371 0.319157
478 2 0.485229 0.0355975 0.29027
2641 2 0.494911 0.048316 0.343549
1748 4 0.481863 0.029659 0.259533
480 4 0.490671 0.0184445 0.272911
579 4 0.0222909 0.147221 0.26927
529 2 0.00273635 0.125535 0.297672
530 4 0.00749232 0.132664 0.274183
600 4 0.134092 0.159585 0.313957
545 4 0.155493 0.161098 0.311017
405 4 0.147694 0.143871 0.320668
403 2 0.15443 0.119799 0.320089
404 4 0.161166 0.0957266 0.31951
722 4 0.178497 0.16809 0.26245
349 2 0.40124 0.0892413 0.313835
333 4 0.397485 0.117575 0.276322
350 4 0.400588 0.105926 0.295224
331 2 0.403761 0.140802 0.283128
332 4 0.410037 0.164029 0.289933
762 4 0.409222 0.170825 0.308372
742 2 0.416913 0.08854 0.261299
743 4 0.415331 0.106163 0.278965
394 2 0.0493113 0.24726 0.247811
577 2 0.0397797 0.165036 0.270676
578 4 0.0572686 0.18285 0.272082
391 2 0.0746403 0.196947 0.298976
393 4 0.0711924 0.196969 0.274212
392 4 0.0780883 0.196924 0.323741
544 2 0.171592 0.169148 0.293663
546 4 0.187692 0.177198 0.276308
343 2 0.245772 0.232604 0.267832
345 4 0.233235 0.25117 0.278937
344 4 0.258308 0.214038 0.256726
613 2 0.406752 0.243466 0.334289
614 4 0.42649 0.237008 0.320365
761 4 0.427064 0.217511 0.310028
760 2 0.418143 0.194168 0.3092
419 4 0.431806 0.236018 0.299849
418 2 0.436646 0.240354 0.275704
521 4 0.462845 0.246652 0.251636
420 4 0.441485 0.244691 0.25156
395 4 0.0536114 0.269182 0.259041
442 2 0.0158836 0.28907 0.258353
444 4 0.0384523 0.282415 0.266811
277 2 0.206925 0.277193 0.254586
278 4 0.215702 0.258888 0.269182
309 4 0.223985 0.268517 0.287193
307 2 0.240418 0.278782 0.302997
308 4 0.256852 0.289047 0.318801
497 4 0.260945 0.309131 0.324524
496 2 0.278634 0.325591 0.318095
509 4 0.261232 0.293908 0.3395
763 2 0.386739 0.307036 0.243761
764 4 0.362002 0.305921 0.247229
520 2 0.487466 0.246305 0.255984
603 4 0.142265 0.421131 0.261854
300 4 0.13245 0.402832 0.264707
298 2 0.130317 0.379166 0.272489
734 4 0.1168 0.348368 0.295703
299 4 0.128184 0.355501 0.28027
733 2 0.129644 0.348709 0.317152
498 4 0.296323 0.342051 0.311667
729 4 0.340047 0.399249 0.242467
727 2 0.358477 0.399299 0.259365
751 2 0.412044 0.397581 0.305385
753 4 0.390773 0.397955 0.292248
728 4 0.376907 0.399349 0.276262
752 4 0.433315 0.397207 0.318522
1758 4 0.0435195 0.472416 0.268223
601 2 0.124072 0.438255 0.260861
412 2 0.0981743 0.468349 0.298989
602 4 0.105879 0.455378 0.259868
414 4 0.105413 0.469036 0.275067
413 4 0.0909352 0.467663 0.322912
776 4 0.0990636 0.448272 0.329791
1435 2 0.255593 0.443352 0.254636
1437 4 0.249728 0.455355 0.275772
435 4 0.318258 0.457694 0.311191
4 3 0.323736 0.477113 0.315523
433 2 0.307291 0.440853 0.326067
2 3 0.341735 0.485483 0.283607
1575 4 0.373312 0.475912 0.260791
5 3 0.35245 0.455862 0.303625
1803 4 0.387788 0.417347 0.281815
1802 4 0.387682 0.46674 0.274002
1801 2 0.387735 0.442043 0.277909
1689 4 0.394746 0.480055 0.258774
1 1 0.344351 0.47711 0.304872
3 3 0.359257 0.490597 0.316463
1687 2 0.41474 0.494681 0.262162
229 2 0.45037 0.493467 0.303582
446 4 0.439289 0.432402 0.250043
713 4 0.449205 0.426175 0.267032
231 4 0.452497 0.481853 0.325622
712 2 0.468957 0.434558 0.279867
714 4 0.48871 0.442941 0.292701
1376 4 0.00488026 0.039127 0.391951
233 4 0.0179025 0.0559144 0.391661
318 4 0.0738114 0.0545796 0.393034
234 4 0.0649993 0.0660944 0.378283
232 2 0.0414509 0.0610044 0.384972
1464 4 0.111562 0.997046 0.334412
316 2 0.0892765 0.0443886 0.409831
633 4 0.32436 0.0221991 0.353668
632 4 0.286165 0.0538176 0.360159
631 2 0.305263 0.0380083 0.356914
682 2 0.273367 0.0749879 0.391448
683 4 0.28598 0.0694034 0.370594
684 4 0.260754 0.0805724 0.412303
725 4 0.339462 0.0168673 0.364686
257 4 0.402069 0.054792 0.344834
256 2 0.412945 0.0513251 0.36708
2643 4 0.493544 0.0429948 0.367942
425 4 0.423925 0.0296286 0.400649
258 4 0.423821 0.0478582 0.389326
452 4 0.489834 0.0414262 0.386965
451 2 0.465634 0.0416714 0.39325
453 4 0.441435 0.0419167 0.399535
515 4 0.424119 0.0483595 0.4111
514 2 0.426117 0.0723233 0.41795
398 4 0.0125621 0.112799 0.336092
397 2 0.036923 0.110262 0.341121
399 4 0.0612839 0.107725 0.34615
732 4 0.0644582 0.119135 0.363337
730 2 0.0795726 0.138716 0.366987
598 2 0.12123 0.163245 0.335084
599 4 0.108367 0.166905 0.356211
685 2 0.13588 0.165657 0.387176
686 4 0.113316 0.168979 0.376928
731 4 0.094687 0.158297 0.370637
687 4 0.158444 0.162335 0.397424
1151 4 0.168337 0.149474 0.409896
467 4 0.266743 0.155348 0.399918
574 2 0.43624 0.125935 0.400487
576 4 0.452272 0.142538 0.39087
305 4 0.453914 0.156074 0.376955
2654 4 0.0669132 0.207694 0.336499
2653 2 0.060658 0.212539 0.360218
2655 4 0.0544028 0.217383 0.383936
617 4 0.0960753 0.228289 0.376875
388 2 0.119079 0.230042 0.350707
390 4 0.10054 0.217088 0.361366
616 2 0.0946766 0.230686 0.401724
275 4 0.155174 0.242117 0.352322
474 4 0.22009 0.230862 0.340319
274 2 0.177387 0.235463 0.342969
276 4 0.199599 0.228809 0.333615
472 2 0.234599 0.215361 0.353525
466 2 0.267377 0.172652 0.381881
473 4 0.249107 0.19986 0.366731
409 2 0.281227 0.226369 0.384697
468 4 0.268011 0.189957 0.363844
410 4 0.267523 0.209372 0.372513
411 4 0.294932 0.243366 0.396882
716 4 0.373142 0.24368 0.359609
715 2 0.366058 0.241069 0.383446
615 4 0.387014 0.249924 0.348213
717 4 0.358973 0.238458 0.407282
488 4 0.346668 0.245755 0.423571
304 2 0.454863 0.180203 0.370469
269 4 0.440566 0.216254 0.367086
306 4 0.455813 0.204332 0.363982
268 2 0.42896 0.228678 0.38542
2924 4 0.424359 0.239092 0.422672
270 4 0.417354 0.241102 0.403754
2814 4 0.00528386 0.31381 0.401202
389 4 0.137619 0.242997 0.340047
401 4 0.142748 0.259442 0.352903
400 2 0.150756 0.272044 0.372958
402 4 0.158764 0.284647 0.393014
375 4 0.17864 0.289478 0.39022
373 2 0.203066 0.284861 0.392906
374 4 0.227492 0.280243 0.395592
510 4 0.239224 0.27312 0.379303
508 2 0.250228 0.283514 0.359401
378 4 0.247877 0.274842 0.398617
376 2 0.269563 0.278288 0.410576
489 4 0.308183 0.276025 0.413404
487 2 0.327426 0.26089 0.418488
548 4 0.021879 0.383102 0.334605
407 4 0.00637629 0.37782 0.32334
547 2 0.0346855 0.400587 0.347072
735 4 0.142489 0.349051 0.338602
677 4 0.157154 0.362844 0.341832
676 2 0.171988 0.364674 0.361877
678 4 0.186822 0.366503 0.381921
650 4 0.203244 0.367186 0.395535
503 4 0.189455 0.383303 0.396217
649 2 0.224773 0.377161 0.40342
651 4 0.246303 0.387136 0.411304
502 2 0.173455 0.389936 0.414251
561 4 0.435699 0.384493 0.333925
667 2 0.417202 0.400024 0.412369
559 2 0.439737 0.384108 0.358598
560 4 0.443776 0.383723 0.38327
668 4 0.437944 0.39731 0.398673
588 4 0.457935 0.388648 0.398916
586 2 0.475171 0.399201 0.413639
777 4 0.0577427 0.435228 0.354754
549 4 0.0474919 0.418073 0.359539
775 2 0.0784032 0.44175 0.342273
1545 4 0.104396 0.466731 0.340206
1543 2 0.112195 0.489182 0.347972
434 4 0.296325 0.424012 0.340943
3989 4 0.445602 0.483198 0.362523
119 3 0.495583 0.449477 0.337931
3990 4 0.475785 0.449257 0.341601
3988 2 0.460694 0.466227 0.352062
317 4 0.104741 0.0341976 0.426629
428 4 0.11334 0.0195276 0.439735
1781 4 0.108983 0.0390334 0.447076
1780 2 0.128838 0.0488716 0.458661
1782 4 0.148692 0.0587097 0.470245
341 4 0.170516 0.0617651 0.471486
2428 2 0.169872 0.0231536 0.490054
2430 4 0.160562 0.0443136 0.480527
340 2 0.179444 0.0761004 0.453048
1180 2 0.27974 0.0683017 0.444408
1181 4 0.290655 0.0495516 0.456836
1182 4 0.268824 0.0870519 0.43198
963 4 0.288461 0.0341513 0.472107
432 4 0.307713 0.0390382 0.464203
961 2 0.286806 0.0251005 0.495356
430 2 0.332677 0.0395772 0.462915
431 4 0.357642 0.0401162 0.461628
841 2 0.386746 0.0223016 0.462687
842 4 0.400844 0.00502225 0.45138
843 4 0.372648 0.039581 0.473994
426 4 0.418758 0.999442 0.440181
424 2 0.421341 0.0145355 0.420415
1217 4 0.419766 0.00216681 0.461616
1216 2 0.441319 0.00239238 0.474288
1218 4 0.462872 0.00261795 0.48696
458 4 0.993898 0.128616 0.454284
457 2 0.0103647 0.115699 0.467966
719 4 0.0383804 0.0951588 0.495375
459 4 0.0268309 0.102781 0.481647
368 4 0.14776 0.0857019 0.449418
367 2 0.133345 0.106066 0.447785
369 4 0.118929 0.12643 0.446153
939 4 0.105756 0.1405 0.444685
937 2 0.111397 0.158694 0.460882
342 4 0.188372 0.0904356 0.434609
1152 4 0.187924 0.104959 0.421534
1150 2 0.178131 0.127217 0.415715
320 4 0.249795 0.0938761 0.424931
319 2 0.252794 0.117858 0.418522
899 4 0.271575 0.153893 0.420611
321 4 0.255793 0.141839 0.412114
898 2 0.278957 0.168146 0.439782
516 4 0.428115 0.096287 0.4248
575 4 0.420208 0.109331 0.410104
260 4 0.0835288 0.246021 0.441585
259 2 0.0843712 0.236556 0.464713
938 4 0.117038 0.176887 0.47708
1034 4 0.133594 0.183513 0.489089
261 4 0.0852136 0.227091 0.48784
1035 4 0.104939 0.223933 0.495856
1033 2 0.119266 0.203723 0.492472
618 4 0.0932779 0.233082 0.426574
900 4 0.286339 0.182398 0.458954
267 4 0.361396 0.230924 0.427618
813 4 0.367557 0.214254 0.484962
266 4 0.35829 0.205921 0.470815
265 2 0.359843 0.218422 0.449217
811 2 0.380514 0.229126 0.500328
2801 4 0.0097383 0.316611 0.420397
2847 4 0.0189671 0.282974 0.471128
2802 4 0.0285694 0.29921 0.463331
2800 2 0.0191538 0.30791 0.441864
2845 2 0.00739242 0.288994 0.492458
347 4 0.0950143 0.254221 0.42469
346 2 0.0983178 0.277954 0.431833
348 4 0.101621 0.301687 0.438975
10 3 0.110362 0.314477 0.451083
9 3 0.129759 0.292155 0.474389
6 1 0.130307 0.311562 0.461682
1259 4 0.132092 0.293824 0.494411
8 3 0.147453 0.310344 0.446096
377 4 0.29125 0.281734 0.422535
238 2 0.390302 0.313043 0.436401
2925 4 0.408046 0.278717 0.448448
239 4 0.409336 0.297508 0.441043
871 2 0.414893 0.277663 0.491494
2923 2 0.416202 0.258904 0.43556
2456 4 0.488108 0.312251 0.470263
584 4 0.477607 0.327835 0.465711
583 2 0.454772 0.317729 0.464456
585 4 0.431936 0.307622 0.463201
872 4 0.422648 0.2948 0.475021
680 4 0.101731 0.426566 0.487852
7 3 0.134173 0.32946 0.475606
504 4 0.157456 0.396568 0.432284
711 4 0.128466 0.347153 0.464439
709 2 0.138864 0.368469 0.456521
710 4 0.149263 0.389784 0.448602
669 4 0.39646 0.402738 0.426066
336 4 0.379308 0.394615 0.431995
240 4 0.371268 0.328578 0.431759
335 4 0.363637 0.347217 0.429074
334 2 0.371472 0.370916 0.430534
926 4 0.456618 0.411466 0.508512
679 2 0.0815952 0.438801 0.479483
382 2 0.06011 0.485407 0.463212
539 4 0.0415321 0.449328 0.479013
538 2 0.0236407 0.451131 0.496386
681 4 0.0614599 0.451037 0.471113
383 4 0.0456407 0.46509 0.464949
384 4 0.0745793 0.505725 0.461475
773 4 0.203197 0.469918 0.428174
635 4 0.160013 0.486261 0.47793
772 2 0.188948 0.479243 0.446482
774 4 0.174699 0.488567 0.46479
634 2 0.172321 0.499255 0.49539
2507 4 0.502172 0.424398 0.441026
1910 4 0.455937 0.476418 0.465094
661 2 0.470431 0.447972 0.442457
1909 2 0.451712 0.482251 0.489038
663 4 0.481251 0.426089 0.437048
587 4 0.492407 0.409754 0.428361
662 4 0.459612 0.469855 0.447865
2429 4 0.179182 0.00199358 0.499581
1284 4 0.195853 0.0678915 0.580514
962 4 0.28515 0.0160497 0.518605
1091 4 0.352012 0.0142084 0.54935
1090 2 0.338857 0.00670175 0.569244
2196 4 0.352105 0.00153046 0.533912
1060 2 0.486956 0.0337961 0.563202
810 4 0.471922 0.0740907 0.568052
1061 4 0.487654 0.00881644 0.564042
1062 4 0.486258 0.0587758 0.562361
89 3 0.491264 0.00171457 0.58259
720 4 0.0766781 0.0975558 0.527442
718 2 0.0575293 0.0963573 0.511408
1059 4 0.191923 0.0873082 0.585266
808 2 0.485474 0.0949939 0.57019
327 4 0.0782139 0.248121 0.565202
695 4 0.0876764 0.2252 0.509203
696 4 0.0961956 0.242374 0.555389
694 2 0.091936 0.233787 0.532296
877 2 0.111182 0.235014 0.588408
1272 4 0.136124 0.213209 0.584878
1270 2 0.15793 0.201552 0.588593
856 2 0.209526 0.22633 0.537997
857 4 0.221113 0.211927 0.554833
858 4 0.197939 0.240733 0.52116
953 4 0.413369 0.247213 0.523876
812 4 0.393471 0.243997 0.515695
952 2 0.425497 0.233634 0.541014
954 4 0.437625 0.220055 0.558151
905 4 0.456525 0.225341 0.560528
904 2 0.459493 0.205612 0.575599
906 4 0.462462 0.185884 0.590671
3159 4 0.496091 0.21863 0.498261
982 2 0.020387 0.295677 0.547091
984 4 0.040733 0.302015 0.56017
326 4 0.0487155 0.287573 0.573808
1136 4 0.0544484 0.308702 0.575131
325 2 0.0634647 0.267847 0.569505
1135 2 0.0719668 0.324648 0.56713
2846 4 0.995818 0.295014 0.513788
878 4 0.0974404 0.251435 0.575497
1258 2 0.151824 0.290752 0.509457
1260 4 0.171556 0.28768 0.524503
791 4 0.397966 0.261582 0.527898
873 4 0.407138 0.260526 0.507968
1237 2 0.334139 0.28956 0.570998
790 2 0.376124 0.266795 0.538895
792 4 0.354282 0.272007 0.549892
1238 4 0.341108 0.266273 0.565138
936 4 0.00646398 0.409036 0.542936
934 2 0.0251723 0.419396 0.555892
991 2 0.134575 0.412639 0.584282
993 4 0.119378 0.425478 0.569137
929 4 0.380227 0.334633 0.538106
880 2 0.354818 0.412469 0.564099
928 2 0.374011 0.352702 0.554232
882 4 0.361089 0.388424 0.561331
930 4 0.367795 0.370772 0.570357
925 2 0.467718 0.402537 0.52906
927 4 0.478819 0.393607 0.549608
1001 4 0.490084 0.392771 0.56539
1000 2 0.494763 0.408238 0.58447
3430 2 0.0467387 0.469823 0.556702
3431 4 0.0414972 0.489763 0.542557
935 4 0.0438805 0.429756 0.568847
3432 4 0.0519801 0.449882 0.570847
1039 2 0.0768332 0.42775 0.576698
540 4 0.00574924 0.452934 0.513759
4434 4 0.0212495 0.495332 0.545286
1040 4 0.0988106 0.420812 0.567001
1159 2 0.106903 0.436378 0.527129
1161 4 0.109007 0.432919 0.551802
1160 4 0.104799 0.439838 0.502455
1455 4 0.3454 0.499854 0.538582
1454 4 0.343348 0.455811 0.562177
1453 2 0.344374 0.477832 0.55038
881 4 0.348546 0.436515 0.566868
1911 4 0.447486 0.488084 0.512981
4084 2 0.449488 0.496748 0.552108
4085 4 0.440684 0.501608 0.529215
4086 4 0.458292 0.491889 0.575
1183 2 0.0293829 0.0590844 0.658089
1184 4 0.0198531 0.0363923 0.653681
1892 4 0.021794 0.0150942 0.651965
4338 4 0.0046771 0.0235703 0.661931
1282 2 0.216499 0.0606772 0.592633
1283 4 0.237145 0.0534628 0.604752
2131 2 0.22842 0.0315014 0.642524
2132 4 0.238721 0.0460533 0.624993
2133 4 0.218119 0.0169494 0.660054
1031 4 0.248919 0.0358841 0.608925
1030 2 0.271264 0.025179 0.605563
1032 4 0.293608 0.0144739 0.602201
1081 2 0.0118032 0.117151 0.653566
943 2 0.0712353 0.0976415 0.665716
1082 4 0.0269515 0.0997078 0.663128
944 4 0.0471129 0.100199 0.671778
945 4 0.0953576 0.0950841 0.659653
1057 2 0.185878 0.103019 0.603754
1058 4 0.179833 0.118729 0.622242
1155 4 0.189898 0.137969 0.623124
1153 2 0.191037 0.162118 0.616747
909 4 0.200856 0.119982 0.627705
907 2 0.216032 0.11696 0.647345
908 4 0.231209 0.113939 0.666985
830 4 0.36458 0.139626 0.626506
829 2 0.369394 0.115141 0.628093
831 4 0.374208 0.090657 0.62968
887 4 0.361933 0.161311 0.624108
1194 4 0.379616 0.153253 0.635462
1026 4 0.46188 0.142664 0.630206
1024 2 0.462831 0.154401 0.608149
1143 4 0.450427 0.128683 0.642046
1263 4 0.455372 0.148115 0.649792
1141 2 0.450934 0.108833 0.657241
1025 4 0.463781 0.166138 0.586091
852 4 0.049312 0.224743 0.651512
1245 4 0.0422302 0.245099 0.650954
879 4 0.124924 0.218594 0.601319
1154 4 0.192176 0.186268 0.610369
1271 4 0.179736 0.189895 0.592307
1221 4 0.194665 0.204326 0.599041
1219 2 0.218474 0.211961 0.598844
1220 4 0.242283 0.219596 0.598646
888 4 0.32225 0.191659 0.621886
798 4 0.256277 0.23167 0.588243
1212 4 0.262555 0.21315 0.596395
1211 4 0.304377 0.194058 0.61607
1210 2 0.283466 0.203604 0.606233
886 2 0.342092 0.176485 0.622997
1192 2 0.398667 0.169207 0.638231
1193 4 0.417719 0.185162 0.641001
3123 4 0.491723 0.244055 0.676211
1243 2 0.0181113 0.250938 0.647893
1244 4 0.993992 0.256776 0.644832
946 2 0.143753 0.276507 0.661679
948 4 0.168639 0.275758 0.663978
947 4 0.118867 0.277256 0.659379
1239 4 0.32717 0.312846 0.576858
804 4 0.321224 0.331728 0.581502
796 2 0.259516 0.255114 0.596311
802 2 0.297824 0.333949 0.590028
797 4 0.262755 0.278557 0.604379
803 4 0.274424 0.336169 0.598554
3112 2 0.486094 0.295647 0.631612
3114 4 0.464778 0.283294 0.627344
1137 4 0.0894852 0.340594 0.559129
992 4 0.149772 0.3998 0.599428
1067 4 0.12083 0.356751 0.668902
1066 2 0.142952 0.35397 0.657588
897 4 0.16574 0.398609 0.588004
941 4 0.100754 0.359184 0.66259
1068 4 0.165075 0.351188 0.646273
1191 4 0.221018 0.371037 0.610334
896 4 0.20125 0.372822 0.61198
895 2 0.183495 0.385716 0.599992
1189 2 0.243395 0.359932 0.611391
1027 2 0.195288 0.373853 0.667602
1028 4 0.176383 0.366781 0.652846
1190 4 0.265772 0.348827 0.612448
1041 4 0.0548558 0.434689 0.586394
3264 4 0.0356247 0.443867 0.583543
3239 4 0.0137281 0.442389 0.642121
3262 2 0.0204698 0.447369 0.60312
3238 2 0.0255657 0.453975 0.660852
1173 4 0.306702 0.480658 0.613938
1172 4 0.305863 0.454216 0.656374
1171 2 0.306282 0.467437 0.635156
3183 4 0.469347 0.484633 0.59218
1206 4 0.498618 0.429687 0.623982
1204 2 0.48829 0.428217 0.646705
3182 4 0.488672 0.441518 0.608563
3181 2 0.47901 0.463075 0.600371
1205 4 0.477962 0.426747 0.669429
1185 4 0.0389128 0.0817765 0.662497
824 4 0.203243 0.0179747 0.673035
43 3 0.471118 0.0607638 0.715157
846 4 0.460392 0.0518636 0.728925
44 3 0.449556 0.0753588 0.687472
41 1 0.47103 0.0741067 0.696174
45 3 0.485244 0.0655325 0.680583
1077 4 0.0275681 0.109045 0.727531
1075 2 0.0295316 0.0988902 0.704767
864 4 0.017496 0.126401 0.732745
1076 4 0.031495 0.0887357 0.682003
1179 4 0.99792 0.165477 0.701936
1072 2 0.131477 0.158188 0.748385
1074 4 0.154383 0.150915 0.741487
1227 4 0.223411 0.112516 0.684879
1226 4 0.22357 0.124114 0.733522
1225 2 0.223491 0.118315 0.7092
1148 4 0.220461 0.104369 0.741706
1261 2 0.451566 0.169279 0.66255
1142 4 0.45144 0.0889826 0.672436
42 3 0.477968 0.0952706 0.701928
1177 2 0.0220268 0.172084 0.701329
850 2 0.0518424 0.210643 0.672006
1178 4 0.046134 0.178691 0.700723
851 4 0.0543727 0.196543 0.692499
1107 4 0.0670559 0.18313 0.704695
1105 2 0.0795655 0.179773 0.726082
1106 4 0.0920752 0.176415 0.747469
1086 4 0.292212 0.229622 0.728393
1299 4 0.27853 0.220638 0.71713
1297 2 0.259878 0.221009 0.733777
1084 2 0.313598 0.223905 0.740018
3270 4 0.473277 0.175412 0.730026
1262 4 0.44776 0.190444 0.675308
3426 4 0.482698 0.172859 0.711201
1146 4 0.48171 0.192634 0.719601
1145 4 0.491366 0.235254 0.69529
1144 2 0.486538 0.213944 0.707446
1209 4 0.0632456 0.241278 0.65296
1207 2 0.0803097 0.258626 0.658709
1208 4 0.0973738 0.275974 0.664458
821 4 0.106078 0.30173 0.724664
820 2 0.108759 0.294641 0.700837
822 4 0.11144 0.287551 0.67701
1242 4 0.0923651 0.296974 0.738201
1096 2 0.334978 0.304889 0.735345
1098 4 0.325297 0.310175 0.712906
816 4 0.0373077 0.334173 0.724889
892 2 0.0586218 0.405486 0.73193
893 4 0.0700238 0.387494 0.718836
815 4 0.0722059 0.367015 0.710596
814 2 0.0547568 0.350594 0.717742
942 4 0.0837703 0.383523 0.702838
940 2 0.0922623 0.371354 0.682714
1029 4 0.214193 0.380926 0.682358
1139 4 0.228339 0.394791 0.685469
1065 4 0.249803 0.367606 0.688707
1063 2 0.246779 0.357197 0.711239
1064 4 0.243754 0.346789 0.733771
1138 2 0.248937 0.408579 0.682188
1236 4 0.23652 0.347936 0.754034
806 4 0.255773 0.355838 0.748837
1101 4 0.428875 0.391774 0.7075
1099 2 0.445493 0.405221 0.694531
894 4 0.0472199 0.423479 0.745024
3240 4 0.0374032 0.465561 0.679582
2172 4 0.0321055 0.485844 0.683395
1279 2 0.0387224 0.458133 0.719181
1280 4 0.0456014 0.444703 0.739118
1281 4 0.0318434 0.471563 0.699243
2170 2 0.0521145 0.50008 0.678687
1176 4 0.186834 0.495246 0.715054
2016 4 0.176167 0.498041 0.732341
891 4 0.295708 0.465398 0.669713
1140 4 0.269535 0.422368 0.678908
889 2 0.295836 0.481801 0.688584
890 4 0.295964 0.498204 0.707455
1269 4 0.476429 0.4319 0.690012
1100 4 0.46211 0.418669 0.681562
1268 4 0.491944 0.477429 0.703691
1267 2 0.484186 0.454664 0.696851
2169 4 0.505998 0.488095 0.693472
1196 4 0.0780328 0.0148491 0.813631
1195 2 0.0750121 0.996336 0.830164
1203 4 0.0970425 0.0165689 0.803761
911 4 0.0885729 0.0335727 0.814568
910 2 0.0999971 0.0556785 0.817017
1201 2 0.0987485 0.00832684 0.780217
912 4 0.111421 0.0777843 0.819467
1149 4 0.20793 0.0611391 0.763497
1147 2 0.214196 0.0827543 0.752601
2400 4 0.314997 0.0367144 0.773372
2398 2 0.337358 0.0478486 0.77447
1049 4 0.362899 0.076442 0.78771
1111 2 0.398761 0.0532147 0.774362
2399 4 0.359719 0.0589829 0.775567
1112 4 0.378892 0.0683377 0.775657
1113 4 0.418631 0.0380918 0.773066
844 2 0.450044 0.047442 0.751253
845 4 0.439695 0.0430205 0.773581
980 4 0.431386 0.0282268 0.787007
979 2 0.432154 0.0151589 0.80831
862 2 0.00479093 0.130009 0.753976
1214 4 0.075872 0.131097 0.797609
33 3 0.0804449 0.11218 0.802571
155 3 0.032297 0.169348 0.82163
1287 4 0.128565 0.0898058 0.810467