ITEM: TIMESTEP
570000
ITEM: NUMBER OF ATOMS
4590
ITEM: BOX BOUNDS pp pp pp
-9.9985700000000008e+00 9.9985700000000008e+00
-9.9985700000000008e+00 9.9985700000000008e+00
-9.9985700000000008e+00 9.9985700000000008e+00
ITEM: ATOMS id type xs ys zs
463 2 0.0337451 0.0257417 0.0437204
465 4 0.0292261 0.0274459 0.0682531
464 4 0.0382641 0.0240376 0.0191877
1668 4 0.0692633 0.0111095 0.0357861
3291 4 0.0456761 0.0204389 0.00143394
1666 2 0.0888653 0.0220937 0.0467538
1667 4 0.108467 0.0330779 0.0577215
700 2 0.0893942 0.0725283 0.0693629
702 4 0.101332 0.0525964 0.0601225
534 4 0.181167 0.0366926 0.0202921
490 2 0.299907 0.0581174 0.00560997
492 4 0.320249 0.0603251 0.0199801
985 2 0.411435 0.0552107 0.00166366
986 4 0.398337 0.0764152 0.00365639
747 4 0.472219 0.069107 0.0284011
2975 4 0.472611 0.0488066 0.0265599
2974 2 0.49597 0.0417016 0.0319494
701 4 0.0774563 0.0924602 0.0786032
589 2 0.0494852 0.122228 0.0516473
590 4 0.0284734 0.120559 0.0381975
3233 4 0.0230839 0.114904 0.0205211
591 4 0.0704971 0.123896 0.065097
566 4 0.234833 0.166742 0.0775747
358 2 0.253008 0.142859 0.00731882
359 4 0.272862 0.152684 0.0189141
557 4 0.364358 0.118854 0.0351455
556 2 0.379163 0.133399 0.04909
558 4 0.393968 0.147944 0.0630344
745 2 0.460505 0.0911964 0.0283019
746 4 0.44879 0.113286 0.0282026
555 4 0.0320311 0.18037 0.000386056
914 4 0.17383 0.204969 0.0104911
355 2 0.235498 0.245469 0.00898062
666 4 0.314846 0.19146 0.0276405
572 4 0.32414 0.208448 0.0340487
664 2 0.320301 0.186621 0.003724
571 2 0.333258 0.227705 0.0471333
1071 4 0.366896 0.245543 0.0362664
573 4 0.342376 0.246962 0.060218
771 4 0.4666 0.219918 0.0576371
770 4 0.46469 0.185892 0.0210416
769 2 0.465645 0.202905 0.0393394
323 4 0.454641 0.236268 0.0642013
518 4 0.474972 0.233379 0.0718994
322 2 0.435824 0.240483 0.0801168
292 2 0.136422 0.314579 0.0395312
293 4 0.159628 0.305544 0.0372814
294 4 0.113217 0.323614 0.0417809
357 4 0.236863 0.258865 0.0300489
507 4 0.167206 0.295811 0.0232508
505 2 0.189381 0.291981 0.034151
506 4 0.211555 0.288151 0.0450511
483 4 0.207331 0.325149 0.0503875
481 2 0.230696 0.324522 0.0592677
482 4 0.254061 0.323894 0.068148
756 4 0.27522 0.326242 0.0735241
1069 2 0.369738 0.270367 0.0371863
1070 4 0.37258 0.295192 0.0381061
671 4 0.458814 0.330135 0.0817232
456 4 0.150522 0.407292 0.070162
288 4 0.195162 0.391025 0.0345193
287 4 0.206559 0.344344 0.0483617
286 2 0.20086 0.367685 0.0414405
252 4 0.259503 0.341056 0.0807089
250 2 0.265336 0.365178 0.0776674
251 4 0.271169 0.389301 0.074626
957 4 0.379849 0.34291 0.00745839
281 4 0.460015 0.35042 0.0801587
280 2 0.453162 0.359475 0.057883
282 4 0.446308 0.368531 0.0356074
1787 4 0.0842696 0.497641 0.0762323
550 2 0.0666341 0.431059 0.0648027
551 4 0.0776441 0.435916 0.0428854
242 4 0.143583 0.491786 0.0745919
245 4 0.245734 0.476691 0.0476886
607 2 0.28412 0.420684 0.0751995
244 2 0.257571 0.483235 0.026659
246 4 0.269408 0.489779 0.00562946
608 4 0.295422 0.438206 0.0614007
16 1 0.00712636 0.081378 0.160152
19 3 0.0270227 0.0704849 0.165039
1475 4 0.170871 0.00542841 0.0848088
1505 4 0.185143 0.0141985 0.142056
450 4 0.184132 0.0626154 0.138535
652 2 0.313142 0.0417526 0.0938833
654 4 0.292042 0.0283522 0.0945127
653 4 0.334242 0.0551531 0.0932538
296 4 0.370453 0.0405787 0.0908617
295 2 0.389174 0.0558457 0.0973142
297 4 0.407895 0.0711127 0.103767
2723 4 0.494948 0.029216 0.160406
1759 2 0.47804 0.00313078 0.152718
1760 4 0.475984 0.0272901 0.158824
20 3 0.0111231 0.103441 0.156164
379 2 0.00327519 0.156029 0.158332
477 4 0.109823 0.163188 0.10678
448 2 0.187587 0.0860704 0.130591
565 2 0.241204 0.143248 0.0832903
567 4 0.247574 0.119755 0.0890058
449 4 0.191042 0.109525 0.122647
235 2 0.202469 0.14157 0.138948
236 4 0.192066 0.118911 0.140822
237 4 0.212873 0.164229 0.137074
285 4 0.261555 0.152975 0.16044
311 4 0.46545 0.103731 0.152793
2624 4 0.00374397 0.168763 0.112819
476 4 0.157686 0.173968 0.097104
475 2 0.133755 0.168578 0.101942
339 4 0.112375 0.223625 0.129852
337 2 0.0992356 0.240169 0.143225
461 4 0.29793 0.20628 0.096958
354 4 0.286469 0.215591 0.110538
352 2 0.279035 0.238995 0.105832
460 2 0.318718 0.192394 0.0973762
462 4 0.339507 0.178507 0.0977945
255 4 0.358205 0.181436 0.0933108
254 4 0.403734 0.198688 0.10472
253 2 0.380969 0.190062 0.0990154
630 4 0.397602 0.204635 0.12318
517 2 0.493096 0.242988 0.0861957
628 2 0.416166 0.205231 0.139919
629 4 0.434731 0.205828 0.156658
324 4 0.417006 0.244698 0.0960323
338 4 0.0860957 0.256713 0.156598
738 4 0.18242 0.256121 0.122945
736 2 0.207411 0.256035 0.122159
737 4 0.232403 0.255949 0.121374
612 4 0.226634 0.324605 0.160427
353 4 0.271602 0.2624 0.101126
754 2 0.275249 0.303577 0.0840832
755 4 0.275278 0.280913 0.0946422
741 4 0.381087 0.312563 0.11301
622 2 0.395925 0.280442 0.0939553
624 4 0.388638 0.304232 0.0964229
623 4 0.403213 0.256652 0.0914877
526 2 0.500985 0.275595 0.143768
528 4 0.481382 0.269554 0.129471
672 4 0.445335 0.302433 0.121114
670 2 0.452075 0.316284 0.101419
619 2 0.0139689 0.367473 0.1389
620 4 0.0300346 0.378666 0.154449
454 2 0.141653 0.388683 0.0843103
455 4 0.132783 0.370073 0.0984586
417 4 0.161855 0.382435 0.135802
415 2 0.183154 0.389596 0.146767
416 4 0.204453 0.396758 0.157733
610 2 0.238841 0.346399 0.159354
609 4 0.272817 0.403162 0.0889982
387 4 0.31913 0.394326 0.121227
611 4 0.251048 0.368194 0.158281
739 2 0.370926 0.334957 0.108491
385 2 0.341447 0.385642 0.114036
740 4 0.360765 0.357352 0.103972
386 4 0.363765 0.376959 0.106844
14 3 0.409213 0.380098 0.137382
495 4 0.399331 0.395636 0.129182
13 3 0.416858 0.348756 0.157475
15 3 0.434647 0.35528 0.124938
11 1 0.425746 0.365012 0.143505
12 3 0.442293 0.376299 0.154815
595 2 0.482629 0.374369 0.155161
597 4 0.460534 0.364941 0.162095
552 4 0.0556241 0.426202 0.08672
315 4 0.0364796 0.424917 0.0919217
313 2 0.0204902 0.430033 0.110451
1467 4 0.00823406 0.497991 0.125874
314 4 0.00450092 0.435149 0.128981
627 4 0.174093 0.441815 0.0857698
626 4 0.218001 0.427115 0.104656
625 2 0.196047 0.434465 0.0952131
637 2 0.244947 0.471061 0.151675
639 4 0.242375 0.488199 0.133652
493 2 0.396708 0.420481 0.130209
525 4 0.349323 0.474619 0.136952
523 2 0.355669 0.495919 0.125497
659 4 0.358177 0.458099 0.145496
494 4 0.394084 0.445325 0.131237
673 2 0.10891 0.0558797 0.209839
675 4 0.106372 0.0336932 0.198592
1403 4 0.100416 0.0255152 0.21751
1402 2 0.0924575 0.0112185 0.236416
674 4 0.111448 0.0780662 0.221086
690 4 0.211338 0.0321374 0.229312
688 2 0.194761 0.0356154 0.247705
693 4 0.241731 0.0809455 0.191016
1785 4 0.41479 0.00905155 0.186457
21 1 0.369412 0.068951 0.238847
25 3 0.37973 0.0569533 0.222469
759 4 0.396296 0.0625221 0.207411
1784 4 0.396479 0.0428801 0.218411
1783 2 0.405635 0.0259659 0.202434
757 2 0.411834 0.0810607 0.201082
23 3 0.349184 0.0590227 0.244385
744 4 0.4554 0.074867 0.243327
381 4 0.00446772 0.150217 0.182621
511 2 0.0151866 0.135779 0.220151
512 4 0.00528939 0.151501 0.203416
513 4 0.0250838 0.120057 0.236885
578 4 0.0890282 0.125503 0.24947
722 4 0.165276 0.151123 0.215358
546 4 0.166939 0.165182 0.232633
692 4 0.194355 0.0964615 0.187083
723 4 0.182291 0.107738 0.197221
691 2 0.218043 0.0887035 0.189049
721 2 0.173784 0.12943 0.206289
582 4 0.27417 0.134206 0.185156
580 2 0.277881 0.116315 0.202224
581 4 0.281592 0.0984248 0.219292
26 1 0.330492 0.151345 0.232106
28 3 0.316505 0.154878 0.213932
29 3 0.324368 0.131878 0.243148
27 3 0.3521 0.149117 0.224537
24 3 0.365844 0.0907228 0.231659
743 4 0.49839 0.100151 0.239682
310 2 0.448468 0.110392 0.169894
758 4 0.427372 0.0995992 0.194752
312 4 0.431486 0.117052 0.186995
742 2 0.476895 0.087509 0.241504
394 2 0.0201523 0.243992 0.228127
344 4 0.241432 0.243383 0.236807
284 4 0.270484 0.199628 0.176078
283 2 0.266019 0.176302 0.168259
30 3 0.329329 0.169062 0.246367
764 4 0.380836 0.241845 0.191817
763 2 0.404529 0.240009 0.184042
765 4 0.428223 0.238172 0.176267
396 4 0.04256 0.252132 0.22059
363 4 0.0804753 0.25507 0.176182
750 4 0.0493095 0.254638 0.240116
537 4 0.149759 0.333098 0.168175
362 4 0.107125 0.265268 0.217249
361 2 0.0938002 0.260169 0.196715
372 4 0.126363 0.268683 0.222255
370 2 0.148766 0.265403 0.211648
371 4 0.17117 0.262123 0.201042
279 4 0.212142 0.311996 0.209037
277 2 0.235762 0.306277 0.203159
343 2 0.255987 0.263324 0.232844
278 4 0.259383 0.300559 0.197282
307 2 0.292358 0.298759 0.210032
309 4 0.267894 0.299236 0.215174
308 4 0.316823 0.298282 0.20489
345 4 0.270542 0.283265 0.228881
648 4 0.0545692 0.373573 0.177811
646 2 0.0643792 0.395046 0.186046
300 4 0.0828384 0.344692 0.226299
647 4 0.0741892 0.41652 0.194281
366 4 0.0114799 0.336103 0.237162
535 2 0.136339 0.354173 0.169138
536 4 0.12292 0.375249 0.170101
298 2 0.103061 0.343148 0.240922
291 4 0.202697 0.41072 0.172294
303 4 0.329786 0.397944 0.224438
729 4 0.3428 0.39916 0.23931
643 2 0.446598 0.383918 0.200043
644 4 0.443041 0.388615 0.224343
645 4 0.450155 0.379221 0.175744
447 4 0.439655 0.37834 0.24057
262 2 0.0722514 0.450805 0.207412
264 4 0.0685022 0.466319 0.226659
263 4 0.0760006 0.435291 0.188165
1757 4 0.0779349 0.479446 0.239138
289 2 0.216999 0.430509 0.177681
290 4 0.231302 0.450297 0.183067
638 4 0.247519 0.453922 0.169698
767 4 0.248033 0.461436 0.189901
768 4 0.280214 0.471484 0.226835
766 2 0.264124 0.46646 0.208368
1573 2 0.327013 0.494671 0.221293
301 2 0.331556 0.419507 0.211905
1575 4 0.319712 0.492889 0.24514
658 2 0.354873 0.44795 0.168107
1574 4 0.334314 0.496452 0.197445
302 4 0.333326 0.44107 0.199372
660 4 0.351569 0.437801 0.190718
232 2 0.0124804 0.0510156 0.330793
234 4 0.0363379 0.0576246 0.327283
318 4 0.0504058 0.04295 0.322129
1462 2 0.140723 0.00961671 0.309673
1464 4 0.144223 0.032372 0.319427
689 4 0.178184 0.0390934 0.266097
1699 2 0.20611 0.0147644 0.314018
1701 4 0.203519 0.0357859 0.327306
248 4 0.210357 0.056263 0.326358
247 2 0.2245 0.0762955 0.321472
697 2 0.376216 0.0204248 0.321029
351 4 0.400667 0.0555313 0.315143
349 2 0.409755 0.0752692 0.302775
632 4 0.355112 0.0536134 0.316822
698 4 0.387082 0.0424154 0.32588
22 3 0.382839 0.0693903 0.25752
631 2 0.354186 0.0785985 0.317071
699 4 0.365351 0.998434 0.316178
577 2 0.0640786 0.126836 0.250429
579 4 0.039129 0.128169 0.251388
529 2 0.00622553 0.102747 0.271164
530 4 0.0222251 0.116723 0.257978
392 4 0.0750513 0.139241 0.30939
391 2 0.0698167 0.163404 0.30566
2654 4 0.0252605 0.145736 0.324706
544 2 0.177534 0.15963 0.25459
249 4 0.238642 0.0963279 0.316586
403 2 0.214252 0.12805 0.297738
404 4 0.231486 0.110637 0.302738
405 4 0.197019 0.145462 0.292739
545 4 0.188129 0.154077 0.276547
708 4 0.290361 0.161552 0.28747
633 4 0.35326 0.103584 0.31732
350 4 0.418844 0.0950072 0.290406
333 4 0.422251 0.114443 0.285695
331 2 0.438552 0.131476 0.294024
332 4 0.454853 0.148508 0.302353
762 4 0.473571 0.143133 0.300172
760 2 0.482635 0.165501 0.306708
393 4 0.0645821 0.187568 0.301931
706 2 0.306077 0.172232 0.303722
707 4 0.321793 0.182912 0.319975
520 2 0.486785 0.237561 0.27484
418 2 0.43168 0.219679 0.288554
419 4 0.422326 0.197631 0.295736
521 4 0.462146 0.240389 0.278016
420 4 0.441033 0.241727 0.281372
761 4 0.491698 0.187868 0.313244
749 4 0.0685761 0.268859 0.284017
364 2 0.014068 0.319728 0.255879
748 2 0.0589428 0.261749 0.262067
365 4 0.0166562 0.303352 0.274596
444 4 0.03916 0.262016 0.314768
2493 4 5.81774e-05 0.312782 0.28421
442 2 0.0261348 0.28101 0.305033
443 4 0.0131096 0.300004 0.295299
389 4 0.147658 0.286358 0.317509
388 2 0.12661 0.291823 0.329849
401 4 0.161279 0.285968 0.331484
497 4 0.322482 0.31929 0.294313
496 2 0.329499 0.296131 0.300606
498 4 0.336516 0.272971 0.306898
614 4 0.395552 0.310781 0.32069
543 4 0.451432 0.258256 0.272495
541 2 0.4474 0.282711 0.269197
542 4 0.443369 0.307166 0.265899
603 4 0.0685933 0.386751 0.326313
601 2 0.0833628 0.39539 0.308081
299 4 0.123284 0.341605 0.255545
602 4 0.0981323 0.404029 0.289849
734 4 0.132796 0.353407 0.27049
733 2 0.148988 0.362941 0.286985
735 4 0.16518 0.372475 0.303481
677 4 0.179992 0.368824 0.315209
509 4 0.229053 0.386364 0.333636
508 2 0.245648 0.368342 0.328639
437 4 0.274331 0.391982 0.264822
510 4 0.262243 0.35032 0.323641
433 2 0.333869 0.413424 0.327945
727 2 0.344342 0.399224 0.264266
434 4 0.33488 0.40278 0.305342
728 4 0.345884 0.399289 0.289222
753 4 0.394849 0.399751 0.302538
751 2 0.404563 0.39566 0.325211
445 2 0.43695 0.389086 0.262984
446 4 0.434245 0.399832 0.285398
713 4 0.441123 0.408383 0.302657
777 4 0.0685299 0.470831 0.329107
412 2 0.144888 0.495587 0.319805
775 2 0.0846383 0.489182 0.323729
414 4 0.168065 0.487122 0.323847
1436 4 0.255552 0.496555 0.293562
436 2 0.278486 0.416424 0.268058
1802 4 0.314853 0.493233 0.266065
438 4 0.282642 0.440867 0.271294
1801 2 0.33202 0.489105 0.283769
1803 4 0.349186 0.484976 0.301474
231 4 0.423282 0.459488 0.249924
229 2 0.422071 0.483716 0.255985
712 2 0.439218 0.432847 0.297852
714 4 0.437312 0.45731 0.293046
316 2 0.0644518 0.032587 0.340031
317 4 0.0784979 0.022224 0.357934
428 4 0.0832611 0.00333682 0.359757
731 4 0.149379 0.0697251 0.36518
606 4 0.228827 0.0286658 0.38609
604 2 0.217576 0.0383046 0.365949
605 4 0.206326 0.0479433 0.345807
441 4 0.247764 0.0214178 0.387699
439 2 0.264132 0.018276 0.406338
726 4 0.298568 0.0186542 0.412745
257 4 0.40559 0.0477215 0.334837
256 2 0.407858 0.0563654 0.35819
258 4 0.410126 0.0650093 0.381542
425 4 0.380851 0.0166295 0.412578
398 4 0.0535525 0.118011 0.336867
2653 2 0.017379 0.147905 0.348336
397 2 0.0777623 0.112667 0.340108
2655 4 0.00949743 0.150075 0.371965
399 4 0.101972 0.107324 0.343349
732 4 0.122256 0.103883 0.34072
730 2 0.135817 0.0868041 0.35295
600 4 0.159131 0.154077 0.340883
686 4 0.176053 0.131041 0.391168
685 2 0.175735 0.111088 0.406232
598 2 0.173997 0.148846 0.360295
599 4 0.188862 0.143615 0.379707
683 4 0.317957 0.0950891 0.387269
682 2 0.307468 0.0994044 0.409552
467 4 0.347016 0.134866 0.408144
514 2 0.414665 0.138683 0.41269
451 2 0.466868 0.12447 0.397468
453 4 0.444671 0.123849 0.385976
515 4 0.431081 0.124125 0.400699
452 4 0.489066 0.12509 0.40896
260 4 0.0837061 0.200016 0.417051
474 4 0.210038 0.216919 0.377294
274 2 0.20313 0.228222 0.414873
276 4 0.197584 0.215687 0.393961
472 2 0.22817 0.212013 0.360791
473 4 0.246301 0.207107 0.344287
487 2 0.304094 0.249279 0.400251
489 4 0.285013 0.246867 0.384274
269 4 0.495328 0.233275 0.393083
306 4 0.478417 0.22412 0.400014
618 4 0.0570718 0.318623 0.386008
347 4 0.0663449 0.313049 0.403936
616 2 0.0724835 0.308958 0.368855
390 4 0.105561 0.297288 0.342189
617 4 0.0878952 0.299292 0.351702
400 2 0.175362 0.276487 0.349841
375 4 0.175995 0.30331 0.390816
402 4 0.189445 0.267006 0.368198
373 2 0.167479 0.319007 0.408317
378 4 0.264231 0.257997 0.33566
376 2 0.270408 0.261592 0.35962
377 4 0.276585 0.265188 0.383581
613 2 0.383062 0.300124 0.339547
615 4 0.370571 0.289467 0.358404
716 4 0.359908 0.273515 0.356087
715 2 0.357982 0.271832 0.380959
717 4 0.356057 0.27015 0.405832
267 4 0.367532 0.283941 0.414525
2924 4 0.499657 0.290657 0.402605
406 2 0.0624717 0.3992 0.362864
408 4 0.068489 0.375054 0.360418
676 2 0.186337 0.37872 0.337277
678 4 0.192682 0.388616 0.359345
336 4 0.348586 0.387098 0.411847
752 4 0.414277 0.391568 0.347884
561 4 0.408035 0.393489 0.367003
559 2 0.423595 0.395765 0.386442
560 4 0.439156 0.398041 0.405881
549 4 0.0490302 0.469002 0.336052
407 4 0.0564544 0.423345 0.36531
548 4 0.0397341 0.433026 0.369518
547 2 0.0443821 0.451014 0.352785
680 4 0.0244989 0.462311 0.405551
499 2 0.119014 0.49399 0.375245
500 4 0.143991 0.493932 0.374095
501 4 0.0940368 0.494049 0.376396
435 4 0.332857 0.424067 0.350547
5 3 0.327998 0.495862 0.360428
4 3 0.297096 0.475589 0.36762
1 1 0.320298 0.475753 0.367842
2 3 0.327552 0.472344 0.389404
3 3 0.328468 0.4587 0.354394
669 4 0.344277 0.42683 0.397535
667 2 0.366208 0.428067 0.409481
3988 2 0.492077 0.493571 0.368527
720 4 0.0260032 0.0783528 0.48118
367 2 0.089924 0.0399927 0.463823
369 4 0.0860553 0.0621184 0.474807
368 4 0.0937926 0.0178671 0.452838
2430 4 0.162388 0.0429425 0.479479
2428 2 0.154434 0.0193991 0.482239
340 2 0.181692 0.0773172 0.490249
341 4 0.179937 0.0529146 0.48509
440 4 0.2805 0.0151342 0.424977
1180 2 0.285986 0.070409 0.47591
724 2 0.316727 0.0267338 0.427916
1181 4 0.291857 0.0557015 0.495259
725 4 0.334887 0.0348134 0.443086
458 4 5.839e-05 0.145517 0.421986
718 2 0.0323299 0.101174 0.47316
457 2 0.0206293 0.1393 0.434768
719 4 0.0386565 0.123996 0.465139
459 4 0.0412002 0.133083 0.44755
1151 4 0.160615 0.145019 0.458085
938 4 0.107422 0.161976 0.499969
687 4 0.175418 0.0911345 0.421297
1150 2 0.175579 0.127532 0.467855
1152 4 0.190543 0.110044 0.477625
342 4 0.183448 0.10172 0.495407
321 4 0.253271 0.142801 0.440325
1182 4 0.280114 0.0851165 0.456561
684 4 0.296979 0.10372 0.431835
320 4 0.282251 0.102397 0.445649
319 2 0.267761 0.122599 0.442987
466 2 0.338078 0.154562 0.420687
575 4 0.411119 0.164346 0.433233
516 4 0.39825 0.153241 0.424681
2880 4 0.480793 0.10844 0.488472
642 4 0.482437 0.126052 0.498407
640 2 0.484769 0.150784 0.495565
261 4 0.100604 0.222528 0.458383
259 2 0.0921552 0.211272 0.437717
1035 4 0.111844 0.206012 0.465957
1033 2 0.116245 0.190728 0.48525
695 4 0.120588 0.225682 0.466042
694 2 0.109863 0.244935 0.477852
275 4 0.208676 0.240757 0.435784
411 4 0.284739 0.19208 0.480724
409 2 0.297535 0.184064 0.460794
410 4 0.31033 0.176047 0.440865
488 4 0.323176 0.25169 0.416228
468 4 0.329139 0.174258 0.433231
304 2 0.467695 0.213194 0.419783
305 4 0.456972 0.202268 0.439552
574 2 0.425306 0.183832 0.43988
576 4 0.439493 0.203319 0.446528
641 4 0.4871 0.175516 0.492724
346 2 0.0728209 0.321504 0.426557
2847 4 0.00605913 0.276635 0.492587
348 4 0.0792969 0.329959 0.449179
327 4 0.0824539 0.277121 0.487761
696 4 0.0991384 0.264188 0.489662
374 4 0.158963 0.334703 0.425817
651 4 0.276264 0.310296 0.447506
649 2 0.262263 0.32991 0.44084
266 4 0.362055 0.251724 0.452378
265 2 0.364793 0.267833 0.433451
585 4 0.446869 0.256873 0.476889
2456 4 0.494654 0.305408 0.474902
583 2 0.461942 0.276611 0.473992
584 4 0.477015 0.29635 0.471095
872 4 0.441347 0.246779 0.49345
10 3 0.129621 0.354962 0.476877
7 3 0.0943843 0.349086 0.487683
711 4 0.156187 0.418471 0.464764
6 1 0.116196 0.35078 0.494792
503 4 0.241046 0.362084 0.421268
650 4 0.248262 0.349524 0.434174
502 2 0.220345 0.371872 0.43131
504 4 0.199643 0.381661 0.441351
709 2 0.177658 0.410306 0.45489
710 4 0.19913 0.402142 0.445015
773 4 0.241952 0.403451 0.460434
334 2 0.349787 0.372962 0.432436
238 2 0.393837 0.361317 0.465345
240 4 0.371464 0.360735 0.454198
335 4 0.350989 0.358825 0.453025
239 4 0.41621 0.3619 0.476493
3309 4 0.501974 0.395898 0.486025
2508 4 0.498854 0.379823 0.47454
383 4 0.0530491 0.437513 0.450317
681 4 0.0336113 0.433308 0.445256
679 2 0.0290551 0.447809 0.425404
538 2 0.0559652 0.497993 0.491213
382 2 0.0763173 0.441202 0.458693
540 4 0.0344875 0.497789 0.478412
568 2 0.11917 0.48129 0.448274
384 4 0.0995855 0.444891 0.467069
569 4 0.108585 0.460699 0.457717
772 2 0.236629 0.424968 0.448862
636 4 0.190823 0.489095 0.471117
634 2 0.206146 0.476782 0.455665
635 4 0.221469 0.464469 0.440212
774 4 0.231307 0.446484 0.43729
668 4 0.388138 0.429304 0.421427
588 4 0.403803 0.44101 0.422391
663 4 0.457733 0.478917 0.488032
587 4 0.438698 0.463355 0.450388
586 2 0.421251 0.452183 0.436389
1126 2 0.00195777 0.0328053 0.531109
1127 4 0.998962 0.0183621 0.51092
1128 4 0.00495377 0.0472485 0.551298
2238 4 0.0144082 0.0127873 0.499463
1030 2 0.246232 0.0784196 0.578896
1032 4 0.252237 0.070883 0.555824
961 2 0.291546 0.0176541 0.502339
430 2 0.331561 0.0666319 0.510649
963 4 0.294496 0.0409997 0.510793
432 4 0.309994 0.0547774 0.506231
431 4 0.353127 0.0784865 0.515067
841 2 0.389907 0.0684071 0.506985
842 4 0.413675 0.0638927 0.513298
843 4 0.366138 0.0729215 0.500672
1217 4 0.418154 0.0512229 0.526452
1216 2 0.420852 0.0428717 0.549864
1218 4 0.42355 0.0345205 0.573277
1062 4 0.467572 0.0241424 0.558603
1060 2 0.488398 0.0194227 0.545596
471 4 0.0268467 0.164954 0.543005
937 2 0.104854 0.137629 0.50505
939 4 0.102286 0.113283 0.510132
899 4 0.316026 0.164286 0.51539
469 2 0.0419487 0.172091 0.524399
470 4 0.0570507 0.179227 0.505793
877 2 0.0991689 0.238875 0.539481
1272 4 0.126997 0.210895 0.554928
879 4 0.118799 0.223534 0.541603
1034 4 0.120646 0.175444 0.504543
1270 2 0.11971 0.201244 0.576813
857 4 0.2196 0.226857 0.53565
1154 4 0.183501 0.17796 0.582226
856 2 0.242513 0.222509 0.526634
858 4 0.265425 0.218161 0.517619
898 2 0.316794 0.176046 0.537442
900 4 0.317561 0.187805 0.559494
878 4 0.0795388 0.254215 0.537358
326 4 0.0753757 0.30637 0.5277
325 2 0.0789148 0.291746 0.507731
1258 2 0.148125 0.298483 0.521771
1260 4 0.162357 0.279262 0.529062
1259 4 0.133893 0.317704 0.51448
803 4 0.239572 0.327301 0.540921
791 4 0.283893 0.252131 0.543548
790 2 0.288255 0.261583 0.566282
802 2 0.251786 0.317884 0.560601
804 4 0.263999 0.308467 0.580282
813 4 0.389972 0.292585 0.537417
811 2 0.373458 0.293802 0.518682
812 4 0.356944 0.295019 0.499948
873 4 0.424117 0.263925 0.537152
871 2 0.432732 0.255352 0.515301
953 4 0.43599 0.274773 0.547323
952 2 0.445435 0.270229 0.570024
1136 4 0.074555 0.356062 0.571644
984 4 0.0607425 0.341931 0.571789
9 3 0.122387 0.330798 0.504831
8 3 0.117771 0.368153 0.510092
1135 2 0.0969852 0.364341 0.57896
1189 2 0.207883 0.354847 0.554162
1190 4 0.225215 0.341952 0.541573
1191 4 0.19055 0.367743 0.56675
896 4 0.172543 0.362646 0.570512
928 2 0.400237 0.376183 0.579072
930 4 0.400901 0.396538 0.564566
925 2 0.448504 0.399564 0.554821
926 4 0.454458 0.388653 0.533125
927 4 0.442551 0.410475 0.576516
935 4 0.0250823 0.430512 0.510831
934 2 0.00524693 0.418948 0.520731
539 4 0.0774429 0.498197 0.504013
1160 4 0.159594 0.436093 0.548356
1159 2 0.162496 0.457363 0.561176
1161 4 0.165398 0.478633 0.573996
1173 4 0.262353 0.451874 0.575933
882 4 0.365916 0.424451 0.571917
880 2 0.366076 0.442546 0.554661
881 4 0.366236 0.46064 0.537406
1454 4 0.367623 0.470557 0.518868
1453 2 0.366124 0.48743 0.500477
662 4 0.426857 0.485158 0.526871
1910 4 0.436291 0.481941 0.544429
1909 2 0.440974 0.488842 0.568001
661 2 0.442295 0.482037 0.507451
1001 4 0.446627 0.430281 0.584232
1185 4 0.0124858 0.0468713 0.615502
1183 2 0.00697731 0.0376374 0.638076
944 4 0.0656951 0.0760472 0.65591
943 2 0.0833023 0.0589741 0.660776
1184 4 0.00146877 0.0284034 0.660649
823 2 0.155132 0.0168767 0.632858
825 4 0.156655 0.0413834 0.637578
1283 4 0.222308 0.0761507 0.604744
1282 2 0.197836 0.0812656 0.60436
951 4 0.279486 0.032548 0.596837
949 2 0.264973 0.01321 0.590466
2282 4 0.379095 0.00483632 0.644795
1090 2 0.349161 0.00753688 0.62279
1091 4 0.338178 0.0145579 0.601454
3008 4 0.488352 0.0716231 0.594571
809 4 0.485459 0.0821569 0.611374
87 3 0.429724 0.00580644 0.599555
1082 4 0.0518392 0.091825 0.650713
1083 4 0.0240885 0.0958966 0.609312
1081 2 0.0379639 0.0938608 0.630012
1155 4 0.144249 0.153931 0.601784
1059 4 0.160138 0.0965372 0.613226
1058 4 0.134418 0.13672 0.598241
1057 2 0.147278 0.116628 0.605733
909 4 0.153113 0.157872 0.651635
1153 2 0.163875 0.165946 0.592005
907 2 0.169491 0.14276 0.662973
1031 4 0.240227 0.0859562 0.601968
1284 4 0.173365 0.0863806 0.603976
810 4 0.4443 0.103069 0.630592
808 2 0.46488 0.0926131 0.620983
1245 4 0.0486723 0.242643 0.650527
1209 4 0.0674567 0.244092 0.66065
852 4 0.0559621 0.226301 0.662821
1271 4 0.112424 0.191592 0.598697
1221 4 0.197568 0.18627 0.594534
1212 4 0.232994 0.205007 0.64786
1219 2 0.211868 0.198304 0.611144
1220 4 0.226168 0.210338 0.627754
798 4 0.23939 0.223168 0.638927
796 2 0.256879 0.234439 0.625061
1210 2 0.250117 0.187958 0.654288
1211 4 0.267241 0.17091 0.660715
888 4 0.287159 0.172278 0.658007
797 4 0.274367 0.245711 0.611194
1193 4 0.380467 0.203289 0.665116
904 2 0.452018 0.231174 0.608819
906 4 0.438193 0.212854 0.61874
1024 2 0.433574 0.189963 0.657018
1025 4 0.434366 0.202111 0.635179
905 4 0.465843 0.249494 0.598898
983 4 0.0238393 0.323018 0.599738
1243 2 0.0327305 0.25019 0.632804
1244 4 0.0167886 0.257736 0.615082
982 2 0.0422909 0.332475 0.585764
3263 4 0.00195056 0.323522 0.629924
948 4 0.169948 0.252019 0.608359
946 2 0.168907 0.260201 0.631963
947 4 0.167865 0.268383 0.655567
792 4 0.292617 0.271035 0.589015
1238 4 0.304116 0.277199 0.603893
1237 2 0.304682 0.275967 0.628859
1239 4 0.305249 0.274734 0.653826
954 4 0.454881 0.265686 0.592725
1039 2 0.0600507 0.383801 0.623657
1041 4 0.0354059 0.380307 0.621291
3264 4 0.0192668 0.370434 0.630284
3262 2 0.0106087 0.346978 0.630104
1281 4 0.0420245 0.414441 0.659789
1137 4 0.119415 0.37262 0.586276
1040 4 0.0846955 0.387296 0.626024
993 4 0.0986613 0.387145 0.638352
991 2 0.119452 0.385623 0.624547
992 4 0.140244 0.384101 0.610741
897 4 0.153548 0.396573 0.601958
895 2 0.163045 0.379609 0.586235
1172 4 0.284319 0.412543 0.597641
891 4 0.304846 0.413351 0.59694
929 4 0.399572 0.355829 0.593579
1204 2 0.416504 0.410242 0.652502
1175 4 0.215593 0.486129 0.661259
1171 2 0.273336 0.432208 0.586787
2154 4 0.267611 0.471067 0.582195
889 2 0.324723 0.425746 0.605685
2152 2 0.276683 0.494344 0.583211
890 4 0.344599 0.438142 0.61443
1206 4 0.414853 0.431217 0.638992
1002 4 0.413486 0.423496 0.621061
1000 2 0.430057 0.426888 0.602646
1911 4 0.445656 0.495743 0.591572
1076 4 0.0489226 0.0809601 0.669098
945 4 0.100909 0.041901 0.665642
2256 4 0.167143 0.0118797 0.686446
1147 2 0.226872 0.0746337 0.739764
2281 2 0.384914 0.00775682 0.668936
1004 4 0.346814 0.0735803 0.73176
2283 4 0.390732 0.0106773 0.693077
2321 4 0.445933 0.99706 0.746179
42 3 0.453638 0.0669975 0.696593
4226 4 0.482637 0.0137728 0.681103
43 3 0.44731 0.0798157 0.731354
45 3 0.420362 0.0815894 0.705118
41 1 0.442774 0.0831544 0.708844
864 4 0.0248868 0.104887 0.725006
1075 2 0.0425554 0.0953356 0.68854
1077 4 0.0361883 0.109711 0.707982
862 2 0.0195925 0.115968 0.746786
1148 4 0.22024 0.0932986 0.724506
908 4 0.18587 0.127648 0.674311
1225 2 0.202973 0.11563 0.700314
1226 4 0.222954 0.102338 0.707331
1227 4 0.182992 0.128923 0.693297
1005 4 0.303125 0.0950395 0.720292
1003 2 0.324969 0.0843099 0.726026
831 4 0.334169 0.132081 0.738258
830 4 0.336926 0.163378 0.699353
829 2 0.335548 0.14773 0.718806
1086 4 0.349422 0.122134 0.74559
44 3 0.450463 0.104023 0.702225
1142 4 0.454668 0.121537 0.693516
1141 2 0.447578 0.145448 0.6953
3426 4 0.482157 0.114266 0.688502
851 4 0.0570333 0.190219 0.697428
850 2 0.0564977 0.20826 0.680125
1107 4 0.0510088 0.18511 0.714774
1178 4 0.0335646 0.234331 0.69652
1105 2 0.0657973 0.181348 0.734582
1213 2 0.012248 0.171807 0.750128
1130 4 0.164798 0.176067 0.711143
1129 2 0.174888 0.193716 0.725698
1276 2 0.207106 0.229942 0.74824
1131 4 0.184978 0.211366 0.740254
1278 4 0.226384 0.241626 0.737423
886 2 0.309658 0.170932 0.668832
887 4 0.332156 0.169586 0.679657
978 4 0.29477 0.20374 0.69307
976 2 0.292889 0.205918 0.717908
977 4 0.291007 0.208097 0.742745
1192 2 0.362316 0.192951 0.678857
1194 4 0.344164 0.182612 0.692598
1143 4 0.440487 0.169359 0.697084
1145 4 0.495595 0.195748 0.724833
1026 4 0.432783 0.177815 0.678858
1261 2 0.442916 0.204377 0.716181
1263 4 0.436819 0.190293 0.696443
1262 4 0.449014 0.218462 0.73592
1144 2 0.501132 0.171552 0.721816
1177 2 0.0168743 0.252057 0.702212
1207 2 0.0883929 0.254188 0.669866
1208 4 0.109329 0.264283 0.679082
822 4 0.142852 0.252231 0.696576
820 2 0.160675 0.26237 0.710885
821 4 0.178497 0.272509 0.725194
1065 4 0.245415 0.323491 0.678878
1019 4 0.382023 0.319267 0.717629
3123 4 0.467761 0.300459 0.672416
3121 2 0.490835 0.292995 0.678504
3274 2 0.00219845 0.404738 0.729005
3276 4 0.0254705 0.397687 0.723185
892 2 0.0629321 0.40044 0.727299
894 4 0.0422437 0.403887 0.713687
893 4 0.0836205 0.396994 0.740911
940 2 0.126955 0.382326 0.740518
941 4 0.150617 0.374918 0.743744
942 4 0.103293 0.389734 0.737292
1067 4 0.160006 0.376744 0.725588
1028 4 0.210433 0.397295 0.695142
1066 2 0.175495 0.390581 0.711666
1068 4 0.190983 0.404418 0.697744
1027 2 0.234591 0.391759 0.691837
1063 2 0.255993 0.333025 0.69943
1029 4 0.258749 0.386222 0.688533
806 4 0.28569 0.347632 0.717174
805 2 0.310693 0.34748 0.717182
1064 4 0.266572 0.342558 0.719983
1139 4 0.306433 0.414901 0.704254
807 4 0.335696 0.347328 0.717189
1018 2 0.366056 0.337025 0.725038
1020 4 0.350089 0.354783 0.732447
1205 4 0.418155 0.389268 0.666012
1101 4 0.429566 0.399823 0.73881
1099 2 0.427039 0.415367 0.719389
1981 2 0.00621139 0.474759 0.729008
1280 4 0.0568769 0.444988 0.69649
1279 2 0.0494507 0.429714 0.67814
1982 4 0.0168471 0.480694 0.750845
885 4 0.0334465 0.473083 0.744661
1174 2 0.202743 0.491619 0.681994
1176 4 0.189894 0.497109 0.702728
2016 4 0.181709 0.498951 0.720536
1138 2 0.287783 0.427685 0.693581
1989 4 0.325631 0.478227 0.683341
1140 4 0.269133 0.44047 0.682908
1987 2 0.315872 0.483744 0.70569
1988 4 0.306113 0.489262 0.72804
1088 4 0.293484 0.490035 0.744106
1228 2 0.379843 0.478438 0.729345
1230 4 0.403441 0.47025 0.72823
1229 4 0.356244 0.486626 0.73046
1100 4 0.424512 0.430911 0.699968
1268 4 0.439474 0.494208 0.691398
1267 2 0.433239 0.470067 0.689523
1269 4 0.427005 0.445926 0.687648
2169 4 0.458945 0.490129 0.695319
1296 4 0.000380788 0.0230837 0.817192
1203 4 0.114316 0.0439697 0.808215
1201 2 0.113332 0.0363209 0.784431
1202 4 0.112348 0.028672 0.760646
2049 4 0.127824 0.0134159 0.763736
911 4 0.1262 0.0608001 0.814778
1196 4 0.125229 0.0432777 0.826984
1149 4 0.233504 0.0559688 0.755023
2399 4 0.29681 0.00965567 0.756371
1049 4 0.313454 0.00391856 0.766366
1048 2 0.317896 0.0269171 0.775114
1050 4 0.322337 0.0499156 0.783861
974 4 0.328681 0.0135947 0.824479
1257 4 0.332853 0.0655283 0.780827
1111 2 0.419426 0.0167741 0.78181
846 4 0.493482 0.0659788 0.770636
1113 4 0.435032 0.0339623 0.791095
844 2 0.471927 0.0548406 0.776679
845 4 0.450373 0.0437024 0.782722
980 4 0.434838 0.0251305 0.809788
979 2 0.45595 0.023321 0.823061
863 4 0.0142981 0.127049 0.768566
34 3 0.128835 0.162506 0.822173
31 1 0.115313 0.147507 0.810746
32 3 0.118147 0.126551 0.819799
35 3 0.121127 0.147018 0.788732
910 2 0.124003 0.0843062 0.823013
33 3 0.0930486 0.153669 0.812919
912 4 0.121806 0.107812 0.831248
840 4 0.247856 0.135694 0.790831