ITEM: TIMESTEP
340000
ITEM: NUMBER OF ATOMS
4590
ITEM: BOX BOUNDS pp pp pp
-9.9985700000000008e+00 9.9985700000000008e+00
-9.9985700000000008e+00 9.9985700000000008e+00
-9.9985700000000008e+00 9.9985700000000008e+00
ITEM: ATOMS id type xs ys zs
463 2 0.0408798 0.0323967 0.040244
465 4 0.0518795 0.042303 0.0603947
464 4 0.0298801 0.0224904 0.0200933
1666 2 0.0836771 0.00522377 0.060018
1667 4 0.0848883 0.0113494 0.0358066
3291 4 0.0340206 0.0107257 0.0037161
700 2 0.0920741 0.082721 0.0707702
534 4 0.190521 0.0819996 0.00316338
491 4 0.238981 0.037114 0.0185213
490 2 0.256786 0.0253385 0.0315407
492 4 0.274591 0.013563 0.0445601
296 4 0.398699 0.0455893 0.0744739
295 2 0.393602 0.0687231 0.0824752
745 2 0.459852 0.075793 0.0374467
746 4 0.4515 0.090375 0.0559615
747 4 0.468203 0.061211 0.0189318
2975 4 0.480071 0.0457702 0.0132466
589 2 0.0370648 0.13787 0.0552811
590 4 0.0369568 0.125643 0.0334714
3233 4 0.0455099 0.114659 0.0196456
591 4 0.0371729 0.150097 0.0770908
701 4 0.0839938 0.0981842 0.0528599
422 4 0.104826 0.117314 0.010356
476 4 0.107888 0.15845 0.0776003
565 2 0.220846 0.120507 0.059468
566 4 0.197772 0.124314 0.0506211
567 4 0.243921 0.1167 0.068315
358 2 0.272509 0.146575 0.0186369
359 4 0.273338 0.127287 0.0345259
557 4 0.391805 0.111254 0.0234922
556 2 0.378968 0.114074 0.0447625
558 4 0.36613 0.116895 0.0660329
555 4 0.0298755 0.2046 0.0246133
571 2 0.309663 0.2385 0.035162
572 4 0.324922 0.218769 0.0334187
666 4 0.33816 0.20502 0.030404
664 2 0.33329 0.189296 0.0115836
255 4 0.36787 0.183683 0.0804495
1071 4 0.390263 0.246822 0.997981
771 4 0.456397 0.218597 0.0596852
770 4 0.481753 0.185628 0.0319206
769 2 0.469075 0.202113 0.0458029
323 4 0.467022 0.227883 0.0753346
292 2 0.135028 0.317963 0.0249935
293 4 0.151775 0.299462 0.0265529
507 4 0.163124 0.288384 0.0375018
505 2 0.179707 0.277409 0.0526586
506 4 0.19629 0.266435 0.0678154
573 4 0.294404 0.25823 0.0369053
482 4 0.263499 0.340514 0.0459352
357 4 0.25721 0.255567 0.00228792
1069 2 0.396735 0.265192 0.0136606
1070 4 0.403208 0.283561 0.0293404
955 2 0.36709 0.321677 0.0102989
957 4 0.345797 0.327407 0.022085
281 4 0.459194 0.336849 0.0698816
330 4 0.033574 0.357394 0.0208718
328 2 0.033805 0.382391 0.0213848
329 4 0.034036 0.407388 0.0218978
294 4 0.11828 0.336463 0.0234341
455 4 0.107883 0.400789 0.082343
288 4 0.163575 0.371286 0.0202076
454 2 0.126102 0.384156 0.0782714
456 4 0.144321 0.367522 0.0741998
483 4 0.222001 0.331948 0.0724927
481 2 0.24275 0.336231 0.059214
287 4 0.20347 0.374737 0.0501612
286 2 0.183523 0.373011 0.0351844
252 4 0.272115 0.355548 0.0362379
250 2 0.27201 0.379555 0.0432279
251 4 0.271905 0.403561 0.0502179
609 4 0.285813 0.401255 0.0632772
607 2 0.304636 0.406676 0.0788168
671 4 0.443051 0.330587 0.0809374
280 2 0.466789 0.344516 0.0473271
282 4 0.474384 0.352183 0.0247726
1788 4 0.0559522 0.499135 0.0497511
550 2 0.0521752 0.432992 0.0628247
551 4 0.0609897 0.43802 0.0399729
245 4 0.240546 0.450729 0.0361726
244 2 0.257336 0.459718 0.0199719
246 4 0.274127 0.468707 0.00377123
272 4 0.274263 0.488586 0.00553216
271 2 0.297406 0.497731 0.00796875
273 4 0.32055 0.506875 0.0104053
564 4 0.417444 0.479045 0.0339648
562 2 0.424317 0.491947 0.0136796
1668 4 0.0824659 0.999098 0.0842293
20 3 0.0401266 0.0730011 0.140576
16 1 0.044238 0.0609769 0.159475
702 4 0.100154 0.0672579 0.0886805
450 4 0.170591 0.0507936 0.128983
448 2 0.18245 0.0727276 0.13084
1505 4 0.20126 0.0343342 0.165533
1475 4 0.192722 0.0121253 0.0881959
652 2 0.315673 0.0207211 0.101553
654 4 0.299356 0.0201734 0.120491
653 4 0.33199 0.0212687 0.0826145
379 2 0.010859 0.163426 0.159057
449 4 0.194309 0.0946616 0.132696
237 4 0.182684 0.157787 0.148605
235 2 0.181909 0.13403 0.140849
236 4 0.181134 0.110272 0.133093
693 4 0.229716 0.105242 0.158241
582 4 0.289071 0.127784 0.161682
297 4 0.388504 0.091857 0.0904765
312 4 0.410036 0.0871602 0.164072
629 4 0.450787 0.156156 0.142828
310 2 0.42942 0.102392 0.159895
311 4 0.448803 0.117623 0.155718
380 4 0.00621292 0.168387 0.134994
475 2 0.118299 0.173647 0.0945075
477 4 0.12871 0.188843 0.111415
737 4 0.176255 0.231154 0.099097
736 2 0.187669 0.211935 0.1103
738 4 0.199084 0.192716 0.121504
354 4 0.290122 0.214908 0.105957
352 2 0.276998 0.235786 0.110089
460 2 0.329066 0.199603 0.0948923
461 4 0.306638 0.204409 0.104845
462 4 0.351494 0.194797 0.0849394
254 4 0.400998 0.187374 0.117727
253 2 0.384434 0.185529 0.0990884
322 2 0.445598 0.232778 0.0872618
324 4 0.424175 0.237673 0.099189
630 4 0.421202 0.18868 0.119004
628 2 0.435994 0.172418 0.130916
518 4 0.480561 0.23817 0.0875669
337 2 0.0904781 0.264278 0.144804
339 4 0.0895447 0.278525 0.124277
338 4 0.0914115 0.250031 0.16533
353 4 0.263875 0.256664 0.11422
754 2 0.27487 0.29425 0.103642
755 4 0.276552 0.272515 0.115888
756 4 0.273188 0.315984 0.0913957
741 4 0.338824 0.322618 0.0959419
622 2 0.404089 0.293018 0.113305
624 4 0.400706 0.286489 0.137203
623 4 0.407472 0.299546 0.0894075
528 4 0.485765 0.250063 0.153869
672 4 0.462499 0.304606 0.118984
670 2 0.452775 0.317597 0.0999605
517 2 0.496586 0.249945 0.102725
552 4 0.0433608 0.427964 0.0856764
621 4 0.00622027 0.340057 0.119334
619 2 0.0177066 0.361764 0.124029
620 4 0.0291929 0.383472 0.128724
537 4 0.156934 0.333776 0.154247
417 4 0.153957 0.412913 0.135667
612 4 0.230472 0.348009 0.156312
610 2 0.254428 0.342292 0.160627
387 4 0.313882 0.41272 0.134409
608 4 0.32346 0.412097 0.0943563
739 2 0.340692 0.345808 0.105101
740 4 0.342561 0.368998 0.114261
15 3 0.417105 0.354291 0.125979
385 2 0.33115 0.394714 0.132743
386 4 0.348419 0.376708 0.131077
11 1 0.421731 0.368116 0.143475
14 3 0.409564 0.387771 0.141467
495 4 0.397363 0.399383 0.131606
13 3 0.416518 0.357582 0.163482
12 3 0.444163 0.373213 0.143379
595 2 0.4881 0.386004 0.149141
315 4 0.010637 0.480009 0.0877921
313 2 0.0197893 0.465049 0.105614
314 4 0.0289416 0.450089 0.123435
626 4 0.246162 0.419747 0.0992272
415 2 0.170194 0.420821 0.152959
625 2 0.225664 0.43406 0.0988835
627 4 0.205166 0.448374 0.0985398
1439 4 0.230917 0.507819 0.12571
637 2 0.254565 0.488397 0.15364
524 4 0.352631 0.481412 0.0830975
493 2 0.405744 0.422909 0.132813
525 4 0.336627 0.487718 0.130053
523 2 0.344629 0.484565 0.106575
658 2 0.352254 0.465074 0.159722
659 4 0.339185 0.483661 0.149286
494 4 0.414125 0.446435 0.134021
19 3 0.0668693 0.0560806 0.160977
17 3 0.0324051 0.0412681 0.15864
18 3 0.0374793 0.072999 0.178135
2481 4 0.0194657 0.0728247 0.186987
2479 2 0.00431077 0.0540462 0.193535
1402 2 0.0864609 0.999996 0.23943
673 2 0.120049 0.040716 0.22082
674 4 0.130586 0.0582446 0.206437
675 4 0.109511 0.0231874 0.235204
1504 2 0.209905 0.0109582 0.167536
688 2 0.227729 0.0382226 0.234909
690 4 0.205132 0.0459724 0.227528
689 4 0.250327 0.0304728 0.242289
1783 2 0.407206 0.00190583 0.192726
21 1 0.370698 0.0700215 0.233636
23 3 0.364521 0.0476582 0.233262
25 3 0.391934 0.0723509 0.225745
759 4 0.390313 0.0599753 0.209863
757 2 0.404287 0.0647234 0.18968
1784 4 0.408706 0.0244167 0.181946
758 4 0.41826 0.0694714 0.169496
742 2 0.460248 0.0506497 0.233371
743 4 0.485034 0.0538491 0.234128
744 4 0.435462 0.0474504 0.232613
381 4 0.0155051 0.158466 0.183119
511 2 0.0262605 0.151753 0.223992
513 4 0.0233807 0.150452 0.248795
512 4 0.0291404 0.153054 0.199189
577 2 0.0759552 0.105636 0.247698
578 4 0.0668289 0.123756 0.233084
546 4 0.175977 0.149704 0.24152
722 4 0.170618 0.130034 0.243138
692 4 0.203576 0.102799 0.200802
723 4 0.189541 0.117182 0.198669
691 2 0.216646 0.10402 0.179521
721 2 0.18008 0.123608 0.220903
580 2 0.277272 0.118549 0.181698
581 4 0.265472 0.109314 0.201715
30 3 0.315515 0.156402 0.239631
26 1 0.322875 0.136329 0.231783
28 3 0.312606 0.131494 0.211545
24 3 0.35603 0.0825077 0.220699
27 3 0.345623 0.137349 0.228524
394 2 0.0226618 0.23935 0.240825
395 4 0.0280187 0.215123 0.243911
362 4 0.116047 0.247127 0.216807
361 2 0.0986136 0.250783 0.19926
284 4 0.284751 0.220486 0.164911
285 4 0.285529 0.174087 0.183545
283 2 0.28514 0.197287 0.174228
764 4 0.384398 0.189708 0.209089
763 2 0.383102 0.213815 0.2156
765 4 0.381806 0.237921 0.22211
520 2 0.48292 0.234844 0.241759
396 4 0.0173049 0.263577 0.237738
750 4 0.0506893 0.27265 0.237293
363 4 0.0811805 0.254439 0.181713
372 4 0.134798 0.254889 0.217696
300 4 0.093825 0.316505 0.225947
370 2 0.152949 0.262265 0.202162
298 2 0.115631 0.326542 0.232945
299 4 0.137436 0.336578 0.239942
279 4 0.209653 0.29906 0.182242
371 4 0.1711 0.26964 0.186627
277 2 0.232268 0.288435 0.18133
343 2 0.245423 0.260065 0.246098
278 4 0.254884 0.277811 0.180417
344 4 0.264003 0.255054 0.230134
307 2 0.294463 0.280639 0.188716
309 4 0.274271 0.270062 0.17844
308 4 0.314655 0.291216 0.198992
611 4 0.278383 0.336574 0.164942
647 4 0.0909585 0.40861 0.192354
535 2 0.156232 0.354602 0.168067
648 4 0.0982875 0.360215 0.202599
646 2 0.094623 0.384412 0.197477
536 4 0.15553 0.375427 0.181887
734 4 0.145481 0.342493 0.257367
303 4 0.347592 0.398162 0.203462
301 2 0.351026 0.414837 0.18515
729 4 0.360208 0.397492 0.237247
597 4 0.473959 0.386357 0.169759
643 2 0.450875 0.379536 0.207016
644 4 0.439862 0.376331 0.229234
645 4 0.461888 0.382741 0.184798
447 4 0.455024 0.377153 0.241205
262 2 0.0701525 0.442825 0.188838
264 4 0.0499643 0.457097 0.185106
263 4 0.0903407 0.428553 0.19257
416 4 0.186431 0.428729 0.17025
291 4 0.20403 0.436691 0.174874
289 2 0.222516 0.431849 0.190998
290 4 0.241003 0.427006 0.207122
638 4 0.261124 0.477621 0.175228
768 4 0.257988 0.497806 0.232642
766 2 0.256403 0.483256 0.21237
767 4 0.254819 0.468706 0.192098
660 4 0.365322 0.446486 0.170158
302 4 0.35446 0.431512 0.166838
229 2 0.398068 0.491446 0.24554
231 4 0.382813 0.471636 0.245375
232 2 0.0207649 0.0612302 0.287967
233 4 0.00893039 0.0491201 0.26957
318 4 0.0472391 0.0772435 0.320481
234 4 0.0325993 0.0733403 0.306365
1403 4 0.09297 0.022958 0.246883
248 4 0.220318 0.0616552 0.329054
1701 4 0.223478 0.0354276 0.315655
1699 2 0.232889 0.0131642 0.309255
22 3 0.369799 0.0776227 0.255329
697 2 0.369068 0.0163016 0.319669
478 2 0.501219 0.0363596 0.294372
480 4 0.50209 0.03563 0.269394
351 4 0.439506 0.0595969 0.306802
479 4 0.500348 0.0370891 0.31935
1749 4 0.449075 0.0089579 0.264577
1747 2 0.448677 0.997515 0.286805
349 2 0.434223 0.0796318 0.292807
529 2 0.0158702 0.127541 0.271978
530 4 0.0347536 0.134656 0.257214
398 4 0.050013 0.131357 0.329729
397 2 0.071967 0.121097 0.335886
393 4 0.0765096 0.162693 0.269672
579 4 0.0850815 0.0875165 0.262311
392 4 0.11292 0.145465 0.299307
544 2 0.176134 0.159903 0.264348
391 2 0.0947146 0.154079 0.284489
399 4 0.093921 0.110836 0.342044
249 4 0.216272 0.102334 0.300251
247 2 0.218295 0.0819944 0.314653
403 2 0.225724 0.141036 0.290666
404 4 0.226923 0.116087 0.291791
405 4 0.224525 0.165986 0.289542
29 3 0.318248 0.119621 0.247205
706 2 0.30886 0.165543 0.303934
708 4 0.284107 0.16548 0.307463
707 4 0.333613 0.165606 0.300405
632 4 0.342232 0.100167 0.300858
631 2 0.35225 0.105825 0.323057
333 4 0.445117 0.104721 0.270317
331 2 0.453397 0.127696 0.264955
332 4 0.461677 0.150671 0.259592
350 4 0.428941 0.0996668 0.278811
444 4 0.0343162 0.230851 0.325764
442 2 0.0199713 0.24647 0.312519
545 4 0.176292 0.170103 0.287176
473 4 0.263012 0.219375 0.331486
521 4 0.458144 0.23629 0.244806
762 4 0.466222 0.165307 0.2749
418 2 0.434181 0.227364 0.289825
419 4 0.430382 0.206806 0.276109
761 4 0.477511 0.174525 0.322736
760 2 0.471866 0.169916 0.298818
443 4 0.00562652 0.26209 0.299274
748 2 0.0621677 0.283263 0.256806
749 4 0.0736461 0.293877 0.27632
401 4 0.193079 0.244603 0.301765
345 4 0.226843 0.265076 0.262062
400 2 0.196711 0.26092 0.320359
496 2 0.326439 0.294218 0.280799
498 4 0.319809 0.271503 0.288878
497 4 0.333069 0.316932 0.27272
615 4 0.383651 0.297397 0.321953
613 2 0.386281 0.321064 0.329578
543 4 0.446874 0.265263 0.29938
420 4 0.437981 0.247922 0.30354
541 2 0.45418 0.288744 0.294859
542 4 0.461485 0.312225 0.290338
602 4 0.0600856 0.401783 0.274481
601 2 0.0722569 0.398197 0.296025
603 4 0.0844282 0.394612 0.31757
733 2 0.15061 0.353671 0.279137
735 4 0.155738 0.364849 0.300907
676 2 0.172797 0.345431 0.335649
677 4 0.165954 0.357437 0.314811
509 4 0.260103 0.384769 0.325341
433 2 0.336089 0.410854 0.324233
434 4 0.351847 0.410608 0.304821
728 4 0.354984 0.405854 0.286272
727 2 0.357596 0.401673 0.261759
614 4 0.388911 0.344732 0.337202
445 2 0.448157 0.387178 0.263057
446 4 0.44129 0.397204 0.28491
713 4 0.432316 0.414788 0.280669
549 4 0.0665193 0.457026 0.321674
1757 4 0.0829374 0.487513 0.27338
777 4 0.0802734 0.471046 0.316429
775 2 0.100101 0.485359 0.321642
776 4 0.119928 0.499673 0.326854
414 4 0.138006 0.477267 0.277498
412 2 0.15038 0.48392 0.298182
413 4 0.162754 0.490573 0.318865
436 2 0.291156 0.432208 0.28636
437 4 0.306475 0.417483 0.27318
438 4 0.275837 0.446932 0.299539
1803 4 0.338104 0.483537 0.322543
594 4 0.397379 0.483595 0.313661
1802 4 0.340532 0.503473 0.276746
1801 2 0.339318 0.493505 0.299645
2861 4 0.514646 0.476558 0.245715
119 3 0.48732 0.438276 0.321726
712 2 0.439578 0.437564 0.288
714 4 0.44684 0.460339 0.29533
3989 4 0.494531 0.507277 0.339218
316 2 0.0535823 0.0624015 0.339577
317 4 0.0599255 0.0475596 0.358673
428 4 0.0681512 0.0336954 0.371188
427 2 0.08373 0.0172421 0.360616
606 4 0.183261 0.0591762 0.385567
604 2 0.197527 0.0637049 0.365538
605 4 0.211793 0.0682337 0.34551
439 2 0.2772 0.0183931 0.392897
441 4 0.275593 0.0428635 0.388018
698 4 0.382001 0.0355405 0.329039
256 2 0.404669 0.0512094 0.358812
257 4 0.384572 0.041393 0.347634
258 4 0.424765 0.0610259 0.369991
459 4 0.0255368 0.165707 0.411194
731 4 0.161339 0.103821 0.347197
732 4 0.111376 0.103775 0.349296
730 2 0.136358 0.103798 0.348246
685 2 0.167636 0.138271 0.408157
598 2 0.200833 0.153452 0.361596
599 4 0.194854 0.141889 0.382944
686 4 0.176861 0.150328 0.388291
683 4 0.294743 0.0965165 0.384247
682 2 0.295907 0.108929 0.405921
467 4 0.333751 0.131038 0.40963
466 2 0.326749 0.15392 0.416883
633 4 0.362269 0.111483 0.345256
2642 4 0.501081 0.0849485 0.350123
451 2 0.47541 0.13556 0.380579
453 4 0.450996 0.132939 0.375857
515 4 0.438902 0.144259 0.386477
514 2 0.428093 0.142452 0.40895
2653 2 0.00846372 0.19018 0.373697
2654 4 0.0282348 0.199598 0.361631
260 4 0.0897788 0.190332 0.410755
389 4 0.113405 0.246361 0.347465
600 4 0.206811 0.165014 0.340248
474 4 0.226388 0.210519 0.364364
274 2 0.222377 0.244369 0.390225
276 4 0.222044 0.22894 0.370553
472 2 0.2447 0.214947 0.347925
488 4 0.304657 0.212157 0.396534
487 2 0.307664 0.236715 0.392923
305 4 0.467717 0.169659 0.410785
616 2 0.0761374 0.31652 0.365836
618 4 0.053485 0.324835 0.372386
347 4 0.0387254 0.315341 0.381554
346 2 0.0347247 0.296678 0.397705
348 4 0.030724 0.278015 0.413857
390 4 0.095219 0.292915 0.345811
388 2 0.104312 0.269638 0.346638
375 4 0.150534 0.308023 0.392535
617 4 0.0987898 0.308205 0.359286
678 4 0.179641 0.333425 0.356486
402 4 0.200343 0.277238 0.338953
373 2 0.167581 0.313768 0.409901
275 4 0.222709 0.259799 0.409897
489 4 0.310672 0.261273 0.389312
376 2 0.299252 0.297204 0.343315
377 4 0.315182 0.291397 0.361691
378 4 0.283322 0.30301 0.324938
716 4 0.363295 0.263639 0.347327
715 2 0.370532 0.262932 0.37125
717 4 0.377768 0.262225 0.395173
2925 4 0.477358 0.326587 0.386082
406 2 0.0719114 0.409895 0.385077
408 4 0.0647127 0.387409 0.393307
503 4 0.209631 0.373682 0.394816
508 2 0.249942 0.364775 0.336395
510 4 0.239781 0.344781 0.347449
336 4 0.345849 0.360912 0.387211
751 2 0.414008 0.399945 0.355427
753 4 0.394867 0.41515 0.350172
561 4 0.438169 0.38512 0.379601
752 4 0.433149 0.38474 0.360681
559 2 0.44297 0.388195 0.403946
407 4 0.07911 0.432381 0.376847
548 4 0.0641106 0.442813 0.369559
547 2 0.0653149 0.449919 0.345617
680 4 0.0363658 0.467898 0.409736
499 2 0.116859 0.466337 0.380937
500 4 0.115485 0.491261 0.379497
501 4 0.118232 0.441413 0.382378
636 4 0.233486 0.471027 0.42139
1436 4 0.248349 0.492604 0.327384
435 4 0.320331 0.4111 0.343644
4 3 0.3099 0.457737 0.359268
1 1 0.329352 0.465662 0.369128
2 3 0.328746 0.460924 0.39163
592 2 0.395807 0.491191 0.337431
5 3 0.3309 0.488199 0.366247
3 3 0.347818 0.455195 0.359754
587 4 0.424504 0.447228 0.411465
720 4 0.0445204 0.0633193 0.481142
367 2 0.122688 0.0680935 0.443998
369 4 0.147205 0.0728194 0.44268
368 4 0.09817 0.0633676 0.445315
342 4 0.173386 0.081885 0.489488
1181 4 0.266221 0.0482131 0.493963
726 4 0.323205 0.0155353 0.443425
1180 2 0.264301 0.0724679 0.488202
724 2 0.329896 0.0392404 0.447725
432 4 0.305331 0.0773492 0.483396
725 4 0.336587 0.0629455 0.452024
426 4 0.386124 0.018354 0.420261
424 2 0.395339 0.028557 0.441146
425 4 0.404554 0.0387601 0.46203
457 2 0.00888378 0.153535 0.425326
718 2 0.0526224 0.0865834 0.485422
719 4 0.0607243 0.109847 0.489702
687 4 0.158411 0.126213 0.428024
1151 4 0.180148 0.146106 0.481699
1150 2 0.180347 0.122241 0.489155
321 4 0.248934 0.15506 0.450294
1152 4 0.180545 0.0983756 0.496611
684 4 0.297072 0.121342 0.427594
320 4 0.286115 0.136936 0.422191
319 2 0.267525 0.145998 0.436242
1182 4 0.26238 0.0967226 0.48244
575 4 0.408874 0.156025 0.439025
642 4 0.498707 0.113886 0.484749
516 4 0.417283 0.140645 0.431424
2880 4 0.504315 0.10924 0.466366
261 4 0.101607 0.207939 0.456041
259 2 0.0956929 0.199136 0.433398
1035 4 0.113259 0.205981 0.473957
1033 2 0.110778 0.184143 0.485879
695 4 0.110838 0.225595 0.464977
694 2 0.106476 0.250135 0.462992
411 4 0.284079 0.219108 0.470473
409 2 0.304733 0.205017 0.470247
410 4 0.325386 0.190926 0.470021
468 4 0.319748 0.176801 0.424135
266 4 0.369122 0.217226 0.428198
574 2 0.411319 0.170506 0.459262
576 4 0.413764 0.184986 0.479498
265 2 0.370988 0.241292 0.421677
304 2 0.487988 0.183478 0.415611
327 4 0.0993896 0.293339 0.454774
696 4 0.102114 0.274675 0.461007
325 2 0.0978801 0.306353 0.47607
374 4 0.184628 0.319512 0.427267
651 4 0.251931 0.302248 0.476615
649 2 0.262948 0.307844 0.454878
650 4 0.273964 0.313441 0.433141
267 4 0.372854 0.265358 0.415156
270 4 0.505243 0.269622 0.422874
2456 4 0.496325 0.285933 0.462179
583 2 0.461693 0.260544 0.476247
584 4 0.481856 0.272243 0.467206
585 4 0.441529 0.248845 0.485288
2813 4 0.0185992 0.374017 0.437432
10 3 0.149164 0.347096 0.479218
772 2 0.239985 0.410368 0.463135
502 2 0.21231 0.379358 0.419019
711 4 0.16585 0.416946 0.467927
504 4 0.214989 0.385035 0.443222
709 2 0.180079 0.400161 0.456053
710 4 0.194308 0.383376 0.44418
773 4 0.257286 0.39254 0.465971
334 2 0.351943 0.368777 0.410149
238 2 0.382517 0.382688 0.465603
240 4 0.368175 0.371601 0.448382
335 4 0.358037 0.376643 0.433088
239 4 0.396858 0.393775 0.482825
560 4 0.447772 0.391269 0.428291
681 4 0.0522059 0.448052 0.452817
679 2 0.0442858 0.457975 0.431276
383 4 0.058142 0.429922 0.457436
382 2 0.0829463 0.426865 0.456674
570 4 0.143312 0.479409 0.447428
568 2 0.126514 0.46102 0.449632
384 4 0.107751 0.423808 0.455913
569 4 0.109717 0.442631 0.451836
634 2 0.227095 0.459517 0.442646
635 4 0.220705 0.448006 0.463903
774 4 0.222684 0.428195 0.460298
667 2 0.330665 0.452848 0.450511
669 4 0.310384 0.446729 0.463794
668 4 0.350945 0.458967 0.437228
588 4 0.402437 0.425691 0.450834
586 2 0.41347 0.43646 0.43115
1454 4 0.370256 0.491714 0.488833
663 4 0.447555 0.470626 0.488538
1126 2 0.023014 0.0370073 0.533388
1127 4 0.0316684 0.0186842 0.518741
1128 4 0.0143595 0.0553304 0.548036
1030 2 0.246709 0.0836664 0.56189
341 4 0.194423 0.0458804 0.51709
2430 4 0.183832 0.0284689 0.515022
1031 4 0.224248 0.0817192 0.551077
2428 2 0.184417 0.00394426 0.519857
340 2 0.183904 0.0638827 0.503289
961 2 0.271322 0.0225595 0.523997
962 4 0.270097 0.0005452 0.535789
430 2 0.323009 0.0788599 0.501014
963 4 0.272547 0.0445738 0.512206
1032 4 0.269169 0.0856135 0.572703
1217 4 0.411102 0.0657625 0.542154
1216 2 0.40908 0.0461269 0.557501
841 2 0.371824 0.0782397 0.531841
842 4 0.39445 0.067743 0.530095
431 4 0.340688 0.0803706 0.518631
1218 4 0.407059 0.0264913 0.572848
1060 2 0.487477 0.019846 0.546627
1062 4 0.469693 0.0269003 0.530529
471 4 0.0239652 0.156404 0.526518
938 4 0.116347 0.15789 0.515131
937 2 0.108217 0.135397 0.522421
939 4 0.100086 0.112904 0.52971
899 4 0.314396 0.145736 0.532063
843 4 0.349197 0.0887364 0.533586
877 2 0.0579416 0.235399 0.561209
878 4 0.0397176 0.245065 0.54708
470 4 0.0297611 0.200693 0.504032
469 2 0.0268631 0.178549 0.515275
879 4 0.0761656 0.225733 0.575338
1272 4 0.092738 0.213945 0.571404
1154 4 0.168766 0.165394 0.582571
1034 4 0.108297 0.162306 0.497801
857 4 0.231103 0.22554 0.520205
858 4 0.263693 0.223068 0.558054
856 2 0.247398 0.224304 0.539129
898 2 0.315704 0.170705 0.532121
791 4 0.312048 0.253701 0.564204
900 4 0.317012 0.195674 0.532179
872 4 0.451751 0.262243 0.515774
3065 4 0.487378 0.243151 0.5233
983 4 0.0466155 0.314792 0.575423
982 2 0.0279698 0.319599 0.591373
1258 2 0.136679 0.30775 0.533933
1260 4 0.126252 0.304853 0.556474
9 3 0.154398 0.330254 0.512483
1259 4 0.147105 0.310648 0.511393
326 4 0.0963706 0.319366 0.497367
790 2 0.299681 0.270474 0.578022
804 4 0.297108 0.326901 0.53705
792 4 0.287315 0.287247 0.591839
812 4 0.341061 0.295933 0.495091
813 4 0.388958 0.29999 0.508879
811 2 0.365009 0.297962 0.501985
873 4 0.420723 0.273471 0.553349
871 2 0.436237 0.267857 0.534562
953 4 0.456899 0.307948 0.580749
935 4 0.00443382 0.403242 0.526541
7 3 0.140969 0.365315 0.510742
6 1 0.155373 0.35033 0.500889
8 3 0.176903 0.358941 0.501756
1189 2 0.212422 0.34855 0.55914
1190 4 0.233995 0.339371 0.550448
1191 4 0.190849 0.357728 0.567831
896 4 0.188236 0.376965 0.56689
802 2 0.286451 0.340562 0.555077
803 4 0.275793 0.354223 0.573104
928 2 0.383028 0.367528 0.576039
929 4 0.399047 0.357873 0.559445
1002 4 0.404083 0.39804 0.575626
925 2 0.447858 0.393148 0.54785
927 4 0.436289 0.406527 0.565523
926 4 0.459428 0.37977 0.530177
539 4 0.0726365 0.450559 0.492451
1160 4 0.170253 0.449023 0.564524
538 2 0.0850966 0.470638 0.500622
540 4 0.0975566 0.490717 0.508793
1161 4 0.199117 0.459159 0.524967
1159 2 0.184685 0.454091 0.544745
1171 2 0.248404 0.450768 0.575707
1173 4 0.230206 0.461131 0.562047
1172 4 0.266603 0.440404 0.589366
882 4 0.347943 0.450876 0.565117
880 2 0.366658 0.461524 0.552406
881 4 0.385372 0.472171 0.539695
662 4 0.466181 0.48735 0.531829
1910 4 0.447645 0.490476 0.536441
1909 2 0.43304 0.493892 0.556446
1911 4 0.418435 0.497309 0.576451
661 2 0.456868 0.478988 0.510183
1185 4 0.0249105 0.031231 0.623678
1183 2 0.0106741 0.0317431 0.644226
1059 4 0.156296 0.0870241 0.627662
825 4 0.14585 0.0355125 0.626
823 2 0.160827 0.0164527 0.632131
951 4 0.260135 0.0355184 0.633534
949 2 0.267319 0.0230064 0.613113
1092 4 0.33671 0.01453 0.662106
950 4 0.274503 0.0104943 0.592693
1163 4 0.481644 0.0407706 0.664143
2283 4 0.435006 0.00797796 0.663901
1082 4 0.0593991 0.0855716 0.65858
1083 4 0.0616577 0.105279 0.612676
1081 2 0.0605284 0.0954254 0.635628
1076 4 0.0418025 0.0932726 0.667837
1058 4 0.138951 0.103441 0.583726
1057 2 0.147623 0.0952325 0.605694
1153 2 0.160689 0.141731 0.582777
1155 4 0.152613 0.118069 0.582983
909 4 0.135617 0.150815 0.652909
1284 4 0.17534 0.091586 0.622514
1283 4 0.224294 0.101244 0.619211
1282 2 0.199817 0.0964148 0.620863
809 4 0.492579 0.0959791 0.613043
808 2 0.469401 0.0867739 0.614832
810 4 0.446222 0.0775687 0.61662
3425 4 0.489009 0.113046 0.640863
1199 4 0.00497696 0.185184 0.599946
1245 4 0.0415549 0.235643 0.641522
1270 2 0.111493 0.20878 0.587113
1271 4 0.130247 0.203616 0.602822
1221 4 0.17787 0.178784 0.592871
1210 2 0.245854 0.188957 0.650111
1212 4 0.23002 0.182231 0.631967
1219 2 0.199998 0.182864 0.603774
1220 4 0.222126 0.186945 0.614678
796 2 0.213878 0.247206 0.606295
798 4 0.220806 0.232915 0.625606
904 2 0.467158 0.222257 0.602084
906 4 0.453456 0.208735 0.618041
1024 2 0.443738 0.190857 0.654168
1025 4 0.456552 0.197766 0.63384
905 4 0.48086 0.235778 0.586128
1243 2 0.0322972 0.258864 0.642014
1244 4 0.0230394 0.282085 0.642506
984 4 0.00932406 0.324407 0.607323
1209 4 0.0907674 0.252598 0.633893
1207 2 0.0981255 0.262046 0.655843
797 4 0.20695 0.261497 0.586983
946 2 0.18573 0.289358 0.635098
947 4 0.186866 0.264659 0.638822
948 4 0.184594 0.314056 0.631374
1238 4 0.303904 0.292303 0.601724
1237 2 0.309726 0.300043 0.624775
1239 4 0.315549 0.307784 0.647826
954 4 0.454239 0.258303 0.58614
952 2 0.455569 0.283126 0.583445
1040 4 0.0778392 0.369876 0.628326
1039 2 0.05349 0.375525 0.62895
1041 4 0.0291409 0.381173 0.629574
1136 4 0.0846216 0.338228 0.615855
993 4 0.0966939 0.374877 0.634169
1137 4 0.103374 0.368077 0.580385
1135 2 0.0939976 0.353152 0.59812
991 2 0.106394 0.391005 0.650631
992 4 0.116094 0.407132 0.667093
897 4 0.182536 0.416329 0.597201
895 2 0.185386 0.396647 0.582045
1029 4 0.235145 0.383289 0.660904
930 4 0.367009 0.377182 0.592633
1204 2 0.402601 0.402523 0.642265
1206 4 0.385873 0.397463 0.624383
1205 4 0.419329 0.407583 0.660146
3431 4 0.990063 0.501302 0.647573
1188 4 0.24018 0.50539 0.668708
889 2 0.301226 0.431876 0.604717
891 4 0.281377 0.427633 0.590116
890 4 0.321074 0.43612 0.619319
1000 2 0.416387 0.41567 0.588392
1001 4 0.428691 0.4333 0.601158
1268 4 0.447881 0.474 0.659288
944 4 0.0510399 0.0743863 0.674566
943 2 0.0639508 0.0532178 0.677788
945 4 0.0768616 0.0320492 0.68101
1147 2 0.216997 0.0705563 0.750414
2256 4 0.185851 0.0131812 0.683459
45 3 0.401199 0.0849841 0.721356
1162 2 0.502624 0.0350612 0.676489
42 3 0.428013 0.0783815 0.696249
43 3 0.437056 0.0822826 0.732521
41 1 0.422793 0.089497 0.715701
862 2 0.0339304 0.131826 0.749646
864 4 0.0316797 0.118097 0.72887
1075 2 0.0389633 0.106349 0.688959
1077 4 0.036124 0.119425 0.710081
907 2 0.149239 0.146388 0.673403
908 4 0.162861 0.141961 0.693898
1148 4 0.214971 0.093357 0.740354
1225 2 0.191448 0.115791 0.71313
1226 4 0.21067 0.105435 0.725313
1227 4 0.172225 0.126147 0.700947
1005 4 0.316952 0.101669 0.712662
829 2 0.349306 0.147421 0.704051
1003 2 0.34054 0.0939871 0.709539
831 4 0.360688 0.13417 0.72194
1004 4 0.364129 0.0863046 0.706417
44 3 0.425481 0.112287 0.712269
1142 4 0.414826 0.118603 0.697218
1141 2 0.422256 0.141516 0.69051
851 4 0.0632656 0.173641 0.6971
852 4 0.0299631 0.20529 0.677352
850 2 0.0466144 0.189466 0.687226
1213 2 0.0199784 0.220908 0.741919
1214 4 0.0441401 0.222385 0.74818
1107 4 0.0807752 0.180499 0.704512
1178 4 0.027403 0.240485 0.698852
1105 2 0.0844113 0.184358 0.728947
1277 4 0.193066 0.231039 0.732056
1129 2 0.169167 0.196112 0.739014
1131 4 0.176839 0.219648 0.735497
1211 4 0.261688 0.195683 0.668256
978 4 0.28245 0.181325 0.727226
886 2 0.296432 0.175654 0.680605
888 4 0.272412 0.178024 0.674078
887 4 0.320452 0.173284 0.687132
976 2 0.289281 0.200465 0.741793
830 4 0.337923 0.160672 0.686161
1193 4 0.376998 0.212961 0.679087
1192 2 0.357893 0.196831 0.67908
1194 4 0.338787 0.180701 0.679072
1026 4 0.430923 0.183949 0.674496
1143 4 0.429686 0.164428 0.683801
1261 2 0.438941 0.202672 0.7077
1263 4 0.438062 0.181331 0.694701
1262 4 0.439821 0.224013 0.720698
1177 2 0.00627699 0.253805 0.697638
1208 4 0.105484 0.271494 0.677792
822 4 0.142969 0.30226 0.710803
820 2 0.157429 0.28294 0.704258
1276 2 0.20988 0.247477 0.740556
821 4 0.171889 0.263621 0.697712
1065 4 0.222146 0.306147 0.705319
1063 2 0.245539 0.312344 0.69903
1064 4 0.268932 0.318542 0.692742
807 4 0.323946 0.311406 0.693161
805 2 0.301621 0.321806 0.69748
806 4 0.279297 0.332205 0.701798
3121 2 0.500048 0.252853 0.688086
3123 4 0.482703 0.257531 0.670695
3274 2 0.00685746 0.388766 0.73242
3276 4 0.0304174 0.387918 0.72409
892 2 0.0630607 0.372945 0.727011
894 4 0.04373 0.378642 0.712211
893 4 0.0823914 0.367247 0.741811
940 2 0.121538 0.373634 0.732233
1067 4 0.160127 0.37169 0.729165
941 4 0.142602 0.368758 0.719675
942 4 0.100473 0.37851 0.74479
1028 4 0.205748 0.400731 0.697405
1066 2 0.17373 0.382815 0.711378
1068 4 0.187333 0.39394 0.693591
1027 2 0.220447 0.39201 0.679155
1019 4 0.380829 0.330413 0.733121
1018 2 0.387267 0.354553 0.732124
1020 4 0.393705 0.378693 0.731126
1981 2 0.0163794 0.489988 0.731936
1281 4 0.0442706 0.451305 0.682471
1280 4 0.0675898 0.487484 0.707927
1279 2 0.0559302 0.469395 0.695199
1983 4 0.01494 0.486398 0.707233
1175 4 0.224645 0.497691 0.67735
1174 2 0.211455 0.49765 0.698591
1176 4 0.198265 0.497609 0.719832
2016 4 0.183536 0.50493 0.707612
1989 4 0.301269 0.489022 0.689123
1139 4 0.292921 0.443013 0.729063
1138 2 0.290338 0.438608 0.704586
1140 4 0.287756 0.434202 0.68011
1987 2 0.313122 0.493834 0.710607
1988 4 0.324974 0.498645 0.732091
1228 2 0.393805 0.462996 0.725107
1230 4 0.414997 0.461909 0.738332
1229 4 0.372613 0.464083 0.711883
1267 2 0.437411 0.46056 0.67759
1269 4 0.426942 0.447121 0.695891
1100 4 0.44507 0.44457 0.704438
1099 2 0.458706 0.433687 0.722348
1101 4 0.472342 0.422803 0.740258
1251 4 0.493946 0.479475 0.740519
1295 4 0.0213438 0.0454694 0.806007
1294 2 0.018754 0.0323497 0.827134
1203 4 0.0928667 0.0643373 0.805478
1196 4 0.145474 0.0152539 0.835531
1201 2 0.0947612 0.047249 0.787323
1202 4 0.0966557 0.0301608 0.769169
2049 4 0.10051 0.0139299 0.78122
911 4 0.0900868 0.0553462 0.822317
910 2 0.0868745 0.0777869 0.832865
1149 4 0.219024 0.0477557 0.760474
1255 2 0.290905 0.0634339 0.808401
1256 4 0.283698 0.0804192 0.825275
1257 4 0.298111 0.0464486 0.791527
1049 4 0.30602 0.00967591 0.776716
1048 2 0.325702 0.0249461 0.778868
1050 4 0.345383 0.0402162 0.78102
1112 4 0.39829 0.0443026 0.798618
974 4 0.348155 0.0211695 0.82976
1111 2 0.42079 0.0438009 0.787724
1113 4 0.44329 0.0432991 0.77683
844 2 0.482856 0.0446732 0.777967
845 4 0.460592 0.0335836 0.780516
980 4 0.437354 0.0139708 0.80797
863 4 0.036181 0.145554 0.770422
832 2 0.998641 0.139658 0.791086
833 4 0.0185621 0.150268 0.780327
34 3 0.0851849 0.136129 0.803859
31 1 0.105674 0.147013 0.803513
32 3 0.120989 0.133691 0.792691
35 3 0.112793 0.150855 0.824801
839 4 0.311621 0.131567 0.799097
838 2 0.286868 0.12806 0.798649
840 4 0.262116 0.124553 0.7982
1084 2 0.379572 0.12254 0.778177
1085 4 0.363193 0.109973 0.792283
1086 4 0.39595 0.135107 0.764071
819 4 0.372804 0.0959029 0.802574
817 2 0.377435 0.0870107 0.82548
1106 4 0.0880474 0.188217 0.753382
33 3 0.103781 0.167099 0.792051
1073 4 0.0819804 0.211684 0.777725