ITEM: TIMESTEP
1950000
ITEM: NUMBER OF ATOMS
4590
ITEM: BOX BOUNDS pp pp pp
-9.9985700000000008e+00 9.9985700000000008e+00
-9.9985700000000008e+00 9.9985700000000008e+00
-9.9985700000000008e+00 9.9985700000000008e+00
ITEM: ATOMS id type xs ys zs
1666 2 0.0470499 0.0445617 0.0563975
1668 4 0.0422893 0.0200158 0.0565172
1667 4 0.0518104 0.0691076 0.0562778
1804 2 0.0874072 0.9907 0.0853208
1806 4 0.106627 0.00456954 0.0773577
534 4 0.148594 0.0417739 0.98559
490 2 0.298471 0.0618587 0.0119351
491 4 0.29212 0.0743464 0.0326452
653 4 0.289394 0.0668451 0.05235
652 2 0.274005 0.0675748 0.0720431
297 4 0.378222 0.00696408 0.0806096
295 2 0.402733 0.0110508 0.0778388
296 4 0.427244 0.0151376 0.0750681
591 4 0.051489 0.0908781 0.0561087
589 2 0.0370577 0.0967716 0.0365593
590 4 0.0226264 0.102665 0.0170098
702 4 0.06949 0.0803625 0.0610375
3232 2 0.0212771 0.146461 0.00401489
3233 4 0.0188705 0.121953 0.00834501
3234 4 0.0236837 0.170968 0.999685
235 2 0.0819966 0.156449 0.0666914
421 2 0.143551 0.0901197 0.0101656
422 4 0.125636 0.106603 0.0158712
700 2 0.0842662 0.100188 0.0647516
701 4 0.0990425 0.120013 0.0684658
236 4 0.0996524 0.139976 0.0602039
449 4 0.117972 0.129903 0.065604
448 2 0.139058 0.141924 0.0716079
423 4 0.161466 0.0736368 0.00445994
565 2 0.279866 0.108088 0.0356043
566 4 0.276618 0.129506 0.023118
567 4 0.283114 0.0866698 0.0480905
665 4 0.304194 0.148108 0.00792358
359 4 0.260321 0.136669 0.014007
664 2 0.321816 0.161388 0.0196826
557 4 0.388418 0.161367 0.072038
556 2 0.374762 0.16577 0.0515604
237 4 0.0643408 0.172923 0.0731789
477 4 0.0740315 0.186881 0.0839804
357 4 0.22254 0.249735 0.0021552
666 4 0.339438 0.174669 0.0314417
558 4 0.361107 0.170172 0.0310828
571 2 0.359626 0.211795 0.0177564
572 4 0.353709 0.190329 0.0291319
1071 4 0.368031 0.253187 0.00228184
573 4 0.365542 0.233261 0.00638091
769 2 0.494296 0.220033 0.0375182
771 4 0.490859 0.243926 0.0440393
914 4 0.147581 0.24667 0.0269241
506 4 0.159474 0.258578 0.0145496
293 4 0.156273 0.314795 0.0407166
292 2 0.145634 0.314437 0.0633414
507 4 0.173221 0.303104 0.0326944
505 2 0.166347 0.280841 0.023622
288 4 0.16697 0.321362 0.0233109
481 2 0.230953 0.325866 0.0671601
482 4 0.24965 0.312285 0.0767081
1070 4 0.362955 0.295217 0.0288978
1069 2 0.365493 0.274202 0.0155898
957 4 0.371768 0.312227 0.0338949
955 2 0.356031 0.329149 0.0243462
518 4 0.494396 0.253065 0.0637515
323 4 0.479532 0.260827 0.0506227
322 2 0.454764 0.262872 0.0533641
324 4 0.429995 0.264917 0.0561055
623 4 0.423683 0.267845 0.0746421
282 4 0.450809 0.318714 0.998236
550 2 0.0362788 0.408141 0.0442929
551 4 0.0406254 0.397594 0.022043
1170 4 0.0252725 0.344253 0.00497585
1168 2 0.0277665 0.369119 0.00415313
1169 4 0.0302604 0.393984 0.00333042
552 4 0.0319322 0.418688 0.0665427
483 4 0.212256 0.339447 0.0576122
286 2 0.187319 0.333629 0.031096
287 4 0.207669 0.345895 0.0388812
956 4 0.340294 0.34607 0.0147975
280 2 0.463082 0.328519 0.0176887
670 2 0.487816 0.343214 0.0672362
671 4 0.47265 0.353658 0.0503223
281 4 0.475356 0.338324 0.0371414
315 4 0.0287863 0.439599 0.0705617
313 2 0.0461435 0.457221 0.066905
314 4 0.0635007 0.474843 0.0632483
1787 4 0.0805346 0.482368 0.0659719
1786 2 0.103463 0.472407 0.0664885
1788 4 0.12639 0.462445 0.0670051
1691 4 0.085575 0.501503 0.0619226
243 4 0.22867 0.479172 0.0829649
246 4 0.324674 0.449497 0.0189613
272 4 0.312633 0.463137 0.00839801
244 2 0.329826 0.454122 0.0429871
245 4 0.334978 0.458748 0.067013
271 2 0.301122 0.485187 0.00585217
2388 4 0.397866 0.490725 0.0125513
563 4 0.417993 0.489701 0.0170981
562 2 0.442624 0.485797 0.0189053
564 4 0.467255 0.481892 0.0207126
854 4 0.481459 0.469425 0.0144998
18 3 0.014939 0.0659938 0.123201
2481 4 0.00518513 0.055478 0.135785
16 1 0.0102407 0.0764634 0.103034
2479 2 0.0119598 0.0438822 0.156876
654 4 0.258615 0.0683045 0.0917362
19 3 0.0299426 0.0807162 0.0915381
450 4 0.160144 0.153945 0.0776119
476 4 0.0586243 0.212114 0.124312
475 2 0.0663279 0.199498 0.104146
339 4 0.0652704 0.231545 0.122414
337 2 0.0815048 0.24946 0.12879
738 4 0.173159 0.230954 0.108274
736 2 0.196142 0.240799 0.108287
353 4 0.236486 0.240408 0.101083
461 4 0.292122 0.221058 0.114111
354 4 0.274944 0.210996 0.113599
460 2 0.313856 0.216637 0.102565
352 2 0.255715 0.225702 0.107341
462 4 0.335589 0.212217 0.0910198
254 4 0.38573 0.187197 0.126214
630 4 0.400678 0.189369 0.139736
253 2 0.363672 0.192211 0.115562
255 4 0.341613 0.197225 0.10491
628 2 0.425367 0.186943 0.142853
629 4 0.450057 0.184517 0.14597
294 4 0.134996 0.314078 0.0859662
338 4 0.0977391 0.267376 0.135166
363 4 0.115346 0.275378 0.138044
361 2 0.130622 0.274103 0.157798
737 4 0.219126 0.250645 0.108301
755 4 0.236566 0.261999 0.103139
754 2 0.250571 0.2815 0.0961558
756 4 0.264575 0.301 0.0891722
252 4 0.26091 0.322697 0.0920128
741 4 0.405594 0.304619 0.12893
739 2 0.383866 0.315375 0.135045
740 4 0.362139 0.326131 0.141159
386 4 0.354594 0.344493 0.137351
624 4 0.417715 0.292077 0.117977
622 2 0.420699 0.279961 0.0963095
15 3 0.45336 0.307829 0.160923
11 1 0.443968 0.326666 0.152228
14 3 0.443339 0.325237 0.129077
454 2 0.137773 0.342545 0.110438
455 4 0.146369 0.352443 0.131729
456 4 0.129177 0.332647 0.0891464
537 4 0.135063 0.341896 0.145009
250 2 0.277569 0.340656 0.0970276
607 2 0.294607 0.39613 0.099477
251 4 0.294228 0.358615 0.102042
609 4 0.305017 0.375579 0.109197
387 4 0.311426 0.355611 0.114687
385 2 0.33301 0.350052 0.126019
626 4 0.263518 0.421357 0.0889647
494 4 0.412824 0.380969 0.1026
493 2 0.423641 0.362585 0.115645
495 4 0.434459 0.344201 0.128691
595 2 0.471503 0.379941 0.142758
12 3 0.456642 0.344907 0.158211
597 4 0.452497 0.364222 0.14687
2652 4 0.489586 0.413121 0.127518
596 4 0.490508 0.39566 0.138646
620 4 0.0258161 0.42489 0.0859657
648 4 0.0288684 0.423945 0.107159
646 2 0.0363472 0.436775 0.127274
647 4 0.0438261 0.449605 0.14739
263 4 0.0458919 0.453898 0.166715
627 4 0.21621 0.426311 0.104397
625 2 0.239864 0.423834 0.0966808
1440 4 0.245852 0.467143 0.0880139
608 4 0.284198 0.416681 0.0897566
1438 2 0.266341 0.469344 0.102175
1439 4 0.28683 0.471545 0.116337
637 2 0.280567 0.482808 0.154179
639 4 0.279531 0.485504 0.129343
523 2 0.35875 0.489833 0.140738
525 4 0.358817 0.464918 0.142845
659 4 0.355431 0.445446 0.150284
658 2 0.344759 0.426345 0.162386
1422 4 0.0221269 0.0133737 0.183529
2480 4 0.0187345 0.0322863 0.177967
688 2 0.135002 0.0511527 0.23249
690 4 0.155525 0.0543237 0.218564
693 4 0.157355 0.0620935 0.199979
1700 4 0.202066 0.000698307 0.242608
1506 4 0.254554 0.998242 0.15652
23 3 0.310206 0.0327795 0.227273
21 1 0.329184 0.0424469 0.23648
25 3 0.347269 0.0381127 0.223336
759 4 0.357773 0.0560011 0.214831
1784 4 0.359394 0.0365889 0.204049
1783 2 0.357113 0.0150436 0.191568
757 2 0.374893 0.0737332 0.219031
1785 4 0.354832 0.993498 0.179087
24 3 0.326199 0.0653659 0.238533
311 4 0.420455 0.0946603 0.163367
1747 2 0.501319 0.00639137 0.243952
511 2 0.0211348 0.142332 0.240392
381 4 0.995671 0.137413 0.217315
512 4 0.00653664 0.154155 0.223891
691 2 0.161569 0.0864168 0.196005
692 4 0.165784 0.11074 0.192031
723 4 0.169521 0.125771 0.207087
721 2 0.177456 0.139901 0.226129
722 4 0.185392 0.15403 0.24517
30 3 0.336224 0.156019 0.190299
758 4 0.392014 0.0914654 0.22323
28 3 0.370502 0.140572 0.192305
312 4 0.410738 0.0895999 0.21216
744 4 0.410066 0.100794 0.230495
26 1 0.356168 0.156455 0.201285
29 3 0.352859 0.152274 0.223868
708 4 0.35632 0.168344 0.236713
310 2 0.415596 0.0921301 0.187763
748 2 0.0554139 0.205343 0.226776
749 4 0.054405 0.205677 0.201795
284 4 0.243078 0.209046 0.243383
581 4 0.326752 0.173033 0.191094
283 2 0.251203 0.193879 0.225241
285 4 0.259327 0.178713 0.207098
580 2 0.302337 0.174148 0.196371
582 4 0.277922 0.175262 0.201648
27 3 0.365683 0.177261 0.198891
362 4 0.145899 0.272829 0.177551
372 4 0.150511 0.281456 0.195291
370 2 0.168114 0.297859 0.202093
371 4 0.185716 0.314263 0.208895
279 4 0.205643 0.306384 0.212008
277 2 0.217011 0.289087 0.226035
612 4 0.202039 0.321624 0.197243
278 4 0.228378 0.27179 0.240063
13 3 0.422493 0.329386 0.160583
2693 4 0.00273534 0.397398 0.222433
535 2 0.139708 0.347289 0.168978
536 4 0.144353 0.352683 0.192947
298 2 0.146427 0.407159 0.228515
300 4 0.144803 0.42257 0.208892
610 2 0.20733 0.346045 0.19635
417 4 0.215212 0.374817 0.215674
415 2 0.228345 0.395968 0.213367
611 4 0.212621 0.370466 0.195457
416 4 0.241477 0.41712 0.21106
301 2 0.319206 0.393139 0.21118
302 4 0.319372 0.397054 0.186485
729 4 0.327087 0.378784 0.252257
303 4 0.31904 0.389225 0.235874
660 4 0.334088 0.407243 0.174487
645 4 0.444778 0.360919 0.167948
643 2 0.43751 0.369337 0.190342
644 4 0.430243 0.377755 0.212737
447 4 0.428159 0.379602 0.233082
262 2 0.0535479 0.460306 0.189639
1757 4 0.0702954 0.475809 0.227573
264 4 0.0612039 0.466715 0.212562
1467 4 0.0192106 0.492028 0.182541
1756 2 0.0545324 0.475143 0.246971
603 4 0.0959758 0.442879 0.240889
291 4 0.249056 0.426325 0.194017
289 2 0.263077 0.447003 0.195013
290 4 0.277099 0.467681 0.196009
638 4 0.281604 0.480113 0.179015
767 4 0.296787 0.46803 0.187602
766 2 0.311057 0.470809 0.207944
768 4 0.325328 0.473588 0.228286
438 4 0.288255 0.437783 0.246737
1573 2 0.354225 0.488415 0.245642
1403 4 0.104341 0.0400117 0.263289
689 4 0.11448 0.0479817 0.246417
1402 2 0.0984873 0.0157703 0.265095
675 4 0.0983295 0.0588971 0.255084
673 2 0.0895329 0.0738958 0.273051
1699 2 0.205671 0.0174549 0.260812
248 4 0.216448 0.0480147 0.293714
247 2 0.202133 0.0684921 0.294686
1701 4 0.209276 0.0342115 0.279017
605 4 0.215236 0.0271889 0.298211
604 2 0.231696 0.0223955 0.316411
606 4 0.248156 0.0176022 0.334612
631 2 0.317216 0.0281739 0.323086
632 4 0.313061 0.044441 0.304557
633 4 0.321372 0.0119067 0.341614
1496 4 0.34161 0.0175917 0.263582
22 3 0.332691 0.0335036 0.257382
697 2 0.398264 0.0141737 0.314749
1495 2 0.361475 0.004744 0.271674
351 4 0.419995 0.0457538 0.319786
698 4 0.410726 0.0294014 0.330176
1497 4 0.38134 0.991896 0.279767
349 2 0.423374 0.0643559 0.303423
674 4 0.0807363 0.0888945 0.291019
579 4 0.0552857 0.129306 0.265506
513 4 0.0357331 0.130508 0.256893
577 2 0.0626469 0.150267 0.276977
530 4 0.0384973 0.120647 0.275486
529 2 0.0275722 0.11271 0.296529
531 4 0.0166471 0.104773 0.317573
545 4 0.161769 0.153318 0.299858
544 2 0.164728 0.157465 0.275379
600 4 0.152836 0.148419 0.319004
405 4 0.169092 0.136717 0.311158
249 4 0.187819 0.0889695 0.295657
403 2 0.174533 0.112356 0.312602
404 4 0.179975 0.0879941 0.314047
546 4 0.167687 0.161613 0.2509
742 2 0.424024 0.0954463 0.250538
762 4 0.442885 0.159551 0.293472
332 4 0.451293 0.143412 0.303994
350 4 0.426754 0.0829579 0.287061
743 4 0.437983 0.090099 0.270582
333 4 0.444232 0.0958732 0.290178
331 2 0.447763 0.119643 0.297086
750 4 0.0564227 0.205008 0.251757
396 4 0.054029 0.224117 0.259444
393 4 0.0778373 0.172221 0.306932
578 4 0.0700081 0.171229 0.288448
394 2 0.0495342 0.248665 0.257904
391 2 0.0689172 0.172637 0.330287
343 2 0.239191 0.240011 0.259577
344 4 0.247616 0.21647 0.25961
706 2 0.357306 0.178252 0.259648
707 4 0.358291 0.18816 0.282584
613 2 0.408364 0.235744 0.321029
614 4 0.413017 0.220922 0.301437
760 2 0.435671 0.183479 0.294239
761 4 0.428456 0.207407 0.295006
418 2 0.439799 0.243954 0.274189
419 4 0.426282 0.226286 0.285605
520 2 0.493574 0.243859 0.261619
442 2 0.0173667 0.287085 0.276238
395 4 0.0450395 0.273214 0.256365
444 4 0.0419334 0.282846 0.27432
389 4 0.129557 0.281881 0.326385
401 4 0.140652 0.271018 0.337848
388 2 0.111195 0.268561 0.336903
345 4 0.230766 0.263552 0.259543
309 4 0.241729 0.281556 0.253839
307 2 0.253715 0.293643 0.272154
308 4 0.2657 0.305731 0.290468
497 4 0.282508 0.318695 0.288705
508 2 0.266409 0.316974 0.32324
496 2 0.299714 0.322764 0.271025
509 4 0.265448 0.325153 0.299632
498 4 0.316919 0.326832 0.253344
763 2 0.401458 0.302761 0.283088
764 4 0.378704 0.297703 0.292136
765 4 0.424212 0.307818 0.274041
420 4 0.453315 0.261622 0.262773
521 4 0.472565 0.254322 0.27024
543 4 0.469634 0.275037 0.266477
541 2 0.454113 0.294441 0.26369
542 4 0.438591 0.313844 0.260903
408 4 0.0606894 0.369519 0.326909
299 4 0.148052 0.391749 0.248138
734 4 0.142694 0.379279 0.263686
733 2 0.142824 0.365397 0.284481
735 4 0.142953 0.351514 0.305276
677 4 0.161684 0.35189 0.313103
678 4 0.209459 0.354212 0.327695
676 2 0.185571 0.353051 0.320399
727 2 0.33048 0.396908 0.269144
728 4 0.333873 0.415032 0.286031
753 4 0.373136 0.367646 0.30098
751 2 0.378607 0.384664 0.318463
752 4 0.384079 0.401681 0.335946
445 2 0.439954 0.382664 0.254915
446 4 0.451749 0.385725 0.276748
713 4 0.470682 0.387109 0.284691
712 2 0.48824 0.404909 0.284805
1758 4 0.0387693 0.474478 0.266368
412 2 0.102636 0.46564 0.311613
602 4 0.124154 0.442253 0.282197
601 2 0.110065 0.442566 0.261543
414 4 0.110002 0.448721 0.294741
413 4 0.0952695 0.482559 0.328486
1435 2 0.234828 0.453826 0.319085
1436 4 0.246511 0.438971 0.302714
437 4 0.259912 0.434778 0.287827
436 2 0.274083 0.43628 0.267282
433 2 0.326186 0.428775 0.325221
434 4 0.339043 0.416896 0.307368
1575 4 0.372816 0.483581 0.261647
1802 4 0.3741 0.468414 0.274322
1801 2 0.36161 0.44874 0.283383
1803 4 0.34912 0.429065 0.292444
233 4 0.00467732 0.0468912 0.390606
318 4 0.0674519 0.059521 0.377248
234 4 0.0484912 0.0577648 0.369093
232 2 0.0265843 0.052328 0.379849
316 2 0.0830673 0.0471783 0.392381
317 4 0.0986827 0.0348356 0.407513
428 4 0.106201 0.0154757 0.40949
441 4 0.235487 0.0122659 0.349581
725 4 0.3288 0.997817 0.35336
724 2 0.308056 0.993161 0.36652
440 4 0.267043 0.995367 0.3845
439 2 0.251265 0.00381648 0.367041
682 2 0.277016 0.0773591 0.403108
258 4 0.412532 0.0439927 0.38461
256 2 0.40933 0.0469892 0.359994
257 4 0.406128 0.0499858 0.335378
425 4 0.409938 0.0278217 0.396279
2643 4 0.482706 0.0665463 0.384507
452 4 0.457718 0.0786451 0.386102
2641 2 0.493997 0.0599289 0.363202
398 4 0.0198722 0.105751 0.338731
397 2 0.0424182 0.101693 0.34875
2653 2 0.0339111 0.157222 0.371434
399 4 0.0649643 0.0976353 0.35877
732 4 0.0827161 0.104261 0.351
2655 4 0.00971073 0.157749 0.377699
731 4 0.111116 0.139263 0.372656
730 2 0.0969161 0.121762 0.361828
686 4 0.127987 0.147045 0.38369
599 4 0.127596 0.147756 0.362169
598 2 0.140216 0.148087 0.340586
685 2 0.145292 0.137479 0.398993
687 4 0.162598 0.127913 0.414295
683 4 0.272487 0.0681422 0.38031
453 4 0.414449 0.103681 0.387399
515 4 0.396656 0.0999067 0.379431
514 2 0.386861 0.120071 0.390505
516 4 0.377066 0.140235 0.401579
575 4 0.376942 0.153713 0.417925
451 2 0.436083 0.0911632 0.38675
2654 4 0.0581115 0.156694 0.36517
392 4 0.059997 0.173053 0.353642
275 4 0.181118 0.205245 0.394527
274 2 0.197417 0.199599 0.376426
474 4 0.225659 0.209749 0.355025
276 4 0.213715 0.193953 0.358324
472 2 0.231186 0.227798 0.338627
409 2 0.243595 0.207522 0.408703
411 4 0.228271 0.227209 0.410374
473 4 0.236712 0.245847 0.32223
466 2 0.282967 0.172151 0.395491
467 4 0.306584 0.175275 0.387895
468 4 0.259351 0.169027 0.403086
410 4 0.258919 0.187836 0.407033
615 4 0.40371 0.250565 0.340621
716 4 0.39917 0.239963 0.357399
574 2 0.395644 0.169722 0.4223
269 4 0.463478 0.227426 0.37113
306 4 0.451785 0.215318 0.380595
268 2 0.463753 0.252125 0.375013
304 2 0.439325 0.207475 0.400803
617 4 0.0782207 0.252261 0.36165
2812 2 0.0137423 0.331133 0.391471
616 2 0.0835269 0.262006 0.384056
2814 4 0.0108194 0.308289 0.401206
390 4 0.0928337 0.255241 0.34742
400 2 0.165101 0.273394 0.342517
618 4 0.0888331 0.27175 0.406463
260 4 0.109402 0.267998 0.412594
375 4 0.193067 0.294911 0.349901
402 4 0.18955 0.275769 0.347186
373 2 0.210745 0.302161 0.36603
374 4 0.228422 0.309411 0.382158
378 4 0.268408 0.310017 0.366322
489 4 0.311194 0.280732 0.403755
376 2 0.280119 0.295819 0.383248
377 4 0.291829 0.281621 0.400173
510 4 0.26737 0.308795 0.346849
487 2 0.334739 0.27239 0.404861
715 2 0.387841 0.247732 0.37829
717 4 0.376512 0.255502 0.399182
488 4 0.358283 0.264047 0.405966
270 4 0.464028 0.276824 0.378895
2924 4 0.457526 0.280086 0.396838
2923 2 0.438741 0.28383 0.41291
406 2 0.0397029 0.379453 0.336186
407 4 0.0187164 0.389387 0.345463
548 4 0.0183637 0.408008 0.353892
2813 4 0.0166652 0.353978 0.381736
680 4 0.0444907 0.417916 0.416303
504 4 0.183851 0.410357 0.408629
502 2 0.207316 0.40246 0.412124
650 4 0.248552 0.388114 0.421813
561 4 0.401466 0.39778 0.344469
559 2 0.41283 0.4107 0.362611
668 4 0.410471 0.417035 0.395764
560 4 0.424194 0.42362 0.380752
547 2 0.015682 0.432746 0.351444
549 4 0.0130003 0.457485 0.348996
775 2 0.0559224 0.470131 0.344388
777 4 0.0329531 0.460344 0.34573
776 4 0.0788917 0.479918 0.343045
1545 4 0.0931645 0.495971 0.344909
773 4 0.185458 0.492289 0.398535
1437 4 0.223144 0.46868 0.335456
2 3 0.326145 0.482404 0.36359
435 4 0.313329 0.440655 0.343075
4 3 0.32542 0.445192 0.358356
1 1 0.338798 0.463205 0.364268
5 3 0.356144 0.465133 0.349638
3 3 0.3469 0.460319 0.385819
588 4 0.429941 0.423435 0.401364
1780 2 0.13955 0.00763497 0.463383
368 4 0.122241 0.0674236 0.403585
1782 4 0.154757 0.0225146 0.476518
341 4 0.143504 0.0412328 0.475126
2430 4 0.15789 0.0383194 0.49081
340 2 0.147599 0.065083 0.468834
367 2 0.124308 0.0832217 0.422855
1180 2 0.289877 0.0578479 0.461168
1181 4 0.295992 0.041774 0.479318
963 4 0.289317 0.0305056 0.49615
432 4 0.308698 0.0411656 0.49661
961 2 0.267161 0.019246 0.493406
1182 4 0.283762 0.0739217 0.443018
684 4 0.281545 0.0865761 0.425905
842 4 0.402973 0.00266789 0.459151
430 2 0.328085 0.0263189 0.491237
841 2 0.379392 0.00956023 0.4638
843 4 0.355812 0.0164526 0.46845
431 4 0.347473 0.0114721 0.485863
426 4 0.41255 0.00384623 0.440087
424 2 0.411244 0.015834 0.418183
457 2 0.0181198 0.126088 0.453764
719 4 0.0560542 0.123924 0.464534
459 4 0.042893 0.124621 0.450712
718 2 0.0645347 0.110171 0.483616
369 4 0.126375 0.0990197 0.442124
939 4 0.133128 0.115782 0.450697
937 2 0.136291 0.13988 0.456567
938 4 0.139455 0.163978 0.462438
342 4 0.151693 0.0889333 0.462543
1151 4 0.180345 0.121333 0.420728
1152 4 0.172251 0.0924821 0.460763
1150 2 0.176298 0.106908 0.440746
321 4 0.278659 0.131614 0.468609
320 4 0.268913 0.0897483 0.443055
319 2 0.273786 0.110681 0.455832
899 4 0.271404 0.150158 0.463403
1034 4 0.144414 0.182665 0.469956
259 2 0.114345 0.254124 0.432799
261 4 0.119289 0.240251 0.453005
1035 4 0.119093 0.225776 0.468954
1033 2 0.131753 0.204221 0.469455
695 4 0.11694 0.247426 0.473122
694 2 0.105268 0.251228 0.494905
857 4 0.159783 0.215204 0.50943
898 2 0.283385 0.170392 0.471901
900 4 0.295365 0.190626 0.4804
813 4 0.364551 0.222465 0.477344
266 4 0.373689 0.226829 0.460628
576 4 0.414346 0.185731 0.426675
265 2 0.372842 0.241409 0.440332
2656 2 0.503362 0.178499 0.453673
305 4 0.426864 0.199633 0.421012
2657 4 0.481311 0.175356 0.442312
2800 2 0.996625 0.29901 0.438104
2802 4 0.996885 0.287038 0.460053
2847 4 0.0121776 0.296221 0.4704
347 4 0.101992 0.288632 0.410623
346 2 0.102658 0.308119 0.426276
348 4 0.103323 0.327606 0.441929
10 3 0.113843 0.318015 0.45625
9 3 0.13628 0.308 0.48478
1259 4 0.144459 0.295442 0.496606
267 4 0.371994 0.255988 0.420037
238 2 0.388876 0.295388 0.44767
240 4 0.369204 0.310277 0.451729
335 4 0.374343 0.329255 0.444961
239 4 0.408549 0.280499 0.44361
2925 4 0.419957 0.287575 0.428981
2456 4 0.482127 0.30879 0.475224
584 4 0.472184 0.294093 0.465175
583 2 0.450631 0.291054 0.47748
679 2 0.0640484 0.415059 0.431617
6 1 0.127526 0.325783 0.472715
7 3 0.115401 0.339177 0.486953
681 4 0.0836061 0.412203 0.446931
8 3 0.144728 0.338308 0.463462
711 4 0.144025 0.401433 0.461557
709 2 0.157058 0.401619 0.44022
503 4 0.23078 0.394563 0.41562
710 4 0.170092 0.401804 0.418883
649 2 0.265407 0.37007 0.417879
651 4 0.282262 0.352025 0.413946
667 2 0.399919 0.403634 0.414046
669 4 0.389367 0.390232 0.432328
334 2 0.374638 0.352987 0.437096
336 4 0.374933 0.37672 0.429231
2507 4 0.486449 0.425006 0.444197
926 4 0.448162 0.351282 0.492019
384 4 0.12238 0.46681 0.460161
569 4 0.121147 0.476179 0.441425
382 2 0.111849 0.444376 0.456843
383 4 0.101318 0.421942 0.453526
772 2 0.186987 0.485591 0.422576
634 2 0.189305 0.488352 0.48005
635 4 0.184981 0.469852 0.463795
774 4 0.188516 0.478894 0.446617
587 4 0.471851 0.423485 0.428645
586 2 0.450896 0.42346 0.415004
663 4 0.467366 0.434203 0.44686
662 4 0.44582 0.462998 0.481607
661 2 0.456593 0.448601 0.464234
1910 4 0.461502 0.468202 0.492621
2428 2 0.151417 0.0335956 0.514495
2429 4 0.144944 0.0288718 0.53818
962 4 0.245005 0.00798646 0.490662
1032 4 0.255124 0.0771405 0.579093
1091 4 0.365585 0.00401135 0.569077
2196 4 0.374262 0.0119759 0.55346
1062 4 0.456268 0.019417 0.570187
808 2 0.484408 0.077493 0.562594
810 4 0.466054 0.0806656 0.545913
720 4 0.0730151 0.0964182 0.502698
1193 4 0.382123 0.113289 0.59186
469 2 0.0053369 0.22469 0.521506
471 4 0.0184093 0.233787 0.50223
879 4 0.135738 0.231543 0.568655
1272 4 0.151205 0.22011 0.575486
877 2 0.121906 0.241166 0.550182
856 2 0.184572 0.215929 0.506244
858 4 0.209361 0.216655 0.503059
811 2 0.370043 0.234845 0.498362
952 2 0.390322 0.240515 0.555937
812 4 0.375534 0.247225 0.51938
953 4 0.37925 0.255255 0.539046
905 4 0.422339 0.228892 0.568956
3114 4 0.474486 0.232486 0.601758
982 2 0.0169399 0.293892 0.546929
984 4 0.0384171 0.296338 0.559496
326 4 0.059539 0.292906 0.558262
1136 4 0.051989 0.309763 0.568852
325 2 0.0772919 0.280205 0.546068
983 4 0.995463 0.291447 0.534362
1135 2 0.0615169 0.332001 0.562538
696 4 0.0935968 0.255031 0.516688
878 4 0.108075 0.250789 0.531709
327 4 0.0950448 0.267504 0.533875
1258 2 0.141703 0.293954 0.521412
1260 4 0.138947 0.292466 0.546219
1237 2 0.308907 0.299975 0.568883
1238 4 0.328628 0.297622 0.553693
1239 4 0.289186 0.302327 0.584073
792 4 0.347848 0.303154 0.55281
790 2 0.355362 0.282935 0.540165
791 4 0.362876 0.262715 0.52752
873 4 0.383502 0.267083 0.521301
871 2 0.405572 0.277298 0.515493
872 4 0.427643 0.287512 0.509685
3112 2 0.484883 0.251196 0.588836
585 4 0.429078 0.288016 0.489785
936 4 0.0225641 0.388852 0.558841
934 2 0.0240713 0.412297 0.5674
3353 4 0.0126364 0.390404 0.541293
3352 2 0.00975786 0.381596 0.51807
1137 4 0.0710448 0.354239 0.556224
1191 4 0.197685 0.387599 0.582471
1189 2 0.218638 0.374519 0.578588
1454 4 0.343168 0.406755 0.547804
880 2 0.365393 0.378181 0.570313
881 4 0.354736 0.399485 0.562714
925 2 0.451193 0.35798 0.515917
927 4 0.454224 0.364679 0.539815
1001 4 0.458796 0.369803 0.559637
1000 2 0.46517 0.391253 0.570793
539 4 0.0634501 0.486757 0.518142
538 2 0.0402225 0.479584 0.523991
3430 2 0.0177768 0.478769 0.579334
3432 4 0.0260105 0.455592 0.583828
3431 4 0.00954308 0.501947 0.574839
540 4 0.0169949 0.472411 0.529839
1160 4 0.153014 0.440699 0.57124
1159 2 0.150423 0.437752 0.546547
1161 4 0.147832 0.434805 0.521853
2154 4 0.313222 0.491247 0.585016
1453 2 0.345968 0.430895 0.541921
1455 4 0.348769 0.455034 0.536038
1909 2 0.471571 0.490367 0.49832
1185 4 0.0305876 0.0781646 0.670133
1892 4 0.0101065 0.0100527 0.660829
945 4 0.0903043 0.0931958 0.645453
1030 2 0.244487 0.0564407 0.588235
1059 4 0.161043 0.0744054 0.60825
1284 4 0.168581 0.0592118 0.597876
1283 4 0.21206 0.0346945 0.594837
2133 4 0.230612 0.0355833 0.66134
1282 2 0.190321 0.0469532 0.596356
2132 4 0.221476 0.0278951 0.612779
1031 4 0.233851 0.035741 0.597376
2131 2 0.226044 0.0317392 0.63706
2282 4 0.322406 0.00728308 0.615343
2281 2 0.333369 0.0204145 0.633579
1092 4 0.330127 0.992485 0.602401
1090 2 0.347856 0.998248 0.585739
1081 2 0.0140271 0.106501 0.641546
1082 4 0.031232 0.0957083 0.65613
943 2 0.0687261 0.0924328 0.658062
1057 2 0.170903 0.0954047 0.617576
1153 2 0.179272 0.157253 0.614365
1155 4 0.182132 0.132485 0.612481
1058 4 0.180764 0.116404 0.626902
909 4 0.199781 0.122866 0.619996
907 2 0.217242 0.124494 0.637819
908 4 0.234703 0.126122 0.655642
1227 4 0.230045 0.112607 0.669959
886 2 0.330662 0.158404 0.643075
887 4 0.34908 0.141601 0.644976
1194 4 0.354432 0.126127 0.631471
1192 2 0.368278 0.119708 0.611666
830 4 0.365071 0.128237 0.650106
1026 4 0.446141 0.158575 0.648835
1143 4 0.43802 0.144111 0.662042
1263 4 0.426799 0.161789 0.657912
852 4 0.0604154 0.24963 0.667099
1270 2 0.158635 0.210527 0.597352
1154 4 0.176413 0.182021 0.616249
1271 4 0.166065 0.200944 0.619218
1221 4 0.18751 0.199801 0.62043
1219 2 0.208987 0.205512 0.631887
1220 4 0.230465 0.211224 0.643343
798 4 0.24452 0.227325 0.645617
1212 4 0.251443 0.207271 0.643298
888 4 0.312244 0.175207 0.641173
1211 4 0.295787 0.186118 0.633976
1210 2 0.273615 0.196695 0.638637
954 4 0.401394 0.225775 0.572828
1024 2 0.446611 0.167118 0.625341
906 4 0.442547 0.194606 0.599235
904 2 0.432443 0.211749 0.584095
1025 4 0.447082 0.175661 0.601847
1244 4 0.0140538 0.293104 0.648003
1243 2 0.0338778 0.277967 0.649753
1245 4 0.0537018 0.262831 0.651502
946 2 0.150772 0.288684 0.650671
948 4 0.166175 0.293559 0.631587
796 2 0.248448 0.246256 0.661472
797 4 0.252375 0.265187 0.677327
804 4 0.279578 0.317824 0.592934
802 2 0.258871 0.331655 0.590679
1190 4 0.239591 0.36144 0.574705
895 2 0.170848 0.406509 0.592645
896 4 0.179318 0.389191 0.576722
803 4 0.238163 0.345486 0.588423
882 4 0.37605 0.356876 0.577912
929 4 0.365211 0.359586 0.644283
930 4 0.377953 0.350322 0.596822
928 2 0.371582 0.354954 0.620553
1101 4 0.404745 0.392659 0.670437
1002 4 0.471544 0.412702 0.58195
1206 4 0.466892 0.416186 0.601924
1099 2 0.423584 0.406562 0.661664
935 4 0.0255785 0.435741 0.575959
3264 4 0.0299116 0.438018 0.596693
1041 4 0.0443142 0.444613 0.582006
1039 2 0.0663686 0.439922 0.592813
3262 2 0.0121296 0.437811 0.61427
1040 4 0.088423 0.435232 0.603619
3240 4 0.0077266 0.485815 0.663742
897 4 0.162378 0.423826 0.608568
992 4 0.145303 0.423797 0.618957
993 4 0.105048 0.441276 0.594985
991 2 0.125175 0.432537 0.606971
1186 2 0.227735 0.492517 0.662156
1173 4 0.293693 0.491079 0.589747
1172 4 0.280836 0.474006 0.634956
1171 2 0.287265 0.482542 0.612351
891 4 0.275725 0.459198 0.648128
1204 2 0.464916 0.420909 0.626398
3183 4 0.456151 0.481141 0.613872
3181 2 0.474243 0.473833 0.598236
3182 4 0.492334 0.466525 0.582601
1205 4 0.46294 0.425631 0.650872
1100 4 0.442424 0.420465 0.652891
1269 4 0.453448 0.428707 0.669598
1183 2 0.0237067 0.054313 0.667145
1184 4 0.0168257 0.0304613 0.664157
4338 4 0.0155687 0.0166153 0.680368
4336 2 0.00564273 0.000970698 0.697158
824 4 0.225149 0.0275436 0.679237
823 2 0.211701 0.00711355 0.684428
2283 4 0.344332 0.033546 0.651815
2400 4 0.374705 0.0484781 0.746628
43 3 0.448891 0.0806882 0.725888
846 4 0.439301 0.0684879 0.740311
41 1 0.467036 0.0880594 0.713446
45 3 0.476897 0.0704464 0.702901
944 4 0.0471479 0.0916699 0.670671
1179 4 0.0143104 0.166896 0.698318
1076 4 0.0277791 0.0982703 0.67705
1075 2 0.0139447 0.107985 0.695473
1077 4 0.000110348 0.1177 0.713896
864 4 0.995707 0.107585 0.731591
1226 4 0.234899 0.131422 0.716036
1225 2 0.232472 0.122014 0.692997
1148 4 0.227354 0.124413 0.73465
1130 4 0.220277 0.143088 0.726452
1129 2 0.217447 0.162969 0.741348
1147 2 0.226411 0.103133 0.747743
829 2 0.374403 0.118892 0.671338
831 4 0.383735 0.109548 0.692569
1261 2 0.416501 0.169428 0.679377
44 3 0.460085 0.103752 0.697831
42 3 0.482259 0.0978996 0.727609
1142 4 0.462572 0.103555 0.677953
1141 2 0.450296 0.123833 0.669998
3426 4 0.49072 0.153312 0.728675
850 2 0.0603264 0.226129 0.675635
1177 2 0.033749 0.176295 0.685709
1178 4 0.0531875 0.185694 0.6731
851 4 0.0602373 0.202628 0.684171
1107 4 0.0732253 0.185465 0.681449
1105 2 0.0876366 0.181203 0.701432
1106 4 0.102048 0.176941 0.721415
1073 4 0.0954676 0.192681 0.731916
1072 2 0.109085 0.207617 0.746636
977 4 0.247624 0.229245 0.740847
1299 4 0.303649 0.192303 0.72944
1298 4 0.269082 0.226963 0.739667
1297 2 0.286365 0.209633 0.734553
1086 4 0.319863 0.201954 0.73677
1084 2 0.337121 0.184498 0.741525
1262 4 0.406202 0.177067 0.700843
1085 4 0.354379 0.167042 0.746281
3270 4 0.48584 0.166231 0.745544
1145 4 0.469754 0.217421 0.709628
1144 2 0.474499 0.194232 0.717684
1146 4 0.479244 0.171042 0.72574
1209 4 0.0726168 0.266707 0.660737
816 4 0.0553328 0.312047 0.744096
1208 4 0.120415 0.269559 0.675155
1207 2 0.0965162 0.268133 0.667946
820 2 0.131798 0.278762 0.714985
822 4 0.133255 0.277478 0.690056
947 4 0.13537 0.283809 0.669755
821 4 0.130341 0.280045 0.739913
1242 4 0.110178 0.285298 0.742315
1063 2 0.268014 0.331337 0.710157
1065 4 0.277331 0.325685 0.687653
1064 4 0.258697 0.336989 0.732661
1098 4 0.321993 0.323378 0.739793
3123 4 0.493084 0.265248 0.701419
892 2 0.0395022 0.390665 0.723996
893 4 0.0495036 0.368512 0.729863
815 4 0.0543693 0.361727 0.749726
942 4 0.0699543 0.367352 0.736497
814 2 0.0548511 0.336887 0.746911
894 4 0.0295008 0.412817 0.718128
940 2 0.0939303 0.372826 0.731984
941 4 0.117906 0.378301 0.727472
1067 4 0.121285 0.385908 0.709888
1066 2 0.14 0.372635 0.69995
1068 4 0.158715 0.359363 0.690013
1139 4 0.228693 0.398007 0.692618
1029 4 0.225279 0.379742 0.702254
1028 4 0.178028 0.365661 0.693901
1027 2 0.201653 0.372701 0.698078
1236 4 0.2603 0.346924 0.751627
1140 4 0.273626 0.408419 0.71194
1138 2 0.25116 0.403213 0.702279
806 4 0.271098 0.354662 0.735045
805 2 0.284114 0.375489 0.739735
807 4 0.29713 0.396317 0.744425
1250 4 0.472546 0.397691 0.748727
2172 4 0.0211957 0.486391 0.681387
1279 2 0.0178492 0.449569 0.692718
3276 4 0.0161656 0.425974 0.72968
1983 4 0.0379132 0.431558 0.725711
1280 4 0.0231464 0.431999 0.709701
1981 2 0.0506878 0.448555 0.738867
1281 4 0.012552 0.467139 0.675736
1188 4 0.226495 0.482083 0.684844
1176 4 0.185512 0.503164 0.732463
889 2 0.280138 0.474253 0.667597
890 4 0.284552 0.489309 0.687066
1988 4 0.291657 0.487718 0.70731
1987 2 0.315793 0.488071 0.71383
1989 4 0.339928 0.488424 0.720351
2169 4 0.467673 0.4853 0.68582
1268 4 0.471011 0.468513 0.69425
1267 2 0.462229 0.44861 0.681924
1196 4 0.0635052 0.0290239 0.823113
911 4 0.0768693 0.0448824 0.829181
1203 4 0.0834862 0.0298707 0.815091
1201 2 0.0911785 0.028572 0.791335
1202 4 0.0988709 0.0272732 0.76758
2049 4 0.104522 0.0081522 0.763546
910 2 0.0913812 0.0651513 0.831118
1050 4 0.327146 0.083674 0.825481
1049 4 0.323875 0.0547019 0.784853
1048 2 0.32551 0.069188 0.805167
2398 2 0.351824 0.0521796 0.756006
2399 4 0.328943 0.0558811 0.765384
1112 4 0.369986 0.0681939 0.79915