ITEM: TIMESTEP
2770000
ITEM: NUMBER OF ATOMS
4590
ITEM: BOX BOUNDS pp pp pp
-9.9985700000000008e+00 9.9985700000000008e+00
-9.9985700000000008e+00 9.9985700000000008e+00
-9.9985700000000008e+00 9.9985700000000008e+00
ITEM: ATOMS id type xs ys zs
1666 2 0.0673288 0.0580883 0.0206283
1667 4 0.0589737 0.081076 0.0258182
1668 4 0.0756838 0.0351005 0.0154383
532 2 0.149365 0.0411613 0.0188932
533 4 0.147259 0.0175432 0.0268262
534 4 0.151471 0.0647793 0.0109602
1475 4 0.209669 0.00814079 0.0559195
1474 2 0.188133 0.99553 0.0574501
490 2 0.282564 0.0653667 0.0232715
491 4 0.274161 0.0884146 0.0281059
653 4 0.263597 0.101949 0.0408626
492 4 0.290966 0.0423188 0.0184371
591 4 0.05184 0.0966019 0.0385502
702 4 0.0724996 0.0961574 0.0327098
589 2 0.0333389 0.113333 0.0368272
590 4 0.0148379 0.130064 0.0351042
3232 2 0.0150233 0.16038 0.00912609
3233 4 0.00687514 0.137925 0.0165127
423 4 0.149017 0.0844184 0.0178594
421 2 0.161598 0.106022 0.0174488
422 4 0.174179 0.127626 0.0170381
700 2 0.088746 0.106477 0.0486701
701 4 0.104992 0.116797 0.0646305
448 2 0.144099 0.107605 0.0852011
449 4 0.120513 0.109276 0.0770738
236 4 0.108802 0.126245 0.084293
235 2 0.096518 0.147328 0.0897491
652 2 0.24068 0.106373 0.0498316
654 4 0.217764 0.110798 0.0588005
1133 4 0.181842 0.177355 0.998699
359 4 0.287244 0.139533 0.988151
565 2 0.290183 0.122682 0.0219846
566 4 0.295634 0.140562 0.00537861
567 4 0.284732 0.104802 0.0385906
556 2 0.403487 0.155209 0.0415641
557 4 0.416177 0.142392 0.0588804
558 4 0.390797 0.168027 0.0242479
913 2 0.15009 0.245334 0.00710662
666 4 0.391741 0.178757 0.00558118
571 2 0.37841 0.209241 0.0345853
572 4 0.389214 0.189359 0.023948
573 4 0.367605 0.229123 0.0452226
623 4 0.426812 0.248863 0.101368
1071 4 0.368534 0.241597 0.0290769
324 4 0.424045 0.240822 0.0839606
322 2 0.440118 0.235607 0.0655314
771 4 0.46579 0.239242 0.0300421
518 4 0.478039 0.229889 0.045182
517 2 0.494771 0.220753 0.0613613
323 4 0.456192 0.230392 0.0471022
914 4 0.1586 0.260828 0.0247899
293 4 0.134283 0.337916 0.0418345
507 4 0.151473 0.325171 0.0406452
505 2 0.155922 0.300615 0.0391024
506 4 0.160371 0.276059 0.0375596
482 4 0.245505 0.325269 0.066409
481 2 0.233728 0.341013 0.0509627
252 4 0.258852 0.323076 0.0828631
1069 2 0.372752 0.26206 0.0153426
955 2 0.395615 0.313032 0.00851645
769 2 0.481813 0.242696 0.0111599
1056 4 0.0134609 0.336301 0.01539
1168 2 0.0298391 0.377667 0.0140843
1169 4 0.0350165 0.401708 0.00956663
292 2 0.116328 0.341907 0.0587716
288 4 0.154411 0.346523 0.0426195
286 2 0.178762 0.352198 0.0426189
287 4 0.203113 0.357872 0.0426184
483 4 0.22195 0.356758 0.0355164
607 2 0.286193 0.393542 0.0875539
608 4 0.283112 0.413377 0.072645
1047 4 0.375455 0.397101 0.993961
956 4 0.414924 0.324737 0.0192569
39 3 0.340446 0.405085 0.00927633
282 4 0.429296 0.332109 0.031997
280 2 0.443448 0.337252 0.0519578
281 4 0.457601 0.342394 0.0719187
671 4 0.477308 0.351824 0.0736414
551 4 0.0238012 0.418194 0.0174644
550 2 0.0223654 0.43425 0.036577
552 4 0.0209296 0.450307 0.0556897
315 4 0.0327171 0.454473 0.0729305
313 2 0.0554439 0.464282 0.076459
620 4 0.0118788 0.448339 0.0747928
314 4 0.0781708 0.474091 0.0799876
1787 4 0.0957274 0.486015 0.0803957
1786 2 0.111116 0.467286 0.0865275
1788 4 0.126505 0.448558 0.0926592
241 2 0.235726 0.479771 0.0510586
242 4 0.220041 0.476237 0.0319099
243 4 0.251411 0.483305 0.0702073
626 4 0.290822 0.429066 0.0632865
627 4 0.268998 0.472255 0.0759027
625 2 0.27991 0.45066 0.0695946
244 2 0.343527 0.453021 0.0295538
245 4 0.348618 0.450909 0.0539424
246 4 0.338437 0.455133 0.00516519
563 4 0.413339 0.491753 0.0107341
19 3 0.0100327 0.0857461 0.0892846
16 1 0.00688217 0.0730846 0.108472
2479 2 0.0106872 0.0162977 0.131432
18 3 0.00780487 0.0504858 0.10329
2481 4 0.0106502 0.0355904 0.115527
20 3 0.0228749 0.0781871 0.123862
296 4 0.452439 0.0268689 0.118651
297 4 0.439602 0.00288552 0.0766896
295 2 0.446021 0.0148772 0.0976701
237 4 0.0842339 0.168412 0.0952052
450 4 0.167686 0.105933 0.0933284
477 4 0.0827049 0.183547 0.0803776
475 2 0.0745787 0.202516 0.0944962
476 4 0.0664525 0.221484 0.108615
339 4 0.0830251 0.232964 0.102269
337 2 0.0953294 0.245273 0.120221
461 4 0.292552 0.214185 0.107707
354 4 0.27505 0.222012 0.108031
460 2 0.31377 0.203659 0.0996946
352 2 0.259383 0.239593 0.116435
462 4 0.334988 0.193134 0.0916826
254 4 0.389219 0.200747 0.103661
253 2 0.36829 0.199433 0.0900445
255 4 0.34736 0.198118 0.0764278
630 4 0.403969 0.21324 0.106616
629 4 0.447348 0.216401 0.131295
628 2 0.425658 0.214821 0.118956
338 4 0.107634 0.257582 0.138173
363 4 0.0968752 0.263349 0.15614
361 2 0.117249 0.277479 0.159373
736 2 0.213614 0.254813 0.142714
737 4 0.22545 0.268042 0.125105
353 4 0.243717 0.257174 0.124839
756 4 0.244353 0.30765 0.079746
755 4 0.243863 0.277876 0.11992
754 2 0.244108 0.292763 0.0998332
622 2 0.415663 0.271197 0.102807
624 4 0.404514 0.293531 0.104246
741 4 0.391407 0.294727 0.118108
739 2 0.379443 0.313264 0.106342
294 4 0.0983725 0.345898 0.0757086
456 4 0.101839 0.345639 0.0954481
454 2 0.0927765 0.344242 0.11871
455 4 0.0837142 0.342844 0.141971
537 4 0.0859287 0.360724 0.151641
535 2 0.0992853 0.375632 0.166626
250 2 0.272602 0.338684 0.0967376
251 4 0.286352 0.354292 0.110612
609 4 0.289274 0.373707 0.102463
387 4 0.306707 0.361273 0.10622
385 2 0.328024 0.350231 0.0992296
740 4 0.36748 0.331801 0.0945765
386 4 0.34934 0.339189 0.0922397
11 1 0.414366 0.357763 0.152388
13 3 0.398059 0.368207 0.139605
15 3 0.404602 0.345114 0.168615
494 4 0.461146 0.356213 0.0879149
14 3 0.427677 0.344402 0.138871
12 3 0.427541 0.373851 0.162224
495 4 0.426797 0.339315 0.120091
493 2 0.443971 0.347764 0.104003
670 2 0.497008 0.34307 0.0863083
595 2 0.468136 0.395842 0.157259
596 4 0.4883 0.409667 0.15202
597 4 0.447971 0.382016 0.162498
2652 4 0.503328 0.396783 0.147072
647 4 0.00455166 0.462713 0.161787
263 4 0.0133835 0.444346 0.157158
1440 4 0.251318 0.470335 0.0875707
1438 2 0.25605 0.486657 0.105911
637 2 0.274113 0.480085 0.15755
525 4 0.35113 0.453468 0.148238
523 2 0.357024 0.477529 0.151628
524 4 0.362919 0.501591 0.155018
659 4 0.342905 0.435415 0.14326
688 2 0.123105 0.0690271 0.241045
690 4 0.130116 0.0758299 0.218029
1700 4 0.173751 0.0387771 0.249206
1506 4 0.296035 0.0112052 0.229179
21 1 0.318853 0.053463 0.236974
23 3 0.296252 0.0491121 0.234031
25 3 0.330921 0.0433413 0.220525
1785 4 0.337373 0.0292189 0.16415
1783 2 0.340996 0.0284336 0.188877
1784 4 0.34462 0.0276482 0.213605
759 4 0.352671 0.0448635 0.224863
757 2 0.37602 0.0537794 0.225594
758 4 0.399368 0.0626952 0.226324
744 4 0.415825 0.0646609 0.240068
1749 4 0.481763 0.0254514 0.212288
1747 2 0.493329 0.0265189 0.234429
312 4 0.414863 0.0775731 0.222496
310 2 0.421492 0.0729968 0.198825
511 2 0.011621 0.127565 0.236222
512 4 0.998392 0.116757 0.217964
693 4 0.144594 0.0877117 0.208922
691 2 0.161539 0.106079 0.209746
692 4 0.178484 0.124447 0.21057
723 4 0.1945 0.136825 0.206305
721 2 0.185162 0.155745 0.219722
285 4 0.285689 0.168464 0.225538
707 4 0.398369 0.169986 0.232481
311 4 0.428122 0.0684205 0.175155
748 2 0.0463159 0.218575 0.196774
749 4 0.0440666 0.225518 0.172859
750 4 0.0485652 0.211633 0.220689
396 4 0.0451871 0.208538 0.241147
722 4 0.175825 0.174666 0.233138
344 4 0.254813 0.21117 0.251872
580 2 0.300005 0.172219 0.194088
582 4 0.289128 0.156143 0.20985
581 4 0.310882 0.188295 0.178327
30 3 0.328149 0.198087 0.178948
343 2 0.245661 0.233542 0.258267
283 2 0.269184 0.180159 0.240234
28 3 0.363331 0.200006 0.165675
27 3 0.351673 0.223771 0.192357
706 2 0.374943 0.172155 0.224016
708 4 0.351516 0.174324 0.21555
29 3 0.356804 0.187551 0.200983
26 1 0.349857 0.202253 0.184431
521 4 0.4609 0.26242 0.256851
420 4 0.444003 0.249711 0.25535
362 4 0.137623 0.291608 0.162606
372 4 0.156691 0.287664 0.170472
738 4 0.201777 0.241584 0.160323
370 2 0.172798 0.292186 0.189055
371 4 0.188904 0.296708 0.207637
279 4 0.200667 0.298479 0.225757
277 2 0.216345 0.28685 0.241382
612 4 0.1887 0.315126 0.218736
610 2 0.200896 0.335371 0.210577
278 4 0.232023 0.275221 0.257007
345 4 0.236508 0.255914 0.264662
763 2 0.392216 0.333085 0.229305
765 4 0.408472 0.318557 0.217064
542 4 0.422016 0.310063 0.228321
541 2 0.433153 0.289138 0.236278
543 4 0.44429 0.268214 0.244235
536 4 0.112642 0.39054 0.181611
300 4 0.145813 0.410786 0.246234
417 4 0.231781 0.358159 0.212311
611 4 0.213093 0.355616 0.202417
415 2 0.241088 0.37826 0.223907
416 4 0.250395 0.398362 0.235504
436 2 0.293338 0.412615 0.250453
301 2 0.342436 0.408446 0.222908
660 4 0.340985 0.416719 0.189601
302 4 0.35244 0.422205 0.204583
764 4 0.375959 0.347614 0.241546
644 4 0.417297 0.387058 0.220787
447 4 0.432744 0.392529 0.232461
643 2 0.428925 0.378368 0.200429
645 4 0.440553 0.369677 0.180071
262 2 0.0202298 0.444435 0.181206
1757 4 0.0328836 0.45833 0.219322
264 4 0.0270761 0.444523 0.205254
1756 2 0.034532 0.48052 0.230728
1758 4 0.0361805 0.50271 0.242133
1467 4 0.00990817 0.508144 0.160269
603 4 0.126025 0.417215 0.242661
601 2 0.121097 0.440961 0.248747
437 4 0.27251 0.426377 0.249053
1436 4 0.255812 0.418851 0.237917
291 4 0.26422 0.43779 0.233163
638 4 0.281142 0.473768 0.180699
289 2 0.272081 0.455997 0.217936
290 4 0.279942 0.474205 0.202708
767 4 0.297828 0.480037 0.192727
766 2 0.322353 0.475811 0.195136
658 2 0.341945 0.426067 0.166431
768 4 0.346879 0.471584 0.197545
1574 4 0.364379 0.471666 0.206419
1573 2 0.377412 0.46846 0.227515
1575 4 0.390445 0.465253 0.248611
673 2 0.0817268 0.07994 0.274636
1404 4 0.0999661 0.999212 0.282361
689 4 0.116094 0.0622242 0.264061
675 4 0.103904 0.0697058 0.279984
1403 4 0.10724 0.0484902 0.277947
1402 2 0.103603 0.0238511 0.280154
1699 2 0.185441 0.0390165 0.271307
248 4 0.201533 0.051225 0.310652
247 2 0.184534 0.0682442 0.317476
1701 4 0.197131 0.0392558 0.293408
605 4 0.207306 0.0306654 0.31026
604 2 0.222522 0.0108274 0.310558
22 3 0.325427 0.0451614 0.257395
24 3 0.322625 0.0763551 0.236617
1496 4 0.333471 0.0276703 0.252031
699 4 0.38313 0.0126544 0.300235
1495 2 0.349698 0.0206689 0.269718
697 2 0.387162 0.0287097 0.318974
349 2 0.39914 0.0812754 0.309887
351 4 0.392675 0.0615729 0.323858
742 2 0.413593 0.0822789 0.257669
480 4 0.49934 0.0127677 0.270533
513 4 0.0248502 0.138372 0.25448
531 4 0.00757265 0.133343 0.319719
579 4 0.0211677 0.157306 0.264272
530 4 0.0307867 0.14186 0.276253
529 2 0.0191797 0.137601 0.297986
674 4 0.0595494 0.0901742 0.269288
600 4 0.153347 0.157703 0.319274
545 4 0.15857 0.162013 0.298927
405 4 0.166263 0.144139 0.308721
403 2 0.163364 0.11931 0.308201
404 4 0.160465 0.0944801 0.307681
544 2 0.162151 0.164041 0.274264
249 4 0.167535 0.0852635 0.3243
333 4 0.393285 0.110323 0.280693
350 4 0.405606 0.100978 0.295916
743 4 0.411361 0.0998969 0.27527
331 2 0.405317 0.131989 0.28401
762 4 0.436575 0.158414 0.287957
332 4 0.417349 0.153655 0.287327
394 2 0.0397964 0.22664 0.257531
577 2 0.0416775 0.171495 0.262483
578 4 0.0621873 0.185684 0.260695
391 2 0.072367 0.200725 0.297396
393 4 0.0743541 0.192506 0.273866
2654 4 0.0637594 0.198272 0.33779
392 4 0.0703799 0.208945 0.320926
546 4 0.165731 0.166068 0.249601
275 4 0.16443 0.237356 0.337714
274 2 0.186114 0.226999 0.330808
474 4 0.220816 0.21425 0.338229
284 4 0.25268 0.191855 0.254931
613 2 0.396593 0.227286 0.320535
614 4 0.40666 0.213475 0.302284
761 4 0.42401 0.206669 0.291742
760 2 0.430292 0.182542 0.289849
419 4 0.420531 0.227685 0.29362
520 2 0.484398 0.254605 0.260305
418 2 0.432267 0.238698 0.274485
442 2 0.00766216 0.278423 0.267938
395 4 0.0344057 0.244742 0.273916
444 4 0.0262075 0.263105 0.274766
735 4 0.167309 0.331307 0.326832
309 4 0.236594 0.272241 0.278594
307 2 0.245371 0.287037 0.296739
308 4 0.254148 0.301833 0.314883
509 4 0.258836 0.295966 0.33536
497 4 0.270243 0.311277 0.325756
496 2 0.277328 0.334554 0.319998
298 2 0.146707 0.389405 0.259167
734 4 0.152609 0.353548 0.284524
299 4 0.147601 0.368025 0.2721
733 2 0.159959 0.342427 0.305678
438 4 0.314166 0.398852 0.251854
498 4 0.284414 0.357831 0.314239
729 4 0.332327 0.39716 0.26297
303 4 0.332432 0.394687 0.241232
727 2 0.350494 0.40289 0.279166
728 4 0.368661 0.408621 0.295361
751 2 0.406971 0.40118 0.310529
753 4 0.388849 0.402328 0.29334
445 2 0.434145 0.403366 0.25495
752 4 0.425093 0.400031 0.327717
561 4 0.443855 0.390693 0.329975
446 4 0.435546 0.414204 0.277439
713 4 0.452598 0.419496 0.286613
775 2 0.0633971 0.462602 0.333064
776 4 0.0788454 0.480175 0.324246
412 2 0.11007 0.475704 0.295969
602 4 0.116169 0.464706 0.254833
414 4 0.119919 0.472625 0.273194
413 4 0.100221 0.478783 0.318744
1545 4 0.0947878 0.487459 0.337349
1435 2 0.237883 0.425583 0.253993
1437 4 0.219955 0.432315 0.270069
435 4 0.328938 0.437897 0.327744
5 3 0.352 0.470467 0.28949
1803 4 0.383102 0.421485 0.285999
1802 4 0.398212 0.465986 0.26891
1801 2 0.390657 0.443736 0.277454
1689 4 0.409643 0.473421 0.252404
1 1 0.346304 0.473782 0.31129
3 3 0.365091 0.47966 0.323575
4 3 0.336848 0.454478 0.320026
2 3 0.330929 0.490842 0.312594
1687 2 0.42262 0.492102 0.262786
231 4 0.478127 0.488647 0.32318
229 2 0.461815 0.499573 0.307697
712 2 0.475238 0.429867 0.288851
714 4 0.497879 0.440239 0.291089
1376 4 0.00484581 0.0477126 0.380525
233 4 0.0134239 0.0560226 0.362611
318 4 0.0765729 0.0546303 0.373482
234 4 0.0632241 0.0521461 0.360239
232 2 0.038324 0.0540843 0.361425
316 2 0.0900631 0.0446756 0.392032
317 4 0.103553 0.0347209 0.410582
428 4 0.116825 0.019884 0.418698
633 4 0.331446 0.0155214 0.352369
632 4 0.302395 0.0561732 0.354417
631 2 0.316921 0.0358473 0.353393
682 2 0.287116 0.0639892 0.39366
683 4 0.301005 0.0642922 0.372872
684 4 0.273226 0.0636862 0.414449
724 2 0.340575 0.997454 0.387238
725 4 0.325517 0.00334451 0.368166
698 4 0.391194 0.0447651 0.337713
257 4 0.398851 0.0632031 0.345345
2643 4 0.503701 0.0629515 0.365589
256 2 0.417036 0.06154 0.362425
425 4 0.43092 0.0458332 0.396244
258 4 0.435221 0.0598769 0.379505
452 4 0.499357 0.0642226 0.385295
451 2 0.475189 0.0593389 0.38945
453 4 0.451022 0.0544553 0.393604
515 4 0.434597 0.0673613 0.399984
424 2 0.42454 0.0305292 0.414959
398 4 0.016216 0.131035 0.339053
397 2 0.0361715 0.117153 0.344906
399 4 0.056127 0.103271 0.350759
732 4 0.0670602 0.114603 0.363755
598 2 0.134182 0.158193 0.335325
730 2 0.0885227 0.127329 0.362144
599 4 0.115016 0.158682 0.351375
685 2 0.132054 0.152732 0.393994
686 4 0.123572 0.153586 0.370489
731 4 0.109985 0.140054 0.360534
1151 4 0.15743 0.142636 0.411562
687 4 0.140535 0.151878 0.4175
467 4 0.260851 0.148151 0.415949
575 4 0.403594 0.125465 0.426918
574 2 0.407742 0.142249 0.408855
516 4 0.414219 0.108504 0.4198
514 2 0.424408 0.0879329 0.409892
576 4 0.411889 0.159032 0.390791
305 4 0.433068 0.159096 0.386804
2653 2 0.0419059 0.206443 0.346781
2655 4 0.0200524 0.214613 0.355773
617 4 0.082478 0.242408 0.367698
388 2 0.122326 0.239771 0.35179
390 4 0.0973486 0.239009 0.352648
616 2 0.0833249 0.246519 0.392347
276 4 0.207798 0.216641 0.323901
472 2 0.24057 0.204415 0.349986
473 4 0.260324 0.194579 0.361743
409 2 0.302166 0.200627 0.378018
466 2 0.261867 0.164031 0.396662
468 4 0.262884 0.17991 0.377375
410 4 0.278126 0.195206 0.373787
411 4 0.326205 0.206049 0.38225
716 4 0.375479 0.240463 0.356037
715 2 0.371819 0.244894 0.380371
615 4 0.386527 0.241097 0.338786
717 4 0.368159 0.249324 0.404705
267 4 0.356767 0.234528 0.415761
488 4 0.352012 0.255292 0.418064
304 2 0.446261 0.17834 0.377815
269 4 0.465312 0.213218 0.357211
306 4 0.459454 0.197584 0.368826
268 2 0.451005 0.231283 0.366914
389 4 0.147303 0.240532 0.350932
401 4 0.166433 0.250007 0.355633
400 2 0.175272 0.265964 0.372733
375 4 0.192941 0.278464 0.408861
402 4 0.184112 0.281921 0.389833
373 2 0.216345 0.285758 0.403939
374 4 0.239749 0.293052 0.399016
510 4 0.258063 0.29001 0.385006
508 2 0.25845 0.292988 0.360183
378 4 0.257771 0.281264 0.405469
376 2 0.28068 0.285905 0.414347
377 4 0.303589 0.290546 0.423225
2924 4 0.426559 0.253796 0.392197
2923 2 0.421785 0.269113 0.411374
270 4 0.436698 0.249348 0.376617
548 4 0.015492 0.396273 0.352835
407 4 0.0152999 0.378805 0.359646
547 2 0.022747 0.418613 0.344264
677 4 0.181757 0.330505 0.34016
676 2 0.185474 0.348018 0.357614
678 4 0.189191 0.365531 0.375068
650 4 0.207649 0.373418 0.402302
649 2 0.228172 0.387414 0.40515
503 4 0.192266 0.384512 0.407164
667 2 0.409559 0.40516 0.392752
669 4 0.385737 0.402755 0.399957
559 2 0.446167 0.392123 0.35483
560 4 0.44848 0.393554 0.379686
668 4 0.433381 0.407565 0.385546
588 4 0.453933 0.409504 0.39266
777 4 0.0479488 0.44503 0.341881
549 4 0.030002 0.440953 0.335693
434 4 0.280164 0.447649 0.332917
433 2 0.304551 0.442773 0.33033
593 4 0.472163 0.503587 0.394825
3989 4 0.469291 0.500551 0.375928
586 2 0.472113 0.415748 0.408649
119 3 0.494617 0.443839 0.346552
3990 4 0.484535 0.461388 0.348825
3988 2 0.476913 0.48097 0.362376
2236 2 0.0275305 0.00272131 0.459784
1127 4 0.00706399 0.0367748 0.471222
2238 4 0.0209544 0.0268446 0.459785
1781 4 0.109551 0.0355819 0.431529
1780 2 0.125474 0.0424738 0.449533
1782 4 0.141396 0.0493657 0.467537
341 4 0.156848 0.0623547 0.476364
2430 4 0.149921 0.0437398 0.48657
340 2 0.170621 0.0814575 0.467965
2428 2 0.16789 0.0265975 0.489477
368 4 0.118336 0.0719565 0.441772
2429 4 0.185858 0.00945529 0.492383
430 2 0.323531 0.0244583 0.472795
1180 2 0.2731 0.0446482 0.449782
1181 4 0.277987 0.0249341 0.464364
1182 4 0.268213 0.0643623 0.435199
963 4 0.284925 0.0302675 0.484173
432 4 0.298955 0.0264724 0.468654
961 2 0.267334 0.0242284 0.500885
320 4 0.266659 0.0823472 0.422148
431 4 0.348107 0.0224442 0.476937
841 2 0.38752 0.0208971 0.463391
842 4 0.408578 0.0128718 0.452558
843 4 0.366463 0.0289225 0.474223
426 4 0.41816 0.0152252 0.433674
1217 4 0.429806 0.0170015 0.452098
1216 2 0.44772 0.0138343 0.46925
1218 4 0.465635 0.0106671 0.486403
457 2 0.00991743 0.12786 0.466237
719 4 0.034926 0.113685 0.487855
459 4 0.0327378 0.129592 0.476307
367 2 0.116856 0.0968748 0.443209
369 4 0.115375 0.121793 0.444647
939 4 0.11224 0.125969 0.463517
937 2 0.125165 0.147365 0.462912
938 4 0.138089 0.168761 0.462308
342 4 0.184395 0.10056 0.459565
1152 4 0.174433 0.111165 0.446508
1150 2 0.165932 0.126901 0.429035
321 4 0.260638 0.131369 0.429978
319 2 0.263649 0.106858 0.426063
899 4 0.27534 0.147343 0.43145
898 2 0.289503 0.154036 0.450938
900 4 0.303665 0.160729 0.470427
1034 4 0.151817 0.176899 0.475225
261 4 0.108697 0.223959 0.474107
1035 4 0.130106 0.22185 0.472254
1033 2 0.140962 0.199375 0.473739
695 4 0.121879 0.228995 0.490544
259 2 0.0994793 0.238163 0.455709
813 4 0.374907 0.208164 0.470558
266 4 0.369009 0.202482 0.452146
265 2 0.362888 0.218505 0.433954
811 2 0.377054 0.220198 0.49237
2814 4 0.997228 0.308266 0.41825
2847 4 0.0202372 0.284503 0.477095
2801 4 0.0129718 0.295943 0.426087
2802 4 0.0280451 0.26997 0.466074
2800 2 0.0205085 0.282957 0.44608
618 4 0.0841717 0.25063 0.416996
260 4 0.0902621 0.252366 0.437312
347 4 0.0933089 0.269215 0.423853
346 2 0.113328 0.283097 0.429485
348 4 0.133347 0.296978 0.435117
10 3 0.150318 0.295865 0.44731
9 3 0.140101 0.303749 0.482681
6 1 0.147491 0.312568 0.462531
8 3 0.167509 0.323866 0.465696
489 4 0.323257 0.294609 0.429379
487 2 0.337635 0.274951 0.423722
238 2 0.400225 0.324426 0.441854
239 4 0.412033 0.302659 0.438397
2925 4 0.41701 0.28443 0.430551
2456 4 0.481787 0.309432 0.478141
584 4 0.466417 0.314503 0.46646
583 2 0.447093 0.306369 0.480084
504 4 0.155932 0.390485 0.441
7 3 0.131747 0.327388 0.45468
711 4 0.11827 0.342525 0.452383
709 2 0.127492 0.3654 0.448274
710 4 0.136713 0.388275 0.444165
502 2 0.174099 0.387499 0.424082
651 4 0.248695 0.401409 0.407997
240 4 0.388417 0.346193 0.445311
335 4 0.371606 0.354227 0.437398
334 2 0.371068 0.375663 0.424538
336 4 0.370529 0.397099 0.411678
926 4 0.494852 0.410705 0.499063
679 2 0.0547691 0.422086 0.488594
382 2 0.078303 0.475058 0.475184
539 4 0.037317 0.457716 0.478001
538 2 0.0131347 0.463943 0.476728
681 4 0.0548768 0.44534 0.479407
383 4 0.0563662 0.4663 0.483384
384 4 0.10024 0.483817 0.466983
569 4 0.0987803 0.504059 0.467395
636 4 0.173208 0.499901 0.488424
635 4 0.196421 0.473256 0.453042
634 2 0.184814 0.486578 0.470733
774 4 0.213543 0.474305 0.464063
773 4 0.254838 0.46504 0.437424
772 2 0.23419 0.469673 0.450743
663 4 0.483725 0.439235 0.435876
662 4 0.460305 0.474522 0.462466
587 4 0.490294 0.421993 0.424638
1909 2 0.454103 0.492313 0.492403
661 2 0.472015 0.456879 0.449171
1910 4 0.444548 0.484949 0.470502
1284 4 0.184268 0.0723239 0.571215
1031 4 0.235543 0.0485337 0.596299
1282 2 0.200625 0.0560956 0.580924
962 4 0.249744 0.0181893 0.517597
1283 4 0.216982 0.0398673 0.590633
1091 4 0.36426 0.00859034 0.573493
2196 4 0.379777 0.995195 0.574199
720 4 0.0590887 0.114398 0.531632
718 2 0.0470074 0.114042 0.509743
1059 4 0.17549 0.0914749 0.571647
810 4 0.468274 0.0856413 0.575094
327 4 0.0791986 0.238416 0.539791
877 2 0.106142 0.210998 0.566371
878 4 0.0902645 0.226224 0.554487
696 4 0.100236 0.233076 0.535439
694 2 0.111058 0.231035 0.512992
879 4 0.122019 0.195771 0.578256
1272 4 0.137427 0.208913 0.578545
856 2 0.217854 0.212368 0.546696
858 4 0.240396 0.214089 0.536015
857 4 0.195312 0.210648 0.557378
953 4 0.388834 0.23216 0.533812
812 4 0.379201 0.232232 0.514182
791 4 0.37045 0.242833 0.53147
790 2 0.359144 0.249224 0.552836
952 2 0.403565 0.214395 0.543436
954 4 0.418296 0.196631 0.553059
905 4 0.430794 0.204329 0.566364
904 2 0.444647 0.186228 0.576642
982 2 0.0329831 0.294701 0.552752
984 4 0.056258 0.296504 0.561708
326 4 0.074117 0.285779 0.555009
1136 4 0.0744852 0.307065 0.558157
325 2 0.0766578 0.262097 0.5474
983 4 0.00970829 0.292898 0.543796
2846 4 0.00974858 0.280509 0.525826
2845 2 0.0149929 0.282506 0.501461
1135 2 0.087284 0.322148 0.57345
1260 4 0.158428 0.260515 0.519943
1259 4 0.135118 0.301287 0.502767
1258 2 0.146773 0.280901 0.511355
804 4 0.317717 0.335369 0.580123
1237 2 0.33316 0.29627 0.577088
1238 4 0.347649 0.276112 0.574108
873 4 0.388156 0.250456 0.522481
792 4 0.347838 0.255614 0.574202
871 2 0.404554 0.267507 0.514382
929 4 0.360085 0.326865 0.573357
872 4 0.420952 0.284557 0.506284
585 4 0.427769 0.298236 0.493708
2455 2 0.50186 0.310258 0.493027
936 4 0.0203453 0.405282 0.527199
3353 4 0.00168673 0.403207 0.532252
934 2 0.0300058 0.412895 0.548968
680 4 0.0546615 0.398831 0.497781
802 2 0.295177 0.336867 0.590842
803 4 0.272637 0.338364 0.60156
880 2 0.349205 0.412176 0.567964
928 2 0.362023 0.351792 0.573656
925 2 0.480873 0.411377 0.519783
927 4 0.466894 0.412049 0.540503
1001 4 0.476251 0.409999 0.558488
1000 2 0.481783 0.422258 0.579566
3430 2 0.0386911 0.467022 0.567781
3431 4 0.0372657 0.491984 0.56752
935 4 0.0396664 0.420508 0.570737
3432 4 0.0401166 0.442061 0.568041
1041 4 0.0580507 0.430936 0.5733
3264 4 0.0424352 0.43327 0.587902
1039 2 0.0829843 0.431063 0.575165
4434 4 0.0186902 0.502922 0.566787
1159 2 0.11551 0.434713 0.533439
1161 4 0.11084 0.425877 0.556358
1160 4 0.120181 0.443549 0.510519
1040 4 0.107918 0.43119 0.57703
993 4 0.123276 0.41724 0.571916
1455 4 0.353337 0.495756 0.534419
1454 4 0.35837 0.449823 0.553539
1453 2 0.355854 0.472789 0.543979
881 4 0.34589 0.43321 0.554858
1183 2 0.0210198 0.0496227 0.664824
1184 4 0.013952 0.0258595 0.661578
1892 4 0.0234349 0.00973287 0.650996
1185 4 0.0280876 0.0733858 0.66807
2131 2 0.213232 0.0226724 0.626163
2132 4 0.222711 0.0403087 0.611186
2133 4 0.203754 0.00503598 0.641139
1030 2 0.25871 0.0391296 0.59605
1032 4 0.281876 0.0297255 0.595802
1090 2 0.351264 0.00572876 0.594661
1060 2 0.475543 0.0341674 0.588397
1061 4 0.49079 0.0145393 0.591126
1062 4 0.460297 0.0537954 0.585668
944 4 0.03797 0.0931049 0.670246
1081 2 0.00952814 0.113444 0.657128
943 2 0.0620638 0.0877232 0.666283
1082 4 0.0170912 0.0915362 0.66651
945 4 0.0861575 0.0823415 0.66232
1057 2 0.174387 0.104603 0.592898
1058 4 0.173284 0.11773 0.61415
1155 4 0.176845 0.138666 0.618331
1153 2 0.179576 0.163396 0.620815
909 4 0.180095 0.123775 0.63336
907 2 0.194442 0.1232 0.65383
888 4 0.315209 0.182785 0.621679
830 4 0.36908 0.14629 0.637688
829 2 0.372801 0.123258 0.64668
831 4 0.376521 0.100226 0.655673
886 2 0.336992 0.173829 0.630074
887 4 0.358775 0.164872 0.638468
808 2 0.492469 0.0869755 0.581257
1026 4 0.475524 0.141595 0.634365
1024 2 0.473798 0.159195 0.616689
1143 4 0.465719 0.123199 0.640867
1263 4 0.46227 0.141811 0.651118
1141 2 0.468689 0.105004 0.657757
1261 2 0.451298 0.159087 0.665482
1209 4 0.0715657 0.232274 0.655416
1245 4 0.0534098 0.240397 0.64805
852 4 0.0544318 0.219329 0.652092
1270 2 0.156035 0.20656 0.595079
1154 4 0.182307 0.188125 0.623299
1271 4 0.174644 0.204207 0.611613
1221 4 0.193665 0.206988 0.620656
1219 2 0.218408 0.209718 0.618314
1220 4 0.243151 0.212449 0.615972
798 4 0.258283 0.227559 0.617313
796 2 0.260272 0.242673 0.597494
1212 4 0.263934 0.206651 0.618071
1211 4 0.298591 0.170876 0.622511
1210 2 0.281262 0.188764 0.620291
1194 4 0.380193 0.164212 0.634032
1192 2 0.396472 0.183159 0.635119
1193 4 0.412752 0.202106 0.636207
1025 4 0.472071 0.176795 0.599013
906 4 0.4585 0.168127 0.586919
1243 2 0.0340999 0.255903 0.644605
1244 4 0.0147899 0.271409 0.64116
1207 2 0.0869087 0.251296 0.6607
948 4 0.166888 0.28855 0.646397
946 2 0.14337 0.285439 0.654297
1208 4 0.102252 0.270319 0.665984
1239 4 0.31867 0.316428 0.580068
797 4 0.26226 0.257787 0.577675
3112 2 0.472609 0.306588 0.616315
3114 4 0.461882 0.289418 0.630989
1137 4 0.100083 0.337232 0.588743
897 4 0.167684 0.400699 0.593458
992 4 0.154658 0.402149 0.607807
991 2 0.138967 0.409694 0.589862
1191 4 0.221949 0.371267 0.618554
896 4 0.207594 0.373236 0.605856
895 2 0.187639 0.386967 0.599657
1189 2 0.245446 0.36363 0.614717
1190 4 0.268943 0.355992 0.610879
882 4 0.352521 0.391142 0.58107
930 4 0.36396 0.376718 0.573956
3239 4 0.0221666 0.450982 0.6378
3262 2 0.0346248 0.43144 0.611583
3238 2 0.0319099 0.462787 0.657571
3263 4 0.0268144 0.42961 0.635265
3494 4 0.00567011 0.437471 0.632632
2154 4 0.297816 0.497513 0.601867
1173 4 0.29812 0.479608 0.613471
1172 4 0.303502 0.454916 0.656622
1171 2 0.300811 0.467262 0.635046
2435 4 0.279619 0.490183 0.610013
2434 2 0.255369 0.496259 0.609577
3183 4 0.45284 0.490612 0.587392
1002 4 0.487314 0.434517 0.600645
1206 4 0.477047 0.439833 0.618786
1204 2 0.470702 0.440242 0.642967
1205 4 0.464356 0.44065 0.667149
3182 4 0.484178 0.456007 0.605312
3181 2 0.468509 0.47331 0.596352
3440 4 0.497944 0.444032 0.616698
1202 4 0.117481 0.0151856 0.749157
2400 4 0.336277 0.0571233 0.739213
2398 2 0.354475 0.0677741 0.75265
43 3 0.461167 0.063888 0.715627
846 4 0.459844 0.0584725 0.734938
41 1 0.476673 0.0798484 0.709052
45 3 0.495037 0.0788356 0.722483
44 3 0.482815 0.0762967 0.68696
1142 4 0.471659 0.0868082 0.674647
1077 4 0.0203259 0.094214 0.734757
1075 2 0.0225716 0.089873 0.710236
864 4 0.0185777 0.10674 0.750459
1076 4 0.0248174 0.0855319 0.685714
908 4 0.208789 0.122625 0.6743
1227 4 0.206005 0.130433 0.692505
1226 4 0.221612 0.111166 0.735933
1225 2 0.213809 0.1208 0.714219
42 3 0.46711 0.100692 0.710853
3270 4 0.479984 0.179493 0.738126
850 2 0.05008 0.200462 0.667912
1177 2 0.0104094 0.166855 0.695145
1178 4 0.0343395 0.172607 0.699553
851 4 0.0457282 0.181596 0.683732
1107 4 0.055146 0.167193 0.696491
1105 2 0.0747958 0.168115 0.711925
1106 4 0.0944456 0.169037 0.72736
1073 4 0.114867 0.175254 0.726344
1072 2 0.126654 0.175144 0.748395
1086 4 0.308319 0.238281 0.745408
1299 4 0.29249 0.226665 0.746063
1262 4 0.440326 0.176363 0.679846
3426 4 0.485629 0.169742 0.719655
1146 4 0.474595 0.18805 0.7185
3123 4 0.489132 0.231383 0.655574
816 4 0.0102729 0.332756 0.72023
1242 4 0.109959 0.287654 0.741702
821 4 0.096673 0.293729 0.727177
947 4 0.119853 0.282328 0.662198
820 2 0.102076 0.29055 0.702972
822 4 0.107478 0.28737 0.678767
1098 4 0.350871 0.273532 0.717891
1096 2 0.339199 0.282538 0.738086
892 2 0.0596565 0.393882 0.731794
893 4 0.0657891 0.373841 0.718159
815 4 0.0541788 0.356233 0.715557
814 2 0.0322258 0.344495 0.717893
942 4 0.0713784 0.360176 0.702621
1067 4 0.130538 0.353457 0.677905
940 2 0.0956051 0.361729 0.696635
941 4 0.119832 0.363282 0.690649
1066 2 0.15479 0.357611 0.673459
1027 2 0.202732 0.384595 0.665807
1029 4 0.216229 0.4019 0.677789
1139 4 0.227203 0.418967 0.681796
1028 4 0.189235 0.367291 0.653826
1068 4 0.179042 0.361765 0.669013
1234 2 0.238248 0.3478 0.755392
1065 4 0.248318 0.349439 0.678683
1063 2 0.256266 0.352231 0.702225
1064 4 0.264214 0.355024 0.725767
806 4 0.276067 0.36806 0.737633
805 2 0.294943 0.376161 0.751889
1236 4 0.256118 0.361598 0.744647
807 4 0.31382 0.384262 0.766145
1101 4 0.437832 0.38145 0.69177
1099 2 0.445195 0.404526 0.685567
3240 4 0.0416532 0.474592 0.677342
894 4 0.0535239 0.413924 0.745428
2172 4 0.0505662 0.481648 0.695471
1279 2 0.0506362 0.444302 0.710648
3276 4 0.0364599 0.426687 0.743372
1983 4 0.0551209 0.434777 0.750032
1280 4 0.052593 0.427959 0.729469
1281 4 0.0486795 0.460645 0.691826
3274 2 0.0125066 0.431759 0.748442
1140 4 0.215418 0.467009 0.689129
1138 2 0.221311 0.442988 0.685463
1176 4 0.183172 0.491841 0.714143
1174 2 0.189441 0.493329 0.689984
891 4 0.300076 0.462448 0.675569
889 2 0.298616 0.483907 0.688319
2169 4 0.486116 0.49127 0.681998
1269 4 0.453471 0.448668 0.683814
1100 4 0.452557 0.427602 0.679364
1268 4 0.474496 0.491571 0.69858
1267 2 0.463984 0.47012 0.691197
1195 2 0.0767973 0.00571183 0.815897
1196 4 0.0796584 0.0192265 0.795056
1203 4 0.0785237 0.0302792 0.776638
911 4 0.072193 0.0397201 0.794817
1201 2 0.0980024 0.0227324 0.762897
910 2 0.0852634 0.0585678 0.804772
1149 4 0.18951 0.0712897 0.772413
1049 4 0.363943 0.0710136 0.785064
1111 2 0.405041 0.0559364 0.781433
844 2 0.452052 0.045999 0.755159
1113 4 0.424603 0.0403717 0.780935
845 4 0.44426 0.0335256 0.77538
980 4 0.434996 0.0268982 0.793608
979 2 0.432059 0.0163513 0.816087
981 4 0.429121 0.00580429 0.838567
862 2 0.00497141 0.116741 0.768898
1214 4 0.0909634 0.135647 0.793094
1213 2 0.0785118 0.146696 0.774438
33 3 0.0817593 0.12395 0.806662
31 1 0.0845908 0.111764 0.826204
1215 4 0.0660603 0.157745 0.755782
153 3 0.0779989 0.16893 0.83399
32 3 0.102547 0.0976212 0.823613
912 4 0.0983337 0.0774155 0.814727