ITEM: TIMESTEP
1230000
ITEM: NUMBER OF ATOMS
4590
ITEM: BOX BOUNDS pp pp pp
-9.9985700000000008e+00 9.9985700000000008e+00
-9.9985700000000008e+00 9.9985700000000008e+00
-9.9985700000000008e+00 9.9985700000000008e+00
ITEM: ATOMS id type xs ys zs
1668 4 0.0587557 0.0376654 0.0486031
1666 2 0.0772882 0.0544493 0.0484368
1667 4 0.0958206 0.0712332 0.0482705
1474 2 0.211372 0.00147388 0.0604712
1475 4 0.212065 0.0218772 0.046035
490 2 0.30199 0.0345956 0.0244545
491 4 0.307506 0.0459366 0.0460445
653 4 0.311884 0.0484245 0.0665429
652 2 0.321041 0.0470757 0.0897702
492 4 0.296473 0.0232546 0.00286445
987 4 0.416214 0.0440924 0.00212523
297 4 0.38115 0.0509326 0.0660612
2162 4 0.374621 0.0106826 0.0357274
295 2 0.403098 0.0436338 0.0755587
2974 2 0.493417 0.0609331 0.00342537
589 2 0.0395941 0.109859 0.0234978
590 4 0.021622 0.103397 0.00736023
591 4 0.0575662 0.116322 0.0396353
3233 4 0.0033379 0.110573 0.999239
1248 4 0.0028137 0.0948602 0.0137671
702 4 0.098177 0.0859593 0.0614783
422 4 0.1415 0.101999 0.0208648
700 2 0.113598 0.101506 0.0735476
421 2 0.15089 0.0887293 0.00186714
566 4 0.251122 0.143644 0.0381824
359 4 0.240492 0.160933 0.0382805
565 2 0.257713 0.140149 0.0620471
557 4 0.361775 0.15661 0.0289546
556 2 0.381866 0.160664 0.0432758
558 4 0.401957 0.164718 0.057597
746 4 0.43959 0.118849 0.0113688
745 2 0.453355 0.0996161 0.00325802
477 4 0.068356 0.176352 0.069901
913 2 0.142442 0.194048 0.00510734
837 4 0.109278 0.187087 0.993024
915 4 0.117876 0.194376 0.00975656
914 4 0.167007 0.19372 0.000458111
358 2 0.234968 0.169197 0.0153375
666 4 0.348279 0.193802 0.994587
572 4 0.332496 0.206731 0.997613
571 2 0.347138 0.225464 0.00534983
573 4 0.36178 0.244197 0.0130866
771 4 0.475329 0.228294 0.0591506
769 2 0.458732 0.222833 0.0412646
323 4 0.460436 0.239419 0.0707664
770 4 0.442136 0.217371 0.0233785
1054 2 0.997972 0.323233 0.00362049
292 2 0.135927 0.302684 0.0507991
293 4 0.140355 0.305132 0.0263128
294 4 0.131499 0.300236 0.0752854
288 4 0.155775 0.322024 0.0256814
507 4 0.162092 0.300385 0.0247956
505 2 0.179408 0.284736 0.0158273
506 4 0.196724 0.269086 0.00685897
357 4 0.226828 0.271133 0.99344
1069 2 0.362334 0.286076 0.00932917
1071 4 0.361997 0.263208 0.0194344
518 4 0.48004 0.248537 0.0660916
481 2 0.214265 0.338899 0.0686112
483 4 0.201277 0.342796 0.0476038
287 4 0.191859 0.35518 0.0356475
286 2 0.173817 0.338602 0.0306645
280 2 0.471329 0.363503 0.0569726
282 4 0.479844 0.358589 0.0339826
281 4 0.462815 0.368416 0.0799625
671 4 0.472677 0.352598 0.0866288
315 4 0.0628318 0.447996 0.0785742
552 4 0.0600854 0.429866 0.0669177
550 2 0.0668922 0.440115 0.0451506
551 4 0.073699 0.450364 0.0233836
1788 4 0.0971903 0.489732 0.084268
625 2 0.231169 0.445706 0.0582366
627 4 0.22542 0.464187 0.0424072
626 4 0.236917 0.427224 0.074066
245 4 0.330872 0.447781 0.0562189
244 2 0.32387 0.46503 0.0395267
246 4 0.316867 0.482278 0.0228345
608 4 0.25494 0.428734 0.0819092
272 4 0.301936 0.493049 0.0158433
2388 4 0.417958 0.497388 0.996777
563 4 0.438464 0.500146 0.995604
18 3 0.0236255 0.0780409 0.143948
17 3 0.0394039 0.0576428 0.116606
2481 4 0.0111674 0.0656109 0.152755
16 1 0.0413836 0.0768825 0.129058
2479 2 0.00310958 0.0456769 0.165518
1415 4 0.0759324 0.0132985 0.127105
19 3 0.0614492 0.0762553 0.140694
450 4 0.165427 0.0673013 0.117575
654 4 0.330199 0.045727 0.112997
296 4 0.425046 0.0363349 0.0850562
20 3 0.041036 0.0948995 0.115133
475 2 0.0759146 0.158506 0.0856988
448 2 0.152175 0.0870541 0.109868
701 4 0.129019 0.117053 0.0856169
236 4 0.144085 0.12712 0.0974424
449 4 0.138924 0.106807 0.102162
235 2 0.151366 0.150023 0.104343
237 4 0.158647 0.172926 0.111243
476 4 0.0834731 0.14066 0.101497
567 4 0.264304 0.136655 0.0859117
254 4 0.400586 0.17696 0.136729
253 2 0.377346 0.169633 0.13113
255 4 0.354105 0.162307 0.12553
630 4 0.411402 0.172362 0.119809
339 4 0.0627651 0.217002 0.129044
337 2 0.0863068 0.220561 0.13668
338 4 0.109848 0.224119 0.144316
363 4 0.10941 0.242998 0.150768
738 4 0.212842 0.227991 0.126767
736 2 0.23168 0.244179 0.129646
461 4 0.301468 0.208856 0.120725
354 4 0.307152 0.228954 0.123114
460 2 0.319995 0.192066 0.120992
352 2 0.288186 0.245244 0.122796
462 4 0.338521 0.175277 0.121259
322 2 0.44725 0.243388 0.0916364
628 2 0.433956 0.180996 0.126286
629 4 0.45651 0.189631 0.132762
324 4 0.434065 0.247358 0.112506
454 2 0.12897 0.314574 0.10422
456 4 0.145364 0.308472 0.0863548
535 2 0.124963 0.320639 0.161308
482 4 0.227253 0.335001 0.0896185
737 4 0.250517 0.260367 0.132525
756 4 0.23636 0.317034 0.0968067
754 2 0.24629 0.297751 0.109246
755 4 0.256221 0.278468 0.121686
353 4 0.26922 0.261535 0.122477
741 4 0.379637 0.307697 0.101513
622 2 0.409254 0.277127 0.112731
624 4 0.392799 0.292226 0.101487
739 2 0.362585 0.325916 0.0999485
527 4 0.492301 0.254187 0.126004
623 4 0.425708 0.262027 0.123975
526 2 0.487708 0.278664 0.123773
528 4 0.483116 0.30314 0.121542
672 4 0.488587 0.322413 0.123186
670 2 0.480632 0.337505 0.104907
619 2 0.0114677 0.375885 0.131029
620 4 0.00554025 0.389171 0.151364
648 4 0.0169358 0.40386 0.158345
621 4 0.0173951 0.362599 0.110693
455 4 0.112576 0.320676 0.122086
537 4 0.123407 0.327541 0.137327
252 4 0.24736 0.335836 0.0979626
417 4 0.199287 0.360608 0.171552
607 2 0.270935 0.411796 0.0909895
251 4 0.279988 0.373619 0.100891
250 2 0.263674 0.354727 0.0994268
609 4 0.28693 0.394858 0.10007
387 4 0.296508 0.380737 0.113257
385 2 0.319015 0.372792 0.105808
386 4 0.341522 0.364847 0.0983581
740 4 0.345532 0.344135 0.0983839
495 4 0.414089 0.3781 0.121547
493 2 0.406794 0.393966 0.103652
14 3 0.418309 0.383856 0.139587
13 3 0.415284 0.354968 0.164097
15 3 0.440172 0.353426 0.135886
11 1 0.429886 0.367187 0.150836
595 2 0.46341 0.4117 0.149076
12 3 0.445765 0.376957 0.16431
2652 4 0.488697 0.408846 0.131104
314 4 0.0418085 0.437194 0.122643
313 2 0.0523201 0.442595 0.100609
1438 2 0.242762 0.48727 0.0952015
637 2 0.251595 0.466353 0.14996
1439 4 0.245611 0.470042 0.113097
639 4 0.257472 0.476074 0.127686
494 4 0.399498 0.409831 0.0857576
659 4 0.36057 0.463382 0.162712
525 4 0.368634 0.481364 0.159137
523 2 0.354151 0.490489 0.140911
596 4 0.477471 0.424982 0.133232
2480 4 0.995052 0.0257429 0.178281
1422 4 0.00348641 0.0095103 0.189098
673 2 0.0969549 0.0592923 0.23341
675 4 0.109079 0.0378551 0.237727
1403 4 0.121747 0.0196963 0.239215
1402 2 0.116466 0.995266 0.239877
689 4 0.130053 0.039392 0.245424
688 2 0.152785 0.0496574 0.247176
674 4 0.0848311 0.0807296 0.229093
690 4 0.175517 0.0599229 0.248928
23 3 0.338278 0.022497 0.222305
21 1 0.357249 0.0335821 0.229764
25 3 0.370946 0.0382406 0.212177
759 4 0.389128 0.0493887 0.217879
1784 4 0.384864 0.0468621 0.195848
1783 2 0.388575 0.0250415 0.184218
22 3 0.368388 0.020056 0.244668
24 3 0.351222 0.0532349 0.240527
757 2 0.404004 0.0681695 0.225032
1496 4 0.361339 0.00312337 0.248845
1785 4 0.392287 0.00322081 0.172588
511 2 0.0160284 0.118735 0.23394
512 4 0.00493439 0.11203 0.21256
722 4 0.119689 0.152376 0.237737
721 2 0.138485 0.139111 0.227941
723 4 0.15728 0.125847 0.218144
692 4 0.173003 0.124288 0.22891
693 4 0.182153 0.0796043 0.249412
691 2 0.177578 0.101946 0.239161
285 4 0.270772 0.170237 0.198786
582 4 0.2786 0.152299 0.202632
580 2 0.270387 0.133174 0.188778
581 4 0.262175 0.114048 0.174923
30 3 0.311195 0.138054 0.221977
27 3 0.312622 0.157788 0.190332
26 1 0.323309 0.15333 0.210208
758 4 0.41888 0.0869503 0.232185
28 3 0.344425 0.144866 0.205637
744 4 0.437309 0.0863936 0.242919
312 4 0.437543 0.0817819 0.222124
311 4 0.463784 0.0930553 0.181075
310 2 0.450664 0.0874186 0.2016
394 2 0.0237482 0.256269 0.225534
395 4 0.00952638 0.253622 0.20514
344 4 0.25701 0.209985 0.231147
343 2 0.252885 0.233734 0.237793
29 3 0.325126 0.173031 0.222331
284 4 0.260545 0.193035 0.242103
283 2 0.265658 0.181636 0.220444
764 4 0.374942 0.249188 0.222595
708 4 0.335533 0.179509 0.238737
361 2 0.117837 0.254611 0.171245
372 4 0.143454 0.276209 0.195026
362 4 0.126265 0.266224 0.191722
370 2 0.165573 0.280375 0.205914
536 4 0.126519 0.313737 0.18529
371 4 0.187693 0.284541 0.216801
279 4 0.201809 0.300624 0.212245
277 2 0.219354 0.285518 0.221687
612 4 0.206417 0.321393 0.206501
278 4 0.2369 0.270412 0.231129
610 2 0.222666 0.33632 0.194739
345 4 0.248759 0.257482 0.244439
307 2 0.272007 0.29593 0.239465
309 4 0.256943 0.276037 0.237884
308 4 0.287072 0.315823 0.241046
763 2 0.373842 0.255161 0.24685
646 2 0.0366065 0.413684 0.170251
300 4 0.123963 0.39376 0.216496
298 2 0.137141 0.376489 0.228875
299 4 0.150319 0.359218 0.241253
415 2 0.205729 0.384633 0.174093
611 4 0.238915 0.351247 0.182977
416 4 0.212172 0.408659 0.176633
291 4 0.207966 0.422782 0.189429
303 4 0.302692 0.389077 0.218
729 4 0.306199 0.397214 0.236659
301 2 0.313994 0.404494 0.201884
597 4 0.449348 0.398418 0.164921
645 4 0.439697 0.389082 0.182292
643 2 0.434443 0.380932 0.205339
644 4 0.429189 0.372782 0.228386
447 4 0.446892 0.366502 0.236222
263 4 0.0707315 0.434544 0.189962
647 4 0.0562771 0.423508 0.182156
262 2 0.0632889 0.457454 0.196662
1757 4 0.0386197 0.48281 0.21264
264 4 0.0558462 0.480365 0.203363
290 4 0.254407 0.438365 0.179372
289 2 0.231186 0.430574 0.1844
638 4 0.245719 0.456632 0.172234
302 4 0.325297 0.419912 0.185768
767 4 0.261848 0.457025 0.186791
768 4 0.309406 0.464212 0.200477
766 2 0.285627 0.460619 0.193634
1574 4 0.323425 0.476853 0.203592
660 4 0.344528 0.421575 0.184972
658 2 0.352549 0.442478 0.173842
1573 2 0.336768 0.47311 0.224404
1575 4 0.35011 0.469368 0.245216
1802 4 0.36627 0.467416 0.256448
1699 2 0.205109 0.010082 0.284056
248 4 0.209641 0.0499018 0.301134
247 2 0.207559 0.074319 0.29617
1701 4 0.209537 0.0279044 0.301025
605 4 0.22681 0.0393378 0.308121
604 2 0.241787 0.0320341 0.326762
633 4 0.324101 0.0890656 0.284383
697 2 0.390433 0.0152904 0.32204
349 2 0.414178 0.0643097 0.317335
698 4 0.394339 0.0375322 0.332775
480 4 0.493361 0.00720024 0.297263
350 4 0.420084 0.0758196 0.295938
478 2 0.5014 0.0285107 0.307578
579 4 0.0423622 0.12208 0.269687
513 4 0.0271224 0.125441 0.255321
577 2 0.0664011 0.127737 0.265774
530 4 0.0218202 0.124447 0.276113
529 2 0.00567719 0.116383 0.293421
531 4 0.989534 0.10832 0.310729
398 4 0.0675889 0.10485 0.313888
546 4 0.123307 0.150848 0.257461
578 4 0.09044 0.133393 0.261861
544 2 0.132153 0.14922 0.280791
545 4 0.140998 0.147591 0.304121
405 4 0.160657 0.1404 0.302581
249 4 0.205478 0.0987361 0.291205
403 2 0.173632 0.11939 0.298658
404 4 0.186608 0.0983798 0.294734
631 2 0.337494 0.106855 0.295755
632 4 0.350887 0.124645 0.307127
707 4 0.337137 0.180178 0.288714
742 2 0.436528 0.0886151 0.267812
743 4 0.435747 0.0908367 0.292704
333 4 0.41838 0.0951901 0.304791
331 2 0.425036 0.117222 0.314561
332 4 0.431692 0.139255 0.324332
762 4 0.44144 0.157311 0.32191
396 4 0.03797 0.258915 0.245928
706 2 0.336335 0.179844 0.263726
760 2 0.444533 0.180888 0.314183
418 2 0.446332 0.235775 0.304305
419 4 0.435176 0.216788 0.316147
761 4 0.447627 0.204465 0.306455
521 4 0.474162 0.25529 0.279062
520 2 0.492192 0.241458 0.268633
366 4 0.00458168 0.334202 0.253194
750 4 0.0317463 0.251259 0.26168
748 2 0.0402046 0.263939 0.281501
749 4 0.0486629 0.276618 0.301322
389 4 0.153069 0.294143 0.331242
388 2 0.130046 0.28439 0.331182
390 4 0.107023 0.274636 0.331121
497 4 0.301064 0.324475 0.25186
496 2 0.31484 0.317589 0.271557
498 4 0.328616 0.310702 0.291254
509 4 0.253012 0.325628 0.28486
765 4 0.372743 0.261133 0.271105
420 4 0.457488 0.254762 0.292464
543 4 0.472939 0.269245 0.295388
541 2 0.468737 0.29368 0.292156
542 4 0.464535 0.318115 0.288924
2694 4 0.00113555 0.349647 0.266709
734 4 0.150203 0.348955 0.258051
676 2 0.169678 0.394416 0.31117
733 2 0.168234 0.355219 0.274202
677 4 0.183447 0.380206 0.295884
735 4 0.186264 0.361482 0.290352
727 2 0.321127 0.402606 0.255979
510 4 0.262198 0.349378 0.327898
508 2 0.257605 0.337503 0.306379
438 4 0.265605 0.396197 0.278926
728 4 0.336055 0.407998 0.275299
434 4 0.34975 0.414569 0.290367
753 4 0.418891 0.359949 0.29358
445 2 0.457426 0.380241 0.254262
446 4 0.467961 0.39398 0.272302
713 4 0.487626 0.396671 0.272013
751 2 0.415479 0.372554 0.314903
603 4 0.0761787 0.412673 0.3037
412 2 0.131296 0.488859 0.287018
602 4 0.102939 0.448334 0.281053
601 2 0.0895587 0.430503 0.292376
414 4 0.129259 0.477155 0.265018
413 4 0.133333 0.500563 0.309019
436 2 0.268731 0.418335 0.290121
437 4 0.271857 0.440472 0.301316
1437 4 0.264622 0.493049 0.316882
1435 2 0.266501 0.473292 0.301674
1436 4 0.26838 0.453535 0.286465
433 2 0.346552 0.424336 0.313161
1801 2 0.359536 0.444327 0.263285
1803 4 0.352803 0.421238 0.270123
231 4 0.424266 0.489374 0.283841
233 4 0.995777 0.0142128 0.350996
318 4 0.0597479 0.0403252 0.340141
234 4 0.0395354 0.0345748 0.337906
232 2 0.0176564 0.0243938 0.344451
316 2 0.0737025 0.0307796 0.358562
428 4 0.0940472 0.00545741 0.386961
317 4 0.0876571 0.021234 0.376983
1781 4 0.171007 0.0173283 0.429731
726 4 0.305453 0.00327549 0.397893
441 4 0.251355 0.0332536 0.362333
440 4 0.287754 0.00898979 0.386563
606 4 0.256765 0.0247305 0.345404
439 2 0.269555 0.0211217 0.374448
683 4 0.318724 0.0888197 0.399402
351 4 0.408272 0.0527999 0.338732
257 4 0.397031 0.0413714 0.353672
256 2 0.394335 0.0443383 0.378353
258 4 0.391639 0.0473053 0.403033
425 4 0.379615 0.0330085 0.409416
452 4 0.447643 0.0722705 0.40881
397 2 0.0752376 0.100632 0.337316
399 4 0.0828863 0.0964143 0.360745
392 4 0.0591807 0.164001 0.349287
2653 2 0.0221329 0.145258 0.359589
391 2 0.0829234 0.156975 0.345808
2654 4 0.046545 0.150091 0.357165
732 4 0.087647 0.107463 0.376157
731 4 0.126593 0.13674 0.387418
730 2 0.10712 0.122101 0.381788
686 4 0.146697 0.130661 0.384024
599 4 0.141163 0.149791 0.37664
685 2 0.164935 0.137877 0.399532
393 4 0.106666 0.14995 0.342328
687 4 0.183173 0.145093 0.41504
682 2 0.300965 0.0895809 0.416987
467 4 0.342847 0.161594 0.420775
453 4 0.407221 0.0998512 0.398513
515 4 0.412115 0.11819 0.403323
451 2 0.427432 0.0860609 0.403661
598 2 0.140543 0.170238 0.362263
600 4 0.139923 0.190686 0.347886
260 4 0.0972009 0.232083 0.401179
275 4 0.174704 0.230143 0.370707
474 4 0.211246 0.178497 0.360716
276 4 0.205971 0.191333 0.374817
472 2 0.234948 0.177484 0.352819
274 2 0.190338 0.210738 0.372762
473 4 0.25865 0.176472 0.344922
614 4 0.38582 0.237558 0.323526
613 2 0.394681 0.247964 0.344463
269 4 0.467515 0.233749 0.401334
442 2 0.0137027 0.282341 0.326257
444 4 0.0204981 0.271018 0.347489
616 2 0.0944266 0.282064 0.373705
618 4 0.0931112 0.287735 0.398021
617 4 0.095742 0.276393 0.349389
347 4 0.101443 0.300711 0.40971
401 4 0.172008 0.292934 0.337786
400 2 0.18366 0.288159 0.359387
375 4 0.20158 0.277664 0.399187
402 4 0.195313 0.283383 0.380987
378 4 0.289081 0.287568 0.340179
489 4 0.296811 0.274786 0.404227
376 2 0.286243 0.283404 0.36467
377 4 0.283405 0.279241 0.38916
487 2 0.321154 0.27024 0.407682
615 4 0.403542 0.258371 0.3654
716 4 0.394794 0.255739 0.382636
488 4 0.345496 0.265694 0.411137
715 2 0.378874 0.26692 0.398343
717 4 0.362955 0.278102 0.414051
270 4 0.478247 0.282012 0.393837
268 2 0.472881 0.25788 0.397586
2924 4 0.471923 0.300048 0.402592
2923 2 0.44937 0.310607 0.404845
2925 4 0.426818 0.321165 0.407098
406 2 0.0515686 0.385299 0.3357
408 4 0.0579407 0.361292 0.332827
407 4 0.0451966 0.409306 0.338573
678 4 0.155908 0.408625 0.326456
2537 4 0.505241 0.354702 0.357535
559 2 0.421705 0.398518 0.377593
752 4 0.412066 0.385159 0.336225
561 4 0.420064 0.387539 0.355189
560 4 0.423346 0.409497 0.399997
548 4 0.0569593 0.422001 0.348677
547 2 0.0678418 0.444441 0.350465
777 4 0.0773915 0.485447 0.348168
549 4 0.0787243 0.466881 0.352252
775 2 0.0970261 0.494289 0.335461
435 4 0.343355 0.434103 0.335955
3 3 0.337932 0.458554 0.375349
668 4 0.410687 0.426073 0.404413
4 3 0.344262 0.453858 0.33817
2 3 0.346842 0.487976 0.353724
5 3 0.37271 0.462188 0.361386
1 1 0.350578 0.465545 0.357194
593 4 0.475115 0.497182 0.384995
588 4 0.431737 0.427523 0.408736
368 4 0.104561 0.0626408 0.463342
367 2 0.110294 0.0867741 0.466488
341 4 0.159544 0.0668372 0.499095
340 2 0.177834 0.0782294 0.486411
1180 2 0.276035 0.070313 0.464815
1181 4 0.282366 0.0504935 0.478682
432 4 0.298215 0.0359822 0.481975
430 2 0.31903 0.0449878 0.492502
424 2 0.38904 0.0181697 0.427197
841 2 0.375708 0.0337995 0.491765
843 4 0.35308 0.0444369 0.491811
842 4 0.398336 0.023162 0.491718
457 2 0.0204678 0.153279 0.462697
719 4 0.0620384 0.143132 0.458585
459 4 0.0454461 0.154055 0.461883
718 2 0.0651171 0.123378 0.473602
720 4 0.0681959 0.103625 0.488619
369 4 0.116027 0.110907 0.469634
939 4 0.125831 0.12062 0.455092
937 2 0.126141 0.142674 0.46687
938 4 0.126451 0.164727 0.478648
342 4 0.196124 0.0896216 0.473727
1151 4 0.18981 0.132109 0.429327
1150 2 0.186191 0.118851 0.450215
1152 4 0.182572 0.105594 0.471103
684 4 0.283206 0.0903421 0.434571
1182 4 0.269705 0.0901325 0.450948
321 4 0.289335 0.148357 0.473705
320 4 0.278886 0.108596 0.445233
319 2 0.284111 0.128476 0.459469
899 4 0.306312 0.143301 0.48285
898 2 0.328012 0.153353 0.490147
516 4 0.401312 0.154876 0.435542
514 2 0.406714 0.136533 0.419432
259 2 0.0954812 0.22875 0.4259
1034 4 0.13677 0.175996 0.464759
261 4 0.0937616 0.225417 0.450621
1035 4 0.109744 0.218019 0.462672
1033 2 0.123257 0.197007 0.463715
695 4 0.10451 0.238597 0.463548
694 2 0.107865 0.244335 0.487652
857 4 0.186239 0.212803 0.483874
468 4 0.315111 0.203043 0.424428
410 4 0.313503 0.222269 0.427481
411 4 0.263795 0.217115 0.429299
409 2 0.288649 0.219692 0.42839
466 2 0.328979 0.182319 0.422601
575 4 0.395074 0.17387 0.433392
266 4 0.371428 0.242441 0.471897
813 4 0.37181 0.245157 0.491459
574 2 0.410877 0.183462 0.450228
900 4 0.349712 0.163406 0.497443
2657 4 0.49288 0.161832 0.489059
306 4 0.462929 0.228438 0.419534
304 2 0.449846 0.218714 0.438494
305 4 0.436763 0.20899 0.457453
576 4 0.426679 0.193054 0.467064
2847 4 0.00828553 0.304094 0.481245
346 2 0.10557 0.301921 0.434341
348 4 0.109698 0.303131 0.458971
10 3 0.126687 0.311055 0.465108
6 1 0.132905 0.323943 0.482824
7 3 0.115221 0.337255 0.489087
373 2 0.194988 0.280847 0.423095
374 4 0.188396 0.284031 0.447003
265 2 0.364093 0.253382 0.450645
267 4 0.356758 0.264323 0.429392
872 4 0.458299 0.260225 0.491387
2456 4 0.485198 0.31662 0.481635
584 4 0.477729 0.305469 0.4661
585 4 0.4619 0.258402 0.47201
583 2 0.469815 0.281936 0.469055
2812 2 0.00822603 0.368722 0.438371
2813 4 0.0324213 0.36533 0.433055
8 3 0.150763 0.337507 0.476866
504 4 0.24386 0.410134 0.49323
709 2 0.200393 0.407147 0.490356
711 4 0.176818 0.399092 0.488228
502 2 0.261171 0.399838 0.478415
651 4 0.293628 0.343281 0.425077
503 4 0.278482 0.389542 0.463599
650 4 0.286838 0.388308 0.445745
649 2 0.290233 0.365794 0.435411
334 2 0.377037 0.38304 0.453876
238 2 0.404682 0.337327 0.437437
240 4 0.385488 0.339566 0.453304
335 4 0.382355 0.358978 0.458108
336 4 0.37172 0.407102 0.449643
239 4 0.423876 0.335088 0.42157
680 4 0.0305884 0.419617 0.421266
681 4 0.0749537 0.428528 0.44255
679 2 0.0527711 0.424072 0.431908
383 4 0.0893745 0.422581 0.453493
384 4 0.125233 0.457412 0.45477
569 4 0.131083 0.468625 0.439329
382 2 0.107304 0.439997 0.454132
568 2 0.13877 0.492416 0.439638
773 4 0.219293 0.430384 0.421819
635 4 0.189702 0.458131 0.475655
634 2 0.191042 0.475246 0.493834
774 4 0.20456 0.449814 0.465479
772 2 0.211926 0.440099 0.443649
669 4 0.370269 0.417595 0.432612
667 2 0.390478 0.421834 0.418512
1455 4 0.337541 0.426641 0.494662
662 4 0.443645 0.479805 0.481724
587 4 0.459238 0.420111 0.449839
661 2 0.451545 0.457556 0.473493
2507 4 0.476332 0.42266 0.46258
2506 2 0.498686 0.428592 0.472082
586 2 0.445488 0.423817 0.429288
663 4 0.459446 0.435307 0.465262
1910 4 0.444524 0.478991 0.502568
2428 2 0.127424 0.0576422 0.51851
2429 4 0.102788 0.0534668 0.519406
2430 4 0.15206 0.0618176 0.517615
962 4 0.247772 0.0254346 0.529217
1031 4 0.23591 0.0606543 0.582897
961 2 0.265567 0.0325165 0.513143
963 4 0.283361 0.0395984 0.497068
431 4 0.339844 0.0539934 0.50303
1217 4 0.418841 0.0212123 0.493856
1062 4 0.471913 0.00950591 0.539165
1060 2 0.472514 0.014182 0.56372
810 4 0.473449 0.0631958 0.553473
808 2 0.47762 0.0868763 0.560329
1032 4 0.262604 0.102914 0.584408
1030 2 0.249257 0.0817841 0.583653
640 2 0.499387 0.105369 0.513891
641 4 0.475918 0.104463 0.52247
809 4 0.48179 0.110557 0.567186
469 2 0.0349553 0.215522 0.525435
470 4 0.0214098 0.2229 0.545114
1199 4 0.00810893 0.22992 0.558783
471 4 0.0485008 0.208144 0.505756
877 2 0.113634 0.233773 0.553792
879 4 0.120981 0.224168 0.575676
878 4 0.106287 0.243378 0.531907
856 2 0.186277 0.233796 0.497456
873 4 0.442633 0.240609 0.534636
871 2 0.450466 0.250417 0.513012
982 2 0.0430179 0.315534 0.549727
983 4 0.0185315 0.319982 0.552138
984 4 0.0675042 0.311086 0.547316
326 4 0.0679534 0.290284 0.542096
1136 4 0.0807148 0.297614 0.557564
325 2 0.0796677 0.271358 0.530705
327 4 0.0913819 0.252432 0.519314
1258 2 0.142306 0.300741 0.543014
1259 4 0.136903 0.303205 0.518726
696 4 0.111219 0.250074 0.511756
9 3 0.138844 0.310443 0.500738
1260 4 0.147709 0.298278 0.567302
1135 2 0.0888722 0.29265 0.580672
858 4 0.186315 0.254789 0.511039
802 2 0.239632 0.328214 0.557317
804 4 0.263622 0.321258 0.556202
792 4 0.326749 0.291103 0.569763
1239 4 0.268709 0.305597 0.567866
1238 4 0.311794 0.284693 0.582267
1237 2 0.290252 0.295145 0.575067
811 2 0.370227 0.250364 0.515863
812 4 0.368644 0.255572 0.540267
790 2 0.348035 0.281597 0.560724
791 4 0.369322 0.272091 0.551684
953 4 0.447202 0.253984 0.546466
952 2 0.435109 0.253492 0.568345
935 4 0.0362757 0.405453 0.57483
934 2 0.0288394 0.401558 0.551277
936 4 0.0214032 0.397663 0.527725
3353 4 0.0129032 0.38053 0.526193
803 4 0.215641 0.33517 0.558431
1190 4 0.213905 0.353315 0.55533
1189 2 0.200604 0.368838 0.569728
896 4 0.190928 0.40443 0.585633
882 4 0.370738 0.381062 0.584271
880 2 0.356521 0.390082 0.565786
881 4 0.342305 0.399103 0.5473
930 4 0.387417 0.371175 0.581912
928 2 0.410378 0.361355 0.583157
925 2 0.457017 0.370924 0.557842
926 4 0.459957 0.346404 0.553933
927 4 0.454077 0.395445 0.561751
929 4 0.433339 0.351535 0.584402
539 4 0.0752519 0.46383 0.50645
538 2 0.0577439 0.474622 0.52067
540 4 0.040236 0.485414 0.534889
3431 4 0.0156903 0.481123 0.571076
3430 2 0.00124354 0.461827 0.577721
1159 2 0.128844 0.459347 0.534675
1160 4 0.13743 0.45289 0.557253
1161 4 0.120259 0.465803 0.512096
710 4 0.223968 0.415201 0.492484
636 4 0.192382 0.49236 0.512013
2154 4 0.291131 0.49269 0.567416
1454 4 0.35336 0.413821 0.540336
1453 2 0.345451 0.420231 0.517499
1001 4 0.462305 0.413745 0.567036
1909 2 0.457109 0.497076 0.514388
3182 4 0.486249 0.455801 0.581816
1059 4 0.165917 0.076996 0.603216
1282 2 0.201892 0.0586137 0.603797
1283 4 0.22634 0.0550309 0.599976
1284 4 0.177443 0.0621965 0.607619
824 4 0.204213 0.995381 0.651766
949 2 0.278513 0.00652102 0.592716
951 4 0.26982 0.029904 0.594406
2281 2 0.379195 0.0246824 0.654784
2282 4 0.369049 0.0340387 0.633934
1092 4 0.370294 0.0218129 0.617605
1061 4 0.473116 0.0188581 0.588275
1083 4 0.997173 0.113562 0.646635
1081 2 0.0173739 0.102886 0.65679
1058 4 0.15471 0.112969 0.636095
1057 2 0.160314 0.0949825 0.619655
909 4 0.157938 0.128595 0.650741
1155 4 0.154904 0.134281 0.630094
1153 2 0.167131 0.152791 0.61856
888 4 0.292338 0.165705 0.670015
1211 4 0.284046 0.1594 0.651817
1194 4 0.348726 0.161669 0.658891
1192 2 0.367993 0.166995 0.643872
3008 4 0.497034 0.109945 0.581539
1272 4 0.127638 0.217897 0.593071
1270 2 0.146904 0.202613 0.597587
1154 4 0.179359 0.171301 0.607026
1271 4 0.16617 0.187329 0.602104
1221 4 0.187149 0.189968 0.600113
1219 2 0.209218 0.189936 0.611866
1220 4 0.231286 0.189904 0.62362
1212 4 0.25073 0.191302 0.632503
798 4 0.241494 0.208738 0.624321
796 2 0.249085 0.231519 0.617352
1210 2 0.267388 0.175351 0.64216
1193 4 0.387261 0.172322 0.628853
904 2 0.438633 0.237705 0.620659
906 4 0.436779 0.221929 0.639969
1024 2 0.443759 0.186344 0.650394
1025 4 0.450044 0.206839 0.637524
1145 4 0.490759 0.222528 0.652959
1026 4 0.437475 0.165848 0.663263
1243 2 0.0525541 0.272492 0.646201
1244 4 0.0436078 0.286463 0.627494
1137 4 0.0970297 0.287686 0.603781
797 4 0.256676 0.2543 0.610383
954 4 0.423015 0.253 0.590224
905 4 0.440487 0.253481 0.60135
3264 4 0.0196847 0.400197 0.587293
1041 4 0.0306661 0.417761 0.591931
3262 2 0.0116021 0.379743 0.599189
3263 4 0.00351952 0.35929 0.611085
895 2 0.171611 0.409894 0.600539
897 4 0.152294 0.415358 0.615444
1191 4 0.187302 0.38436 0.584126
1206 4 0.422443 0.419986 0.615424
1039 2 0.0516661 0.428677 0.599995
1040 4 0.072666 0.439593 0.608059
992 4 0.132107 0.41507 0.610107
993 4 0.0827645 0.422462 0.613482
991 2 0.107436 0.418766 0.611794
1188 4 0.236709 0.491044 0.663143
1173 4 0.284407 0.489953 0.585901
1172 4 0.275849 0.459271 0.624451
1171 2 0.280128 0.474612 0.605176
891 4 0.291497 0.458292 0.636748
889 2 0.314649 0.457152 0.646121
890 4 0.337801 0.456012 0.655493
1952 4 0.387171 0.506506 0.601793
1000 2 0.443355 0.419983 0.582109
1204 2 0.434189 0.424446 0.637041
1002 4 0.424405 0.42622 0.597181
3183 4 0.457643 0.487688 0.607615
3181 2 0.471946 0.471744 0.594716
1268 4 0.472305 0.488062 0.660409
2169 4 0.481527 0.498291 0.646011
1267 2 0.468535 0.463349 0.660897
1892 4 0.0187926 0.0050813 0.667612
1183 2 0.0302719 0.0470269 0.675459
1184 4 0.0255216 0.022597 0.677865
4338 4 0.0206802 0.00511438 0.688944
4336 2 0.000479836 0.999253 0.702464
1185 4 0.0350221 0.0714569 0.673052
944 4 0.0526218 0.0821636 0.679119
2049 4 0.0975194 0.00797627 0.746035
2254 2 0.177882 0.0115749 0.72007
2256 4 0.189747 0.0285273 0.734105
2398 2 0.322171 0.0104538 0.74276
2400 4 0.320539 0.00190416 0.719321
2283 4 0.389341 0.0153261 0.675633
42 3 0.429699 0.072212 0.72298
943 2 0.0774505 0.0795222 0.677801
1082 4 0.0375748 0.0922104 0.666945
1076 4 0.033851 0.0875202 0.687564
864 4 0.0217647 0.119021 0.740942
1075 2 0.0354463 0.100628 0.708797
1077 4 0.0370416 0.113736 0.730029
1179 4 0.0112824 0.162493 0.679114
945 4 0.102279 0.0768808 0.676482
907 2 0.176509 0.122096 0.666171
1226 4 0.245383 0.122389 0.729753
908 4 0.195079 0.115597 0.681601
1225 2 0.226749 0.119688 0.713301
1227 4 0.208115 0.116987 0.69685
886 2 0.316569 0.160916 0.673905
1130 4 0.237266 0.130963 0.74741
887 4 0.340799 0.156126 0.677794
1005 4 0.29336 0.101776 0.701
1003 2 0.298041 0.106737 0.725055
1004 4 0.302722 0.111698 0.74911
45 3 0.409371 0.103485 0.724268
831 4 0.372422 0.105205 0.690332
830 4 0.348794 0.141123 0.664792
829 2 0.360608 0.123164 0.677562
1084 2 0.358538 0.168134 0.737256
41 1 0.430387 0.0951576 0.721504
44 3 0.43857 0.101089 0.700617
1142 4 0.449264 0.116458 0.693432
1141 2 0.436467 0.136118 0.684776
1143 4 0.423671 0.155777 0.676121
43 3 0.444386 0.103326 0.738108
1245 4 0.0615004 0.258521 0.664908
1177 2 0.0115818 0.18371 0.665889
850 2 0.0648834 0.227516 0.690119
851 4 0.05878 0.204336 0.697234
1107 4 0.0556156 0.196397 0.715381
1105 2 0.0744593 0.184449 0.726666
1106 4 0.093303 0.1725 0.73795
948 4 0.193394 0.250226 0.689859
946 2 0.16912 0.25621 0.690203
978 4 0.23687 0.20982 0.723391
976 2 0.259582 0.220192 0.724721
977 4 0.282294 0.230564 0.726051
1299 4 0.328437 0.181849 0.732729
1298 4 0.302057 0.224289 0.730806
1297 2 0.315247 0.203069 0.731767
918 4 0.296278 0.245287 0.733003
1086 4 0.343383 0.178903 0.720537
1262 4 0.410341 0.20291 0.717963
1146 4 0.497328 0.1902 0.690541
1263 4 0.430601 0.17544 0.681417
1261 2 0.420471 0.189175 0.69969
1144 2 0.494043 0.206364 0.67175
852 4 0.0709868 0.250695 0.683003
816 4 0.0381522 0.336074 0.743087
1209 4 0.0777105 0.269325 0.674767
1208 4 0.127441 0.265929 0.678778
1207 2 0.102576 0.267627 0.676773
821 4 0.138185 0.307356 0.735439
820 2 0.13391 0.291728 0.716394
822 4 0.129635 0.276101 0.69735
947 4 0.144846 0.262194 0.690548
1242 4 0.140763 0.324898 0.744358
1065 4 0.251112 0.331826 0.713955
3123 4 0.463238 0.283843 0.678644
3121 2 0.484694 0.271011 0.67906
892 2 0.0479801 0.40841 0.734809
893 4 0.0595347 0.386951 0.740393
814 2 0.0543475 0.354446 0.748127
940 2 0.104163 0.389876 0.744594
941 4 0.128914 0.388296 0.741414
1067 4 0.144881 0.379906 0.732036
1066 2 0.157823 0.379598 0.710644
1068 4 0.170765 0.379289 0.689253
1139 4 0.243171 0.40717 0.686259
1028 4 0.189096 0.373018 0.68504
1027 2 0.205654 0.391728 0.68406
1236 4 0.243734 0.373814 0.753232
1029 4 0.222211 0.410439 0.683079
1234 2 0.219883 0.38117 0.754712
1063 2 0.258821 0.35497 0.719443
1064 4 0.266529 0.378114 0.72493
806 4 0.268441 0.386535 0.743375
805 2 0.292377 0.390017 0.749707
1138 2 0.261121 0.413885 0.670201
1140 4 0.279072 0.4206 0.654143
885 4 0.0379274 0.510388 0.737146
1279 2 0.012962 0.423997 0.695102
894 4 0.0364255 0.42987 0.729226
3276 4 0.0148421 0.428322 0.734249
1983 4 0.0241766 0.44761 0.733918
1981 2 0.0256349 0.471547 0.740995
1280 4 0.0203137 0.436901 0.715217
1982 4 0.0270932 0.495483 0.748072
1988 4 0.317753 0.508775 0.712275
1987 2 0.330638 0.487465 0.710029
1989 4 0.343522 0.466155 0.707783
1229 4 0.35786 0.48854 0.743746
1250 4 0.494115 0.452765 0.7084
1249 2 0.491151 0.449464 0.733007
1205 4 0.445935 0.428906 0.658659
1100 4 0.448952 0.441481 0.675853
1099 2 0.43892 0.436282 0.698158
1269 4 0.464765 0.438636 0.661384
1101 4 0.428888 0.431083 0.720463
1203 4 0.08557 0.0305036 0.807856
1201 2 0.0867234 0.024311 0.783659
1202 4 0.0878768 0.0181184 0.759462
911 4 0.0943477 0.0495648 0.804448
1196 4 0.0929757 0.0415215 0.824777
910 2 0.0950936 0.0735738 0.811389
2399 4 0.323804 0.0190035 0.7662
1048 2 0.313012 0.0566959 0.787283
1050 4 0.305468 0.0753286 0.802152
1257 4 0.31037 0.0929685 0.811161
1049 4 0.320556 0.0380633 0.772414
1112 4 0.405595 0.0167521 0.820126
846 4 0.471391 0.0671398 0.752327
1111 2 0.426327 0.0211935 0.806874
1113 4 0.44706 0.025635 0.793623
844 2 0.468249 0.0474611 0.767428
845 4 0.465107 0.0277824 0.78253
980 4 0.465563 0.0288453 0.803723
979 2 0.479588 0.0169066 0.820634
2321 4 0.492121 0.0177008 0.741487
862 2 0.0107076 0.111992 0.762238
1214 4 0.0565876 0.160595 0.76673
863 4 0.999651 0.104963 0.783534
33 3 0.12572 0.136598 0.790235
31 1 0.107446 0.129858 0.802846
35 3 0.100206 0.147088 0.81586
32 3 0.113771 0.112322 0.816322
912 4 0.0958394 0.0975829 0.818331