ITEM: TIMESTEP
1380000
ITEM: NUMBER OF ATOMS
4590
ITEM: BOX BOUNDS pp pp pp
-9.9985700000000008e+00 9.9985700000000008e+00
-9.9985700000000008e+00 9.9985700000000008e+00
-9.9985700000000008e+00 9.9985700000000008e+00
ITEM: ATOMS id type xs ys zs
1668 4 0.0731218 0.0507874 0.0569851
1666 2 0.0708703 0.0756809 0.0576366
464 4 0.999485 0.0420013 0.0582736
1475 4 0.225255 0.0042105 0.0478668
1474 2 0.215622 0.00316016 0.0709165
490 2 0.284844 0.0384762 0.0224755
491 4 0.271816 0.0384579 0.0438165
653 4 0.282447 0.0402484 0.0604859
652 2 0.289837 0.0555076 0.0788631
297 4 0.397439 0.0368776 0.0533227
295 2 0.391536 0.0483983 0.0747147
2974 2 0.489969 0.0525289 0.00925342
747 4 0.459985 0.0721598 0.00416302
2975 4 0.468281 0.0561661 0.997355
589 2 0.0389634 0.112248 0.0275587
590 4 0.0186304 0.115732 0.0134304
591 4 0.0592964 0.108764 0.041687
475 2 0.0687136 0.177484 0.0901901
1667 4 0.0686188 0.100574 0.0582881
702 4 0.0885821 0.103264 0.0585089
422 4 0.156002 0.104931 0.0165247
700 2 0.108203 0.115439 0.0680987
421 2 0.155732 0.0840911 0.00271147
476 4 0.0792822 0.15614 0.0977995
701 4 0.127824 0.127614 0.0776884
565 2 0.257907 0.156313 0.0550376
567 4 0.249773 0.144529 0.075535
557 4 0.380972 0.130705 0.0133221
556 2 0.391198 0.143096 0.0324813
746 4 0.452538 0.121609 0.00423496
745 2 0.456261 0.0968846 0.00419899
477 4 0.058145 0.198829 0.0825808
914 4 0.147016 0.222778 0.0107741
359 4 0.262497 0.161694 0.0157974
566 4 0.26604 0.168098 0.0345403
506 4 0.15548 0.240579 0.00858445
558 4 0.401423 0.155487 0.0516405
571 2 0.361195 0.214483 0.017797
573 4 0.368016 0.238512 0.018916
666 4 0.335677 0.18746 0.0116239
572 4 0.354373 0.190454 0.0166779
769 2 0.459243 0.237998 0.0365035
770 4 0.443501 0.220313 0.0284656
292 2 0.141925 0.297505 0.0629076
293 4 0.15133 0.299371 0.0398156
294 4 0.13252 0.295639 0.0859996
288 4 0.165642 0.308276 0.0258669
507 4 0.161478 0.287443 0.0249729
505 2 0.158479 0.264011 0.0167787
481 2 0.217252 0.333437 0.0739769
286 2 0.180975 0.326947 0.0323104
1069 2 0.372712 0.272023 0.0134133
1071 4 0.383701 0.24963 0.0116936
771 4 0.474985 0.255684 0.0445413
323 4 0.463888 0.264599 0.0609665
518 4 0.484791 0.259056 0.0631355
551 4 0.0669929 0.390702 0.0370964
483 4 0.200119 0.338204 0.056401
287 4 0.196307 0.345617 0.038754
607 2 0.275637 0.417944 0.090972
280 2 0.448198 0.368711 0.0338495
282 4 0.45328 0.381123 0.0127475
281 4 0.443116 0.356299 0.0549515
671 4 0.43622 0.343673 0.0702158
552 4 0.059748 0.437732 0.0524733
550 2 0.0633704 0.414217 0.0447849
315 4 0.0532993 0.447382 0.0690181
625 2 0.242437 0.460107 0.0599877
627 4 0.233167 0.468501 0.0383364
626 4 0.251708 0.451713 0.0816391
244 2 0.333911 0.461294 0.0338449
246 4 0.317294 0.478872 0.0401745
608 4 0.267408 0.441371 0.0880344
272 4 0.319497 0.488371 0.0222497
245 4 0.350527 0.443715 0.0275153
563 4 0.42433 0.489638 0.0108682
564 4 0.457864 0.45727 0.992744
562 2 0.441097 0.473454 0.0018059
1804 2 0.0849612 0.00674298 0.0808855
1415 4 0.0689083 0.999085 0.109988
1414 2 0.0570319 0.989658 0.129869
18 3 0.0274684 0.0807866 0.141993
17 3 0.0424117 0.102117 0.114894
2481 4 0.0111239 0.0745028 0.15129
16 1 0.0466244 0.0918998 0.135069
1805 4 0.0793915 0.0145039 0.103992
19 3 0.0640054 0.0767733 0.132331
654 4 0.297227 0.0707668 0.0972403
296 4 0.385634 0.0599189 0.0961067
20 3 0.0524178 0.107699 0.150414
448 2 0.162245 0.104997 0.0859839
236 4 0.140806 0.144526 0.0796635
449 4 0.148838 0.124587 0.0781318
235 2 0.14447 0.167482 0.0888709
450 4 0.175652 0.0854063 0.0938359
339 4 0.10319 0.196624 0.113466
337 2 0.111541 0.213845 0.129556
338 4 0.119891 0.231065 0.145647
237 4 0.148134 0.190438 0.0980784
738 4 0.218454 0.235051 0.143168
736 2 0.231234 0.251943 0.129883
461 4 0.313115 0.218859 0.109912
354 4 0.30099 0.233358 0.101854
460 2 0.33136 0.202071 0.11315
352 2 0.283055 0.249052 0.109417
630 4 0.414282 0.159697 0.145357
254 4 0.395081 0.154514 0.147723
253 2 0.373584 0.161427 0.136987
255 4 0.352087 0.16834 0.12625
462 4 0.349605 0.185284 0.116387
628 2 0.429836 0.176842 0.135907
629 4 0.445389 0.193987 0.126456
363 4 0.121883 0.251154 0.143848
454 2 0.134825 0.308606 0.122565
456 4 0.141902 0.306289 0.0986966
455 4 0.127748 0.310923 0.146434
537 4 0.133558 0.321556 0.162871
482 4 0.234385 0.32867 0.0915528
756 4 0.253122 0.328093 0.102399
737 4 0.244015 0.268835 0.116598
754 2 0.255694 0.305765 0.113354
755 4 0.258266 0.283436 0.124309
353 4 0.26512 0.264747 0.11698
741 4 0.386044 0.311368 0.0959515
622 2 0.405121 0.285943 0.113556
624 4 0.383087 0.296966 0.109293
739 2 0.36474 0.322911 0.102121
740 4 0.343435 0.334454 0.10829
322 2 0.452513 0.266423 0.0831583
324 4 0.441139 0.268248 0.10535
623 4 0.427156 0.274921 0.117819
526 2 0.491341 0.30404 0.115574
528 4 0.482512 0.327432 0.115769
619 2 0.00774385 0.376473 0.103697
620 4 0.0139963 0.376162 0.127904
648 4 0.0186993 0.386925 0.144323
621 4 0.00149143 0.376784 0.0794899
646 2 0.0279555 0.403988 0.160082
252 4 0.237824 0.342106 0.108009
251 4 0.272727 0.377093 0.100363
250 2 0.255275 0.3596 0.104186
609 4 0.283866 0.394516 0.0939095
387 4 0.292413 0.381768 0.108633
385 2 0.310108 0.364312 0.111344
386 4 0.327803 0.346856 0.114055
494 4 0.374289 0.409078 0.1112
493 2 0.39046 0.390962 0.117155
495 4 0.406631 0.372845 0.12311
660 4 0.333593 0.412562 0.181301
672 4 0.47223 0.324682 0.0992552
13 3 0.419184 0.343892 0.16749
670 2 0.454225 0.334177 0.0847355
14 3 0.419506 0.362267 0.134224
15 3 0.451822 0.351804 0.150467
11 1 0.430639 0.359207 0.154351
595 2 0.460495 0.407545 0.147665
12 3 0.431562 0.379323 0.165471
2652 4 0.495661 0.41468 0.122752
597 4 0.442948 0.398061 0.162743
314 4 0.0492197 0.462589 0.116482
313 2 0.0512595 0.454986 0.0927501
1438 2 0.248479 0.493859 0.113618
1439 4 0.253197 0.471233 0.123155
637 2 0.262935 0.45702 0.150819
639 4 0.267707 0.458108 0.126299
525 4 0.369005 0.456082 0.149693
523 2 0.36202 0.48009 0.14965
596 4 0.478042 0.41703 0.132588
2479 2 0.00761654 0.0527649 0.163136
2480 4 0.00410915 0.0310269 0.174983
673 2 0.0987013 0.0397306 0.229283
675 4 0.11958 0.0271697 0.234894
1403 4 0.135507 0.0132802 0.23023
674 4 0.0778226 0.0522915 0.223672
1700 4 0.220815 0.999012 0.244186
693 4 0.183919 0.0771649 0.239359
690 4 0.176823 0.0621696 0.249949
23 3 0.325864 0.0371061 0.226799
21 1 0.345604 0.0421645 0.237897
25 3 0.363135 0.0412166 0.223392
759 4 0.384873 0.0395008 0.225725
1784 4 0.373994 0.0251817 0.212556
1783 2 0.367087 0.0112619 0.192967
24 3 0.344219 0.063346 0.247268
757 2 0.402236 0.0564396 0.23179
1496 4 0.346576 0.00516531 0.25097
744 4 0.439195 0.0816892 0.23892
758 4 0.419599 0.0733785 0.237854
312 4 0.427764 0.0832803 0.220705
511 2 0.0175272 0.125646 0.236357
512 4 0.0149535 0.121632 0.211813
722 4 0.1598 0.169428 0.232833
721 2 0.160492 0.149314 0.217996
723 4 0.161183 0.1292 0.203159
692 4 0.173575 0.113991 0.207148
691 2 0.178747 0.0955779 0.223254
285 4 0.248301 0.173759 0.198057
582 4 0.265125 0.162984 0.192046
580 2 0.278242 0.146062 0.179131
581 4 0.291359 0.129141 0.166217
30 3 0.299833 0.14138 0.217186
27 3 0.328046 0.157391 0.19873
26 1 0.322357 0.144743 0.217083
28 3 0.333399 0.124372 0.215868
29 3 0.328756 0.156088 0.236286
311 4 0.44099 0.103828 0.177076
310 2 0.434377 0.0935544 0.198891
343 2 0.24781 0.250546 0.241592
284 4 0.250234 0.208655 0.233823
344 4 0.247447 0.225614 0.243455
283 2 0.249267 0.191207 0.21594
708 4 0.347919 0.163705 0.238928
764 4 0.37828 0.212255 0.250929
394 2 0.0166373 0.276676 0.229959
396 4 0.0373731 0.265286 0.221867
535 2 0.118713 0.337942 0.174545
361 2 0.120917 0.2656 0.164233
372 4 0.136436 0.279088 0.194998
362 4 0.11995 0.280047 0.184618
370 2 0.159117 0.286855 0.202098
371 4 0.181798 0.294623 0.209199
279 4 0.188978 0.299758 0.228613
277 2 0.209246 0.28971 0.239265
612 4 0.193163 0.312416 0.212057
278 4 0.229513 0.279662 0.249917
610 2 0.206061 0.332563 0.204785
308 4 0.291988 0.310946 0.26163
647 4 0.0372117 0.421051 0.175841
536 4 0.103867 0.354329 0.186218
300 4 0.140024 0.403626 0.209888
298 2 0.141485 0.383839 0.225104
299 4 0.142946 0.364051 0.240319
417 4 0.218464 0.369215 0.187083
415 2 0.227096 0.39211 0.192229
611 4 0.21896 0.352711 0.197514
416 4 0.235728 0.415005 0.197375
303 4 0.317444 0.380246 0.222327
729 4 0.311645 0.386112 0.242132
301 2 0.316876 0.391766 0.200143
302 4 0.316308 0.403286 0.177959
645 4 0.433378 0.394167 0.182758
643 2 0.434349 0.391585 0.207609
644 4 0.43532 0.389003 0.23246
447 4 0.43125 0.377444 0.24761
263 4 0.0458075 0.436794 0.185545
262 2 0.04216 0.460085 0.193876
1757 4 0.0469146 0.494852 0.217469
264 4 0.0385124 0.483376 0.202207
291 4 0.234184 0.426208 0.213687
289 2 0.241295 0.447133 0.201994
290 4 0.248407 0.468058 0.1903
638 4 0.258163 0.455932 0.175339
767 4 0.269702 0.470775 0.185538
768 4 0.315123 0.478149 0.205116
766 2 0.292413 0.474462 0.195327
1574 4 0.33098 0.490408 0.209309
659 4 0.366335 0.448206 0.168722
658 2 0.349964 0.430384 0.175012
1573 2 0.35182 0.483062 0.221012
1575 4 0.372659 0.475716 0.232714
1802 4 0.36633 0.464195 0.248135
689 4 0.139082 0.0300042 0.243491
688 2 0.157953 0.0460869 0.24672
1699 2 0.22093 0.0124615 0.265264
248 4 0.206822 0.0417499 0.285442
247 2 0.192636 0.0614867 0.291307
1701 4 0.221045 0.0259113 0.286342
605 4 0.215984 0.0366888 0.303919
604 2 0.230095 0.0368423 0.32456
22 3 0.348835 0.0267937 0.254703
697 2 0.390326 0.0140729 0.313717
349 2 0.420026 0.061691 0.317922
350 4 0.431957 0.0757703 0.301052
742 2 0.444187 0.0794127 0.263315
579 4 0.0384232 0.132269 0.272103
513 4 0.0201009 0.129661 0.260902
577 2 0.0596588 0.14465 0.27668
530 4 0.0199387 0.137582 0.281245
529 2 0.00731414 0.117918 0.290142
398 4 0.0671898 0.086391 0.334632
578 4 0.0808944 0.15703 0.281256
544 2 0.147144 0.166461 0.270923
545 4 0.143373 0.155392 0.293024
405 4 0.157132 0.141621 0.289383
249 4 0.17845 0.0812236 0.297172
403 2 0.17081 0.120734 0.290723
404 4 0.184488 0.099846 0.292063
633 4 0.306629 0.097074 0.286478
631 2 0.316426 0.0830698 0.304729
632 4 0.326222 0.0690657 0.32298
743 4 0.449179 0.0771362 0.287709
333 4 0.443359 0.0940728 0.299244
331 2 0.440677 0.118442 0.304157
332 4 0.437995 0.142811 0.309069
762 4 0.436362 0.158041 0.297532
546 4 0.150914 0.17753 0.248822
393 4 0.0712984 0.182584 0.32211
763 2 0.370807 0.22998 0.266902
707 4 0.349929 0.184979 0.284139
706 2 0.348924 0.174342 0.261534
765 4 0.363335 0.247705 0.282876
761 4 0.424464 0.20337 0.314979
760 2 0.430413 0.180705 0.306255
418 2 0.44038 0.239947 0.308752
419 4 0.428989 0.223177 0.323388
520 2 0.491346 0.24931 0.281517
420 4 0.451771 0.256717 0.294117
364 2 0.00928592 0.32364 0.269451
750 4 0.0489274 0.265578 0.23937
748 2 0.0598074 0.259606 0.261076
749 4 0.0706875 0.253634 0.282782
442 2 0.00260928 0.286086 0.317311
345 4 0.248172 0.275477 0.239729
307 2 0.270377 0.298458 0.260143
309 4 0.248767 0.28597 0.258657
497 4 0.289657 0.330624 0.256842
496 2 0.305575 0.339371 0.274026
508 2 0.268668 0.324156 0.314959
521 4 0.467523 0.256638 0.279526
543 4 0.44966 0.26738 0.27482
541 2 0.457826 0.290779 0.271507
542 4 0.465993 0.314178 0.268194
2692 2 0.0107245 0.37769 0.246692
2694 4 0.0253991 0.362445 0.260012
366 4 0.0223529 0.342787 0.260079
408 4 0.0420812 0.366084 0.332025
734 4 0.150715 0.35595 0.256933
733 2 0.154043 0.366743 0.27924
677 4 0.164745 0.388512 0.315443
735 4 0.15737 0.377537 0.301547
498 4 0.321493 0.348119 0.29121
509 4 0.27203 0.343255 0.299175
727 2 0.322199 0.398992 0.260784
438 4 0.284846 0.41309 0.257728
728 4 0.332754 0.411872 0.279435
753 4 0.392887 0.350194 0.303826
751 2 0.40867 0.364038 0.317406
434 4 0.343384 0.426234 0.291791
712 2 0.497634 0.419553 0.282418
445 2 0.445734 0.391389 0.262474
446 4 0.460218 0.405334 0.277337
713 4 0.472674 0.419747 0.283887
752 4 0.424453 0.377882 0.330986
777 4 0.0647599 0.485879 0.32408
549 4 0.0585838 0.473001 0.338682
603 4 0.083566 0.43392 0.286934
413 4 0.121933 0.501557 0.3104
412 2 0.132995 0.493745 0.289381
602 4 0.130668 0.44593 0.275192
601 2 0.107117 0.439925 0.281063
414 4 0.144057 0.485933 0.268363
775 2 0.0872719 0.496583 0.326035
437 4 0.253053 0.435926 0.288849
436 2 0.268949 0.424508 0.273288
1437 4 0.275025 0.491835 0.319254
1435 2 0.267085 0.469279 0.311952
1436 4 0.259144 0.446722 0.304649
433 2 0.347982 0.432174 0.31564
1801 2 0.35756 0.443858 0.259739
1803 4 0.34879 0.42352 0.271343
231 4 0.444598 0.502647 0.277533
318 4 0.0488001 0.0270107 0.344005
234 4 0.0327391 0.0299011 0.331737
232 2 0.0114423 0.0282194 0.344729
316 2 0.064625 0.0286846 0.363291
317 4 0.08045 0.0303586 0.382577
428 4 0.0866322 0.0143085 0.394639
606 4 0.244205 0.0369957 0.345201
441 4 0.254393 0.0210794 0.352888
724 2 0.327595 0.00712444 0.368839
726 4 0.303799 0.999547 0.367595
440 4 0.292257 0.00867968 0.383108
439 2 0.273325 0.0148796 0.367998
725 4 0.35139 0.0147015 0.370084
698 4 0.392666 0.0351379 0.326982
257 4 0.388879 0.0491043 0.343692
256 2 0.389797 0.045721 0.368448
258 4 0.390716 0.0423377 0.393205
425 4 0.406361 0.0315698 0.393514
351 4 0.408094 0.0476118 0.334791
452 4 0.431693 0.0838378 0.384735
2655 4 0.00273269 0.139251 0.375287
397 2 0.0759514 0.0880233 0.357993
399 4 0.084713 0.0896557 0.381354
2653 2 0.0271037 0.144742 0.376325
2654 4 0.0514747 0.150234 0.377363
732 4 0.0829823 0.109134 0.385931
392 4 0.0535134 0.152444 0.357831
391 2 0.0624059 0.167514 0.33997
731 4 0.118677 0.142682 0.395989
730 2 0.10083 0.125908 0.39096
686 4 0.137141 0.147135 0.384891
599 4 0.123011 0.163005 0.390828
685 2 0.154974 0.134795 0.397335
687 4 0.172807 0.122454 0.40978
683 4 0.318199 0.0833578 0.396029
467 4 0.337476 0.148602 0.400161
453 4 0.410997 0.124106 0.405968
515 4 0.392451 0.123843 0.415966
451 2 0.421345 0.103972 0.395352
598 2 0.118817 0.182849 0.376206
600 4 0.114623 0.202693 0.361585
260 4 0.113254 0.232427 0.39561
275 4 0.17061 0.210595 0.407709
474 4 0.214993 0.197074 0.368022
276 4 0.194473 0.1932 0.367352
472 2 0.23712 0.18645 0.372788
274 2 0.182541 0.201897 0.38753
473 4 0.259247 0.175826 0.377555
468 4 0.3144 0.192129 0.408738
466 2 0.325938 0.170365 0.404449
410 4 0.300766 0.193529 0.42231
614 4 0.413303 0.210198 0.332978
613 2 0.403679 0.227637 0.348093
269 4 0.454929 0.221095 0.386218
306 4 0.459436 0.209603 0.402389
268 2 0.455958 0.245761 0.382256
444 4 0.0146428 0.27723 0.33736
389 4 0.158489 0.286649 0.339302
388 2 0.13574 0.289618 0.349244
390 4 0.112991 0.292587 0.359186
616 2 0.0985932 0.306794 0.385497
618 4 0.09539 0.30542 0.410256
617 4 0.101796 0.308168 0.360738
347 4 0.0935517 0.287493 0.419122
401 4 0.177671 0.291928 0.338046
400 2 0.19153 0.295588 0.358533
375 4 0.203416 0.313535 0.39386
402 4 0.20539 0.299248 0.379019
373 2 0.190642 0.306472 0.41416
378 4 0.274514 0.303209 0.348642
489 4 0.306779 0.279841 0.404385
376 2 0.285558 0.291566 0.367816
377 4 0.296602 0.279923 0.38699
487 2 0.328823 0.277321 0.415912
510 4 0.265307 0.305057 0.330742
615 4 0.394054 0.245076 0.363207
716 4 0.396098 0.242502 0.383159
715 2 0.380882 0.253121 0.399918
270 4 0.456986 0.270427 0.378294
2924 4 0.458018 0.290539 0.378743
2923 2 0.441272 0.302902 0.392596
2925 4 0.424526 0.315266 0.406448
406 2 0.0381191 0.390479 0.335814
407 4 0.0341569 0.414874 0.339602
680 4 0.0468865 0.40264 0.407546
676 2 0.176959 0.38053 0.335748
678 4 0.189173 0.372547 0.356052
651 4 0.313565 0.367371 0.413148
649 2 0.297744 0.386007 0.418397
559 2 0.426299 0.402466 0.369336
561 4 0.427291 0.391365 0.346953
560 4 0.425307 0.413566 0.391718
548 4 0.0501325 0.424279 0.346127
547 2 0.0543581 0.44864 0.342404
2 3 0.319953 0.476879 0.354053
3 3 0.326836 0.458273 0.385977
435 4 0.35258 0.438114 0.339488
4 3 0.345264 0.449094 0.354031
5 3 0.352593 0.481623 0.371519
1 1 0.336314 0.466518 0.366468
668 4 0.422076 0.425041 0.40936
593 4 0.456459 0.488183 0.376617
588 4 0.441962 0.421852 0.402543
368 4 0.0918601 0.0635543 0.425564
340 2 0.173196 0.0862129 0.497416
1180 2 0.280445 0.0654751 0.470678
1181 4 0.278765 0.0479547 0.488438
424 2 0.39982 0.0167771 0.412581
457 2 0.0261022 0.149365 0.468768
719 4 0.0569304 0.127581 0.478915
459 4 0.0504327 0.14665 0.473851
718 2 0.0588022 0.104944 0.489367
367 2 0.106023 0.0826735 0.433248
369 4 0.120186 0.101793 0.440932
939 4 0.131909 0.116903 0.446688
937 2 0.125544 0.141049 0.447968
938 4 0.119178 0.165194 0.449248
342 4 0.190232 0.102256 0.488609
1151 4 0.166522 0.10852 0.424312
1150 2 0.174223 0.106652 0.448026
1152 4 0.181925 0.104784 0.471741
1182 4 0.282124 0.0829955 0.452919
682 2 0.306363 0.0883782 0.417473
684 4 0.294526 0.0933985 0.438918
321 4 0.286126 0.141203 0.469887
320 4 0.274956 0.100655 0.442834
319 2 0.280541 0.120929 0.456361
899 4 0.306475 0.138691 0.470446
898 2 0.317693 0.160815 0.467309
516 4 0.378346 0.16075 0.446621
514 2 0.385398 0.142297 0.431294
575 4 0.389942 0.170918 0.459726
259 2 0.114007 0.236546 0.42026
1034 4 0.132684 0.175866 0.461372
261 4 0.11476 0.240664 0.444911
1035 4 0.123469 0.224744 0.456196
1033 2 0.128076 0.200305 0.458784
695 4 0.110733 0.239457 0.465928
694 2 0.108282 0.244126 0.490369
857 4 0.196174 0.211566 0.475793
856 2 0.194174 0.216723 0.500177
411 4 0.261691 0.222733 0.433307
409 2 0.281229 0.208131 0.427808
900 4 0.32891 0.18294 0.464171
813 4 0.386765 0.247314 0.489953
574 2 0.412814 0.180946 0.46095
304 2 0.454929 0.201662 0.425666
305 4 0.450421 0.193721 0.448943
576 4 0.435686 0.190974 0.462175
346 2 0.103987 0.289349 0.441768
348 4 0.114422 0.291205 0.464413
10 3 0.128723 0.302488 0.471252
6 1 0.129593 0.322122 0.48276
9 3 0.138049 0.318449 0.504053
8 3 0.142959 0.337345 0.471446
374 4 0.177867 0.299409 0.434461
717 4 0.365665 0.263741 0.416678
266 4 0.374346 0.242685 0.475287
488 4 0.350867 0.274801 0.42744
265 2 0.37255 0.257777 0.455433
267 4 0.370753 0.272868 0.435579
872 4 0.450083 0.249759 0.490362
2456 4 0.493414 0.309859 0.47449
584 4 0.48944 0.292275 0.467086
585 4 0.46623 0.25032 0.481292
583 2 0.477835 0.271298 0.474189
239 4 0.421982 0.323719 0.42467
2812 2 0.00740277 0.352701 0.429598
2813 4 0.0309005 0.361223 0.430231
7 3 0.108361 0.330783 0.484582
504 4 0.240511 0.396679 0.47509
709 2 0.197272 0.396942 0.483338
711 4 0.173265 0.391476 0.487693
710 4 0.221279 0.402408 0.478982
502 2 0.257605 0.395637 0.456873
503 4 0.274699 0.394595 0.438655
650 4 0.281923 0.404644 0.423645
238 2 0.405089 0.337517 0.436894
669 4 0.383338 0.412661 0.43846
334 2 0.372767 0.382386 0.453886
240 4 0.388195 0.351314 0.449118
335 4 0.378652 0.360346 0.464123
336 4 0.366883 0.404426 0.443649
681 4 0.0698648 0.42883 0.443418
679 2 0.0583756 0.415735 0.425482
383 4 0.0798955 0.445632 0.445501
384 4 0.121745 0.470761 0.434645
569 4 0.140425 0.470833 0.444121
382 2 0.10082 0.458196 0.440073
568 2 0.148289 0.49447 0.441966
634 2 0.190012 0.470727 0.497225
635 4 0.193535 0.450939 0.482353
773 4 0.246661 0.441052 0.444128
772 2 0.230025 0.445292 0.462306
774 4 0.213388 0.449532 0.480483
636 4 0.186489 0.490516 0.512097
667 2 0.402707 0.418851 0.42391
2506 2 0.504137 0.430709 0.469755
1910 4 0.453636 0.476777 0.49881
587 4 0.474351 0.422706 0.440634
663 4 0.465151 0.436414 0.45433
586 2 0.458157 0.422279 0.421589
2507 4 0.486693 0.435844 0.452594
661 2 0.455504 0.45554 0.467226
662 4 0.445857 0.474666 0.480123
2428 2 0.113981 0.0667903 0.502808
2429 4 0.089422 0.0712265 0.50434
2430 4 0.13854 0.0623541 0.501277
341 4 0.15616 0.0701696 0.506224
961 2 0.257592 0.0275566 0.507053
963 4 0.26939 0.0495876 0.507843
430 2 0.313115 0.0377606 0.503506
432 4 0.28831 0.0395534 0.506087
431 4 0.33792 0.0359678 0.500926
841 2 0.378069 0.030005 0.500925
843 4 0.357617 0.0442749 0.502731
842 4 0.398522 0.0157352 0.49912
1217 4 0.409179 0.00361177 0.510986
1062 4 0.511632 0.0263146 0.565838
1060 2 0.491359 0.0165968 0.576781
810 4 0.464905 0.0633825 0.531531
808 2 0.472695 0.0700874 0.554324
720 4 0.060674 0.0823066 0.499818
641 4 0.49701 0.135679 0.540885
809 4 0.480485 0.0767923 0.577118
2657 4 0.473414 0.169878 0.511251
640 2 0.503122 0.118311 0.523967
469 2 0.0282929 0.192973 0.532461
470 4 0.013435 0.212105 0.526263
1199 4 0.999436 0.215191 0.540307
471 4 0.0431508 0.173841 0.538658
877 2 0.118828 0.22111 0.548599
879 4 0.128858 0.209435 0.568303
878 4 0.108798 0.232785 0.528894
696 4 0.105831 0.248794 0.51481
327 4 0.0972237 0.249585 0.534751
858 4 0.192175 0.22188 0.524561
811 2 0.385325 0.250928 0.514652
982 2 0.0392837 0.319186 0.543791
983 4 0.0176679 0.330914 0.539275
984 4 0.0608994 0.307458 0.548307
326 4 0.0770411 0.292953 0.549332
1136 4 0.0786556 0.313092 0.560025
1135 2 0.0853694 0.319916 0.583124
325 2 0.0871324 0.271269 0.542041
1258 2 0.156599 0.306239 0.539976
1259 4 0.141758 0.317257 0.523139
1260 4 0.171441 0.29522 0.556813
1239 4 0.27198 0.310516 0.581312
1237 2 0.295011 0.303834 0.574231
1238 4 0.318041 0.297153 0.567151
804 4 0.253008 0.31547 0.5815
792 4 0.334852 0.287319 0.574399
812 4 0.383884 0.254542 0.539351
790 2 0.352879 0.278617 0.559416
791 4 0.370906 0.269915 0.544434
873 4 0.429598 0.261693 0.534392
871 2 0.439841 0.255726 0.512377
953 4 0.421132 0.275364 0.545443
952 2 0.413963 0.262598 0.565711
934 2 0.0253844 0.411626 0.550184
936 4 0.0170392 0.402478 0.528462
3353 4 0.0129248 0.38268 0.532024
802 2 0.233562 0.325492 0.569393
803 4 0.214116 0.335514 0.557285
1190 4 0.19473 0.336398 0.564094
1189 2 0.183461 0.356406 0.573985
1191 4 0.172192 0.376414 0.583877
880 2 0.360127 0.390485 0.570767
881 4 0.350834 0.403397 0.551477
882 4 0.36942 0.377573 0.590057
930 4 0.387663 0.374599 0.581003
925 2 0.473368 0.367936 0.547826
926 4 0.494495 0.354998 0.544444
927 4 0.452241 0.380875 0.551208
1001 4 0.459364 0.394722 0.564249
1000 2 0.451705 0.406998 0.58464
935 4 0.0337295 0.420773 0.571906
539 4 0.071121 0.451109 0.516953
538 2 0.0713574 0.4757 0.52147
540 4 0.0715938 0.500291 0.525987
1159 2 0.139482 0.430833 0.518051
1160 4 0.136577 0.412756 0.53508
1161 4 0.142386 0.44891 0.501023
2154 4 0.295091 0.493276 0.576535
1453 2 0.324906 0.421186 0.529557
2152 2 0.318023 0.502043 0.581271
1455 4 0.315768 0.426828 0.506977
1454 4 0.334043 0.415544 0.552137
1909 2 0.465045 0.496296 0.509488
3182 4 0.477095 0.438141 0.596909
1031 4 0.228568 0.0619547 0.592766
1282 2 0.188269 0.068151 0.599995
1283 4 0.208918 0.0583111 0.589898
1284 4 0.167619 0.0779909 0.610092
2131 2 0.219082 0.0016742 0.611502
2133 4 0.203537 0.0097906 0.629324
1030 2 0.247506 0.0777128 0.588501
949 2 0.283622 0.000712882 0.591538
951 4 0.273658 0.0236291 0.590676
2281 2 0.388054 0.00660795 0.654737
2282 4 0.376337 0.0211431 0.638105
1092 4 0.36381 0.0205629 0.622404
1090 2 0.366681 0.014869 0.598227
1061 4 0.471085 0.00687909 0.587723
1083 4 0.0266216 0.125046 0.63497
1081 2 0.0355022 0.111012 0.653661
1082 4 0.0443828 0.0969781 0.672352
3179 4 0.00937242 0.133084 0.632101
1059 4 0.150604 0.0884637 0.607167
1058 4 0.148179 0.124006 0.642261
1057 2 0.149392 0.106235 0.624714
1155 4 0.161834 0.138602 0.649655
909 4 0.165164 0.117994 0.653792
1153 2 0.163877 0.160527 0.63781
907 2 0.185897 0.117754 0.667766
1032 4 0.266445 0.0934708 0.584237
1194 4 0.345609 0.139191 0.653344
1192 2 0.36158 0.149206 0.636918
1193 4 0.37755 0.159221 0.620492
3008 4 0.466167 0.0776037 0.590638
1026 4 0.434009 0.157308 0.662641
3009 4 0.497712 0.1074 0.615494
3007 2 0.481939 0.0925017 0.603066
1272 4 0.125412 0.215107 0.587409
1270 2 0.144424 0.201617 0.596449
948 4 0.168788 0.258815 0.660954
1154 4 0.16592 0.182452 0.625965
1271 4 0.163437 0.188128 0.605489
1221 4 0.180793 0.194768 0.616499
1219 2 0.205039 0.195213 0.622592
1220 4 0.229285 0.195657 0.628684
1212 4 0.248742 0.20006 0.636631
798 4 0.242503 0.208372 0.617847
796 2 0.241725 0.230811 0.606843
1211 4 0.278172 0.164848 0.656498
1210 2 0.263457 0.182454 0.646565
904 2 0.412085 0.21482 0.610945
906 4 0.420181 0.196436 0.625833
1024 2 0.429801 0.168028 0.640447
1025 4 0.425593 0.178748 0.618254
1145 4 0.470719 0.222014 0.665443
905 4 0.403988 0.233204 0.596057
1243 2 0.0331701 0.27758 0.656991
1244 4 0.0140012 0.28967 0.64643
1245 4 0.052339 0.265489 0.667553
1137 4 0.0920832 0.32674 0.606222
797 4 0.240947 0.253249 0.59584
954 4 0.406794 0.249831 0.58598
3113 4 0.494422 0.255189 0.602487
3264 4 0.0308229 0.406535 0.587884
3262 2 0.01663 0.391172 0.601585
3263 4 0.00243715 0.375809 0.615286
895 2 0.16369 0.40189 0.598479
992 4 0.130942 0.411337 0.598469
897 4 0.144938 0.408575 0.613606
896 4 0.182442 0.395204 0.583351
1140 4 0.276702 0.418218 0.659352
1138 2 0.258391 0.402798 0.666572
928 2 0.407684 0.359806 0.578656
929 4 0.427705 0.345013 0.576309
1206 4 0.442921 0.406832 0.620983
1041 4 0.0394844 0.425512 0.59203
1039 2 0.0614766 0.437399 0.592502
2172 4 0.0402108 0.496537 0.635062
3240 4 0.00548293 0.435219 0.650236
1281 4 0.0124491 0.443122 0.66862
1040 4 0.0834689 0.449285 0.592975
993 4 0.102978 0.45114 0.586872
991 2 0.11696 0.431239 0.59267
1173 4 0.278433 0.487346 0.587582
1172 4 0.278372 0.473368 0.635595
1171 2 0.278402 0.480357 0.611588
891 4 0.275771 0.472468 0.655099
889 2 0.297973 0.462507 0.660846
1204 2 0.439361 0.418974 0.642548
1002 4 0.444047 0.419275 0.605032
3183 4 0.458059 0.484382 0.597182
3181 2 0.467577 0.461262 0.597046
1268 4 0.471647 0.489097 0.660646
1267 2 0.457351 0.469338 0.666158
1205 4 0.435801 0.431116 0.664114
1269 4 0.443055 0.449579 0.67167
3440 4 0.48292 0.421468 0.607019
1892 4 0.0271471 0.0112476 0.674037
1183 2 0.0332076 0.0550084 0.682394
1184 4 0.025126 0.0313616 0.68156
4338 4 0.0165233 0.0154029 0.692753
4336 2 0.998288 0.00438341 0.705839
1185 4 0.0412891 0.0786553 0.683228
944 4 0.0609694 0.0874898 0.682068
943 2 0.0854533 0.0844256 0.686109
2049 4 0.101472 0.00725973 0.733342
945 4 0.109937 0.0813615 0.690151
1202 4 0.0896609 0.0216609 0.742907
2254 2 0.202828 0.0156571 0.719221
2256 4 0.21167 0.00928951 0.741726
2255 4 0.193987 0.0220247 0.696717
2400 4 0.340577 0.020677 0.716383
2398 2 0.341907 0.0403392 0.731771
2283 4 0.39977 0.992073 0.671369
42 3 0.40642 0.078319 0.727697
41 1 0.428946 0.0779685 0.723048
44 3 0.431988 0.0818627 0.700377
43 3 0.437452 0.0571384 0.728719
1076 4 0.0454178 0.0971078 0.693833
864 4 0.0278289 0.121693 0.74968
1075 2 0.0407925 0.11228 0.713162
1077 4 0.0361673 0.127452 0.732491
1179 4 0.0106184 0.157069 0.687327
1226 4 0.228035 0.131539 0.729045
908 4 0.20663 0.117515 0.68174
1225 2 0.227327 0.124581 0.705039
1227 4 0.226619 0.117623 0.681034
1148 4 0.243825 0.13018 0.74326
1005 4 0.281841 0.114937 0.727371
1003 2 0.295719 0.132625 0.738313
1004 4 0.309596 0.150313 0.749255
830 4 0.343259 0.122383 0.666434
887 4 0.328604 0.138323 0.666693
831 4 0.371354 0.0990633 0.700604
829 2 0.357306 0.110723 0.683519
1143 4 0.429452 0.145071 0.679517
45 3 0.439362 0.0941818 0.735184
1142 4 0.428007 0.0956025 0.686694
1141 2 0.428729 0.120337 0.683106
1178 4 0.0397086 0.197096 0.694561
1177 2 0.0251635 0.177083 0.690944
850 2 0.0491967 0.222966 0.677366
851 4 0.0494235 0.198034 0.675492
1107 4 0.0598754 0.188615 0.692431
1105 2 0.0754492 0.181995 0.710838
852 4 0.04897 0.247898 0.679241
1106 4 0.0910231 0.175375 0.729245
978 4 0.217468 0.218777 0.740987
976 2 0.2422 0.22101 0.738065
888 4 0.296627 0.175355 0.656355
886 2 0.312616 0.156839 0.661524
977 4 0.266932 0.223244 0.735144
1299 4 0.326129 0.187215 0.718212
1298 4 0.285866 0.21564 0.726674
1297 2 0.305997 0.201427 0.722443
918 4 0.285834 0.230965 0.741581
1084 2 0.35248 0.174346 0.744154
1086 4 0.336477 0.171798 0.725112
1262 4 0.428004 0.187164 0.719751
1261 2 0.436248 0.173664 0.700388
1263 4 0.444492 0.160164 0.681024
1144 2 0.485973 0.206448 0.677699
3426 4 0.491102 0.171798 0.697751
1209 4 0.0688037 0.255622 0.67729
816 4 0.0428247 0.324203 0.749029
1208 4 0.11502 0.264047 0.69443
1207 2 0.091912 0.259834 0.68586
821 4 0.134405 0.32028 0.718648
820 2 0.128797 0.296077 0.715833
822 4 0.123188 0.271874 0.713019
947 4 0.13475 0.272362 0.694993
1242 4 0.141042 0.322122 0.737328
946 2 0.151769 0.265589 0.677974
1065 4 0.271132 0.319452 0.714166
3123 4 0.487161 0.275175 0.665714
892 2 0.0479492 0.404492 0.737896
893 4 0.0646238 0.386956 0.74419
814 2 0.056002 0.345451 0.749207
815 4 0.0691793 0.3667 0.749384
894 4 0.0312745 0.422028 0.731602
940 2 0.0978855 0.378519 0.746888
941 4 0.118286 0.374175 0.7331
1067 4 0.133513 0.370517 0.718349
1066 2 0.154141 0.374762 0.704872
942 4 0.0774847 0.382862 0.760677
1029 4 0.227158 0.397279 0.6839
1068 4 0.174769 0.379007 0.691394
1139 4 0.24008 0.387379 0.673792
1028 4 0.177602 0.393677 0.678246
1027 2 0.20238 0.395478 0.681073
1236 4 0.243906 0.367351 0.758669
1063 2 0.263325 0.33744 0.729679
1064 4 0.255519 0.355429 0.745192
806 4 0.251578 0.377153 0.740767
1101 4 0.444755 0.408497 0.724009
1279 2 0.0220355 0.43887 0.691318
3276 4 0.0211161 0.441159 0.731381
1983 4 0.0431227 0.442204 0.731074
1981 2 0.0481285 0.466572 0.733584
1280 4 0.031622 0.434618 0.714016
1982 4 0.0531343 0.490941 0.736094
885 4 0.0550146 0.504413 0.750237
1188 4 0.230353 0.495839 0.682786
1174 2 0.221824 0.499412 0.720852
1175 4 0.22708 0.48642 0.700146
890 4 0.320175 0.452547 0.666593
1088 4 0.308918 0.498481 0.706533
1988 4 0.323745 0.485819 0.712431
1987 2 0.348085 0.481345 0.708864
1989 4 0.372425 0.476871 0.705296
1100 4 0.432099 0.43632 0.684431
1099 2 0.438427 0.422409 0.70422
1195 2 0.0760582 0.02066 0.824127
1203 4 0.0823617 0.044963 0.786547
1201 2 0.0860113 0.033312 0.764727
911 4 0.0915938 0.0555954 0.803356
1196 4 0.080681 0.0377035 0.806426
910 2 0.0950099 0.0791487 0.811021
1048 2 0.329582 0.0595423 0.786117
1050 4 0.321895 0.0678761 0.808403
1049 4 0.337269 0.0512085 0.763832
2399 4 0.343236 0.0600014 0.74716
1112 4 0.3936 0.0369619 0.801649
1111 2 0.417699 0.0310623 0.798551
846 4 0.472319 0.058139 0.744504
1113 4 0.441799 0.0251627 0.795453
844 2 0.460075 0.0425685 0.759763
845 4 0.447832 0.026998 0.775022
980 4 0.462288 0.0231347 0.790299
979 2 0.469175 0.0157517 0.813173
862 2 0.00963495 0.113135 0.764543
34 3 0.0604304 0.129955 0.815975
33 3 0.0970582 0.138867 0.811139
31 1 0.0809644 0.132321 0.826518
32 3 0.0870837 0.112053 0.835514
912 4 0.098426 0.102702 0.818686
1130 4 0.236486 0.149157 0.737326
1129 2 0.234109 0.168908 0.752473
1149 4 0.248907 0.0917186 0.774813
1257 4 0.330089 0.0815449 0.821774
1147 2 0.246366 0.110949 0.759037