ITEM: TIMESTEP
3420000
ITEM: NUMBER OF ATOMS
4590
ITEM: BOX BOUNDS pp pp pp
-9.9985700000000008e+00 9.9985700000000008e+00
-9.9985700000000008e+00 9.9985700000000008e+00
-9.9985700000000008e+00 9.9985700000000008e+00
ITEM: ATOMS id type xs ys zs
1666 2 0.0618611 0.0410399 0.0810498
1667 4 0.057385 0.0621929 0.0684922
591 4 0.0425366 0.0764759 0.0632145
702 4 0.060951 0.0832895 0.071479
533 4 0.168505 0.013363 0.0502563
1476 4 0.159368 0.00759101 0.068704
532 2 0.167546 0.0305084 0.0320824
534 4 0.166587 0.0476538 0.0139084
423 4 0.17998 0.0639349 0.0171215
421 2 0.190864 0.0839619 0.0273988
490 2 0.271952 0.0777027 0.0624447
492 4 0.277178 0.0542673 0.0694201
296 4 0.437058 0.0768735 0.0564167
589 2 0.0356775 0.0952787 0.0482283
590 4 0.0288184 0.114082 0.0332422
3232 2 0.034479 0.142216 0.00755862
3233 4 0.0185116 0.129822 0.0222758
1248 4 0.0104264 0.110019 0.0224355
422 4 0.201749 0.103989 0.0376762
652 2 0.237503 0.120107 0.0403587
654 4 0.213666 0.119916 0.0328112
491 4 0.266727 0.101138 0.0554694
653 4 0.261339 0.120298 0.0479062
565 2 0.298421 0.119455 0.0281472
566 4 0.315726 0.12571 0.0112188
567 4 0.281115 0.1132 0.0450756
866 4 0.323046 0.144942 0.00331834
665 4 0.334867 0.133904 0.0172177
556 2 0.402831 0.148539 0.0579355
664 2 0.349896 0.14608 0.0330628
557 4 0.41962 0.138886 0.0737509
558 4 0.386042 0.158192 0.0421201
666 4 0.364925 0.158255 0.0489079
297 4 0.433362 0.123886 0.0730565
295 2 0.43521 0.10038 0.0647366
237 4 0.103782 0.1665 0.0731261
255 4 0.329721 0.238027 0.0835549
571 2 0.375369 0.195613 0.0234919
572 4 0.371502 0.173472 0.0344465
573 4 0.379235 0.217754 0.0125374
1071 4 0.376778 0.236973 0.0152449
322 2 0.449962 0.239218 0.0473463
323 4 0.472176 0.238858 0.0358745
518 4 0.483382 0.230248 0.0521281
324 4 0.427749 0.239578 0.0588181
623 4 0.432849 0.247856 0.0760531
505 2 0.139782 0.29945 0.00661804
292 2 0.142649 0.318607 0.0609809
507 4 0.147225 0.314413 0.0252165
288 4 0.167706 0.322471 0.0247566
293 4 0.159487 0.314549 0.0429481
286 2 0.190267 0.326871 0.0345964
483 4 0.214882 0.313466 0.0524735
481 2 0.226519 0.317607 0.0742132
1069 2 0.383918 0.260926 0.0159146
957 4 0.389527 0.304132 0.0113411
1070 4 0.391057 0.28488 0.0165843
955 2 0.411701 0.308366 0.0220914
771 4 0.492811 0.24414 0.0388051
956 4 0.433875 0.312599 0.0328416
282 4 0.438301 0.332145 0.0361116
1168 2 0.0097866 0.391222 0.0380619
1170 4 0.00130171 0.36911 0.046077
1169 4 0.0182715 0.413335 0.0300468
1056 4 0.00835308 0.356935 0.0311025
287 4 0.212828 0.33127 0.0444361
607 2 0.294857 0.386075 0.0771981
608 4 0.283939 0.402133 0.0614459
626 4 0.268073 0.41396 0.0674356
280 2 0.452941 0.345247 0.0515772
281 4 0.467581 0.358349 0.0670428
494 4 0.451192 0.371601 0.0722659
330 4 0.00488722 0.420275 0.0149138
551 4 0.00489272 0.429527 0.0345006
550 2 0.00904963 0.443827 0.054586
552 4 0.0132065 0.458126 0.0746715
1786 2 0.0942776 0.448524 0.0748096
1788 4 0.100784 0.424886 0.0699007
1787 4 0.0877714 0.472161 0.0797186
241 2 0.244402 0.492396 0.0612419
243 4 0.255847 0.473003 0.0721085
625 2 0.268608 0.437495 0.0758616
627 4 0.269143 0.46103 0.0842875
245 4 0.351571 0.416778 0.0729356
244 2 0.349052 0.42061 0.0483563
246 4 0.346533 0.424443 0.0237769
40 3 0.346193 0.426839 0.00162554
272 4 0.340566 0.444149 0.0138034
271 2 0.356407 0.462167 0.00676417
2388 4 0.412479 0.49243 0.995755
564 4 0.466795 0.458296 0.996517
562 2 0.449356 0.476148 0.994973
1668 4 0.0663372 0.0198868 0.0936073
2481 4 0.0234461 0.0258255 0.12625
18 3 0.0124466 0.0413226 0.118168
2479 2 0.0127849 0.00531172 0.135774
16 1 0.0244358 0.0609852 0.115332
19 3 0.0471938 0.0564601 0.115358
20 3 0.0194064 0.0756301 0.132032
17 3 0.0187327 0.0703198 0.095096
1474 2 0.155089 0.0208103 0.0894916
1475 4 0.150811 0.0340297 0.110279
1785 4 0.339487 0.0533776 0.173417
700 2 0.0775209 0.0956082 0.085581
450 4 0.150704 0.0881082 0.0849971
236 4 0.104809 0.126287 0.102835
235 2 0.104295 0.146393 0.0879805
701 4 0.0940908 0.107927 0.099683
448 2 0.131825 0.098151 0.0979549
449 4 0.112946 0.108194 0.110913
749 4 0.0655361 0.209225 0.15761
477 4 0.0917469 0.181908 0.0768565
476 4 0.0979206 0.225928 0.0997662
339 4 0.10506 0.228893 0.118199
475 2 0.0948337 0.203918 0.0883113
337 2 0.117759 0.242135 0.135187
352 2 0.25257 0.234385 0.133912
461 4 0.282062 0.216165 0.112156
354 4 0.273979 0.222869 0.128064
460 2 0.301049 0.218949 0.0961273
462 4 0.320036 0.221732 0.0800984
254 4 0.373922 0.244016 0.106161
253 2 0.351822 0.241021 0.0948582
630 4 0.391431 0.235727 0.116837
628 2 0.38443 0.2181 0.133131
629 4 0.37743 0.200473 0.149424
537 4 0.0887622 0.315781 0.139355
294 4 0.125811 0.322665 0.0790138
455 4 0.0893892 0.298617 0.130477
456 4 0.110493 0.316987 0.0890289
338 4 0.130458 0.255377 0.152174
363 4 0.118959 0.26549 0.163275
454 2 0.0999409 0.307802 0.109753
353 4 0.23116 0.245901 0.13976
736 2 0.197973 0.262073 0.159672
737 4 0.221049 0.262054 0.150045
755 4 0.236727 0.266087 0.135578
482 4 0.238156 0.321748 0.0959528
754 2 0.240126 0.288179 0.124373
756 4 0.243526 0.310272 0.113169
738 4 0.174897 0.262091 0.169299
252 4 0.257909 0.323249 0.103815
622 2 0.412834 0.251046 0.0906947
624 4 0.392818 0.254237 0.105336
741 4 0.394784 0.282522 0.0891333
739 2 0.377742 0.299793 0.0951713
740 4 0.360701 0.317065 0.101209
386 4 0.362447 0.329699 0.0863603
535 2 0.0838969 0.33387 0.155917
609 4 0.305774 0.370018 0.0929503
387 4 0.320601 0.355207 0.0963087
250 2 0.278723 0.336619 0.100181
251 4 0.299537 0.349989 0.0965469
385 2 0.341524 0.342453 0.0913345
11 1 0.413528 0.396152 0.137061
15 3 0.391557 0.390479 0.13899
671 4 0.466271 0.368082 0.0868095
14 3 0.422408 0.386956 0.117696
495 4 0.425882 0.401927 0.102933
12 3 0.425092 0.387942 0.155172
493 2 0.438537 0.386764 0.0875997
595 2 0.468265 0.397458 0.139813
596 4 0.491282 0.406286 0.135634
597 4 0.445248 0.388631 0.143993
670 2 0.489378 0.360764 0.092949
645 4 0.443763 0.390804 0.166587
2652 4 0.491928 0.415565 0.116972
1691 4 0.0829264 0.489581 0.0910422
315 4 0.0180504 0.469947 0.091736
620 4 0.00215827 0.454707 0.0924863
313 2 0.0427878 0.47253 0.0891738
314 4 0.0675252 0.475113 0.0866116
1467 4 0.0174951 0.49061 0.157456
1440 4 0.253563 0.473365 0.0937322
1438 2 0.265991 0.485886 0.111452
637 2 0.277968 0.497103 0.172518
639 4 0.27953 0.492428 0.148006
659 4 0.344715 0.456956 0.160457
525 4 0.355969 0.460596 0.145342
523 2 0.344335 0.482132 0.140244
13 3 0.415731 0.419246 0.136596
688 2 0.123831 0.0795713 0.223911
689 4 0.113294 0.0704477 0.24467
1403 4 0.100568 0.0525155 0.242509
1402 2 0.0993273 0.0275463 0.242086
1404 4 0.0980863 0.0025771 0.241663
22 3 0.33429 0.0551364 0.24168
21 1 0.342013 0.0761126 0.247113
1783 2 0.341156 0.0710668 0.191009
757 2 0.387414 0.0764049 0.215205
758 4 0.410842 0.0689896 0.219821
759 4 0.363986 0.0838202 0.210588
1496 4 0.337285 0.0346372 0.238934
312 4 0.432476 0.0702522 0.220102
744 4 0.421352 0.0702968 0.238718
310 2 0.445842 0.0716767 0.199018
311 4 0.459208 0.0731012 0.177935
690 4 0.134368 0.0886949 0.203153
693 4 0.148436 0.0983566 0.193572
691 2 0.159744 0.120037 0.198796
692 4 0.171051 0.141717 0.204021
723 4 0.183944 0.155503 0.208746
721 2 0.182654 0.156119 0.233709
23 3 0.324151 0.0890443 0.254334
1784 4 0.342826 0.0887561 0.208601
25 3 0.351538 0.0855933 0.228727
707 4 0.363762 0.142573 0.196934
706 2 0.377332 0.162753 0.191122
748 2 0.0608614 0.225886 0.175659
750 4 0.0561867 0.242546 0.193708
396 4 0.0538829 0.240446 0.213946
394 2 0.0465901 0.254282 0.233455
582 4 0.285696 0.18496 0.210065
285 4 0.27853 0.170254 0.222886
581 4 0.325002 0.196914 0.181554
580 2 0.305349 0.190937 0.195809
283 2 0.270487 0.186443 0.24016
344 4 0.263551 0.220745 0.252663
30 3 0.341286 0.207192 0.191041
28 3 0.362204 0.2299 0.169489
27 3 0.369219 0.2267 0.206275
708 4 0.390902 0.182933 0.18531
29 3 0.376965 0.19781 0.183516
26 1 0.362272 0.215313 0.187534
361 2 0.127716 0.288137 0.169241
362 4 0.136473 0.310785 0.175206
372 4 0.147807 0.305037 0.192007
370 2 0.167205 0.304894 0.207783
371 4 0.186603 0.30475 0.223559
279 4 0.206202 0.296077 0.221041
612 4 0.201796 0.315975 0.213189
277 2 0.217576 0.285121 0.240426
765 4 0.38788 0.311802 0.227101
763 2 0.3646 0.310501 0.218072
764 4 0.34132 0.3092 0.209042
542 4 0.384234 0.293092 0.233501
541 2 0.405545 0.283788 0.242692
521 4 0.446569 0.267183 0.247716
536 4 0.0790316 0.351959 0.172479
603 4 0.132801 0.406382 0.241852
610 2 0.215189 0.336967 0.215455
417 4 0.238711 0.374932 0.222722
611 4 0.228583 0.357959 0.217721
415 2 0.248437 0.397939 0.223837
303 4 0.326664 0.406014 0.235495
301 2 0.334607 0.401344 0.212251
660 4 0.352403 0.411853 0.18064
302 4 0.342549 0.396675 0.189007
644 4 0.433646 0.400715 0.214546
643 2 0.438705 0.39576 0.190566
447 4 0.424406 0.39407 0.231287
263 4 0.0163264 0.474184 0.171705
262 2 0.0233004 0.455016 0.186166
1757 4 0.0351528 0.436751 0.218932
264 4 0.0302744 0.435848 0.200627
1756 2 0.0332019 0.432988 0.243573
647 4 0.000950477 0.48962 0.170701
1436 4 0.25392 0.430259 0.243767
436 2 0.297205 0.422813 0.244842
416 4 0.258163 0.420946 0.224952
437 4 0.274072 0.428423 0.237188
291 4 0.260597 0.442204 0.22728
638 4 0.276405 0.501778 0.197031
289 2 0.270585 0.462904 0.217435
290 4 0.280573 0.483604 0.20759
767 4 0.296447 0.497566 0.204595
658 2 0.348559 0.434404 0.170548
673 2 0.076916 0.0779291 0.253928
675 4 0.0982989 0.0661076 0.259239
249 4 0.155039 0.0663605 0.324697
1700 4 0.230145 0.0553854 0.266363
1699 2 0.215205 0.0419719 0.281265
248 4 0.185923 0.0290239 0.312333
247 2 0.170481 0.0476922 0.318515
1701 4 0.200266 0.0285584 0.296167
605 4 0.199817 0.013064 0.310796
1497 4 0.361293 0.999048 0.26458
699 4 0.37571 0.00949775 0.276764
1495 2 0.349289 0.0168426 0.251757
697 2 0.385246 0.0220901 0.296146
698 4 0.394782 0.0346824 0.315528
349 2 0.400814 0.0733713 0.307028
351 4 0.396305 0.0546443 0.32297
24 3 0.357741 0.0741589 0.26406
257 4 0.389566 0.0394894 0.336247
1749 4 0.432492 0.0105042 0.256732
478 2 0.486415 0.0693438 0.283052
1747 2 0.44667 0.0297562 0.264048
1748 4 0.460848 0.0490082 0.271364
480 4 0.474882 0.0600897 0.262889
579 4 0.997781 0.165241 0.258023
674 4 0.0555332 0.0897506 0.248618
398 4 0.0050094 0.14463 0.329178
600 4 0.149158 0.154002 0.336563
545 4 0.15454 0.139522 0.321681
544 2 0.162052 0.145727 0.298654
546 4 0.169563 0.151931 0.275626
722 4 0.181365 0.156735 0.258671
332 4 0.398011 0.159467 0.274875
331 2 0.400571 0.134712 0.277281
350 4 0.405323 0.0920982 0.291086
333 4 0.403131 0.109956 0.279687
742 2 0.421671 0.0849109 0.259004
743 4 0.421991 0.099525 0.279289
577 2 0.0200697 0.175633 0.262542
578 4 0.0423581 0.186025 0.26706
391 2 0.0504319 0.196361 0.309425
393 4 0.0498072 0.189642 0.285349
276 4 0.180774 0.198597 0.326678
474 4 0.199162 0.190766 0.332986
274 2 0.169467 0.219056 0.335553
343 2 0.253922 0.242153 0.261274
284 4 0.262444 0.202632 0.257434
614 4 0.387749 0.234355 0.301315
613 2 0.377575 0.23517 0.324141
762 4 0.406924 0.170528 0.289212
760 2 0.403642 0.193986 0.29722
419 4 0.409216 0.235738 0.298762
761 4 0.40036 0.217444 0.305228
418 2 0.422972 0.249115 0.28273
442 2 0.0144518 0.299323 0.255813
444 4 0.0358052 0.286596 0.258508
395 4 0.0392974 0.268117 0.252963
278 4 0.22895 0.274165 0.259811
309 4 0.231864 0.277918 0.280604
345 4 0.244294 0.263561 0.269885
307 2 0.247228 0.285871 0.298656
509 4 0.251999 0.300108 0.33456
308 4 0.262592 0.293825 0.316707
497 4 0.27147 0.291743 0.336033
2682 4 0.496202 0.252995 0.283102
543 4 0.426855 0.274484 0.251883
520 2 0.469151 0.260418 0.25605
522 4 0.491733 0.253652 0.264385
420 4 0.436728 0.262491 0.266698
407 4 0.0207527 0.386143 0.321407
548 4 0.0292488 0.398646 0.308241
547 2 0.0427185 0.412209 0.324359
300 4 0.138708 0.400076 0.260288
298 2 0.136099 0.377407 0.270511
734 4 0.129839 0.339301 0.292323
299 4 0.133489 0.354739 0.280733
733 2 0.141556 0.343435 0.314021
438 4 0.320337 0.417202 0.252497
729 4 0.333132 0.399724 0.255102
751 2 0.407263 0.412407 0.301067
727 2 0.352001 0.411617 0.266401
445 2 0.431414 0.408968 0.250105
752 4 0.424875 0.400694 0.3144
561 4 0.445574 0.399257 0.319005
1758 4 0.031251 0.429225 0.268215
777 4 0.0612749 0.443044 0.330644
601 2 0.143109 0.427485 0.25043
412 2 0.141284 0.449995 0.300555
413 4 0.130611 0.445744 0.322762
776 4 0.109921 0.451136 0.322351
775 2 0.085598 0.44709 0.326498
414 4 0.151958 0.454247 0.278347
602 4 0.153417 0.448588 0.259008
1435 2 0.234864 0.443288 0.253374
1437 4 0.215808 0.456317 0.262982
435 4 0.324831 0.455672 0.322835
2 3 0.346799 0.469653 0.28305
4 3 0.343704 0.463553 0.320008
753 4 0.38965 0.424121 0.287733
728 4 0.370871 0.423509 0.2777
1 1 0.347784 0.479611 0.303763
5 3 0.36848 0.488626 0.306775
1803 4 0.379922 0.442596 0.282892
1802 4 0.39802 0.483674 0.260852
1801 2 0.388971 0.463135 0.271872
3 3 0.33166 0.496261 0.304856
446 4 0.438423 0.423867 0.268922
2862 4 0.503946 0.443035 0.282898
116 1 0.497621 0.452369 0.323745
713 4 0.43327 0.437355 0.283322
712 2 0.457766 0.441907 0.285412
714 4 0.482263 0.446459 0.287502
231 4 0.464234 0.471095 0.326096
229 2 0.459513 0.492558 0.314171
119 3 0.475696 0.453157 0.331301
233 4 0.0101893 0.0551701 0.36189
318 4 0.0720625 0.0730655 0.392286
234 4 0.0546635 0.0655004 0.382287
232 2 0.0324264 0.0603352 0.372088
1464 4 0.125991 0.0068703 0.337233
404 4 0.153858 0.0834583 0.334275
316 2 0.0922562 0.0615498 0.401494
317 4 0.11245 0.0500342 0.410701
427 2 0.0972105 0.00740507 0.414131
428 4 0.104437 0.0310793 0.417665
684 4 0.263942 0.0695301 0.401252
632 4 0.276885 0.0373672 0.345398
631 2 0.298981 0.0272825 0.351336
682 2 0.26373 0.0578154 0.379164
683 4 0.263517 0.0461008 0.357075
1182 4 0.255444 0.0714403 0.42071
633 4 0.321077 0.0171977 0.357273
725 4 0.334799 0.00130565 0.36083
724 2 0.359089 0.00660109 0.358158
726 4 0.383379 0.0118965 0.355486
256 2 0.404689 0.0437379 0.3557
258 4 0.419813 0.0479865 0.375152
424 2 0.418165 0.0126778 0.4034
514 2 0.420732 0.0723417 0.400694
2643 4 0.494608 0.0466808 0.359212
425 4 0.422846 0.0296602 0.385655
452 4 0.478753 0.0364017 0.359685
451 2 0.458165 0.0408545 0.373156
453 4 0.437577 0.0453073 0.386628
515 4 0.418818 0.047719 0.39679
397 2 0.0289785 0.139084 0.333639
399 4 0.0529476 0.133538 0.3381
732 4 0.0557884 0.136143 0.357595
730 2 0.0783843 0.144107 0.364748
405 4 0.152206 0.132885 0.34169
403 2 0.153032 0.108172 0.337983
598 2 0.131681 0.161714 0.352695
685 2 0.124892 0.154207 0.408755
731 4 0.10098 0.152071 0.371902
686 4 0.118378 0.155597 0.384655
320 4 0.268047 0.0869475 0.413489
319 2 0.267509 0.111079 0.406967
467 4 0.277125 0.150666 0.38947
321 4 0.26697 0.135211 0.400444
899 4 0.268872 0.155 0.408513
574 2 0.439051 0.124611 0.391308
576 4 0.439598 0.141107 0.372526
305 4 0.434424 0.157593 0.362121
575 4 0.438503 0.108114 0.410089
516 4 0.422645 0.0969644 0.404598
392 4 0.0510566 0.203081 0.3335
2654 4 0.0526108 0.213582 0.350347
2653 2 0.0329343 0.229008 0.350093
599 4 0.114203 0.169426 0.368828
616 2 0.0821697 0.248746 0.411527
617 4 0.0881672 0.233589 0.392568
388 2 0.121357 0.226802 0.368182
390 4 0.0995423 0.223189 0.379855
389 4 0.143171 0.230414 0.35651
275 4 0.15816 0.239515 0.344428
401 4 0.1566 0.245152 0.365078
472 2 0.219363 0.195371 0.346983
473 4 0.239563 0.199975 0.360979
410 4 0.25026 0.211771 0.375105
468 4 0.257408 0.192196 0.369794
466 2 0.267266 0.171431 0.379632
409 2 0.257833 0.225005 0.394922
411 4 0.265405 0.238238 0.414739
717 4 0.344849 0.250983 0.408811
615 4 0.367402 0.235985 0.346967
715 2 0.356422 0.244517 0.387611
716 4 0.367995 0.238052 0.366411
304 2 0.444314 0.180132 0.366521
269 4 0.448387 0.221751 0.369353
306 4 0.454204 0.202671 0.37092
268 2 0.44001 0.230797 0.391106
270 4 0.431632 0.239842 0.412859
2655 4 0.0132578 0.244434 0.349839
2814 4 0.0114818 0.33024 0.410978
400 2 0.172399 0.259174 0.378456
402 4 0.188198 0.273196 0.391834
375 4 0.179388 0.289162 0.400376
373 2 0.202282 0.299214 0.400235
374 4 0.225176 0.309265 0.400095
510 4 0.233258 0.30574 0.38058
378 4 0.242531 0.297318 0.397771
508 2 0.242628 0.302924 0.35757
498 4 0.320315 0.302434 0.335339
496 2 0.295893 0.297089 0.335686
376 2 0.256622 0.27828 0.40578
406 2 0.00788388 0.375031 0.339739
735 4 0.153273 0.347568 0.335719
677 4 0.156549 0.365788 0.343899
502 2 0.158947 0.400498 0.416247
676 2 0.166636 0.377331 0.363652
678 4 0.176723 0.388874 0.383405
650 4 0.195426 0.386651 0.393843
503 4 0.179739 0.398039 0.402578
649 2 0.211443 0.375373 0.409382
669 4 0.395603 0.403246 0.405638
336 4 0.38411 0.38953 0.399124
334 2 0.372961 0.369025 0.408093
667 2 0.418344 0.39831 0.396491
559 2 0.44827 0.397191 0.343777
560 4 0.450965 0.395125 0.368549
668 4 0.441085 0.393374 0.387343
588 4 0.462522 0.395673 0.386639
586 2 0.474822 0.404502 0.406537
549 4 0.0561881 0.425772 0.340478
1545 4 0.124814 0.464759 0.331291
1543 2 0.126083 0.48474 0.346269
433 2 0.314334 0.458957 0.34529
434 4 0.303838 0.462243 0.367744
3990 4 0.469262 0.467088 0.347304
593 4 0.441624 0.497174 0.38882
3989 4 0.459951 0.48877 0.391393
3988 2 0.464607 0.477929 0.369349
1781 4 0.119604 0.0414593 0.428773
1780 2 0.137364 0.0418442 0.446369
1782 4 0.155123 0.0422292 0.463965
368 4 0.127771 0.0792127 0.476316
341 4 0.16939 0.0578644 0.465502
2430 4 0.169608 0.0420024 0.479651
2428 2 0.178256 0.0360391 0.50234
340 2 0.175572 0.0814155 0.459818
1180 2 0.273353 0.060976 0.434673
1181 4 0.291261 0.0505117 0.448636
963 4 0.28598 0.0545838 0.468932
432 4 0.303485 0.0432473 0.464554
961 2 0.276637 0.0475204 0.491023
430 2 0.32714 0.0365016 0.469041
842 4 0.405516 0.0068234 0.437958
431 4 0.350795 0.0297559 0.473528
841 2 0.384947 0.0133452 0.450588
843 4 0.364377 0.0198669 0.463219
1216 2 0.445182 0.00890996 0.452286
1218 4 0.463487 0.0126675 0.4689
1217 4 0.426878 0.00515244 0.435673
2585 4 0.00705396 0.152317 0.43954
458 4 0.0088446 0.158674 0.460033
457 2 0.027695 0.145753 0.470175
719 4 0.0474805 0.114585 0.484496
459 4 0.0465455 0.132832 0.480318
718 2 0.0442393 0.0936386 0.497759
938 4 0.0767925 0.161065 0.496862
939 4 0.0833805 0.128757 0.459265
937 2 0.0800865 0.144911 0.478064
687 4 0.131406 0.152816 0.432855
367 2 0.111813 0.0977174 0.471014
369 4 0.0958554 0.116222 0.465712
1151 4 0.143828 0.146013 0.44679
1150 2 0.163892 0.13158 0.443012
342 4 0.181753 0.104966 0.454133
1152 4 0.183957 0.117147 0.439233
898 2 0.269008 0.160938 0.432801
900 4 0.269143 0.166876 0.457088
261 4 0.0884756 0.241886 0.491107
1035 4 0.0882718 0.220165 0.493396
487 2 0.30783 0.243768 0.424607
489 4 0.2829 0.245654 0.42501
488 4 0.332759 0.241882 0.424204
267 4 0.354379 0.242485 0.425954
813 4 0.360903 0.210176 0.479412
266 4 0.368692 0.209851 0.461037
265 2 0.361536 0.226168 0.443496
2924 4 0.418897 0.250698 0.424507
3157 2 0.501078 0.212594 0.490358
3159 4 0.488057 0.2335 0.494666
618 4 0.0761723 0.263903 0.430487
260 4 0.0824149 0.269743 0.450022
347 4 0.078946 0.284476 0.435138
259 2 0.0854453 0.255815 0.470565
346 2 0.0999873 0.297546 0.438545
348 4 0.121029 0.310616 0.441952
10 3 0.138071 0.31491 0.451429
9 3 0.16439 0.323765 0.476857
1259 4 0.172589 0.306895 0.483352
377 4 0.270712 0.259241 0.41379
238 2 0.361616 0.320106 0.434659
2925 4 0.384082 0.281571 0.442824
239 4 0.372656 0.297725 0.436203
872 4 0.408274 0.291508 0.497631
2923 2 0.401489 0.266134 0.433665
584 4 0.461119 0.31477 0.486136
6 1 0.14983 0.332022 0.460787
8 3 0.161722 0.34335 0.444396
7 3 0.135205 0.346667 0.470825
504 4 0.138155 0.402957 0.429915
711 4 0.122853 0.362624 0.4714
709 2 0.123393 0.383581 0.457773
710 4 0.123933 0.404538 0.444146
651 4 0.22746 0.364096 0.424921
335 4 0.361813 0.34852 0.417062
240 4 0.350576 0.342487 0.433116
2456 4 0.470818 0.33199 0.484359
679 2 0.0797952 0.446927 0.495732
681 4 0.0581101 0.459194 0.493625
382 2 0.0616799 0.496778 0.473245
383 4 0.0567301 0.480633 0.491684
680 4 0.10148 0.434659 0.497839
774 4 0.20414 0.463117 0.47481
773 4 0.179222 0.444813 0.435506
772 2 0.191681 0.453965 0.455158
635 4 0.188957 0.477116 0.479766
634 2 0.200019 0.493969 0.494558
663 4 0.485305 0.432353 0.435807
1910 4 0.474705 0.467678 0.479733
661 2 0.472743 0.443968 0.454041
662 4 0.460181 0.455582 0.472275
587 4 0.487122 0.413331 0.426435
1909 2 0.468248 0.480607 0.500137
720 4 0.0409981 0.0726918 0.511021
2429 4 0.186904 0.0300758 0.52503
1284 4 0.227018 0.0687184 0.579943
1059 4 0.209031 0.0781949 0.577818
1090 2 0.328742 0.0135197 0.576982
962 4 0.267294 0.0404569 0.513113
1091 4 0.34586 0.0247649 0.56264
2196 4 0.359376 0.0139959 0.551222
2194 2 0.35954 0.0131929 0.526232
2195 4 0.359704 0.0123899 0.501242
1060 2 0.490498 0.0272139 0.573573
810 4 0.47935 0.0611181 0.555545
1062 4 0.479308 0.0494981 0.571733
808 2 0.49641 0.0793876 0.554943
327 4 0.0694143 0.24519 0.571202
696 4 0.0822493 0.251929 0.555248
695 4 0.0806662 0.233198 0.508908
694 2 0.0814577 0.242564 0.532078
1034 4 0.0939126 0.170945 0.500199
1033 2 0.0910922 0.195555 0.496798
878 4 0.0910778 0.243154 0.572488
857 4 0.20545 0.222945 0.52995
856 2 0.200028 0.247032 0.526002
796 2 0.255094 0.24458 0.576976
953 4 0.39534 0.239869 0.530297
812 4 0.377896 0.23162 0.52127
791 4 0.376534 0.249152 0.534123
873 4 0.385167 0.250492 0.514498
952 2 0.413977 0.232989 0.54548
811 2 0.3694 0.220898 0.500341
954 4 0.432613 0.226109 0.560662
905 4 0.439407 0.210839 0.572033
3066 4 0.48975 0.251619 0.504691
982 2 0.0115782 0.293393 0.551618
984 4 0.0310891 0.292916 0.567247
326 4 0.0433586 0.286104 0.583364
1136 4 0.0522008 0.298738 0.56837
325 2 0.0563865 0.265647 0.577283
1135 2 0.0626277 0.319406 0.558921
1258 2 0.180183 0.297594 0.505284
1260 4 0.187778 0.288293 0.527215
858 4 0.194606 0.271119 0.522054
797 4 0.257234 0.26355 0.56083
1237 2 0.334236 0.295513 0.580884
1238 4 0.333512 0.272693 0.570689
790 2 0.355041 0.257771 0.543555
792 4 0.333548 0.26639 0.552987
871 2 0.39672 0.271 0.506064
585 4 0.416862 0.307712 0.508322
583 2 0.43899 0.311241 0.497229
936 4 0.0129111 0.395563 0.544349
934 2 0.029306 0.408309 0.558275
1137 4 0.0730546 0.340075 0.549472
991 2 0.141569 0.401228 0.581329
993 4 0.119493 0.409998 0.573523
1159 2 0.11194 0.412527 0.528401
1160 4 0.109673 0.418373 0.504196
928 2 0.339417 0.359036 0.577864
882 4 0.344076 0.396874 0.559579
930 4 0.349888 0.378841 0.566759
925 2 0.485312 0.408905 0.531742
926 4 0.46814 0.409548 0.513579
2455 2 0.492197 0.33706 0.496293
1039 2 0.0795929 0.427645 0.573376
3430 2 0.0350744 0.46301 0.569132
3431 4 0.0334989 0.486249 0.56004
935 4 0.0457008 0.421055 0.5722
3432 4 0.03665 0.439771 0.578224
4434 4 0.0120361 0.487013 0.558229
538 2 0.0200054 0.468396 0.509344
4251 4 0.0239949 0.494247 0.541851
1041 4 0.0577177 0.43675 0.581361
539 4 0.0448117 0.469659 0.506475
1040 4 0.101468 0.41854 0.565391
1161 4 0.114207 0.406682 0.552605
1455 4 0.330163 0.491884 0.5389
1445 4 0.312282 0.5012 0.531848
2046 4 0.328689 0.498964 0.518297
1453 2 0.341477 0.471826 0.548638
1454 4 0.352792 0.451768 0.558376
880 2 0.347825 0.420105 0.568032
881 4 0.351573 0.443336 0.576484
4086 4 0.48012 0.504318 0.579688
1911 4 0.461792 0.493536 0.520541
1183 2 0.0139856 0.067215 0.656013
1891 2 0.0154921 0.0193806 0.617449
1185 4 0.0284448 0.0862826 0.663261
1184 4 0.999526 0.0481475 0.648764
1892 4 0.00348855 0.0318847 0.63547
1893 4 0.0274957 0.0068764 0.599429
1282 2 0.242605 0.0584772 0.596596
2131 2 0.247416 0.0275897 0.650535
1283 4 0.258192 0.048236 0.61325
2132 4 0.258453 0.0428997 0.634135
1031 4 0.270685 0.0323786 0.619935
1030 2 0.289167 0.0159349 0.616303
1092 4 0.311624 0.00227445 0.591324
1081 2 0.0210728 0.123289 0.640575
1082 4 0.0284158 0.107379 0.658412
943 2 0.0693287 0.0966992 0.651816
944 4 0.0466519 0.0972029 0.662337
1083 4 0.0137297 0.139199 0.622739
945 4 0.0920054 0.0961956 0.641295
1057 2 0.206433 0.100325 0.589162
1058 4 0.203835 0.122455 0.600505
1155 4 0.18278 0.129563 0.601104
1153 2 0.18235 0.154394 0.604006
909 4 0.193568 0.124226 0.619656
907 2 0.200101 0.116901 0.642652
908 4 0.206635 0.109577 0.665649
886 2 0.326792 0.16019 0.621887
831 4 0.354628 0.0907057 0.602204
830 4 0.34526 0.127761 0.63445
829 2 0.349944 0.109234 0.618327
887 4 0.337412 0.14675 0.640101
1194 4 0.350808 0.135878 0.653389
1026 4 0.448684 0.140544 0.647576
1024 2 0.443294 0.148055 0.624344
1143 4 0.458996 0.131063 0.663505
1025 4 0.437904 0.155566 0.601112
1209 4 0.05301 0.251609 0.66345
877 2 0.108675 0.232332 0.586573
1272 4 0.131002 0.203565 0.594693
1270 2 0.154594 0.201796 0.602785
879 4 0.126272 0.221509 0.600658
948 4 0.149806 0.226035 0.66455
1154 4 0.181921 0.179225 0.606907
1271 4 0.178186 0.200027 0.610878
1221 4 0.197643 0.193334 0.604198
1219 2 0.221 0.199759 0.598004
1220 4 0.244356 0.206184 0.59181
798 4 0.252953 0.22561 0.593123
1212 4 0.265563 0.208263 0.590247
888 4 0.316172 0.173631 0.603674
1211 4 0.311457 0.192092 0.601776
1210 2 0.28851 0.200177 0.596011
904 2 0.445652 0.191056 0.58599
906 4 0.451896 0.171273 0.599948
1243 2 0.0146721 0.262242 0.664209
1207 2 0.0759135 0.261425 0.665517
804 4 0.313803 0.324283 0.592137
1239 4 0.334959 0.318332 0.591078
802 2 0.293905 0.333709 0.603985
992 4 0.163645 0.392458 0.589135
1068 4 0.154997 0.362974 0.641532
1066 2 0.130861 0.357077 0.644333
1067 4 0.106724 0.35118 0.647133
941 4 0.103938 0.349212 0.667239
1028 4 0.170447 0.357656 0.652453
897 4 0.172131 0.393106 0.60778
1191 4 0.218404 0.346117 0.627344
896 4 0.201419 0.354362 0.619686
895 2 0.186775 0.373734 0.613733
1189 2 0.240042 0.350471 0.615596
929 4 0.328945 0.339232 0.588969
803 4 0.274006 0.343135 0.615834
1190 4 0.26168 0.354826 0.603847
3113 4 0.495791 0.352382 0.625914
3264 4 0.0434608 0.426029 0.593294
3263 4 0.00821272 0.430027 0.62854
3239 4 0.0101056 0.435804 0.649469
3262 2 0.0258368 0.428028 0.610917
3238 2 0.0245391 0.451509 0.662515
1187 4 0.248797 0.493065 0.604985
2436 4 0.253024 0.476405 0.5945
1173 4 0.322807 0.475884 0.598454
1171 2 0.330365 0.467035 0.620585
2435 4 0.302328 0.480396 0.601845
2434 2 0.277676 0.4784 0.598172
2154 4 0.317564 0.495712 0.60496
891 4 0.327113 0.463427 0.659131
1172 4 0.337922 0.458186 0.642715
3183 4 0.47501 0.49327 0.598819
1204 2 0.496708 0.438469 0.644442
3181 2 0.491885 0.475565 0.60401
1205 4 0.480727 0.431386 0.66232
2133 4 0.23638 0.0122797 0.666936
824 4 0.23302 0.996849 0.681424
2255 4 0.167385 0.00081583 0.702
825 4 0.187101 0.00712636 0.69835
823 2 0.210061 0.00198774 0.689887
42 3 0.5019 0.0496539 0.706396
43 3 0.464515 0.0469552 0.709176
846 4 0.453951 0.0597109 0.719084
44 3 0.480266 0.0733761 0.686854
41 1 0.482124 0.0516613 0.694818
45 3 0.482098 0.0369732 0.677414
844 2 0.445279 0.0513901 0.741009
862 2 0.000447668 0.121022 0.738677
1076 4 0.0331185 0.101377 0.67833
1077 4 0.0401297 0.106285 0.727599
1075 2 0.0366241 0.103831 0.702965
864 4 0.0209354 0.114689 0.725819
1105 2 0.0727227 0.163199 0.713311
1177 2 0.0116866 0.163543 0.68215
1072 2 0.128894 0.14496 0.717001
1074 4 0.145131 0.132897 0.702303
1073 4 0.112657 0.157023 0.731698
1106 4 0.0914401 0.158457 0.729197
1215 4 0.100149 0.141573 0.739353
1227 4 0.216966 0.113552 0.683095
1226 4 0.217885 0.111741 0.733061
1225 2 0.217426 0.112647 0.708078
1130 4 0.224913 0.125558 0.747651
1148 4 0.205544 0.116952 0.75015
1192 2 0.36863 0.148666 0.66539
1193 4 0.386453 0.161454 0.677391
1142 4 0.468612 0.0890086 0.688798
1263 4 0.440588 0.141081 0.667616
1141 2 0.463804 0.110036 0.676151
3424 2 0.487721 0.156421 0.696221
1261 2 0.422331 0.155187 0.677254
1245 4 0.0330477 0.246388 0.670224
852 4 0.0487788 0.232196 0.673141
1107 4 0.0540053 0.167942 0.697426
1178 4 0.0364155 0.164656 0.685674
850 2 0.0466729 0.208395 0.680506
851 4 0.0445669 0.184593 0.687872
946 2 0.134124 0.245166 0.668191
1084 2 0.302988 0.243247 0.740918
1262 4 0.404075 0.169293 0.686891
3123 4 0.500999 0.23923 0.677791
3270 4 0.470863 0.192509 0.713563
3426 4 0.472033 0.175318 0.700907
1146 4 0.459992 0.192241 0.695125
1145 4 0.487149 0.226681 0.671101
1144 2 0.473571 0.209461 0.683113
3268 2 0.465083 0.185306 0.736798
1208 4 0.098817 0.27124 0.667583
947 4 0.118442 0.264296 0.671832
821 4 0.0960785 0.297306 0.729815
820 2 0.101375 0.285099 0.708646
822 4 0.106672 0.272891 0.687478
1242 4 0.110166 0.306796 0.739001
1297 2 0.244508 0.258193 0.736491
1298 4 0.222049 0.258431 0.747478
1086 4 0.286802 0.257873 0.7287
1299 4 0.266967 0.257955 0.725504
1096 2 0.323221 0.319046 0.736578
1098 4 0.317998 0.319587 0.712132
816 4 0.0179267 0.37463 0.697844
892 2 0.0757792 0.404623 0.736695
893 4 0.079352 0.383395 0.723976
815 4 0.0648769 0.370922 0.714656
814 2 0.0414018 0.372776 0.70625
942 4 0.0853005 0.369034 0.709197
940 2 0.0946192 0.359123 0.688218
1027 2 0.184596 0.366506 0.671072
1029 4 0.198745 0.375356 0.689691
1139 4 0.218177 0.383793 0.685858
1063 2 0.225154 0.368252 0.725146
1065 4 0.212731 0.377501 0.705516
1138 2 0.231748 0.403465 0.678509
1140 4 0.245319 0.423138 0.671159
1101 4 0.443494 0.395981 0.70968
1099 2 0.457726 0.410566 0.695192
2170 2 0.0671597 0.501154 0.687313
894 4 0.0722065 0.425851 0.749414
3240 4 0.0389726 0.467215 0.67556
2172 4 0.0519313 0.481388 0.685711
1279 2 0.0537497 0.450596 0.715617
1280 4 0.060752 0.438434 0.736311
1281 4 0.0467473 0.462757 0.694922
1983 4 0.0716089 0.447883 0.752205
2016 4 0.185016 0.489246 0.731585
1176 4 0.194136 0.49059 0.712624
889 2 0.323571 0.481663 0.675867
1100 4 0.471957 0.425152 0.680704
1269 4 0.48011 0.444749 0.678984
1267 2 0.477244 0.468742 0.685409
1268 4 0.474378 0.492736 0.691834
2169 4 0.478635 0.505423 0.676824
1203 4 0.0887054 0.0257963 0.784067
1201 2 0.0834987 0.00543051 0.770528
911 4 0.106523 0.0337707 0.794628
1196 4 0.0908303 0.0234677 0.805258
910 2 0.117817 0.0558757 0.797629
912 4 0.12911 0.0779807 0.80063
1195 2 0.0882399 0.00784493 0.824608
1287 4 0.133151 0.0777832 0.822612
1149 4 0.18631 0.0869387 0.78522
2400 4 0.328495 0.0218646 0.761574
2398 2 0.342299 0.0421723 0.766287
1049 4 0.361267 0.075454 0.786995
1111 2 0.397253 0.0568038 0.772826
2399 4 0.356104 0.0624799 0.771
1112 4 0.376642 0.0709588 0.772796
1113 4 0.417864 0.0426489 0.772856
845 4 0.436606 0.0430694 0.762935
980 4 0.433623 0.0306754 0.780702
979 2 0.433336 0.0256522 0.805194
981 4 0.433049 0.020629 0.829687
152 3 0.0298246 0.162021 0.820011
34 3 0.090702 0.0838795 0.827152
1214 4 0.0948086 0.125287 0.786332