ITEM: TIMESTEP
2260000
ITEM: NUMBER OF ATOMS
4590
ITEM: BOX BOUNDS pp pp pp
-9.9985700000000008e+00 9.9985700000000008e+00
-9.9985700000000008e+00 9.9985700000000008e+00
-9.9985700000000008e+00 9.9985700000000008e+00
ITEM: ATOMS id type xs ys zs
1666 2 0.0634896 0.0507882 0.0412536
1667 4 0.0696556 0.0729138 0.0313734
1668 4 0.0573236 0.0286626 0.0511338
534 4 0.169369 0.0756479 0.0136033
423 4 0.174163 0.0855415 0.0312796
1475 4 0.221569 0.0230775 0.0558781
1474 2 0.199812 0.0165273 0.0663139
490 2 0.302738 0.0714583 0.00661289
653 4 0.279373 0.0806916 0.0436212
652 2 0.277455 0.0729521 0.0673194
295 2 0.419067 0.01841 0.0748514
297 4 0.400405 0.00348048 0.0822003
296 4 0.43773 0.0333394 0.0675026
591 4 0.0641363 0.0935268 0.0293438
702 4 0.0812846 0.0883868 0.0408983
589 2 0.0402613 0.100952 0.0291625
590 4 0.0163863 0.108377 0.0289812
3232 2 0.0109661 0.145282 0.0131435
3233 4 0.002821 0.122924 0.0208219
1248 4 0.995254 0.105904 0.0318234
235 2 0.0872821 0.155301 0.083142
421 2 0.159697 0.105796 0.0288988
422 4 0.145232 0.126051 0.026518
700 2 0.0963242 0.105433 0.0513106
701 4 0.111364 0.122479 0.0617229
236 4 0.102961 0.138699 0.0729569
449 4 0.120308 0.127628 0.0803216
448 2 0.140461 0.140395 0.0878077
491 4 0.284697 0.0778253 0.022711
565 2 0.277398 0.121371 0.0315055
566 4 0.270202 0.145315 0.0318003
567 4 0.284595 0.0974274 0.0312108
359 4 0.278442 0.158165 0.0182631
665 4 0.321709 0.144321 0.0038454
664 2 0.341524 0.153121 0.0163002
556 2 0.387866 0.145644 0.0610392
558 4 0.373954 0.148809 0.0405058
666 4 0.361339 0.16192 0.0287549
987 4 0.464602 0.142661 0.0171153
357 4 0.233439 0.214393 0.0161787
358 2 0.262828 0.161524 0.999025
571 2 0.37854 0.192577 0.0312391
572 4 0.380969 0.167895 0.0344135
1071 4 0.380308 0.235479 0.0210179
573 4 0.37611 0.217259 0.0280648
769 2 0.508005 0.248296 0.0335334
914 4 0.15964 0.251515 0.0159503
293 4 0.148022 0.302765 0.0569534
292 2 0.13396 0.315751 0.0730398
507 4 0.167664 0.29434 0.0540836
288 4 0.162103 0.311851 0.043288
294 4 0.119898 0.328738 0.0891263
505 2 0.164901 0.271235 0.0449358
506 4 0.162138 0.248129 0.0357881
286 2 0.181116 0.328012 0.0448577
482 4 0.241795 0.334557 0.0870186
955 2 0.388325 0.321617 0.0231526
1069 2 0.383518 0.259269 0.0140217
957 4 0.381071 0.298028 0.019135
771 4 0.493424 0.261042 0.0493476
623 4 0.428795 0.260362 0.0842392
324 4 0.426999 0.253896 0.0662595
323 4 0.473937 0.267098 0.0551599
322 2 0.450468 0.260497 0.0607097
280 2 0.457348 0.328951 0.0477395
282 4 0.438662 0.314672 0.0392476
518 4 0.488415 0.261588 0.0703684
1056 4 0.0118443 0.341932 0.00731479
1170 4 0.0141103 0.357876 0.0196809
1168 2 0.0203428 0.38206 0.018468
1169 4 0.0265753 0.406244 0.0172552
551 4 0.0362567 0.425568 0.014445
287 4 0.20013 0.344174 0.0464273
481 2 0.227878 0.346002 0.0696828
483 4 0.213962 0.357447 0.0523471
608 4 0.27945 0.401967 0.0636521
607 2 0.293451 0.385703 0.0764832
626 4 0.272566 0.4198 0.0686945
956 4 0.395579 0.345205 0.0271701
281 4 0.476035 0.34323 0.0562314
671 4 0.470393 0.35169 0.073692
550 2 0.0343993 0.434612 0.0376815
552 4 0.0325418 0.443656 0.060918
315 4 0.0404881 0.454035 0.0782297
313 2 0.062234 0.466098 0.0756264
314 4 0.0839798 0.478161 0.073023
620 4 0.0227758 0.44217 0.0805691
619 2 0.00558907 0.424346 0.0840459
1787 4 0.0994754 0.49269 0.0740921
1786 2 0.118575 0.47804 0.0808579
1691 4 0.0868789 0.493462 0.056936
243 4 0.24992 0.489196 0.064305
625 2 0.254706 0.432442 0.0565968
627 4 0.236845 0.445085 0.0444991
1440 4 0.269584 0.484693 0.0641963
246 4 0.3237 0.448657 0.0163623
244 2 0.318902 0.449822 0.0408736
1438 2 0.27527 0.489629 0.0880394
272 4 0.320975 0.469508 0.00908513
271 2 0.314743 0.488265 0.99377
245 4 0.314105 0.450986 0.0653848
2481 4 0.0147702 0.0544203 0.142332
16 1 0.0125935 0.0786105 0.111524
2479 2 0.00543796 0.0318034 0.147486
2480 4 0.996106 0.00918651 0.152639
17 3 0.993125 0.0678349 0.105693
19 3 0.0263623 0.0798318 0.0928873
18 3 0.0230868 0.06656 0.128349
654 4 0.275537 0.0652126 0.0910175
1785 4 0.336824 0.0113136 0.178376
311 4 0.43245 0.0617125 0.172866
20 3 0.0076398 0.0995752 0.118913
450 4 0.160614 0.153163 0.0952938
557 4 0.401778 0.142479 0.0815726
237 4 0.0716032 0.171903 0.0933271
477 4 0.0608283 0.185902 0.101342
476 4 0.0671284 0.23544 0.103976
475 2 0.0639783 0.210671 0.102659
339 4 0.0871469 0.237929 0.108919
337 2 0.105973 0.239272 0.12532
338 4 0.124798 0.240616 0.14172
363 4 0.117368 0.252049 0.15695
738 4 0.173324 0.240242 0.117066
736 2 0.197552 0.246183 0.115358
461 4 0.28923 0.220724 0.142503
354 4 0.277054 0.235972 0.134329
460 2 0.313486 0.216483 0.138159
352 2 0.256284 0.249375 0.130569
462 4 0.337741 0.212243 0.133815
254 4 0.401277 0.204402 0.123604
630 4 0.419883 0.200691 0.117359
253 2 0.377026 0.201042 0.128683
255 4 0.352776 0.197683 0.133762
628 2 0.436426 0.18465 0.127065
629 4 0.452968 0.168609 0.136771
456 4 0.130537 0.334575 0.105455
454 2 0.132862 0.338355 0.130061
455 4 0.135188 0.342135 0.154668
353 4 0.235514 0.262778 0.126808
737 4 0.221779 0.252123 0.11365
755 4 0.235661 0.266962 0.105358
754 2 0.238563 0.290057 0.0962272
756 4 0.241464 0.313152 0.0870968
252 4 0.258284 0.323575 0.0951669
386 4 0.354855 0.326746 0.119055
741 4 0.371317 0.27197 0.115859
739 2 0.361731 0.29325 0.124828
624 4 0.387268 0.259788 0.112093
622 2 0.408032 0.260075 0.0981659
740 4 0.352144 0.314531 0.133796
14 3 0.407576 0.335757 0.152002
15 3 0.443793 0.336112 0.162294
517 2 0.501229 0.252198 0.0896765
537 4 0.129409 0.360781 0.15541
535 2 0.119898 0.359727 0.178509
250 2 0.279743 0.336405 0.0948695
251 4 0.301201 0.349235 0.0945722
609 4 0.307453 0.36944 0.0893144
387 4 0.321852 0.353934 0.0931261
385 2 0.338354 0.34034 0.106091
495 4 0.410156 0.344284 0.134441
493 2 0.416691 0.34384 0.11031
494 4 0.423225 0.343395 0.0861796
526 2 0.487615 0.334011 0.148024
670 2 0.479299 0.355337 0.0967693
528 4 0.475736 0.348314 0.131306
595 2 0.462351 0.385022 0.143224
596 4 0.483241 0.392453 0.131668
672 4 0.488205 0.358984 0.119847
11 1 0.423223 0.344957 0.166457
597 4 0.44146 0.37759 0.154781
2652 4 0.499062 0.404011 0.130418
646 2 0.0145962 0.461133 0.129772
647 4 0.0275183 0.460308 0.151162
263 4 0.0434613 0.451899 0.157674
1788 4 0.137674 0.463389 0.0876236
1439 4 0.280955 0.494565 0.111882
637 2 0.275994 0.47548 0.145072
639 4 0.275211 0.477998 0.120207
525 4 0.336393 0.477247 0.162984
638 4 0.276776 0.472963 0.169936
523 2 0.335465 0.493246 0.143792
659 4 0.335387 0.45719 0.161095
1422 4 0.00314645 0.998364 0.167504
688 2 0.123541 0.0573832 0.223831
690 4 0.137478 0.0602748 0.203274
689 4 0.109604 0.0544916 0.244388
693 4 0.155518 0.0684687 0.199051
1700 4 0.202994 0.0286615 0.2527
21 1 0.326777 0.047305 0.248943
25 3 0.332612 0.0529186 0.227657
1784 4 0.328596 0.0522788 0.205851
1783 2 0.33271 0.0317962 0.192113
759 4 0.347255 0.0619312 0.213399
757 2 0.369112 0.0738486 0.215733
312 4 0.406813 0.0718115 0.214597
310 2 0.419631 0.066762 0.193731
758 4 0.390968 0.0857661 0.218067
511 2 0.0116578 0.13419 0.235366
513 4 0.0261806 0.138773 0.255197
691 2 0.164367 0.091854 0.199139
692 4 0.173215 0.115239 0.199226
723 4 0.17598 0.126511 0.214471
721 2 0.176911 0.148742 0.225877
285 4 0.254922 0.167091 0.204492
580 2 0.296918 0.159629 0.205314
30 3 0.332744 0.169731 0.191117
582 4 0.271996 0.15806 0.206569
744 4 0.409938 0.0891995 0.227078
706 2 0.367552 0.152791 0.23627
742 2 0.414985 0.0866963 0.251439
748 2 0.0669846 0.203205 0.222913
749 4 0.0547035 0.191538 0.204523
750 4 0.0792656 0.214873 0.241304
396 4 0.0667454 0.226678 0.250221
722 4 0.177842 0.170973 0.237283
284 4 0.222244 0.193392 0.231716
283 2 0.238583 0.180242 0.218104
581 4 0.321841 0.161199 0.204059
27 3 0.353145 0.196729 0.175376
28 3 0.361318 0.16073 0.16831
708 4 0.360128 0.171038 0.220871
29 3 0.368112 0.1756 0.202619
26 1 0.353709 0.175589 0.184427
361 2 0.136729 0.26054 0.170302
362 4 0.156089 0.269031 0.183654
372 4 0.168193 0.27741 0.170967
370 2 0.183599 0.284887 0.189187
371 4 0.199004 0.292364 0.207406
279 4 0.220292 0.292296 0.208817
277 2 0.22608 0.279147 0.229281
612 4 0.209527 0.310854 0.208706
13 3 0.417112 0.340779 0.188448
765 4 0.414333 0.303681 0.253668
542 4 0.431777 0.29991 0.241661
543 4 0.459546 0.258466 0.245117
541 2 0.445661 0.279188 0.243389
536 4 0.110387 0.358673 0.201609
298 2 0.14882 0.390651 0.245029
300 4 0.127125 0.401118 0.238325
603 4 0.112582 0.412271 0.230513
610 2 0.216584 0.333693 0.201374
417 4 0.220414 0.374836 0.196418
415 2 0.237633 0.392871 0.198264
611 4 0.223641 0.356532 0.194042
301 2 0.32711 0.402728 0.230765
416 4 0.254852 0.410906 0.200111
644 4 0.400416 0.400533 0.20894
643 2 0.415679 0.393557 0.190405
12 3 0.423945 0.367707 0.163133
447 4 0.410319 0.400772 0.225791
645 4 0.430943 0.386582 0.17187
445 2 0.425439 0.406404 0.244892
262 2 0.0424877 0.457481 0.182027
1757 4 0.0316521 0.476096 0.217007
264 4 0.0415142 0.463064 0.20638
1756 2 0.0414795 0.469354 0.238988
601 2 0.10685 0.429925 0.247267
302 4 0.329536 0.41594 0.209676
291 4 0.274165 0.416703 0.199062
289 2 0.280287 0.440134 0.192842
290 4 0.286408 0.463566 0.186623
767 4 0.29014 0.484215 0.182109
766 2 0.311514 0.486116 0.194944
768 4 0.332887 0.488018 0.207779
660 4 0.333915 0.416435 0.190036
658 2 0.334651 0.436813 0.175566
1574 4 0.352871 0.48644 0.20642
1573 2 0.363722 0.478068 0.227332
673 2 0.0826265 0.0860239 0.260099
1404 4 0.127194 0.0238971 0.291325
675 4 0.102381 0.0734217 0.251373
1403 4 0.100321 0.0563877 0.264438
1402 2 0.113757 0.0401424 0.277882
1699 2 0.205857 0.0282294 0.277535
248 4 0.201397 0.0393287 0.318704
247 2 0.182018 0.054252 0.323894
1701 4 0.208719 0.0277974 0.30237
605 4 0.221883 0.0336897 0.318357
249 4 0.162639 0.0691752 0.329084
604 2 0.230398 0.0197944 0.33732
23 3 0.304027 0.0428632 0.250005
24 3 0.332157 0.0645974 0.263449
632 4 0.310687 0.031588 0.314085
631 2 0.31557 0.00952002 0.324778
1495 2 0.367172 0.0113218 0.277446
22 3 0.338338 0.0284431 0.255245
1496 4 0.357007 0.0225629 0.25756
697 2 0.400671 0.0152998 0.324404
698 4 0.416572 0.0332366 0.331519
1497 4 0.377338 8.07746e-05 0.297333
699 4 0.384771 0.997363 0.317289
351 4 0.423243 0.053784 0.330948
349 2 0.428404 0.0689093 0.311719
350 4 0.433565 0.0840346 0.292489
1748 4 0.503015 0.0278088 0.264266
674 4 0.0628725 0.0986262 0.268825
579 4 0.0423752 0.127529 0.26427
577 2 0.0623296 0.141574 0.269723
530 4 0.0224534 0.119943 0.264908
529 2 0.0159054 0.11625 0.288755
531 4 0.00935743 0.112558 0.312602
578 4 0.082284 0.15562 0.275175
393 4 0.083456 0.158102 0.295214
391 2 0.076913 0.167825 0.317301
600 4 0.152458 0.150265 0.319616
405 4 0.167307 0.136486 0.312001
545 4 0.165595 0.156609 0.303712
403 2 0.163714 0.112357 0.317483
546 4 0.173295 0.163775 0.254824
544 2 0.169445 0.160192 0.279268
404 4 0.160121 0.0882274 0.322965
707 4 0.374976 0.134544 0.251668
743 4 0.420033 0.084193 0.275799
762 4 0.421705 0.161677 0.310998
332 4 0.429874 0.150518 0.295915
333 4 0.428942 0.102497 0.281991
331 2 0.429408 0.126508 0.288953
344 4 0.226403 0.201923 0.250131
343 2 0.231767 0.225637 0.255969
472 2 0.231843 0.212528 0.327035
473 4 0.243351 0.220346 0.306259
613 2 0.39253 0.238363 0.322694
614 4 0.405939 0.229766 0.30342
761 4 0.416232 0.211286 0.307887
520 2 0.496146 0.243027 0.260082
760 2 0.418969 0.186482 0.309443
418 2 0.438237 0.232216 0.274205
419 4 0.42218 0.222035 0.290444
420 4 0.454293 0.242397 0.257966
394 2 0.0557773 0.249093 0.251772
442 2 0.0124753 0.298933 0.261189
395 4 0.0448091 0.271509 0.253324
444 4 0.0329124 0.287856 0.25198
389 4 0.147315 0.260327 0.336683
388 2 0.123307 0.264211 0.342491
278 4 0.231867 0.265998 0.249746
401 4 0.164589 0.270908 0.336019
345 4 0.23713 0.24935 0.261808
309 4 0.244341 0.269306 0.267007
307 2 0.250517 0.283408 0.286708
308 4 0.256693 0.297511 0.30641
497 4 0.277405 0.302383 0.309068
496 2 0.301979 0.306327 0.311457
509 4 0.262453 0.310486 0.322737
498 4 0.326554 0.310272 0.313847
763 2 0.396733 0.30738 0.271038
764 4 0.379133 0.311079 0.288408
521 4 0.473078 0.252619 0.261093
734 4 0.164696 0.372844 0.269247
733 2 0.161245 0.360682 0.290819
735 4 0.157795 0.348521 0.312392
677 4 0.177258 0.349424 0.31917
299 4 0.170514 0.380183 0.251733
303 4 0.324685 0.389516 0.251854
729 4 0.326431 0.373004 0.26521
438 4 0.309375 0.386232 0.266193
436 2 0.285985 0.394887 0.267977
437 4 0.262595 0.403542 0.269761
727 2 0.341716 0.385071 0.280892
728 4 0.357001 0.397138 0.296575
753 4 0.377372 0.404432 0.298695
751 2 0.398598 0.408251 0.311347
434 4 0.320313 0.395972 0.33366
1803 4 0.361097 0.41785 0.293622
446 4 0.44056 0.412035 0.263992
713 4 0.446544 0.402713 0.280659
1758 4 0.0513069 0.462612 0.260968
775 2 0.0664022 0.460741 0.337919
776 4 0.0812658 0.467894 0.319128
412 2 0.107665 0.466732 0.293068
602 4 0.101119 0.447579 0.26402
414 4 0.112754 0.464679 0.268674
413 4 0.102576 0.468785 0.317462
1545 4 0.0923251 0.48226 0.330696
1435 2 0.244372 0.443437 0.274184
1437 4 0.233667 0.464989 0.280975
1436 4 0.255077 0.421886 0.267393
433 2 0.321833 0.420721 0.330448
435 4 0.323352 0.445471 0.327236
1575 4 0.374573 0.469695 0.248244
1802 4 0.371082 0.455232 0.261943
1801 2 0.36609 0.436541 0.277783
5 3 0.338963 0.492395 0.332533
231 4 0.471874 0.479123 0.294593
712 2 0.467335 0.415103 0.286934
714 4 0.488127 0.427492 0.293209
233 4 0.014524 0.0255197 0.37974
318 4 0.0687229 0.0590865 0.391607
234 4 0.0612515 0.0432091 0.381825
232 2 0.0378877 0.0343644 0.380782
1376 4 0.000140786 0.0354987 0.392281
1464 4 0.133994 0.991054 0.368756
316 2 0.0878111 0.0456609 0.400583
606 4 0.238913 0.00589918 0.356283
682 2 0.281069 0.0737512 0.404008
683 4 0.283023 0.0607969 0.382712
425 4 0.406123 0.0545148 0.412654
258 4 0.415882 0.0607825 0.396767
256 2 0.416629 0.0528397 0.373071
257 4 0.417377 0.0448969 0.349374
452 4 0.483459 0.0768267 0.376388
451 2 0.461258 0.0877669 0.379942
398 4 0.0133136 0.112019 0.333709
397 2 0.0332934 0.123288 0.343659
399 4 0.0532733 0.134556 0.353609
732 4 0.0656632 0.124376 0.365089
368 4 0.0886927 0.0859863 0.396731
731 4 0.108081 0.150648 0.368449
730 2 0.0868719 0.137512 0.366769
599 4 0.117469 0.162153 0.353308
598 2 0.134964 0.156209 0.336462
685 2 0.140482 0.153182 0.390935
686 4 0.12535 0.163039 0.373642
467 4 0.306661 0.146104 0.37851
516 4 0.390707 0.117395 0.424082
574 2 0.393091 0.159527 0.424383
514 2 0.407118 0.105124 0.409754
515 4 0.423528 0.0928538 0.395425
453 4 0.439058 0.0987072 0.383497
392 4 0.0703701 0.177548 0.339388
2653 2 0.0515071 0.199546 0.367101
2655 4 0.0441416 0.205082 0.390345
2654 4 0.0588725 0.19401 0.343857
275 4 0.156289 0.214466 0.372694
274 2 0.179486 0.210696 0.364157
474 4 0.220336 0.204711 0.347811
276 4 0.202683 0.206926 0.35562
409 2 0.256003 0.215313 0.385438
411 4 0.237815 0.231751 0.380521
466 2 0.298788 0.167774 0.388185
468 4 0.290914 0.189444 0.397859
410 4 0.274192 0.198876 0.390355
615 4 0.379121 0.246959 0.341968
576 4 0.404586 0.181689 0.423011
267 4 0.35096 0.250618 0.417013
269 4 0.430847 0.224664 0.363717
306 4 0.434927 0.209763 0.377259
304 2 0.426356 0.19315 0.393864
305 4 0.417786 0.176536 0.410469
268 2 0.438149 0.245888 0.374736
2814 4 0.99603 0.328598 0.392304
390 4 0.0992995 0.268096 0.348298
618 4 0.0974992 0.262816 0.411107
617 4 0.0892072 0.275408 0.363427
616 2 0.0933532 0.269112 0.387267
400 2 0.18122 0.282931 0.350302
375 4 0.198227 0.301017 0.383793
402 4 0.197851 0.294954 0.364586
373 2 0.218471 0.315691 0.383576
374 4 0.238714 0.330365 0.383359
510 4 0.25473 0.32402 0.370254
508 2 0.258591 0.317253 0.346495
378 4 0.255606 0.319765 0.391254
678 4 0.184677 0.326392 0.362933
489 4 0.308994 0.303793 0.407493
376 2 0.274455 0.305214 0.39888
377 4 0.293304 0.290663 0.406505
487 2 0.32094 0.281837 0.408124
716 4 0.383385 0.25167 0.361362
715 2 0.367727 0.256773 0.380175
717 4 0.352068 0.261876 0.398989
2925 4 0.413427 0.316698 0.409444
270 4 0.445451 0.267112 0.385754
2924 4 0.427602 0.275113 0.385559
2923 2 0.420514 0.295906 0.397501
408 4 0.0375862 0.337423 0.355495
548 4 0.017436 0.398097 0.337548
406 2 0.0283527 0.360581 0.353596
407 4 0.0191193 0.38374 0.351696
676 2 0.180967 0.337908 0.341051
504 4 0.176072 0.401561 0.416056
502 2 0.197898 0.400907 0.403875
503 4 0.219724 0.400253 0.391694
650 4 0.237518 0.392527 0.398377
649 2 0.260694 0.385949 0.405068
752 4 0.419823 0.41207 0.323999
669 4 0.385814 0.408502 0.41105
667 2 0.409008 0.410221 0.40187
561 4 0.438221 0.40574 0.327543
559 2 0.442229 0.407623 0.352151
560 4 0.446238 0.409506 0.376759
777 4 0.0515386 0.453588 0.356709
547 2 0.0286618 0.417977 0.347744
549 4 0.0398877 0.437856 0.35794
1543 2 0.103174 0.502765 0.340026
4 3 0.3287 0.457669 0.342851
1 1 0.337257 0.477987 0.350088
3 3 0.358101 0.474806 0.359773
3988 2 0.481904 0.461147 0.361926
588 4 0.445403 0.428398 0.38696
668 4 0.432202 0.411939 0.392691
3989 4 0.48457 0.480987 0.376907
586 2 0.464845 0.425025 0.402316
2238 4 0.0140028 0.986387 0.482299
1127 4 0.0102551 0.00609663 0.479765
317 4 0.106899 0.0322353 0.40956
1781 4 0.114077 0.03512 0.429659
428 4 0.109204 0.0154165 0.422899
1780 2 0.122156 0.04374 0.451696
1782 4 0.130234 0.05236 0.473733
341 4 0.150297 0.0590897 0.476195
2430 4 0.138893 0.0534589 0.493559
340 2 0.168202 0.0739814 0.467096
342 4 0.186108 0.0888731 0.457997
1180 2 0.277144 0.0521633 0.456426
1181 4 0.280288 0.0343557 0.473694
1182 4 0.274 0.0699708 0.439158
684 4 0.279116 0.0867055 0.425305
963 4 0.272857 0.0166507 0.483752
430 2 0.312357 0.0114965 0.486008
432 4 0.291683 0.0251439 0.4894
841 2 0.363251 0.0122131 0.462589
842 4 0.383409 0.0104797 0.447897
431 4 0.333032 0.997849 0.482616
426 4 0.396635 0.00909083 0.431291
424 2 0.401379 0.0318028 0.421973
1216 2 0.422822 0.0122068 0.467763
843 4 0.343094 0.0139465 0.477281
1218 4 0.441301 0.0115043 0.484592
457 2 0.0116385 0.121688 0.456832
719 4 0.0144879 0.109946 0.48729
459 4 0.0232871 0.104098 0.470253
687 4 0.155613 0.143325 0.408228
367 2 0.101781 0.0991878 0.413452
1151 4 0.174196 0.139061 0.41522
369 4 0.11487 0.112389 0.430173
939 4 0.106763 0.110117 0.446936
937 2 0.116542 0.129962 0.458586
938 4 0.126321 0.149807 0.470236
1152 4 0.188124 0.10823 0.452047
1150 2 0.18116 0.123646 0.433633
320 4 0.286944 0.0863723 0.445379
321 4 0.279665 0.135813 0.443556
319 2 0.283304 0.111093 0.444467
899 4 0.266497 0.150551 0.447785
898 2 0.267017 0.175145 0.44331
575 4 0.381595 0.137365 0.425756
471 4 0.00510343 0.215334 0.493904
1034 4 0.131947 0.168495 0.461171
261 4 0.0963295 0.222549 0.451621
1035 4 0.116301 0.215381 0.453577
1033 2 0.124124 0.191938 0.457374
695 4 0.107938 0.227381 0.468968
259 2 0.10465 0.242911 0.439732
694 2 0.10114 0.229767 0.492911
900 4 0.267536 0.19974 0.438834
813 4 0.389273 0.229954 0.463639
266 4 0.369638 0.229247 0.458185
265 2 0.360299 0.239933 0.437599
811 2 0.387413 0.23775 0.487323
2656 2 0.488504 0.191674 0.448846
2657 4 0.467466 0.196882 0.436378
2801 4 0.000784396 0.331739 0.411268
2845 2 0.9964 0.297865 0.48578
2847 4 0.00364058 0.29459 0.462073
2800 2 0.997036 0.313843 0.428323
347 4 0.106089 0.281877 0.41795
260 4 0.112971 0.263273 0.427844
346 2 0.106696 0.300723 0.43437
348 4 0.107302 0.319569 0.450791
10 3 0.124005 0.32473 0.461556
9 3 0.128969 0.318937 0.498427
8 3 0.158847 0.319815 0.474955
6 1 0.137801 0.328585 0.479261
488 4 0.332886 0.259881 0.408756
239 4 0.416159 0.315994 0.429971
2455 2 0.499398 0.32474 0.485525
2456 4 0.482163 0.340679 0.476918
584 4 0.465128 0.335246 0.485255
583 2 0.446293 0.319677 0.490545
585 4 0.427457 0.304107 0.495836
680 4 0.0409985 0.394813 0.429842
679 2 0.0471213 0.404988 0.451845
7 3 0.13973 0.351268 0.482566
711 4 0.128067 0.387604 0.46441
709 2 0.143856 0.395011 0.446494
710 4 0.159646 0.402419 0.428577
651 4 0.283871 0.379372 0.411759
238 2 0.402618 0.336839 0.432672
240 4 0.389077 0.357684 0.435373
335 4 0.377833 0.363822 0.45067
334 2 0.375928 0.386072 0.439425
336 4 0.374023 0.408323 0.428179
926 4 0.457946 0.365474 0.507982
681 4 0.0532442 0.415163 0.473849
383 4 0.0611746 0.434457 0.472303
540 4 0.00569098 0.464731 0.472021
382 2 0.0841367 0.443784 0.468998
568 2 0.107262 0.488735 0.444011
384 4 0.107099 0.453112 0.465694
569 4 0.0991125 0.466847 0.452936
773 4 0.242726 0.458976 0.434095
634 2 0.189361 0.467722 0.485717
774 4 0.195304 0.448905 0.446363
772 2 0.219015 0.45394 0.440229
635 4 0.19206 0.46212 0.461499
2507 4 0.501137 0.421521 0.431013
587 4 0.484287 0.421652 0.417672
663 4 0.482307 0.429378 0.43745
662 4 0.475126 0.46895 0.467169
1909 2 0.461453 0.500457 0.491681
661 2 0.478716 0.449164 0.45231
1910 4 0.465258 0.480032 0.477769
2428 2 0.141774 0.0651295 0.515483
2429 4 0.144655 0.0768001 0.537408
1030 2 0.227266 0.0371445 0.568373
1032 4 0.230206 0.0339454 0.54375
720 4 0.042372 0.0946627 0.525885
718 2 0.02843 0.102304 0.506587
810 4 0.452339 0.101887 0.607514
808 2 0.474151 0.103663 0.595421
327 4 0.0890408 0.237558 0.536863
879 4 0.128475 0.214543 0.573146
877 2 0.11399 0.216626 0.552872
878 4 0.0995047 0.218708 0.532599
696 4 0.0943419 0.232153 0.516854
857 4 0.172187 0.232847 0.519997
856 2 0.194974 0.232887 0.530289
858 4 0.217761 0.232927 0.540582
952 2 0.403544 0.22134 0.543785
953 4 0.39631 0.240113 0.528938
812 4 0.385553 0.245547 0.511007
954 4 0.410778 0.202568 0.558632
791 4 0.376323 0.247401 0.530661
905 4 0.41548 0.204624 0.577626
982 2 0.0234197 0.293989 0.537538
984 4 0.0447645 0.285292 0.547231
326 4 0.0647798 0.281034 0.541544
1136 4 0.0605244 0.299703 0.55095
325 2 0.0769103 0.259296 0.539203
1135 2 0.0757307 0.318892 0.545877
2846 4 0.989159 0.30114 0.509487
1258 2 0.144764 0.296399 0.524254
1260 4 0.16105 0.278706 0.531101
1259 4 0.128478 0.314092 0.517407
1238 4 0.324378 0.279398 0.548414
1237 2 0.31 0.298831 0.5548
804 4 0.288506 0.333949 0.549175
1239 4 0.295622 0.318265 0.561186
873 4 0.392894 0.260587 0.524255
792 4 0.334746 0.261364 0.554684
790 2 0.355534 0.254382 0.542673
871 2 0.410411 0.277512 0.518608
872 4 0.427927 0.294437 0.512961
936 4 0.0366556 0.407214 0.538414
3353 4 0.0190415 0.401464 0.529956
3352 2 0.000763736 0.384409 0.529491
934 2 0.039863 0.422059 0.558277
1137 4 0.0909369 0.338081 0.540805
1160 4 0.123031 0.386584 0.536308
1159 2 0.12409 0.411023 0.541483
1190 4 0.259714 0.375758 0.588448
803 4 0.258535 0.368203 0.56989
802 2 0.27352 0.351076 0.559533
925 2 0.467034 0.385751 0.519445
927 4 0.476123 0.406029 0.530908
1001 4 0.479506 0.403916 0.549837
1000 2 0.485509 0.406348 0.573987
3430 2 0.0231214 0.474642 0.564906
539 4 0.031518 0.46996 0.514522
538 2 0.0186045 0.467345 0.493272
3431 4 0.014405 0.494195 0.551987
935 4 0.0430704 0.436903 0.57814
1161 4 0.125149 0.435462 0.546658
1395 4 0.192737 0.491126 0.517111
636 4 0.186663 0.473324 0.509935
1454 4 0.351963 0.436511 0.585785
1453 2 0.341443 0.444099 0.564409
1455 4 0.330924 0.451687 0.543033
1183 2 0.0277261 0.048094 0.661289
1184 4 0.0134601 0.0276911 0.658969
1059 4 0.163202 0.0674095 0.615615
1284 4 0.162148 0.0487235 0.611555
1283 4 0.206745 0.0296867 0.599329
2133 4 0.240276 0.998688 0.63918
1282 2 0.184447 0.0392051 0.605442
2132 4 0.224765 0.0188186 0.596112
1031 4 0.224325 0.0403436 0.592997
2131 2 0.232521 0.00875342 0.617646
824 4 0.225722 0.994255 0.652753
2281 2 0.338849 0.00989596 0.654178
1060 2 0.483471 0.00971068 0.602203
1083 4 0.0181516 0.118054 0.619179
1081 2 0.0252292 0.101627 0.636651
1082 4 0.0323068 0.0852003 0.654122
1057 2 0.166018 0.0917498 0.620595
1058 4 0.168833 0.11609 0.625576
1155 4 0.185775 0.124036 0.614324
1153 2 0.184795 0.148722 0.610474
909 4 0.18617 0.12284 0.635826
907 2 0.196256 0.119548 0.658467
886 2 0.32553 0.156394 0.630815
1193 4 0.411367 0.14169 0.619484
887 4 0.345609 0.143468 0.623402
1194 4 0.362993 0.130286 0.625016
1192 2 0.38718 0.135988 0.62225
830 4 0.349658 0.132834 0.641564
829 2 0.353428 0.12145 0.663504
809 4 0.495964 0.105438 0.583328
1026 4 0.452269 0.150982 0.653977
1143 4 0.444914 0.134237 0.66601
1024 2 0.446758 0.153583 0.629728
1025 4 0.441248 0.156183 0.605478
852 4 0.0649619 0.229902 0.654554
1272 4 0.136822 0.213014 0.591315
1270 2 0.159292 0.202254 0.593444
1154 4 0.183815 0.173408 0.606624
1271 4 0.181761 0.191494 0.595572
1221 4 0.196861 0.189744 0.610654
1219 2 0.215768 0.20176 0.62176
1220 4 0.234675 0.213776 0.632865
798 4 0.251593 0.226581 0.633346
888 4 0.305451 0.169319 0.638228
1212 4 0.254374 0.205492 0.630422
1211 4 0.298657 0.186955 0.644424
1210 2 0.276516 0.196223 0.637423
796 2 0.261591 0.248819 0.638886
904 2 0.432132 0.188525 0.587045
906 4 0.448785 0.172426 0.596464
1245 4 0.0567713 0.247074 0.644377
1209 4 0.0719418 0.250026 0.659122
1243 2 0.0414209 0.266622 0.641659
1244 4 0.0260705 0.286171 0.638941
946 2 0.155331 0.282315 0.652
1207 2 0.0942829 0.259505 0.66514
947 4 0.136291 0.278265 0.667693
948 4 0.174371 0.286365 0.636308
797 4 0.271589 0.271057 0.644426
929 4 0.394297 0.326203 0.631993
1191 4 0.212627 0.391628 0.594074
1189 2 0.23617 0.383693 0.591261
896 4 0.193173 0.389867 0.592614
895 2 0.173398 0.405002 0.594854
880 2 0.370081 0.399974 0.599037
882 4 0.377477 0.379025 0.610508
930 4 0.36545 0.363945 0.616368
928 2 0.379873 0.345074 0.624181
1205 4 0.461473 0.420223 0.659055
3432 4 0.0318378 0.45509 0.577825
3264 4 0.0378302 0.446388 0.596433
1041 4 0.0527153 0.455672 0.583808
1039 2 0.0739388 0.455789 0.597027
3262 2 0.020126 0.445253 0.614052
3238 2 0.00746429 0.470195 0.660817
897 4 0.153622 0.420137 0.597094
992 4 0.15308 0.430813 0.614182
1040 4 0.0951623 0.455907 0.610245
993 4 0.1039 0.438329 0.609128
991 2 0.12849 0.434571 0.611655
1186 2 0.218319 0.505061 0.648573
1173 4 0.277114 0.491578 0.598643
1172 4 0.287621 0.45571 0.631867
1171 2 0.282368 0.473644 0.615255
891 4 0.289272 0.458208 0.65272
881 4 0.362684 0.420924 0.587567
3182 4 0.486552 0.429819 0.599207
1206 4 0.489651 0.418893 0.617764
1204 2 0.475562 0.419558 0.63841
1002 4 0.491512 0.40878 0.598137
3181 2 0.480198 0.453751 0.59573
1269 4 0.460032 0.433612 0.675552
3183 4 0.473843 0.477682 0.592253
1185 4 0.0419921 0.0684968 0.663609
944 4 0.0474402 0.0886221 0.668949
2049 4 0.115408 0.00641998 0.73887
823 2 0.203266 0.988923 0.662369
2400 4 0.328826 0.0498763 0.72669
2283 4 0.33874 0.0281401 0.671275
2398 2 0.34199 0.0532338 0.747681
43 3 0.462967 0.0618835 0.719906
846 4 0.44687 0.0559769 0.731696
45 3 0.500167 0.0676785 0.720404
41 1 0.479895 0.0774863 0.71701
943 2 0.0714125 0.0935485 0.674072
1076 4 0.0280859 0.0806336 0.674705
1075 2 0.0204454 0.0957678 0.693083
1077 4 0.0128049 0.110902 0.711461
864 4 0.0105151 0.124044 0.727191
862 2 0.00400044 0.120112 0.751009
945 4 0.0953847 0.0984748 0.679194
908 4 0.206342 0.116257 0.681108
1227 4 0.220786 0.102696 0.683311
1226 4 0.211184 0.110551 0.731755
1225 2 0.215985 0.106623 0.707533
1148 4 0.216717 0.101255 0.750123
1130 4 0.218975 0.122693 0.747471
831 4 0.357198 0.110065 0.685443
44 3 0.47889 0.0863837 0.695604
1263 4 0.443039 0.154409 0.672944
42 3 0.477045 0.0944681 0.732263
1142 4 0.47368 0.0955616 0.679332
1141 2 0.459297 0.114899 0.672671
3426 4 0.496493 0.15907 0.719594
3270 4 0.488841 0.165388 0.738744
1261 2 0.438265 0.163377 0.69579
1179 4 0.0107659 0.192565 0.728583
850 2 0.0660028 0.21034 0.670093
1177 2 0.0288942 0.192122 0.711368
1178 4 0.0470225 0.191679 0.694153
851 4 0.0670437 0.190779 0.685631
1107 4 0.0640776 0.189127 0.706729
1105 2 0.0856999 0.181865 0.716972
1106 4 0.107322 0.174603 0.727215
1073 4 0.117461 0.191361 0.728411
977 4 0.237077 0.21527 0.750241
1299 4 0.306793 0.213598 0.741982
1297 2 0.282649 0.216397 0.747849
1086 4 0.312226 0.194817 0.744775
1084 2 0.331172 0.178843 0.7481
1085 4 0.350118 0.162868 0.751425
1262 4 0.433492 0.172345 0.718637
1145 4 0.481222 0.224272 0.743378
1144 2 0.485717 0.201969 0.733009
1146 4 0.490212 0.179665 0.72264
1208 4 0.116624 0.268983 0.671158
820 2 0.123752 0.281266 0.708138
822 4 0.123798 0.285803 0.68355
821 4 0.123706 0.276729 0.732726
1242 4 0.107785 0.284878 0.742668
1098 4 0.335581 0.331769 0.737368
3123 4 0.492754 0.260462 0.674369
892 2 0.0457002 0.398245 0.735458
893 4 0.0587929 0.377762 0.729607
942 4 0.077334 0.365649 0.729891
815 4 0.0615777 0.362428 0.744139
940 2 0.096308 0.350338 0.724347
941 4 0.115282 0.335026 0.718804
1067 4 0.133335 0.340231 0.723881
1066 2 0.149861 0.348441 0.707008
1068 4 0.166386 0.356651 0.690136
1065 4 0.235688 0.346402 0.688751
1139 4 0.221175 0.418196 0.670971
1029 4 0.21278 0.400173 0.673268
1028 4 0.174276 0.375477 0.693476
1027 2 0.193528 0.387825 0.683372
1063 2 0.253996 0.343506 0.705532
1064 4 0.272304 0.340611 0.722313
806 4 0.285011 0.355203 0.73142
805 2 0.298719 0.374136 0.740298
807 4 0.312427 0.393069 0.749175
1236 4 0.270965 0.344448 0.743468
1099 2 0.429617 0.401062 0.679162
1101 4 0.415316 0.381973 0.686661
894 4 0.0326074 0.418727 0.741308
2172 4 0.0415663 0.478278 0.685313
1279 2 0.0316716 0.447297 0.706505
3276 4 0.0209539 0.435956 0.736777
1983 4 0.0410162 0.438734 0.744052
1280 4 0.0374025 0.430653 0.724261
1281 4 0.0259407 0.463942 0.688748
3240 4 0.0221363 0.481936 0.677311
1176 4 0.199085 0.48638 0.73033
2016 4 0.183357 0.4925 0.740445
1138 2 0.245576 0.419912 0.676148
1174 2 0.201503 0.4837 0.705589
1188 4 0.214814 0.48599 0.664359
1175 4 0.203921 0.48102 0.680847
889 2 0.289071 0.473757 0.6723
1140 4 0.269977 0.421628 0.681325
890 4 0.28887 0.489307 0.691879
1100 4 0.443919 0.420152 0.671664
2169 4 0.489175 0.487072 0.670454
1268 4 0.472434 0.481827 0.680265
1267 2 0.466233 0.457719 0.677909
1196 4 0.0849947 0.0257527 0.805292
911 4 0.0862127 0.0449477 0.814646
1203 4 0.0954379 0.04189 0.795758
1201 2 0.103104 0.0309447 0.774625
1202 4 0.11077 0.0199994 0.753492
910 2 0.095474 0.0677894 0.818849
1149 4 0.237306 0.0604199 0.770354
1147 2 0.227011 0.0808376 0.760238
1049 4 0.350791 0.0511122 0.788793
1048 2 0.338372 0.0662749 0.804318
2399 4 0.355154 0.0565912 0.768671
1112 4 0.371 0.054667 0.783013
1111 2 0.391873 0.0409498 0.781852
1113 4 0.412746 0.0272325 0.780692
845 4 0.432403 0.0341846 0.774317
844 2 0.439637 0.0450808 0.753007
980 4 0.430122 0.0165674 0.787216
979 2 0.431709 0.0187144 0.812077
863 4 0.997486 0.116179 0.774826
1214 4 0.0657015 0.141963 0.813422
1213 2 0.0446104 0.13781 0.800651
33 3 0.0770146 0.125606 0.809434
1215 4 0.0235193 0.133658 0.78788