ITEM: TIMESTEP
1980000
ITEM: NUMBER OF ATOMS
4590
ITEM: BOX BOUNDS pp pp pp
-9.9985700000000008e+00 9.9985700000000008e+00
-9.9985700000000008e+00 9.9985700000000008e+00
-9.9985700000000008e+00 9.9985700000000008e+00
ITEM: ATOMS id type xs ys zs
1666 2 0.0451903 0.0478013 0.063336
1668 4 0.0309179 0.0277892 0.0679179
1667 4 0.0594628 0.0678134 0.0587542
702 4 0.0752642 0.0820065 0.0553436
423 4 0.154969 0.0746658 0.998419
490 2 0.303921 0.0657692 0.0108536
491 4 0.294013 0.0706269 0.0332903
653 4 0.29435 0.0735903 0.0548767
652 2 0.2834 0.0716522 0.0772716
297 4 0.379408 0.00706961 0.0801261
295 2 0.403713 0.0111587 0.0759176
296 4 0.428018 0.0152477 0.0717091
591 4 0.0543522 0.0882683 0.0550333
589 2 0.0356372 0.0961696 0.0404561
590 4 0.0169221 0.104071 0.0258789
3233 4 0.019801 0.112908 0.00662483
235 2 0.0829691 0.155932 0.0697549
421 2 0.147895 0.0976577 0.00523827
422 4 0.140821 0.12065 0.012058
700 2 0.090074 0.102152 0.0552434
701 4 0.104884 0.122297 0.0551432
236 4 0.103426 0.142022 0.0661197
449 4 0.117327 0.126624 0.0728108
448 2 0.136015 0.142978 0.075721
450 4 0.154703 0.159333 0.0786312
565 2 0.279108 0.109542 0.0335686
566 4 0.275218 0.132605 0.02473
567 4 0.282998 0.0864781 0.0424071
665 4 0.309512 0.138839 0.0169911
359 4 0.258659 0.132337 0.0143061
664 2 0.326611 0.156279 0.0223432
557 4 0.395149 0.160649 0.0671492
556 2 0.380256 0.166491 0.0479331
987 4 0.416088 0.138045 0.00518711
237 4 0.0625122 0.169841 0.0733902
477 4 0.0611977 0.18863 0.0828901
914 4 0.152525 0.236483 0.0243837
913 2 0.148737 0.23098 0.000289195
357 4 0.218332 0.228489 0.00488088
666 4 0.343709 0.17372 0.0276954
558 4 0.365364 0.172333 0.028717
571 2 0.365834 0.209823 0.0188929
572 4 0.355717 0.191104 0.0320241
1071 4 0.363007 0.243952 0.00490778
573 4 0.375951 0.228542 0.0057618
769 2 0.497774 0.222042 0.0334923
771 4 0.492033 0.246066 0.0373731
770 4 0.503515 0.198017 0.0296114
506 4 0.163438 0.25269 0.025565
293 4 0.149621 0.312296 0.0361718
292 2 0.136662 0.316792 0.0570766
507 4 0.165451 0.302649 0.0247211
505 2 0.164445 0.27767 0.025143
288 4 0.166629 0.323612 0.0286372
481 2 0.233195 0.330276 0.0666593
286 2 0.190422 0.331121 0.0302793
482 4 0.2511 0.321111 0.0815117
1070 4 0.364468 0.287943 0.0286428
1069 2 0.363738 0.265947 0.0167753
957 4 0.372786 0.301501 0.0170831
955 2 0.36475 0.324784 0.0213881
518 4 0.490959 0.259335 0.0546444
323 4 0.475194 0.244997 0.0505418
322 2 0.453892 0.257194 0.0552992
324 4 0.43259 0.269391 0.0600567
623 4 0.434005 0.26929 0.0790489
280 2 0.467315 0.323488 0.0133988
671 4 0.473112 0.331007 0.0489426
550 2 0.0385811 0.412087 0.0469045
551 4 0.0437408 0.400974 0.0251087
1170 4 0.0141079 0.353021 0.0119966
1168 2 0.0263636 0.37451 0.00836742
1169 4 0.0386193 0.396 0.00473819
483 4 0.21529 0.339442 0.0518069
287 4 0.214215 0.33863 0.0319214
956 4 0.356713 0.348066 0.0256932
670 2 0.481671 0.333193 0.0723337
281 4 0.472933 0.340158 0.0311674
552 4 0.0334213 0.4232 0.0687003
315 4 0.031306 0.443156 0.0764303
313 2 0.0467399 0.462665 0.0739058
314 4 0.0621737 0.482174 0.0713814
1787 4 0.0813611 0.485396 0.065518
1786 2 0.101465 0.471537 0.0708965
1788 4 0.121569 0.457678 0.0762749
243 4 0.232657 0.477189 0.0770462
1440 4 0.25237 0.470883 0.0769749
241 2 0.216437 0.496217 0.0769119
246 4 0.319855 0.454772 0.0202918
272 4 0.312456 0.471087 0.0064039
244 2 0.327399 0.449601 0.0435625
245 4 0.334944 0.44443 0.0668332
40 3 0.326152 0.454547 0.999425
2388 4 0.398645 0.494832 0.0244272
563 4 0.408488 0.476934 0.0190182
39 3 0.351577 0.427177 0.00412622
562 2 0.433056 0.476194 0.0144318
564 4 0.457624 0.475454 0.00984531
854 4 0.477338 0.474366 0.00635812
18 3 0.0109864 0.0612539 0.123575
2481 4 0.00694995 0.0592823 0.14291
16 1 0.00364547 0.0719878 0.104357
2479 2 0.00688697 0.0416638 0.160652
19 3 0.0217553 0.080608 0.0926899
654 4 0.272451 0.0697141 0.0996665
1506 4 0.264641 0.0110104 0.166379
311 4 0.413457 0.0869016 0.15709
476 4 0.0660489 0.219144 0.12221
475 2 0.0636233 0.203887 0.10255
339 4 0.0732179 0.237996 0.117552
337 2 0.0847897 0.254641 0.132188
738 4 0.175583 0.233138 0.117931
736 2 0.197289 0.238721 0.106847
353 4 0.239687 0.243544 0.101942
737 4 0.218994 0.244305 0.0957626
461 4 0.291936 0.212848 0.102808
354 4 0.276879 0.213051 0.115642
460 2 0.316759 0.214617 0.100379
352 2 0.258283 0.228297 0.108792
462 4 0.341581 0.216387 0.0979507
254 4 0.386134 0.184559 0.122855
630 4 0.396607 0.196945 0.135051
253 2 0.36554 0.190591 0.110022
255 4 0.344946 0.196622 0.0971887
628 2 0.418702 0.196847 0.146754
629 4 0.440798 0.19675 0.158457
294 4 0.123702 0.321289 0.0779814
338 4 0.0963614 0.271286 0.146824
363 4 0.115396 0.276741 0.13978
361 2 0.13037 0.273606 0.159557
755 4 0.22822 0.261115 0.10583
754 2 0.24042 0.281945 0.0993128
756 4 0.25262 0.302774 0.0927956
252 4 0.266943 0.318452 0.0956581
741 4 0.397283 0.302089 0.126178
739 2 0.377843 0.31618 0.133159
740 4 0.358404 0.330271 0.140139
624 4 0.402361 0.294843 0.108142
622 2 0.418183 0.282066 0.0935954
15 3 0.453178 0.308107 0.15293
11 1 0.439194 0.325694 0.149216
14 3 0.438173 0.330339 0.126505
13 3 0.41799 0.320783 0.157258
528 4 0.498629 0.317446 0.0970778
454 2 0.137612 0.348945 0.109271
455 4 0.141832 0.36373 0.128989
456 4 0.133393 0.33416 0.0895538
537 4 0.138715 0.353578 0.145641
250 2 0.279656 0.339227 0.10131
607 2 0.291238 0.40021 0.109778
251 4 0.29237 0.360002 0.106962
609 4 0.300044 0.377654 0.116013
387 4 0.313564 0.363495 0.107443
385 2 0.327677 0.351931 0.124539
386 4 0.341791 0.340367 0.141635
494 4 0.408273 0.369396 0.0902953
493 2 0.421965 0.360184 0.10908
495 4 0.435656 0.350973 0.127865
595 2 0.470871 0.377113 0.143339
12 3 0.447223 0.344217 0.160242
597 4 0.450755 0.363544 0.149372
2652 4 0.483493 0.408285 0.133079
596 4 0.490987 0.390682 0.137306
645 4 0.435205 0.361812 0.165064
672 4 0.49023 0.335379 0.0957248
620 4 0.0256994 0.426512 0.089138
648 4 0.0278592 0.433692 0.109717
646 2 0.030466 0.442413 0.133005
647 4 0.0330729 0.451134 0.156293
619 2 0.00107448 0.422324 0.0902568
627 4 0.214711 0.420201 0.0896637
625 2 0.239419 0.41924 0.0933721
626 4 0.264128 0.41828 0.0970806
608 4 0.282432 0.422765 0.103543
1438 2 0.266206 0.477393 0.0967578
1439 4 0.280042 0.483903 0.116541
637 2 0.288645 0.48252 0.156996
639 4 0.2922 0.484461 0.132323
523 2 0.355268 0.489526 0.147403
525 4 0.353686 0.467739 0.159568
659 4 0.350222 0.450241 0.150092
658 2 0.345009 0.428816 0.161882
1422 4 0.0130049 0.00576263 0.184609
2480 4 0.006824 0.0240453 0.178393
688 2 0.138663 0.0490585 0.236273
690 4 0.152404 0.054039 0.215986
693 4 0.152651 0.0631674 0.198017
23 3 0.311027 0.0453391 0.23466
21 1 0.333482 0.0431724 0.240092
25 3 0.345669 0.0391137 0.221287
759 4 0.359619 0.0576777 0.220994
1784 4 0.366437 0.0381533 0.210551
1783 2 0.357465 0.0209182 0.194815
757 2 0.380313 0.0712566 0.217449
24 3 0.341042 0.0625369 0.250401
758 4 0.401006 0.0848355 0.213904
1749 4 0.493648 0.00182622 0.228028
511 2 0.0262907 0.138047 0.233985
512 4 0.01833 0.139572 0.210332
691 2 0.160821 0.0867831 0.197163
692 4 0.168991 0.110399 0.196309
723 4 0.16692 0.127446 0.207935
721 2 0.175884 0.143386 0.224986
722 4 0.184848 0.159326 0.242037
581 4 0.319221 0.166168 0.187137
30 3 0.332265 0.150671 0.192797
28 3 0.365085 0.133753 0.200168
312 4 0.416485 0.0970299 0.205967
744 4 0.408331 0.101626 0.225277
26 1 0.352429 0.152975 0.203129
29 3 0.349311 0.156997 0.225768
708 4 0.361301 0.173223 0.227433
310 2 0.414971 0.0919658 0.181528
742 2 0.419832 0.0957033 0.246674
748 2 0.0655732 0.201168 0.223584
749 4 0.0632396 0.198131 0.198875
284 4 0.239316 0.203826 0.234675
283 2 0.249688 0.190109 0.216524
285 4 0.260059 0.176392 0.198374
580 2 0.297575 0.170706 0.198801
582 4 0.275929 0.175244 0.210464
27 3 0.363684 0.170784 0.193894
362 4 0.145344 0.270471 0.179334
372 4 0.152564 0.283271 0.193086
370 2 0.172107 0.297476 0.199524
371 4 0.191651 0.311681 0.205962
279 4 0.202714 0.293862 0.210416
277 2 0.218639 0.283828 0.226875
612 4 0.212082 0.309981 0.200245
278 4 0.234564 0.273794 0.243334
2693 4 0.00413659 0.382779 0.200554
535 2 0.137442 0.352239 0.170576
536 4 0.13617 0.3509 0.195511
298 2 0.152851 0.39958 0.225601
299 4 0.147916 0.378061 0.237339
610 2 0.212798 0.334745 0.196864
417 4 0.224188 0.372253 0.203525
415 2 0.234499 0.394949 0.205458
611 4 0.213513 0.359508 0.193482
301 2 0.321576 0.406247 0.211157
729 4 0.317669 0.386807 0.248402
303 4 0.311095 0.395814 0.231319
660 4 0.339797 0.407392 0.173672
643 2 0.42832 0.369771 0.187745
644 4 0.421435 0.377731 0.210426
447 4 0.427327 0.379022 0.229397
445 2 0.440341 0.388905 0.248322
263 4 0.0363522 0.451792 0.176755
262 2 0.0520006 0.460433 0.194238
1757 4 0.0622134 0.462349 0.23011
264 4 0.067649 0.469074 0.21172
300 4 0.157785 0.421099 0.213864
603 4 0.0927494 0.440894 0.232276
416 4 0.24481 0.417645 0.20739
291 4 0.249733 0.423935 0.187702
302 4 0.332056 0.416681 0.190996
289 2 0.263766 0.444392 0.190827
290 4 0.277799 0.464849 0.193952
638 4 0.28509 0.48058 0.181669
767 4 0.298663 0.4688 0.19404
766 2 0.31493 0.472655 0.212633
768 4 0.331198 0.476509 0.231226
1574 4 0.341869 0.491505 0.238832
1403 4 0.104281 0.0391704 0.260485
689 4 0.124922 0.044078 0.25656
1402 2 0.0965916 0.0179838 0.27131
675 4 0.109943 0.0581993 0.251376
673 2 0.0908519 0.0732712 0.25717
1699 2 0.212385 0.0144838 0.269881
248 4 0.223244 0.0543137 0.288256
247 2 0.205843 0.070705 0.295586
1701 4 0.217709 0.0341172 0.284419
605 4 0.224158 0.0394864 0.303986
604 2 0.228461 0.0265287 0.324932
631 2 0.325594 0.0244614 0.323896
632 4 0.326641 0.0462626 0.311698
22 3 0.335939 0.0255446 0.254665
699 4 0.379008 0.00647611 0.306743
1496 4 0.35204 0.0134188 0.252749
697 2 0.394631 0.0205983 0.320221
1495 2 0.363524 0.00252766 0.272105
698 4 0.410254 0.0347205 0.3337
351 4 0.416038 0.0529634 0.323819
349 2 0.425774 0.0672461 0.305753
350 4 0.43551 0.0815289 0.287686
2756 4 0.00865121 0.10862 0.332699
674 4 0.0717613 0.0883431 0.262963
579 4 0.0548774 0.140618 0.261537
513 4 0.0342515 0.136522 0.257639
577 2 0.0689529 0.156451 0.274817
530 4 0.0421777 0.134087 0.2776
529 2 0.03003 0.121167 0.295227
531 4 0.0178822 0.108247 0.312853
398 4 0.0288224 0.101999 0.329982
600 4 0.164236 0.152266 0.322483
545 4 0.175032 0.157234 0.304619
544 2 0.172128 0.15621 0.279806
405 4 0.172979 0.136682 0.310956
249 4 0.188443 0.0870962 0.302916
403 2 0.176085 0.112331 0.315707
404 4 0.179191 0.0879805 0.320458
546 4 0.169224 0.155185 0.254993
762 4 0.444855 0.164143 0.29681
332 4 0.444959 0.143696 0.299352
743 4 0.431334 0.0897804 0.26807
333 4 0.447181 0.0976079 0.280074
331 2 0.44607 0.120652 0.289713
750 4 0.0679068 0.204205 0.248292
396 4 0.0679479 0.215678 0.265355
578 4 0.0830284 0.172284 0.288097
394 2 0.0611787 0.239729 0.266321
391 2 0.0747931 0.171518 0.331286
393 4 0.0817067 0.169813 0.307318
343 2 0.239181 0.23954 0.251871
472 2 0.234297 0.234932 0.330402
473 4 0.247541 0.247663 0.313439
344 4 0.249173 0.218272 0.243326
706 2 0.360843 0.180705 0.251286
707 4 0.360385 0.188187 0.27514
613 2 0.413678 0.23558 0.320734
614 4 0.420078 0.229639 0.297305
760 2 0.432917 0.186084 0.295707
761 4 0.420979 0.208026 0.294604
418 2 0.444331 0.238244 0.271861
419 4 0.427649 0.221096 0.27913
520 2 0.498842 0.249753 0.262758
442 2 0.0163108 0.284595 0.275847
395 4 0.0544094 0.263779 0.267288
444 4 0.038965 0.274014 0.27579
389 4 0.129512 0.274795 0.3269
345 4 0.229189 0.260808 0.260416
309 4 0.230019 0.282178 0.262529
307 2 0.248011 0.294211 0.275046
308 4 0.266002 0.306244 0.287563
497 4 0.276003 0.32494 0.281927
508 2 0.26663 0.317741 0.32285
496 2 0.300479 0.322066 0.277705
509 4 0.26253 0.324161 0.299035
498 4 0.324956 0.319192 0.273484
763 2 0.396258 0.305367 0.272927
764 4 0.372519 0.297516 0.273026
765 4 0.419996 0.313218 0.272829
420 4 0.461013 0.255392 0.264592
521 4 0.47989 0.263773 0.271092
543 4 0.467097 0.275252 0.258216
541 2 0.45313 0.295424 0.263033
542 4 0.439164 0.315597 0.26785
408 4 0.0538196 0.362074 0.315978
406 2 0.0418944 0.379843 0.32891
734 4 0.138401 0.374634 0.255033
733 2 0.1452 0.363373 0.276297
735 4 0.151998 0.352111 0.29756
677 4 0.167413 0.35138 0.310707
676 2 0.187794 0.345564 0.323973
727 2 0.333455 0.397488 0.264586
728 4 0.34924 0.408169 0.28077
753 4 0.362664 0.380361 0.300984
751 2 0.378487 0.395328 0.313264
752 4 0.39431 0.410295 0.325544
446 4 0.453356 0.398788 0.267246
713 4 0.461312 0.397882 0.28639
712 2 0.482943 0.410327 0.284844
1756 2 0.0475072 0.470624 0.248561
1758 4 0.032801 0.4789 0.267011
412 2 0.108523 0.462794 0.310157
602 4 0.112632 0.450911 0.277054
601 2 0.102691 0.445903 0.254665
414 4 0.124066 0.449245 0.296015
413 4 0.0929796 0.476344 0.324299
1435 2 0.230984 0.449938 0.310532
1436 4 0.246723 0.434747 0.298419
1437 4 0.215246 0.46513 0.322644
438 4 0.284791 0.424723 0.248022
437 4 0.264695 0.430366 0.293464
436 2 0.274743 0.427545 0.270743
433 2 0.322993 0.424772 0.315339
434 4 0.336231 0.414062 0.297031
1573 2 0.361904 0.481232 0.249707
1575 4 0.381938 0.470958 0.260582
1802 4 0.38422 0.460038 0.277361
1801 2 0.369661 0.441785 0.286307
1803 4 0.355102 0.423532 0.295253
231 4 0.487459 0.497342 0.310502
233 4 0.00352653 0.0587566 0.396208
318 4 0.0693997 0.0561068 0.376012
234 4 0.0511397 0.0607337 0.381049
232 2 0.0273331 0.0597451 0.388628
316 2 0.0834189 0.0435525 0.392475
317 4 0.0974381 0.0309982 0.408938
368 4 0.120214 0.0760793 0.399836
606 4 0.232764 0.013571 0.345879
441 4 0.233361 0.0156683 0.366419
633 4 0.324548 0.00266031 0.336095
725 4 0.328192 0.00856081 0.354761
439 2 0.253755 0.00448851 0.375599
682 2 0.286732 0.0686809 0.405212
683 4 0.286147 0.0596741 0.381895
256 2 0.414141 0.0484855 0.364998
257 4 0.405138 0.0536769 0.342256
425 4 0.408399 0.0390606 0.400567
258 4 0.423143 0.0432941 0.38774
2643 4 0.485894 0.072076 0.369935
452 4 0.470857 0.0794974 0.380243
2641 2 0.499629 0.0647559 0.350366
397 2 0.0511243 0.100131 0.341131
399 4 0.0734262 0.0982623 0.352281
732 4 0.0917529 0.105898 0.347298
731 4 0.110623 0.147524 0.367594
730 2 0.101188 0.126711 0.357446
686 4 0.129685 0.148175 0.377627
599 4 0.128624 0.15496 0.357487
598 2 0.14643 0.153613 0.339985
685 2 0.145333 0.139764 0.395222
687 4 0.160982 0.131353 0.412816
467 4 0.313177 0.163225 0.383443
515 4 0.410398 0.104388 0.37787
514 2 0.396803 0.118115 0.393743
516 4 0.383209 0.131841 0.409616
575 4 0.380643 0.151632 0.414093
453 4 0.430249 0.108442 0.383975
451 2 0.450553 0.0939698 0.382109
2653 2 0.0351388 0.171524 0.379879
2655 4 0.0110039 0.171822 0.386405
2654 4 0.0592738 0.171227 0.373353
392 4 0.0678795 0.173224 0.355254
390 4 0.0944522 0.247454 0.349791
275 4 0.168713 0.214438 0.392021
274 2 0.188175 0.214049 0.376328
474 4 0.221053 0.222202 0.347364
276 4 0.207636 0.213659 0.360635
411 4 0.23066 0.221911 0.412108
409 2 0.251049 0.207496 0.410812
466 2 0.293875 0.167991 0.398606
410 4 0.271438 0.193081 0.409517
615 4 0.407278 0.241521 0.344164
269 4 0.461021 0.227951 0.364648
306 4 0.449972 0.217373 0.378819
304 2 0.439869 0.207413 0.399408
305 4 0.429767 0.197453 0.419998
2801 4 0.0108334 0.299906 0.413919
2812 2 0.0119767 0.329061 0.387341
2814 4 0.0112287 0.305044 0.394255
401 4 0.138327 0.279268 0.344099
388 2 0.111982 0.261124 0.338346
617 4 0.0849488 0.254039 0.366071
616 2 0.0838921 0.262978 0.389398
400 2 0.16178 0.278606 0.352744
618 4 0.0828354 0.271917 0.412726
347 4 0.09358 0.290155 0.415696
375 4 0.196688 0.289924 0.372137
402 4 0.185232 0.277945 0.361389
373 2 0.219723 0.299506 0.370472
374 4 0.242757 0.309088 0.368808
378 4 0.262518 0.306987 0.36454
489 4 0.302975 0.27369 0.399822
376 2 0.274538 0.296007 0.383517
377 4 0.286558 0.285026 0.402494
510 4 0.270729 0.31132 0.346665
487 2 0.326226 0.264695 0.401737
716 4 0.392014 0.252322 0.353631
715 2 0.380552 0.256934 0.375369
717 4 0.369089 0.261545 0.397107
488 4 0.349477 0.2557 0.403651
268 2 0.459176 0.250716 0.374823
270 4 0.45733 0.273482 0.384997
2924 4 0.44339 0.274805 0.399508
407 4 0.0299692 0.397612 0.341842
548 4 0.0113562 0.407804 0.343633
2813 4 0.0127247 0.353078 0.380426
678 4 0.208175 0.339748 0.337239
504 4 0.191929 0.407876 0.402657
502 2 0.215437 0.401478 0.408278
503 4 0.238945 0.395079 0.413898
710 4 0.18057 0.397295 0.416792
650 4 0.256691 0.391517 0.40681
561 4 0.40285 0.395978 0.335866
559 2 0.41408 0.403501 0.356901
667 2 0.402599 0.398401 0.410363
668 4 0.423545 0.401131 0.396985
560 4 0.42531 0.411025 0.377936
588 4 0.43553 0.419248 0.394905
547 2 0.0152918 0.432369 0.346135
549 4 0.0192275 0.456934 0.348636
775 2 0.057444 0.471574 0.33958
777 4 0.0337926 0.463744 0.337464
776 4 0.0810954 0.479404 0.341696
1545 4 0.0958777 0.493693 0.336267
773 4 0.173055 0.487061 0.397114
2 3 0.32573 0.482197 0.362207
435 4 0.309754 0.435483 0.333648
4 3 0.314669 0.451846 0.342995
1 1 0.332279 0.461491 0.354624
5 3 0.350281 0.463884 0.340882
3 3 0.337926 0.448274 0.37284
586 2 0.454285 0.422411 0.411135
1781 4 0.121242 0.00777174 0.432282
428 4 0.102022 0.0151215 0.421062
1780 2 0.134116 0.0154179 0.452307
1782 4 0.146989 0.0230641 0.472331
341 4 0.154428 0.0428113 0.468459
2430 4 0.149473 0.0370639 0.489229
340 2 0.152577 0.0676988 0.466919
1180 2 0.286641 0.0563874 0.464645
1181 4 0.290543 0.0367648 0.479642
432 4 0.307144 0.0344975 0.493295
1182 4 0.28274 0.0760099 0.449648
430 2 0.331869 0.0309977 0.492032
842 4 0.394879 0.00139072 0.450015
841 2 0.375353 0.00553225 0.465073
843 4 0.355827 0.00967379 0.480131
431 4 0.356595 0.0274979 0.490768
426 4 0.409069 0.00200601 0.434141
424 2 0.408734 0.0205333 0.417354
1217 4 0.415868 0.00286662 0.454634
457 2 0.0172287 0.11778 0.459903
719 4 0.0592105 0.106815 0.459346
459 4 0.0420508 0.115722 0.457711
718 2 0.0712407 0.104946 0.481185
367 2 0.123705 0.0892362 0.42081
369 4 0.127197 0.102393 0.441783
939 4 0.130469 0.12226 0.444224
937 2 0.134421 0.145865 0.45146
342 4 0.150726 0.0925862 0.46538
1151 4 0.179654 0.127322 0.423128
1152 4 0.169325 0.0958365 0.460581
1150 2 0.17449 0.111579 0.441854
684 4 0.287317 0.0776877 0.42853
321 4 0.290056 0.131599 0.451368
320 4 0.269614 0.0883212 0.43688
319 2 0.279835 0.10996 0.444124
899 4 0.274215 0.140115 0.460057
898 2 0.275267 0.162613 0.470916
471 4 0.0219599 0.238728 0.497723
938 4 0.138373 0.16947 0.458695
1034 4 0.145947 0.186606 0.448902
261 4 0.119871 0.238062 0.452756
1035 4 0.128282 0.228166 0.470382
1033 2 0.137115 0.207386 0.459642
695 4 0.112676 0.242689 0.472934
694 2 0.103256 0.248951 0.495232
858 4 0.212734 0.211716 0.498214
468 4 0.274573 0.172756 0.413769
900 4 0.276319 0.185111 0.481775
574 2 0.396519 0.170837 0.416169
813 4 0.356274 0.227447 0.476063
266 4 0.362583 0.226209 0.457316
576 4 0.412395 0.190042 0.418244
265 2 0.363617 0.241872 0.437854
2657 4 0.479652 0.192019 0.433161
2845 2 0.00151881 0.286192 0.492463
2800 2 0.00458345 0.303745 0.437823
2847 4 0.0101016 0.295163 0.47076
260 4 0.103046 0.27152 0.419617
259 2 0.111458 0.254791 0.436186
346 2 0.102778 0.309651 0.428364
348 4 0.111977 0.329147 0.441032
10 3 0.110017 0.333144 0.461101
9 3 0.127862 0.312604 0.487126
1259 4 0.129433 0.297566 0.501817
6 1 0.124303 0.333974 0.478818
267 4 0.36465 0.257535 0.418392
238 2 0.39366 0.304313 0.455814
240 4 0.371892 0.316434 0.453712
335 4 0.369618 0.334651 0.449945
239 4 0.415428 0.292193 0.457916
2923 2 0.43453 0.285825 0.420129
2925 4 0.42567 0.296846 0.44075
2456 4 0.490076 0.297251 0.454351
584 4 0.472997 0.295528 0.464205
583 2 0.452002 0.288518 0.475835
585 4 0.431007 0.281507 0.487464
3354 4 0.999571 0.371296 0.497399
680 4 0.0477316 0.396268 0.418287
679 2 0.0648201 0.405332 0.434129
7 3 0.115056 0.346957 0.495404
681 4 0.0819086 0.414397 0.449972
8 3 0.144476 0.343396 0.472286
711 4 0.150276 0.40392 0.456024
709 2 0.165423 0.400607 0.436408
649 2 0.269569 0.372037 0.415747
651 4 0.282447 0.352557 0.424684
669 4 0.381653 0.395671 0.423741
334 2 0.370235 0.358311 0.441884
336 4 0.370851 0.381972 0.433824
926 4 0.453832 0.346923 0.500231
568 2 0.117708 0.496175 0.441927
384 4 0.115129 0.464854 0.465096
569 4 0.119584 0.471576 0.445991
382 2 0.108164 0.442564 0.456163
383 4 0.101199 0.420273 0.447229
772 2 0.179109 0.480827 0.420558
634 2 0.188423 0.485243 0.484433
635 4 0.188912 0.472309 0.46304
774 4 0.185164 0.474592 0.444003
1910 4 0.462465 0.470608 0.490889
661 2 0.461351 0.451749 0.461557
662 4 0.448585 0.467275 0.476429
663 4 0.474117 0.436224 0.446686
2507 4 0.48952 0.421402 0.442279
587 4 0.473041 0.425573 0.427365
1909 2 0.470584 0.493624 0.496325
2428 2 0.145913 0.0437193 0.513066
2429 4 0.142352 0.0503746 0.536904
962 4 0.242994 0.00453087 0.502523
1032 4 0.267409 0.0700361 0.580525
963 4 0.288644 0.0241879 0.497017
961 2 0.265819 0.0143594 0.49977
1091 4 0.364429 0.00353937 0.571972
2196 4 0.370326 0.0109443 0.553973
1062 4 0.470734 0.0238874 0.591382
808 2 0.48051 0.0780797 0.562124
810 4 0.459503 0.0745922 0.549018
720 4 0.0832709 0.103076 0.503025
469 2 0.005423 0.231652 0.515091
879 4 0.133739 0.229628 0.568915
1272 4 0.143844 0.222209 0.584335
877 2 0.119569 0.242257 0.55264
857 4 0.17745 0.228902 0.529204
856 2 0.195092 0.220309 0.513709
811 2 0.362158 0.236672 0.498546
952 2 0.393551 0.237322 0.558295
812 4 0.368043 0.245896 0.521028
954 4 0.404579 0.231225 0.579892
905 4 0.420586 0.223731 0.571314
904 2 0.437426 0.21025 0.583958
982 2 0.0128436 0.285151 0.548825
984 4 0.0335642 0.28802 0.562522
326 4 0.0550047 0.288046 0.565946
1136 4 0.0453803 0.304899 0.557183
325 2 0.071162 0.277364 0.550134
1135 2 0.0535969 0.328482 0.555962
696 4 0.0938355 0.255213 0.517531
878 4 0.105398 0.254887 0.536365
327 4 0.0873192 0.266683 0.534321
1258 2 0.137544 0.288244 0.523554
1260 4 0.145654 0.278922 0.545291
1237 2 0.307618 0.298172 0.574175
1238 4 0.326199 0.30001 0.557545
953 4 0.382524 0.243419 0.536699
792 4 0.339771 0.288713 0.567745
790 2 0.352923 0.272981 0.553438
791 4 0.366075 0.257249 0.53913
873 4 0.381738 0.262115 0.525513
871 2 0.402876 0.271248 0.515769
872 4 0.424014 0.280381 0.506025
3113 4 0.473677 0.2713 0.581996
936 4 0.0269504 0.39337 0.551512
934 2 0.028935 0.411701 0.5684
3353 4 0.0258491 0.397329 0.531052
3352 2 0.0127102 0.384312 0.514226
1137 4 0.0618136 0.352066 0.554741
1191 4 0.211207 0.397591 0.562197
1189 2 0.225064 0.378121 0.569552
1190 4 0.238921 0.358652 0.576907
896 4 0.192381 0.395436 0.570009
1454 4 0.33858 0.404416 0.547858
880 2 0.35121 0.375661 0.572021
881 4 0.337936 0.386095 0.553579
925 2 0.460979 0.360426 0.520024
927 4 0.468125 0.373928 0.539817
1001 4 0.471879 0.383735 0.556377
1000 2 0.472608 0.402251 0.573164
539 4 0.0631005 0.474886 0.527708
538 2 0.0403221 0.474632 0.5174
3430 2 0.0206063 0.474117 0.577134
3432 4 0.0289454 0.45071 0.579917
540 4 0.0175436 0.474377 0.507092
935 4 0.0309196 0.430032 0.585288
1160 4 0.162136 0.434682 0.564402
1159 2 0.14474 0.43468 0.546442
1161 4 0.127344 0.434678 0.528482
2154 4 0.305677 0.493015 0.570842
1453 2 0.346208 0.427663 0.542702
1455 4 0.353835 0.45091 0.537547
1892 4 0.0132634 0.0190895 0.655036
1183 2 0.0300967 0.0503085 0.666235
1184 4 0.0326565 0.0261565 0.660293
1284 4 0.162251 0.0590929 0.596621
1030 2 0.248053 0.0573369 0.589971
1283 4 0.208533 0.0407593 0.591873
2133 4 0.227544 0.0233442 0.657815
1282 2 0.185392 0.0499261 0.594247
2132 4 0.212589 0.0388499 0.612686
1031 4 0.228696 0.0446377 0.599416
2131 2 0.220066 0.031097 0.635251
2282 4 0.329599 0.997966 0.628672
2281 2 0.330742 0.0199117 0.640599
2283 4 0.331886 0.0418571 0.652527
1060 2 0.482308 0.00318273 0.59929
1083 4 0.00628119 0.11588 0.624793
3179 4 0.00169142 0.133275 0.614592
1081 2 0.0196783 0.102289 0.640948
1082 4 0.0330755 0.0886984 0.657103
945 4 0.0888668 0.094294 0.660455
1059 4 0.158488 0.0781542 0.602213
1057 2 0.167611 0.0991522 0.612264
1153 2 0.180445 0.161387 0.616717
1155 4 0.184013 0.137169 0.611622
1058 4 0.176734 0.12015 0.622315
909 4 0.197772 0.123611 0.620484
907 2 0.213813 0.115651 0.637935
908 4 0.229853 0.107691 0.655386
886 2 0.322377 0.155225 0.64708
1193 4 0.386175 0.124775 0.591771
887 4 0.341262 0.139403 0.642815
1194 4 0.355786 0.128943 0.631266
1192 2 0.370981 0.126859 0.611519
830 4 0.358287 0.130073 0.652449
1026 4 0.442887 0.161615 0.646643
1143 4 0.436272 0.146564 0.660474
1263 4 0.425102 0.164975 0.658675
852 4 0.064639 0.242874 0.665963
1270 2 0.162906 0.213188 0.597769
1154 4 0.176876 0.185604 0.621812
1271 4 0.181967 0.204168 0.611202
1221 4 0.196185 0.194641 0.623992
1219 2 0.218085 0.206704 0.623698
1220 4 0.239984 0.218767 0.623404
798 4 0.251675 0.232805 0.634338
1212 4 0.258074 0.212502 0.63348
888 4 0.303492 0.171047 0.651344
1211 4 0.288995 0.173479 0.638145
1210 2 0.273534 0.192991 0.635813
796 2 0.253589 0.250359 0.652041
3114 4 0.485753 0.234198 0.613274
1024 2 0.446802 0.169239 0.623154
906 4 0.454266 0.19677 0.596602
1025 4 0.450717 0.176862 0.599665
1244 4 0.0174777 0.291182 0.65745
1243 2 0.035971 0.274417 0.655994
1245 4 0.0544643 0.257652 0.654538
1209 4 0.075795 0.25905 0.657771
946 2 0.155605 0.281947 0.6667
1207 2 0.0999421 0.262105 0.663495
948 4 0.173925 0.288013 0.650802
1239 4 0.289038 0.296334 0.590805
804 4 0.286536 0.315871 0.59561
802 2 0.266078 0.329126 0.590048
3112 2 0.479715 0.252749 0.597635
897 4 0.160749 0.410197 0.605818
992 4 0.142783 0.415201 0.612142
895 2 0.176565 0.402817 0.587914
803 4 0.245619 0.342381 0.584486
882 4 0.364484 0.365227 0.590463
929 4 0.372075 0.358528 0.649251
930 4 0.382151 0.361421 0.600355
928 2 0.377113 0.359974 0.624803
1101 4 0.410187 0.383708 0.657116
1206 4 0.475649 0.417381 0.609468
1099 2 0.427637 0.401099 0.661382
1100 4 0.445087 0.418491 0.665648
3264 4 0.0159886 0.442186 0.594538
1041 4 0.0368556 0.445243 0.598896
1039 2 0.0612824 0.444615 0.604199
3262 2 0.00816779 0.436122 0.617499
3240 4 0.012605 0.481431 0.6621
1040 4 0.0857091 0.443987 0.609502
993 4 0.0988126 0.434062 0.597598
991 2 0.120798 0.424632 0.60487
1186 2 0.225739 0.49454 0.660285
1173 4 0.298646 0.490344 0.589242
1172 4 0.286431 0.460144 0.627182
1171 2 0.292539 0.475244 0.608212
891 4 0.285423 0.458229 0.647572
1002 4 0.473336 0.420766 0.589952
1204 2 0.469824 0.421563 0.633421
3183 4 0.458225 0.482217 0.617633
3181 2 0.47664 0.473492 0.603145
3182 4 0.495056 0.464766 0.588657
1205 4 0.463999 0.425744 0.657374
1185 4 0.027537 0.0744605 0.672178
4338 4 0.0204651 0.0149273 0.674844
4336 2 0.00767938 0.00338468 0.692968
824 4 0.224275 0.0241534 0.677663
823 2 0.206922 0.00989174 0.688647
2400 4 0.357481 0.0629328 0.730104
43 3 0.445704 0.079925 0.7323
846 4 0.438715 0.061532 0.738788
45 3 0.477268 0.0752142 0.712321
943 2 0.0653773 0.0919316 0.668692
944 4 0.0418878 0.0895693 0.676929
1076 4 0.0216047 0.0952364 0.674284
1075 2 0.0141356 0.10164 0.697271
1077 4 0.00666643 0.108044 0.720257
1227 4 0.243903 0.107554 0.669584
1226 4 0.232934 0.125109 0.715106
1225 2 0.238418 0.116332 0.692345
1148 4 0.223138 0.120614 0.733529
1130 4 0.221017 0.140535 0.724278
1129 2 0.219951 0.15797 0.742169
1147 2 0.216445 0.101158 0.747736
1004 4 0.291206 0.129292 0.761232
829 2 0.371374 0.124621 0.673045
831 4 0.384461 0.11917 0.693641
41 1 0.46028 0.0896195 0.71707
44 3 0.448899 0.0951283 0.697615
42 3 0.468979 0.108817 0.726286
1142 4 0.454023 0.103995 0.679801
1141 2 0.445147 0.12528 0.670138
3426 4 0.493399 0.158422 0.72333
1179 4 0.00771808 0.173011 0.703923
850 2 0.0647953 0.219675 0.67529
1177 2 0.0285991 0.177709 0.690997
1178 4 0.0494801 0.182407 0.67807
851 4 0.0649516 0.196477 0.684616
1107 4 0.0684413 0.175459 0.685155
1105 2 0.0840798 0.175883 0.70466
1106 4 0.0997183 0.176306 0.724164
1073 4 0.0915385 0.18122 0.742882
1072 2 0.103633 0.201592 0.750876
1074 4 0.115727 0.221964 0.75887
1299 4 0.299625 0.196681 0.732891
1298 4 0.26467 0.230175 0.745424
1297 2 0.282148 0.213428 0.739157
1086 4 0.315134 0.197239 0.719396
1261 2 0.416167 0.169434 0.681598
1084 2 0.332119 0.186589 0.734339
1262 4 0.407232 0.173893 0.704521
3270 4 0.479573 0.163503 0.738664
1145 4 0.460961 0.214513 0.710448
1144 2 0.467968 0.190757 0.713872
1146 4 0.474976 0.167001 0.717296
1208 4 0.124089 0.265159 0.66922
820 2 0.126459 0.273531 0.712137
822 4 0.122685 0.261963 0.690294
947 4 0.137284 0.275882 0.682599
821 4 0.130234 0.285098 0.733981
1242 4 0.110269 0.284957 0.739877
797 4 0.255502 0.267913 0.669743
1063 2 0.257382 0.332661 0.710524
1065 4 0.261744 0.326967 0.686571
1098 4 0.321779 0.328415 0.73618
3123 4 0.488815 0.243776 0.704709
892 2 0.0418797 0.390191 0.719761
893 4 0.0490813 0.366442 0.722813
815 4 0.0519251 0.360434 0.743398
942 4 0.068792 0.362308 0.730448
894 4 0.0346782 0.41394 0.71671
940 2 0.0932011 0.367728 0.730443
941 4 0.11761 0.373147 0.730439
1067 4 0.116887 0.374314 0.709891
1066 2 0.139421 0.372356 0.699234
1068 4 0.161955 0.370398 0.688577
1139 4 0.230559 0.394978 0.690396
1029 4 0.22388 0.392401 0.708133
1028 4 0.176054 0.379917 0.700543
1027 2 0.199967 0.386159 0.704338
1064 4 0.25302 0.338354 0.734477
1140 4 0.274165 0.41525 0.704117
1138 2 0.252362 0.405114 0.697257
806 4 0.26887 0.352383 0.739481
805 2 0.284379 0.371995 0.739699
807 4 0.299887 0.391606 0.739917
1250 4 0.463912 0.408725 0.738663
2172 4 0.023378 0.489049 0.679041
1279 2 0.0236562 0.449662 0.692217
3276 4 0.0163728 0.42103 0.726528
1983 4 0.0347919 0.432695 0.728266
1280 4 0.0241324 0.431915 0.709824
1981 2 0.0469604 0.448463 0.743382
1281 4 0.0231799 0.467409 0.674611
1174 2 0.210371 0.492256 0.713509
1188 4 0.218163 0.489053 0.683473
1176 4 0.190319 0.490968 0.728391
2016 4 0.182662 0.496982 0.744545
1175 4 0.230422 0.493544 0.698627
889 2 0.285445 0.471786 0.668581
890 4 0.285467 0.485343 0.68959
1988 4 0.290746 0.484329 0.71037
1987 2 0.313674 0.491467 0.717334
1989 4 0.336603 0.498605 0.724298
1269 4 0.451945 0.4392 0.668801
2169 4 0.468459 0.495787 0.695106
1268 4 0.468847 0.475991 0.698151
1267 2 0.460396 0.457595 0.683476
1249 2 0.462107 0.431441 0.748954
1196 4 0.0654844 0.0320281 0.819879
911 4 0.0814647 0.0452957 0.815333
1203 4 0.0700178 0.0365328 0.799005
2047 2 0.123548 0.998552 0.749157
1201 2 0.0876783 0.0291164 0.782934
1202 4 0.105339 0.0217 0.766863
2049 4 0.10851 0.0185112 0.748351
910 2 0.0888071 0.0672095 0.824875
1149 4 0.209751 0.0817022 0.761942
1050 4 0.337781 0.0840882 0.829315
1049 4 0.322158 0.0590623 0.788937