ITEM: TIMESTEP
1820000
ITEM: NUMBER OF ATOMS
4590
ITEM: BOX BOUNDS pp pp pp
-9.9985700000000008e+00 9.9985700000000008e+00
-9.9985700000000008e+00 9.9985700000000008e+00
-9.9985700000000008e+00 9.9985700000000008e+00
ITEM: ATOMS id type xs ys zs
1666 2 0.0603976 0.0469389 0.060642
1668 4 0.0578449 0.0221079 0.0591988
1667 4 0.0629503 0.0717699 0.0620852
591 4 0.0476786 0.0864035 0.0641235
421 2 0.138263 0.073214 0.00363123
422 4 0.118869 0.0815657 0.0170223
534 4 0.185193 0.0263908 0.0219213
490 2 0.270738 0.0648961 0.0170623
491 4 0.278462 0.0754791 0.0383585
653 4 0.287655 0.0861089 0.0544412
652 2 0.289283 0.0691724 0.0727629
589 2 0.0310514 0.0962382 0.0482491
590 4 0.0144243 0.106073 0.0323748
702 4 0.0678848 0.0925077 0.0602348
3232 2 0.0235639 0.145425 0.0144346
3233 4 0.0134982 0.123131 0.0196148
700 2 0.0860222 0.109706 0.0608953
3234 4 0.0336295 0.167719 0.00925445
1248 4 0.0107452 0.103543 0.0114283
701 4 0.10416 0.126904 0.0615559
236 4 0.113608 0.14639 0.0631163
449 4 0.125654 0.12852 0.0615557
565 2 0.264471 0.118904 0.037664
566 4 0.256204 0.14195 0.0325949
567 4 0.272738 0.0958575 0.0427331
664 2 0.322785 0.152201 0.0141052
665 4 0.299636 0.143608 0.010179
359 4 0.24848 0.153958 0.0189443
987 4 0.390559 0.109146 0.998172
557 4 0.38821 0.146263 0.0622623
556 2 0.377653 0.154099 0.0409944
666 4 0.345935 0.160795 0.0180314
558 4 0.367095 0.161934 0.0197264
477 4 0.0805314 0.196985 0.0707028
235 2 0.0988842 0.166055 0.0584596
237 4 0.0841606 0.18572 0.0538029
914 4 0.144996 0.258805 0.0191914
913 2 0.14115 0.23789 0.00604119
357 4 0.226228 0.244849 0.998265
571 2 0.364646 0.202467 0.0139501
572 4 0.356301 0.17894 0.0125223
1071 4 0.368702 0.245372 0.0116048
573 4 0.372991 0.225994 0.0153778
769 2 0.490266 0.221888 0.0528837
770 4 0.481652 0.201496 0.0412579
771 4 0.498879 0.24228 0.0645095
506 4 0.152266 0.271197 0.00553216
293 4 0.141929 0.333653 0.0379108
507 4 0.144823 0.317104 0.0239139
505 2 0.148545 0.29415 0.014723
288 4 0.162202 0.325541 0.0333927
286 2 0.185846 0.333437 0.0314403
481 2 0.232066 0.3199 0.0610292
482 4 0.242581 0.311778 0.0822105
483 4 0.22155 0.328021 0.039848
252 4 0.262292 0.32094 0.0868036
1070 4 0.362401 0.293905 0.0218803
1069 2 0.365551 0.269639 0.0167426
957 4 0.375277 0.307967 0.0174732
955 2 0.367963 0.329676 0.00745155
518 4 0.495864 0.263608 0.067056
323 4 0.478515 0.250779 0.0669133
670 2 0.477309 0.323168 0.066877
322 2 0.458715 0.265668 0.0702969
671 4 0.476955 0.337353 0.0462893
324 4 0.438915 0.280557 0.0736806
550 2 0.0538104 0.400024 0.0483262
551 4 0.062473 0.379558 0.0368689
552 4 0.0451479 0.42049 0.0597836
292 2 0.137737 0.334482 0.0625466
287 4 0.20949 0.341332 0.0294878
250 2 0.276509 0.339398 0.0958785
956 4 0.36065 0.351384 0.99743
281 4 0.465697 0.337622 0.0303651
280 2 0.452943 0.33871 0.00888655
315 4 0.0405085 0.436786 0.0711614
619 2 0.0102927 0.420117 0.0774691
313 2 0.0580397 0.454301 0.0744849
314 4 0.0755709 0.471817 0.0778084
1786 2 0.105263 0.472291 0.0524111
1788 4 0.111788 0.455321 0.0352461
1787 4 0.0987376 0.48926 0.069576
627 4 0.227831 0.43509 0.0594042
625 2 0.238973 0.427515 0.080467
246 4 0.315583 0.45938 0.0239969
272 4 0.318059 0.463989 0.00407769
244 2 0.324581 0.460873 0.0472776
245 4 0.333578 0.462365 0.0705584
2388 4 0.418628 0.499195 0.0347104
563 4 0.428839 0.494768 0.0518757
562 2 0.446069 0.479228 0.0425579
564 4 0.463299 0.463688 0.0332402
854 4 0.463196 0.444705 0.0258548
853 2 0.471868 0.437097 0.00367164
18 3 0.0276628 0.0579522 0.125659
2481 4 0.0151884 0.0533061 0.1415
2479 2 0.0158344 0.0372036 0.160617
16 1 0.0136322 0.075261 0.119183
654 4 0.290912 0.0522359 0.0910845
297 4 0.378576 0.0473095 0.0881411
295 2 0.384811 0.0232943 0.0912365
296 4 0.391045 0.999279 0.0943319
19 3 0.025226 0.0902798 0.105825
20 3 0.00544897 0.0859238 0.137567
450 4 0.139222 0.128069 0.109685
448 2 0.132438 0.128295 0.0856204
476 4 0.0749572 0.205524 0.119659
475 2 0.0777443 0.201255 0.095181
339 4 0.0794343 0.224718 0.117975
337 2 0.0914648 0.244131 0.128152
738 4 0.191888 0.203744 0.12574
736 2 0.206816 0.223228 0.120972
737 4 0.221744 0.242711 0.116203
353 4 0.243291 0.240338 0.11639
461 4 0.30593 0.214961 0.114319
354 4 0.288288 0.220428 0.107466
460 2 0.320121 0.198479 0.101984
352 2 0.265789 0.230383 0.111928
462 4 0.334312 0.181997 0.0896493
254 4 0.387677 0.171185 0.130369
630 4 0.398792 0.176589 0.14664
253 2 0.369361 0.178492 0.114997
255 4 0.351045 0.1858 0.099624
628 2 0.420231 0.178757 0.159323
629 4 0.44167 0.180924 0.172005
338 4 0.103495 0.263544 0.138329
363 4 0.102983 0.261549 0.157883
754 2 0.244503 0.281058 0.105144
755 4 0.233377 0.260201 0.113291
756 4 0.25563 0.301915 0.0969972
741 4 0.383198 0.293948 0.136622
624 4 0.401727 0.292925 0.126198
739 2 0.365633 0.31064 0.130457
622 2 0.41733 0.283793 0.108925
672 4 0.477663 0.308983 0.0874646
623 4 0.432933 0.274661 0.091653
15 3 0.462509 0.319409 0.129565
528 4 0.483501 0.30236 0.105615
13 3 0.432263 0.310799 0.15027
11 1 0.444556 0.327971 0.140656
454 2 0.139667 0.347942 0.116553
455 4 0.134912 0.344275 0.140825
294 4 0.133545 0.335312 0.0871824
456 4 0.144422 0.351608 0.0922815
537 4 0.136375 0.361715 0.150386
607 2 0.284257 0.392704 0.101271
251 4 0.290726 0.357856 0.104953
609 4 0.302181 0.375567 0.0980737
387 4 0.303779 0.368298 0.118409
385 2 0.325365 0.356964 0.123957
608 4 0.266333 0.409841 0.104468
740 4 0.348068 0.327333 0.124292
386 4 0.34695 0.34563 0.129504
494 4 0.379024 0.37583 0.129294
493 2 0.396382 0.35907 0.122739
495 4 0.413741 0.342311 0.116184
14 3 0.431205 0.340025 0.125998
595 2 0.460359 0.380843 0.139896
12 3 0.451932 0.342048 0.157286
597 4 0.456579 0.363928 0.157917
2652 4 0.483073 0.39885 0.126461
596 4 0.464139 0.397759 0.121874
620 4 0.0306861 0.429039 0.0888572
648 4 0.0224491 0.435739 0.107368
646 2 0.0343025 0.436594 0.129366
647 4 0.0461559 0.437449 0.151365
626 4 0.250116 0.419939 0.10153
1440 4 0.227924 0.487389 0.0950224
243 4 0.21872 0.503289 0.0864098
1438 2 0.251691 0.486477 0.102734
1439 4 0.275458 0.485566 0.110446
637 2 0.28782 0.480402 0.1442
639 4 0.288779 0.49304 0.122647
523 2 0.353953 0.473861 0.150324
525 4 0.355061 0.449941 0.157521
659 4 0.342235 0.452131 0.171865
658 2 0.334916 0.428225 0.171502
2650 2 0.492337 0.420561 0.118215
2651 4 0.501602 0.442271 0.109969
1422 4 0.0099082 0.00338169 0.186556
2480 4 0.0164803 0.0211012 0.179734
1403 4 0.104936 0.0449679 0.241467
689 4 0.125579 0.0456882 0.24685
688 2 0.136662 0.0563939 0.227158
690 4 0.147744 0.0670997 0.207467
693 4 0.161263 0.0823628 0.208261
1402 2 0.100537 0.0221081 0.250591
1700 4 0.222606 0.00311374 0.23618
1506 4 0.245716 0.00122991 0.188225
23 3 0.317819 0.0505728 0.239574
21 1 0.340226 0.046908 0.244362
25 3 0.351471 0.0415525 0.225296
759 4 0.363188 0.0601872 0.219609
1784 4 0.370731 0.0394452 0.214708
1783 2 0.366283 0.0188098 0.201308
757 2 0.379418 0.0791343 0.217945
311 4 0.440614 0.0868237 0.163235
511 2 0.026346 0.131881 0.240426
512 4 0.0273191 0.134265 0.215555
691 2 0.16607 0.104667 0.198033
692 4 0.170877 0.126971 0.187806
721 2 0.174639 0.154341 0.220404
723 4 0.163764 0.14074 0.202462
546 4 0.176836 0.162338 0.255172
758 4 0.395649 0.0980815 0.216281
28 3 0.349542 0.143795 0.207617
312 4 0.413348 0.0965704 0.204006
744 4 0.413434 0.107706 0.223125
310 2 0.426981 0.091697 0.18362
742 2 0.420603 0.102326 0.246466
748 2 0.0461887 0.212855 0.237847
749 4 0.0291721 0.196292 0.230018
750 4 0.0632054 0.229417 0.245676
284 4 0.235769 0.215645 0.220083
722 4 0.185514 0.167942 0.238347
344 4 0.24777 0.223608 0.235293
283 2 0.244016 0.202173 0.2007
343 2 0.243164 0.247857 0.239285
581 4 0.314971 0.170444 0.199167
285 4 0.252263 0.188702 0.181317
30 3 0.331728 0.176857 0.210299
580 2 0.292283 0.172942 0.188959
582 4 0.269596 0.175439 0.178751
29 3 0.350919 0.163758 0.239927
26 1 0.35013 0.165106 0.216776
27 3 0.369024 0.175892 0.209306
361 2 0.126693 0.264311 0.165327
362 4 0.150402 0.267073 0.172772
372 4 0.147885 0.276255 0.189416
370 2 0.16696 0.288759 0.199662
371 4 0.186035 0.301262 0.209908
279 4 0.207224 0.305471 0.212375
277 2 0.217189 0.29595 0.233237
612 4 0.194145 0.321102 0.206058
765 4 0.409147 0.303535 0.24989
2693 4 0.0262139 0.403356 0.226205
535 2 0.148431 0.365818 0.171904
536 4 0.160487 0.36992 0.193421
298 2 0.136938 0.401563 0.227184
299 4 0.140498 0.391167 0.249644
300 4 0.133379 0.411958 0.204724
610 2 0.202263 0.344705 0.204574
417 4 0.201573 0.384344 0.208045
415 2 0.21724 0.403361 0.212296
611 4 0.21038 0.368307 0.20309
301 2 0.334327 0.380837 0.205585
660 4 0.327597 0.404319 0.17114
729 4 0.32607 0.374534 0.245966
303 4 0.336543 0.372972 0.229215
302 4 0.332111 0.388702 0.181954
645 4 0.453085 0.352823 0.177022
643 2 0.439446 0.357242 0.197506
644 4 0.425807 0.361661 0.217991
447 4 0.432504 0.378106 0.227021
445 2 0.446874 0.38693 0.245482
1756 2 0.0413987 0.474883 0.246663
263 4 0.0468778 0.43701 0.172998
262 2 0.0511671 0.440556 0.197374
1757 4 0.0539051 0.454539 0.239255
264 4 0.0554564 0.444103 0.221751
1467 4 0.0200513 0.495629 0.191216
1430 4 0.165835 0.508559 0.242995
416 4 0.232908 0.422377 0.216546
291 4 0.240411 0.43148 0.200503
289 2 0.259433 0.440512 0.18702
290 4 0.278455 0.449544 0.173538
638 4 0.286862 0.467764 0.165753
767 4 0.29593 0.457574 0.182399
766 2 0.31154 0.470918 0.196663
768 4 0.32715 0.484262 0.210926
1573 2 0.355096 0.490156 0.226912
1575 4 0.363895 0.492902 0.250155
675 4 0.111636 0.0561732 0.259014
673 2 0.100626 0.0741712 0.272432
1699 2 0.216686 0.0216465 0.251886
248 4 0.211478 0.0604526 0.274476
247 2 0.194664 0.0721184 0.288842
1701 4 0.210766 0.0401793 0.267591
605 4 0.221907 0.0451589 0.284942
604 2 0.233594 0.0349269 0.304535
606 4 0.24528 0.0246948 0.324129
631 2 0.294853 0.041848 0.306816
632 4 0.279663 0.0593356 0.297401
633 4 0.310042 0.0243604 0.316231
1496 4 0.329419 0.0164956 0.270096
1497 4 0.370008 0.997329 0.292139
699 4 0.378735 0.00874968 0.308841
22 3 0.341887 0.0294826 0.259287
24 3 0.349487 0.065902 0.253946
697 2 0.394611 0.0238535 0.320884
1495 2 0.349714 0.00691212 0.281118
698 4 0.410486 0.0389573 0.332926
479 4 0.497781 0.0408225 0.325411
351 4 0.417619 0.0565935 0.323529
349 2 0.425982 0.0721161 0.305801
579 4 0.0359341 0.148844 0.270098
513 4 0.025373 0.129496 0.265296
577 2 0.0566439 0.155144 0.282612
530 4 0.0276499 0.136266 0.285802
529 2 0.022403 0.117955 0.301999
531 4 0.0171561 0.0996439 0.318197
393 4 0.081004 0.16247 0.314701
674 4 0.0896173 0.0921692 0.28585
545 4 0.163233 0.153222 0.302422
544 2 0.170035 0.15778 0.278797
600 4 0.126672 0.153495 0.318101
403 2 0.167016 0.110828 0.313242
404 4 0.166652 0.0865714 0.319297
249 4 0.17785 0.0837842 0.303207
405 4 0.16738 0.135085 0.307187
708 4 0.353706 0.15793 0.2597
762 4 0.435322 0.164898 0.301798
332 4 0.44813 0.154074 0.291657
350 4 0.434345 0.0876387 0.288073
743 4 0.427773 0.0969464 0.269808
333 4 0.428505 0.108227 0.287964
331 2 0.438317 0.13115 0.28981
396 4 0.0587616 0.234786 0.264494
578 4 0.0773536 0.161445 0.295125
473 4 0.243677 0.235863 0.342467
706 2 0.34664 0.172893 0.278444
707 4 0.339574 0.187857 0.297188
614 4 0.411743 0.227525 0.318053
760 2 0.423406 0.186627 0.30512
761 4 0.411491 0.208356 0.308441
418 2 0.439476 0.241871 0.293405
419 4 0.425647 0.223077 0.302389
520 2 0.495358 0.253797 0.268842
442 2 0.00748473 0.288332 0.292845
394 2 0.0516833 0.25435 0.278362
395 4 0.0446049 0.273915 0.29223
444 4 0.0279969 0.278831 0.30353
389 4 0.122046 0.262804 0.329155
401 4 0.140378 0.27088 0.329995
278 4 0.227155 0.286428 0.254098
345 4 0.238557 0.272106 0.243277
309 4 0.241066 0.274674 0.265319
307 2 0.255254 0.29223 0.276074
308 4 0.269442 0.309786 0.286829
497 4 0.289426 0.314233 0.294848
508 2 0.275849 0.329063 0.325918
496 2 0.307939 0.321101 0.279508
509 4 0.273383 0.327353 0.301096
763 2 0.398241 0.293818 0.270183
764 4 0.387336 0.284101 0.290477
420 4 0.453305 0.260665 0.28442
521 4 0.474211 0.258036 0.281492
543 4 0.464474 0.278003 0.278822
541 2 0.467726 0.302016 0.272661
542 4 0.470978 0.326029 0.266499
408 4 0.0303064 0.385571 0.295076
406 2 0.0269893 0.390179 0.319427
734 4 0.125153 0.384055 0.2603
733 2 0.137091 0.375334 0.280465
735 4 0.149028 0.366614 0.30063
677 4 0.164908 0.360085 0.311255
676 2 0.188812 0.353379 0.314228
678 4 0.212715 0.346673 0.317202
498 4 0.326451 0.327969 0.264169
727 2 0.335286 0.393011 0.260068
728 4 0.344502 0.411487 0.27417
753 4 0.383672 0.358356 0.290985
751 2 0.384646 0.375862 0.308811
752 4 0.38562 0.393367 0.326638
446 4 0.461245 0.395753 0.263943
713 4 0.469169 0.395028 0.281986
1758 4 0.0288924 0.495228 0.254071
603 4 0.0964652 0.4238 0.248991
412 2 0.104593 0.465536 0.313117
602 4 0.122339 0.44267 0.287399
601 2 0.109402 0.433235 0.268195
414 4 0.119596 0.446535 0.306869
413 4 0.0895898 0.484538 0.319366
1435 2 0.230421 0.464943 0.322964
1436 4 0.240024 0.454921 0.302167
438 4 0.282783 0.419497 0.261072
437 4 0.254688 0.449909 0.289117
436 2 0.268735 0.434703 0.275094
1802 4 0.36367 0.476591 0.26407
434 4 0.336306 0.421537 0.290967
433 2 0.332341 0.428269 0.314719
1801 2 0.357936 0.453634 0.272149
1803 4 0.352202 0.430677 0.280229
714 4 0.497451 0.434672 0.293351
712 2 0.48331 0.41485 0.287668
231 4 0.460026 0.497865 0.309772
233 4 0.995464 0.0430624 0.369891
318 4 0.0601603 0.0614702 0.378712
234 4 0.0422428 0.0606814 0.371324
232 2 0.0188536 0.0518719 0.370608
316 2 0.0759231 0.0472786 0.391952
317 4 0.091686 0.033087 0.405193
428 4 0.0917772 0.0172226 0.392276
441 4 0.247084 0.0225712 0.343393
439 2 0.255885 0.00842127 0.362034
725 4 0.334219 0.995374 0.364895
425 4 0.40164 0.0432516 0.410231
258 4 0.399622 0.0433265 0.390298
256 2 0.40776 0.049553 0.36749
2642 4 0.506861 0.0487463 0.342334
257 4 0.415897 0.0557794 0.344683
2756 4 0.000225448 0.098564 0.332083
398 4 0.0196971 0.103114 0.339163
2655 4 0.998881 0.140274 0.3786
397 2 0.0412752 0.100802 0.351581
2653 2 0.0205882 0.151578 0.373482
2654 4 0.0422953 0.162883 0.368365
399 4 0.0628532 0.0984907 0.364
732 4 0.0809968 0.0926572 0.369244
731 4 0.12287 0.119991 0.369732
730 2 0.101933 0.106324 0.369488
686 4 0.143612 0.123279 0.365823
599 4 0.130151 0.140547 0.366277
598 2 0.128411 0.147021 0.342189
685 2 0.163756 0.128044 0.379849
687 4 0.183899 0.13281 0.393874
1151 4 0.184211 0.123414 0.412794
682 2 0.303472 0.0895835 0.396843
466 2 0.290373 0.156893 0.393798
683 4 0.314661 0.0890386 0.374489
467 4 0.306561 0.138849 0.399925
453 4 0.407608 0.104543 0.386401
515 4 0.388706 0.108898 0.380187
514 2 0.379551 0.124342 0.397589
451 2 0.431203 0.0965585 0.388566
452 4 0.454798 0.0885735 0.390732
392 4 0.0592003 0.166815 0.359494
391 2 0.0701021 0.164642 0.337097
275 4 0.153875 0.204422 0.3864
274 2 0.177081 0.197951 0.379707
474 4 0.214847 0.200548 0.36302
276 4 0.200287 0.19148 0.373015
472 2 0.229262 0.218206 0.352744
411 4 0.234709 0.222725 0.418001
410 4 0.262136 0.190692 0.391123
468 4 0.274185 0.174936 0.387671
409 2 0.248422 0.206709 0.404562
613 2 0.411967 0.239356 0.340079
716 4 0.397333 0.240732 0.371191
715 2 0.380257 0.247936 0.387975
615 4 0.412191 0.251187 0.362106
269 4 0.461977 0.220632 0.376882
306 4 0.452894 0.212918 0.394562
268 2 0.46376 0.244992 0.382229
304 2 0.435041 0.200871 0.407263
2801 4 0.996225 0.308535 0.415
2814 4 0.990824 0.318241 0.397953
617 4 0.0735679 0.269291 0.373283
390 4 0.0820337 0.259109 0.358922
616 2 0.0827103 0.263763 0.395889
388 2 0.10204 0.260956 0.344038
400 2 0.164077 0.275686 0.336354
375 4 0.196194 0.294102 0.354043
402 4 0.187776 0.280492 0.342713
373 2 0.205499 0.303825 0.375116
374 4 0.214804 0.313548 0.396189
378 4 0.271872 0.314168 0.36115
489 4 0.313742 0.295953 0.394177
376 2 0.286717 0.297978 0.373095
377 4 0.301563 0.281788 0.38504
487 2 0.332259 0.282717 0.404525
510 4 0.278314 0.330774 0.350741
717 4 0.363181 0.255139 0.404759
488 4 0.350777 0.269481 0.414873
270 4 0.465544 0.269352 0.387577
2924 4 0.448585 0.274661 0.396755
2923 2 0.439032 0.278845 0.419479
2812 2 0.00664822 0.337465 0.395669
2813 4 0.0224721 0.356689 0.393385
407 4 0.0236721 0.394787 0.343777
548 4 0.0207884 0.414623 0.346859
503 4 0.236732 0.393226 0.409586
649 2 0.270623 0.385275 0.422762
650 4 0.252645 0.401431 0.416364
561 4 0.400421 0.402054 0.338193
559 2 0.410622 0.401986 0.36102
668 4 0.411576 0.39621 0.402599
560 4 0.420823 0.401919 0.383848
588 4 0.431162 0.405383 0.40221
586 2 0.44984 0.413716 0.416593
1545 4 0.0921273 0.502579 0.330536
547 2 0.0190673 0.439551 0.34596
549 4 0.0173461 0.464479 0.345062
775 2 0.059161 0.478463 0.344935
777 4 0.0357877 0.471466 0.350404
776 4 0.0825343 0.485459 0.339466
1437 4 0.220818 0.474966 0.343761
773 4 0.18165 0.471393 0.414294
2 3 0.3102 0.468746 0.377015
5 3 0.333968 0.487147 0.354892
1 1 0.330884 0.468087 0.366969
435 4 0.328376 0.435001 0.338471
4 3 0.331839 0.449604 0.352974
3 3 0.347163 0.466417 0.38342
593 4 0.466925 0.492345 0.381909
1780 2 0.13519 0.0121863 0.453472
368 4 0.0990677 0.0668138 0.428573
1782 4 0.137789 0.0217341 0.476435
341 4 0.177921 0.0659513 0.488861
2430 4 0.177644 0.0477496 0.495945
1180 2 0.292032 0.056532 0.447377
1181 4 0.298592 0.0360258 0.460091
963 4 0.298805 0.023287 0.477819
432 4 0.310476 0.0412305 0.477075
961 2 0.276413 0.024413 0.488888
430 2 0.332443 0.0422073 0.488977
1182 4 0.285472 0.0770381 0.434663
962 4 0.254021 0.0255391 0.499957
842 4 0.401963 0.00916474 0.469871
424 2 0.400466 0.022603 0.424282
841 2 0.381054 0.0177876 0.48053
843 4 0.360144 0.0264104 0.49119
457 2 0.00920464 0.123351 0.445343
719 4 0.0347521 0.111834 0.466038
459 4 0.0340145 0.121994 0.448137
718 2 0.0566942 0.107954 0.477381
367 2 0.114572 0.0863969 0.429715
720 4 0.0786364 0.104074 0.488724
369 4 0.130076 0.10598 0.430856
939 4 0.125047 0.120609 0.441853
937 2 0.126259 0.140797 0.456556
938 4 0.127471 0.160985 0.471258
342 4 0.152787 0.104065 0.468457
340 2 0.165354 0.0850083 0.478659
1150 2 0.173547 0.120963 0.435276
1152 4 0.162882 0.118513 0.457758
684 4 0.292283 0.0901283 0.419196
321 4 0.271292 0.140591 0.44374
320 4 0.272612 0.0929111 0.428721
319 2 0.271952 0.116751 0.436231
899 4 0.270782 0.158875 0.454057
898 2 0.287205 0.163087 0.472434
900 4 0.303629 0.167299 0.490811
516 4 0.370396 0.139787 0.414991
575 4 0.378603 0.149815 0.428538
1034 4 0.140124 0.171613 0.459962
259 2 0.115101 0.23575 0.435857
261 4 0.118013 0.22045 0.455417
1035 4 0.126262 0.217246 0.475001
1033 2 0.133193 0.19443 0.467482
695 4 0.106622 0.226709 0.47241
694 2 0.10862 0.244052 0.490309
858 4 0.202156 0.214173 0.489508
574 2 0.393056 0.169694 0.433132
813 4 0.372184 0.229234 0.484644
266 4 0.369048 0.24194 0.470417
265 2 0.368693 0.251972 0.447516
576 4 0.407508 0.189574 0.437726
305 4 0.417188 0.188825 0.419964
2657 4 0.479319 0.180357 0.474967
2800 2 0.998982 0.30283 0.439188
260 4 0.11219 0.25105 0.416296
618 4 0.0918527 0.258236 0.418495
347 4 0.108078 0.270058 0.425399
346 2 0.115063 0.289901 0.438914
348 4 0.122048 0.309744 0.452429
10 3 0.115529 0.306266 0.471316
6 1 0.123757 0.32205 0.485523
7 3 0.106994 0.328993 0.499663
267 4 0.368338 0.262004 0.424616
238 2 0.39985 0.299675 0.456348
240 4 0.389998 0.316572 0.471924
335 4 0.375796 0.32458 0.457654
239 4 0.409703 0.282779 0.440772
2925 4 0.429478 0.283029 0.442203
2456 4 0.49206 0.306133 0.473117
584 4 0.488058 0.289144 0.480819
583 2 0.46339 0.288532 0.484856
585 4 0.438722 0.287919 0.488894
680 4 0.0427261 0.409745 0.423717
679 2 0.0638912 0.4085 0.436971
681 4 0.0850564 0.407254 0.450225
8 3 0.131445 0.340321 0.473462
711 4 0.139649 0.38993 0.441403
709 2 0.164257 0.389494 0.436994
710 4 0.188865 0.389057 0.432585
504 4 0.187854 0.401116 0.416621
502 2 0.212293 0.397171 0.413103
651 4 0.288601 0.369118 0.42916
667 2 0.399707 0.393977 0.424492
669 4 0.387838 0.391743 0.446385
334 2 0.377678 0.348924 0.452269
336 4 0.37956 0.373269 0.446884
540 4 0.0439552 0.493059 0.498392
383 4 0.0906155 0.425934 0.443873
568 2 0.123877 0.501097 0.43811
384 4 0.108508 0.472272 0.449649
569 4 0.117799 0.477361 0.433124
382 2 0.0995616 0.449103 0.446761
772 2 0.190504 0.46784 0.437406
634 2 0.18609 0.480043 0.490747
774 4 0.199359 0.464287 0.460518
635 4 0.194728 0.459098 0.48017
1910 4 0.444447 0.47619 0.488702
2507 4 0.484 0.419557 0.445574
661 2 0.466657 0.450826 0.463491
662 4 0.459156 0.462778 0.484132
587 4 0.468517 0.422049 0.430977
663 4 0.474158 0.438874 0.442849
1909 2 0.454467 0.492679 0.504604
2428 2 0.16181 0.0429703 0.514697
2429 4 0.145976 0.038191 0.533448
1283 4 0.20984 0.034323 0.589206
1091 4 0.334393 0.0170735 0.55981
2196 4 0.350251 0.0104138 0.550234
2194 2 0.370222 0.00789047 0.535403
431 4 0.354411 0.0431842 0.500879
1060 2 0.470665 0.995372 0.573801
1062 4 0.476266 0.00137633 0.550184
809 4 0.497018 0.0832333 0.580459
808 2 0.474474 0.0867612 0.570236
810 4 0.45193 0.0902891 0.560013
469 2 0.0203511 0.23363 0.522083
471 4 0.0436288 0.229533 0.513926
879 4 0.158155 0.242116 0.556139
1272 4 0.152351 0.238647 0.574752
856 2 0.198889 0.220547 0.513463
857 4 0.195621 0.226921 0.537419
811 2 0.378082 0.240654 0.506091
982 2 0.022254 0.300723 0.54442
984 4 0.0454166 0.299052 0.553687
326 4 0.064384 0.292015 0.546828
1136 4 0.0604103 0.313341 0.547713
1135 2 0.0696825 0.330372 0.563498
877 2 0.139319 0.249187 0.541294
325 2 0.0850408 0.28227 0.536655
696 4 0.110619 0.261396 0.508208
878 4 0.120482 0.256259 0.52645
327 4 0.105698 0.272524 0.526482
1259 4 0.151642 0.305601 0.513865
1258 2 0.15799 0.305252 0.538047
1260 4 0.164338 0.304904 0.562229
9 3 0.141014 0.313084 0.498181
1237 2 0.302404 0.308873 0.576527
1238 4 0.318002 0.303631 0.557701
952 2 0.399764 0.252171 0.563189
792 4 0.334441 0.296826 0.549579
812 4 0.383979 0.252073 0.527539
790 2 0.353055 0.283018 0.540197
791 4 0.371669 0.26921 0.530814
953 4 0.38628 0.263771 0.545616
873 4 0.392815 0.271834 0.526724
871 2 0.412518 0.283626 0.51683
872 4 0.432222 0.295419 0.506935
926 4 0.456272 0.331846 0.519986
936 4 0.0165492 0.383621 0.546454
934 2 0.0216521 0.40599 0.556392
3353 4 0.0122675 0.383909 0.525821
3352 2 0.00755148 0.370961 0.504958
1190 4 0.231931 0.381067 0.590236
1454 4 0.358277 0.409544 0.548052
880 2 0.361038 0.380717 0.572333
881 4 0.35068 0.391893 0.552509
1453 2 0.344938 0.428643 0.53897
925 2 0.455309 0.346395 0.540299
927 4 0.454347 0.360944 0.560611
1001 4 0.455258 0.350711 0.578456
1000 2 0.461451 0.371811 0.590355
935 4 0.026755 0.428359 0.56633
539 4 0.0554484 0.487098 0.546694
538 2 0.0497018 0.490079 0.522543
3430 2 0.0211693 0.472846 0.574106
3432 4 0.0196617 0.448088 0.57095
3431 4 0.022677 0.497603 0.577263
1160 4 0.153823 0.413413 0.552933
1159 2 0.141979 0.423713 0.533469
1161 4 0.130135 0.434012 0.514006
636 4 0.177451 0.500987 0.501325
1455 4 0.331599 0.447742 0.529889
2154 4 0.306171 0.483894 0.58524
3183 4 0.446321 0.486654 0.570221
3181 2 0.462172 0.470201 0.580381
1059 4 0.158432 0.0741243 0.606597
2133 4 0.231774 0.00591213 0.638561
1284 4 0.173038 0.0680267 0.592421
1282 2 0.191439 0.0511749 0.590813
2132 4 0.2251 0.0402645 0.602838
1031 4 0.229548 0.0378371 0.582196
2131 2 0.228437 0.0230883 0.6207
824 4 0.232295 0.00637228 0.658125
1030 2 0.244206 0.0574563 0.577154
1032 4 0.258864 0.0770754 0.572113
2282 4 0.337464 0.011631 0.625697
1092 4 0.344682 0.0221295 0.608486
1090 2 0.339538 0.0196015 0.584148
2281 2 0.339959 0.0168334 0.650026
1081 2 0.0169109 0.104596 0.647912
1082 4 0.0261704 0.0916787 0.667214
1057 2 0.168797 0.0952817 0.614969
1153 2 0.177984 0.156547 0.611704
1155 4 0.185223 0.132626 0.610946
1058 4 0.179162 0.116439 0.623342
909 4 0.199582 0.117656 0.616133
907 2 0.214176 0.118678 0.636409
908 4 0.228771 0.1197 0.656685
886 2 0.318682 0.159644 0.643157
887 4 0.342446 0.153476 0.638424
1194 4 0.349251 0.134098 0.63258
1192 2 0.359261 0.117937 0.616338
1193 4 0.369271 0.101776 0.600096
830 4 0.357702 0.143652 0.649724
1026 4 0.424322 0.144553 0.649701
1143 4 0.430059 0.12933 0.663601
3008 4 0.506558 0.0957848 0.595504
1270 2 0.158463 0.219603 0.589757
1154 4 0.170745 0.180467 0.612462
1271 4 0.164574 0.200559 0.604763
1221 4 0.177248 0.199306 0.622115
1219 2 0.197686 0.206583 0.634544
1220 4 0.218124 0.213861 0.646974
1212 4 0.238508 0.207167 0.643795
798 4 0.234341 0.228255 0.645374
796 2 0.238819 0.252833 0.644376
888 4 0.294918 0.165812 0.64789
1211 4 0.281824 0.182474 0.647632
1210 2 0.260166 0.194821 0.645713
954 4 0.413248 0.240571 0.580762
1024 2 0.43079 0.163581 0.634826
3114 4 0.487296 0.243402 0.599474
906 4 0.426648 0.199818 0.620055
904 2 0.429301 0.219799 0.605259
905 4 0.431955 0.239779 0.590463
1025 4 0.437259 0.182608 0.61995
1244 4 0.0177421 0.282463 0.644249
946 2 0.151961 0.28102 0.666051
948 4 0.176462 0.280027 0.66116
797 4 0.243298 0.277412 0.643379
1239 4 0.286806 0.314115 0.595353
804 4 0.272323 0.326503 0.59929
3112 2 0.502229 0.261658 0.591175
1137 4 0.0789548 0.347402 0.579283
895 2 0.158225 0.396281 0.598319
897 4 0.15046 0.419129 0.604867
896 4 0.165989 0.373434 0.591772
1189 2 0.208231 0.373553 0.587584
1191 4 0.184531 0.366039 0.584933
803 4 0.237291 0.361301 0.591378
802 2 0.254807 0.343902 0.595334
882 4 0.371396 0.369542 0.592158
929 4 0.399228 0.357199 0.634941
930 4 0.358283 0.365559 0.607476
928 2 0.378756 0.361379 0.621208
1002 4 0.467645 0.392912 0.602255
1206 4 0.479195 0.395782 0.618392
1204 2 0.466722 0.411095 0.633725
3264 4 0.0137378 0.43128 0.582928
1041 4 0.0339542 0.43869 0.583807
1039 2 0.0583704 0.435367 0.588047
3240 4 0.00891408 0.477114 0.667396
1040 4 0.0827866 0.432043 0.592288
992 4 0.146071 0.438371 0.6082
993 4 0.0962087 0.435251 0.606026
991 2 0.12114 0.436811 0.607113
1188 4 0.22204 0.499873 0.674205
1173 4 0.295394 0.467038 0.59012
1172 4 0.276472 0.44859 0.632574
1171 2 0.285933 0.457814 0.611347
891 4 0.271808 0.445073 0.652416
889 2 0.277885 0.462607 0.669173
3182 4 0.478024 0.453749 0.590542
1205 4 0.454249 0.426409 0.649058
1100 4 0.43376 0.426215 0.65711
1892 4 0.00640999 0.0117326 0.681827
1183 2 0.0269977 0.0524402 0.674211
1184 4 0.0156144 0.0305481 0.678253
1185 4 0.038381 0.0743324 0.67017
943 2 0.0713772 0.085165 0.66176
4338 4 0.00615256 0.0265988 0.697135
945 4 0.0955178 0.0786586 0.662037
823 2 0.21825 0.0105094 0.678393
825 4 0.204204 0.0146465 0.698661
2283 4 0.342454 0.0220358 0.674355
2400 4 0.370833 0.0123382 0.74082
43 3 0.443053 0.0608977 0.735185
846 4 0.446785 0.0436665 0.743887
41 1 0.457699 0.0700918 0.719714
44 3 0.445787 0.0806294 0.702818
45 3 0.470926 0.0537861 0.710891
1179 4 0.000292964 0.168683 0.697425
944 4 0.0472366 0.0916714 0.661484
1076 4 0.0414821 0.0921435 0.682203
1075 2 0.0323695 0.0986641 0.704555
1077 4 0.0232569 0.105185 0.726908
864 4 0.00407743 0.0976071 0.725277
1177 2 0.024254 0.17356 0.692204
1106 4 0.104162 0.172919 0.706751
1226 4 0.234822 0.134039 0.72041
1225 2 0.231278 0.123862 0.697848
1227 4 0.227734 0.113684 0.675286
1148 4 0.234589 0.114944 0.730081
1130 4 0.240508 0.133384 0.741225
1147 2 0.237386 0.0964002 0.746618
1005 4 0.295018 0.0807532 0.754847
1003 2 0.295794 0.105564 0.751845
831 4 0.375905 0.117824 0.688483
829 2 0.366804 0.130738 0.669103
42 3 0.470912 0.0856534 0.730317
1142 4 0.446057 0.0846242 0.67929
1141 2 0.438058 0.106977 0.671446
1263 4 0.422526 0.147836 0.670718
1261 2 0.426288 0.16293 0.690294
3426 4 0.492204 0.16474 0.711377
3270 4 0.490872 0.165492 0.732984
1105 2 0.0849453 0.175115 0.690906
852 4 0.0651245 0.24181 0.669998
1178 4 0.0482151 0.178438 0.686984
850 2 0.0586448 0.217674 0.67079
851 4 0.052165 0.193537 0.671583
1107 4 0.0657283 0.177311 0.675061
1209 4 0.0675985 0.25543 0.686611
1073 4 0.1106 0.18438 0.721205
1072 2 0.114314 0.194245 0.743878
976 2 0.231363 0.208829 0.741135
977 4 0.24715 0.222689 0.727576
1299 4 0.307789 0.195644 0.713262
1298 4 0.266362 0.223146 0.718569
1297 2 0.287076 0.209395 0.715915
918 4 0.264589 0.225434 0.740232
1086 4 0.318264 0.190116 0.729353
1084 2 0.337993 0.182673 0.74279
1262 4 0.430049 0.178025 0.709869
1145 4 0.484372 0.230864 0.707235
1144 2 0.488003 0.207177 0.714372
1146 4 0.491634 0.18349 0.721508
1243 2 0.0355781 0.271421 0.657855
1245 4 0.0534141 0.260379 0.671461
1208 4 0.115753 0.268084 0.681948
1207 2 0.0916757 0.261757 0.68428
820 2 0.129397 0.293278 0.715134
822 4 0.126036 0.28391 0.692197
947 4 0.127461 0.282013 0.670942
821 4 0.132758 0.302646 0.738072
1063 2 0.281142 0.331805 0.731117
1065 4 0.294836 0.311954 0.724515
3123 4 0.485808 0.273286 0.707316
892 2 0.0431353 0.394345 0.725234
893 4 0.0526105 0.37121 0.725634
814 2 0.0564705 0.341546 0.751527
815 4 0.0576078 0.365904 0.745999
942 4 0.0731682 0.37083 0.732304
940 2 0.0962297 0.37978 0.728666
941 4 0.119291 0.38873 0.725027
1067 4 0.134296 0.379053 0.729044
1066 2 0.149088 0.368659 0.711771
1139 4 0.234147 0.390788 0.686112
1068 4 0.163879 0.358265 0.694498
1029 4 0.220846 0.381512 0.671211
1028 4 0.183126 0.3556 0.691372
1027 2 0.201986 0.368556 0.681291
1140 4 0.284065 0.391452 0.683193
1138 2 0.259106 0.39112 0.684652
1064 4 0.267447 0.351655 0.73772
806 4 0.268102 0.37312 0.742255
1101 4 0.397102 0.399843 0.678591
1099 2 0.415431 0.413029 0.667851
1250 4 0.465145 0.401041 0.73934
2170 2 0.0312099 0.504841 0.68192
2172 4 0.0170222 0.484586 0.68561
1281 4 0.00242671 0.468801 0.686892
894 4 0.0336602 0.417481 0.724833
1279 2 0.0120059 0.44976 0.699963
3276 4 0.0187311 0.429931 0.734085
1983 4 0.0364035 0.438737 0.726199
1280 4 0.021585 0.430718 0.713033
1981 2 0.0530978 0.453828 0.737096
1175 4 0.208747 0.490369 0.685393
890 4 0.283962 0.480141 0.68593
1988 4 0.297946 0.481903 0.702031
1088 4 0.285703 0.498968 0.695817
1987 2 0.319949 0.484597 0.713597
1989 4 0.341953 0.487291 0.725163
2169 4 0.478628 0.494702 0.681967
1268 4 0.47403 0.476258 0.688897
1269 4 0.448162 0.442098 0.663115
1267 2 0.461096 0.459178 0.676006
1249 2 0.481568 0.418372 0.746763
1203 4 0.0756036 0.0328559 0.808581
1201 2 0.0839053 0.0232005 0.787063
1196 4 0.0745128 0.0259723 0.828897
911 4 0.0762783 0.0469446 0.824867
1202 4 0.092207 0.013545 0.765545
2049 4 0.0981644 0.999189 0.754288
910 2 0.0867902 0.069377 0.828252
1149 4 0.240182 0.077856 0.763155
1049 4 0.332016 0.0606473 0.774957
1048 2 0.333747 0.0736929 0.796217
2398 2 0.356051 0.0291028 0.752028
2399 4 0.34127 0.0458674 0.763237