ITEM: TIMESTEP
2820000
ITEM: NUMBER OF ATOMS
4590
ITEM: BOX BOUNDS pp pp pp
-9.9985700000000008e+00 9.9985700000000008e+00
-9.9985700000000008e+00 9.9985700000000008e+00
-9.9985700000000008e+00 9.9985700000000008e+00
ITEM: ATOMS id type xs ys zs
1666 2 0.0637451 0.0506081 0.0199694
1667 4 0.0690573 0.0723922 0.0310334
1668 4 0.0584329 0.0288239 0.00890551
532 2 0.159063 0.0453505 0.0250575
533 4 0.156318 0.0220859 0.0337981
534 4 0.161808 0.0686151 0.0163168
423 4 0.156955 0.0876423 0.0203856
1475 4 0.210368 0.0026052 0.0425383
490 2 0.28175 0.0726795 0.0391411
492 4 0.288681 0.0505761 0.0297289
297 4 0.441226 0.00669836 0.0944541
591 4 0.0562545 0.0892342 0.026456
702 4 0.0704169 0.0907519 0.0425215
589 2 0.0368651 0.104584 0.0301459
590 4 0.0174758 0.119934 0.0338359
3232 2 0.028504 0.156259 0.00976718
3233 4 0.0153724 0.138602 0.02164
421 2 0.168345 0.10982 0.0222815
700 2 0.08781 0.0973364 0.0592339
701 4 0.105203 0.103921 0.0759463
449 4 0.121081 0.11793 0.0804353
422 4 0.179735 0.131998 0.0241774
652 2 0.240452 0.102032 0.061603
654 4 0.21639 0.095276 0.0623384
491 4 0.27482 0.094783 0.0485532
653 4 0.264514 0.108787 0.0608676
565 2 0.290053 0.126571 0.0269435
566 4 0.301801 0.137211 0.00760568
567 4 0.278306 0.11593 0.0462813
556 2 0.387297 0.152317 0.0497682
557 4 0.401102 0.139773 0.0664193
477 4 0.0899613 0.182956 0.0778589
3234 4 0.0416356 0.173916 0.997894
913 2 0.141993 0.242967 0.994525
558 4 0.373492 0.164861 0.033117
666 4 0.383632 0.161646 0.0142842
571 2 0.368273 0.200629 0.0299961
572 4 0.371526 0.179267 0.017417
573 4 0.36502 0.221992 0.0425752
1071 4 0.358415 0.237353 0.0284768
255 4 0.348783 0.212772 0.0908008
324 4 0.42827 0.244512 0.0896443
322 2 0.443677 0.237993 0.0710624
771 4 0.462457 0.231793 0.0311432
518 4 0.479822 0.23265 0.0441361
517 2 0.498727 0.225808 0.0590004
323 4 0.459085 0.231473 0.0524806
769 2 0.472459 0.235839 0.00858699
914 4 0.14385 0.264264 0.0074934
507 4 0.148195 0.330498 0.0268422
505 2 0.148578 0.305689 0.0237508
506 4 0.148961 0.280881 0.0206594
482 4 0.246816 0.335055 0.0789451
756 4 0.241415 0.314338 0.0815177
252 4 0.260115 0.321309 0.0894064
1069 2 0.369178 0.255789 0.01546
955 2 0.402739 0.304435 0.0225426
1070 4 0.379942 0.274225 0.00244314
956 4 0.414762 0.319379 0.0385831
282 4 0.433279 0.313741 0.0371268
1056 4 0.0205071 0.3465 0.0194332
1168 2 0.0350748 0.383831 0.017148
1169 4 0.0421128 0.404691 0.005294
1170 4 0.0280368 0.362971 0.0290019
293 4 0.13407 0.344537 0.0340797
292 2 0.121206 0.343509 0.0554958
288 4 0.153084 0.3514 0.0273501
294 4 0.108342 0.342481 0.0769119
481 2 0.231272 0.341663 0.0605082
286 2 0.176887 0.356768 0.0328063
287 4 0.200691 0.362136 0.0382626
483 4 0.215729 0.34827 0.0420713
39 3 0.342928 0.406132 0.00659694
280 2 0.445456 0.32949 0.0522552
281 4 0.457633 0.345238 0.0673835
671 4 0.475222 0.352899 0.077756
551 4 0.0318776 0.41765 0.0202172
550 2 0.0288465 0.431435 0.0408559
552 4 0.0258154 0.445221 0.0614946
315 4 0.0319415 0.453602 0.0801538
313 2 0.0544961 0.464393 0.0803107
620 4 0.0114962 0.454999 0.0743267
1691 4 0.0928756 0.488355 0.0752901
1787 4 0.0941219 0.476261 0.0933658
241 2 0.242 0.49174 0.0497938
242 4 0.22826 0.499679 0.0304715
608 4 0.299634 0.419175 0.0762604
243 4 0.255741 0.483801 0.0691161
626 4 0.307009 0.43728 0.0720649
627 4 0.273869 0.474424 0.076835
625 2 0.290439 0.455852 0.07445
244 2 0.33397 0.456418 0.0275816
245 4 0.333266 0.4686 0.0494058
246 4 0.334675 0.444237 0.00575748
563 4 0.411953 0.500287 0.994485
16 1 0.00929631 0.0797953 0.126404
2479 2 0.0119152 0.0244357 0.141364
18 3 0.0167222 0.0578146 0.126071
2481 4 0.00753568 0.0490527 0.141417
20 3 0.00586682 0.0865141 0.147892
1785 4 0.326965 0.040282 0.160575
296 4 0.46885 0.0482743 0.0974709
295 2 0.455038 0.0274863 0.0959625
19 3 0.0249137 0.093588 0.116193
448 2 0.145815 0.114765 0.0822761
236 4 0.10291 0.124603 0.0714048
235 2 0.0965697 0.146571 0.0815244
450 4 0.170549 0.1116 0.0841169
237 4 0.0902291 0.168538 0.091644
475 2 0.0826228 0.198874 0.09569
476 4 0.0752842 0.214792 0.113521
339 4 0.0833488 0.232585 0.117638
337 2 0.0996371 0.249311 0.126589
738 4 0.18807 0.246188 0.142517
461 4 0.292995 0.217741 0.105364
354 4 0.273737 0.22104 0.110005
460 2 0.316749 0.209935 0.105374
352 2 0.258968 0.240386 0.115733
623 4 0.416186 0.242183 0.105457
462 4 0.340502 0.202128 0.105385
254 4 0.398293 0.208218 0.0961535
253 2 0.373538 0.210495 0.0934771
630 4 0.411513 0.204661 0.110181
28 3 0.365642 0.196086 0.159854
629 4 0.45933 0.208019 0.124427
628 2 0.435422 0.20634 0.117304
338 4 0.115925 0.266037 0.13554
363 4 0.111954 0.262412 0.154778
361 2 0.126346 0.280061 0.165102
736 2 0.209593 0.258334 0.138721
737 4 0.231116 0.270481 0.134925
353 4 0.244199 0.259731 0.121461
755 4 0.233475 0.277763 0.114683
754 2 0.237445 0.29605 0.0981006
622 2 0.411282 0.266672 0.104263
624 4 0.406378 0.29116 0.103068
741 4 0.387901 0.28854 0.110863
739 2 0.374775 0.307584 0.101366
740 4 0.361648 0.326628 0.091869
456 4 0.0976348 0.344204 0.094427
454 2 0.0898021 0.347269 0.117973
455 4 0.0819694 0.350334 0.14152
537 4 0.0906894 0.365436 0.151397
607 2 0.297675 0.397242 0.0881044
250 2 0.277924 0.337592 0.0959542
251 4 0.295733 0.353876 0.102502
609 4 0.295717 0.375309 0.0999484
387 4 0.311628 0.366213 0.110967
385 2 0.33187 0.351892 0.107751
386 4 0.352112 0.337571 0.104535
11 1 0.41272 0.354441 0.154706
13 3 0.397347 0.363521 0.139886
494 4 0.455948 0.354503 0.0870907
14 3 0.426141 0.339016 0.143736
12 3 0.425996 0.371332 0.162927
495 4 0.425319 0.3393 0.12358
493 2 0.440634 0.346901 0.105335
670 2 0.495367 0.35012 0.0923037
595 2 0.467627 0.393333 0.163356
596 4 0.490618 0.403079 0.162103
597 4 0.444635 0.383586 0.16461
314 4 0.0770508 0.475184 0.0804675
647 4 0.00664747 0.482045 0.163322
263 4 0.0172221 0.463683 0.16317
1786 2 0.113861 0.46342 0.101771
1788 4 0.133601 0.45058 0.110177
1440 4 0.255792 0.475527 0.0887437
639 4 0.273397 0.488302 0.1384
1438 2 0.256469 0.486603 0.11115
637 2 0.277619 0.490398 0.162955
525 4 0.345895 0.464001 0.154525
523 2 0.353077 0.487745 0.151393
524 4 0.36026 0.511489 0.148261
659 4 0.351296 0.445784 0.153478
688 2 0.121649 0.0788861 0.248258
690 4 0.136966 0.0867126 0.23011
1700 4 0.19754 0.0373778 0.239125
1506 4 0.298093 0.014081 0.224239
21 1 0.324081 0.0565145 0.235881
23 3 0.302669 0.0476325 0.236885
25 3 0.333898 0.0509146 0.216109
24 3 0.323189 0.0796022 0.238018
1783 2 0.333491 0.0354745 0.184229
1784 4 0.340017 0.030667 0.207882
759 4 0.355537 0.046119 0.213774
757 2 0.379301 0.0530963 0.217202
758 4 0.403065 0.0600736 0.220631
744 4 0.414387 0.0738781 0.232864
312 4 0.413752 0.076173 0.211203
1749 4 0.4664 0.0240156 0.212198
1747 2 0.476693 0.0282519 0.234588
310 2 0.419308 0.0778359 0.186881
311 4 0.424863 0.0794988 0.162559
511 2 0.00991092 0.131703 0.232246
693 4 0.151498 0.0833156 0.217361
691 2 0.162126 0.103317 0.20677
692 4 0.172754 0.123319 0.19618
723 4 0.171601 0.132488 0.213639
721 2 0.170485 0.152817 0.228155
285 4 0.277885 0.169216 0.223266
582 4 0.278578 0.162373 0.204019
748 2 0.0667075 0.211702 0.200738
749 4 0.0775689 0.219925 0.179771
750 4 0.0558461 0.203478 0.221704
396 4 0.0563552 0.220789 0.228954
722 4 0.16937 0.173145 0.24267
580 2 0.298067 0.174429 0.194019
581 4 0.317557 0.186485 0.184019
30 3 0.331017 0.197622 0.174565
283 2 0.268731 0.185658 0.239729
707 4 0.390776 0.166573 0.240915
27 3 0.35581 0.22433 0.18262
706 2 0.373526 0.169279 0.223018
708 4 0.356276 0.171986 0.205122
29 3 0.360275 0.189876 0.196962
26 1 0.353048 0.201874 0.178463
362 4 0.140739 0.297709 0.175425
372 4 0.149966 0.284783 0.186797
370 2 0.17158 0.287193 0.199135
371 4 0.193194 0.289604 0.211472
279 4 0.211115 0.29387 0.222696
277 2 0.224644 0.282981 0.240685
612 4 0.19944 0.310021 0.214231
610 2 0.212372 0.330384 0.207653
763 2 0.395825 0.334156 0.222986
765 4 0.415199 0.322734 0.212061
542 4 0.430912 0.315589 0.222225
541 2 0.441007 0.297841 0.236656
543 4 0.451102 0.280093 0.251088
2693 4 0.00356708 0.407577 0.210973
535 2 0.101426 0.371066 0.173265
536 4 0.112162 0.376695 0.195134
300 4 0.128774 0.396132 0.255985
603 4 0.12024 0.410471 0.243195
417 4 0.220603 0.363188 0.215568
611 4 0.225305 0.350747 0.201075
415 2 0.232084 0.384139 0.222943
416 4 0.243566 0.405091 0.230318
436 2 0.295415 0.418404 0.24473
438 4 0.31924 0.411678 0.248237
303 4 0.331838 0.393517 0.245549
15 3 0.401836 0.344368 0.17199
301 2 0.347128 0.402222 0.227783
302 4 0.362417 0.410928 0.210018
764 4 0.37645 0.345578 0.233911
644 4 0.428026 0.370181 0.230958
447 4 0.435401 0.387731 0.236521
643 2 0.429544 0.374962 0.206463
645 4 0.431062 0.379744 0.181968
262 2 0.0230511 0.458739 0.186977
1757 4 0.0250141 0.458107 0.229253
264 4 0.0288801 0.453796 0.210784
1756 2 0.0394423 0.474113 0.241934
1758 4 0.0538706 0.490119 0.254615
601 2 0.114753 0.433278 0.251851
437 4 0.27159 0.425129 0.241224
1436 4 0.250463 0.422391 0.23928
291 4 0.260174 0.438461 0.229111
638 4 0.281842 0.492494 0.18751
289 2 0.268382 0.457873 0.215659
290 4 0.276589 0.477286 0.202206
767 4 0.294286 0.489241 0.204424
766 2 0.318876 0.484816 0.205392
660 4 0.354461 0.410573 0.188846
658 2 0.352878 0.428179 0.171162
768 4 0.343465 0.480391 0.206359
1574 4 0.362376 0.485494 0.208444
1573 2 0.374297 0.479758 0.229661
673 2 0.066245 0.0774435 0.278284
1404 4 0.115398 0.00615635 0.28281
689 4 0.106333 0.0710596 0.266405
675 4 0.0904293 0.0715346 0.280604
1403 4 0.104189 0.0548094 0.279991
1402 2 0.109794 0.0304829 0.281401
1699 2 0.198991 0.0355935 0.264023
248 4 0.187556 0.0447996 0.301875
247 2 0.178504 0.0629135 0.316542
1701 4 0.200442 0.0338092 0.288921
605 4 0.203598 0.0330211 0.309912
604 2 0.220092 0.014306 0.311602
22 3 0.336519 0.0479172 0.253217
1497 4 0.363089 0.0140262 0.291075
1496 4 0.333336 0.0283769 0.253531
699 4 0.37825 0.00999908 0.305981
1495 2 0.348212 0.0212016 0.272303
697 2 0.386337 0.0322922 0.313906
351 4 0.3853 0.0701968 0.333229
698 4 0.394423 0.0545854 0.32183
513 4 0.00974169 0.138425 0.256329
531 4 0.00738672 0.124958 0.320366
579 4 0.0250923 0.15331 0.257656
530 4 0.018605 0.143151 0.275157
529 2 0.0129958 0.134054 0.297762
674 4 0.0420608 0.0833525 0.275964
600 4 0.135411 0.151948 0.309364
545 4 0.156752 0.154042 0.305651
405 4 0.148928 0.135678 0.313038
403 2 0.155954 0.111687 0.313486
404 4 0.162981 0.0876949 0.313934
544 2 0.157697 0.158565 0.281078
249 4 0.169452 0.0810274 0.33121
349 2 0.394356 0.0855101 0.31566
742 2 0.409695 0.0827065 0.255782
333 4 0.406611 0.113199 0.280448
350 4 0.403413 0.100823 0.298092
743 4 0.405004 0.0915348 0.2787
331 2 0.423672 0.13069 0.285752
762 4 0.439831 0.167428 0.299144
332 4 0.440734 0.148182 0.291055
394 2 0.0401557 0.231153 0.244934
577 2 0.039738 0.173118 0.261936
578 4 0.0543838 0.192926 0.266217
391 2 0.0708872 0.193673 0.303449
393 4 0.068355 0.201233 0.279751
392 4 0.0734195 0.186112 0.327148
395 4 0.0239562 0.241517 0.260914
546 4 0.158641 0.163088 0.256505
343 2 0.242361 0.232189 0.259261
274 2 0.183322 0.228087 0.330523
276 4 0.205543 0.219674 0.322738
344 4 0.242557 0.209752 0.248228
284 4 0.259577 0.202101 0.256192
613 2 0.405352 0.230053 0.332151
614 4 0.419288 0.222194 0.312936
761 4 0.423158 0.214195 0.293183
760 2 0.431495 0.190811 0.296164
419 4 0.423391 0.235276 0.296129
418 2 0.434233 0.248336 0.27777
442 2 0.00066389 0.271964 0.261174
444 4 0.00847392 0.250328 0.270974
278 4 0.238173 0.272093 0.258673
345 4 0.242166 0.254626 0.270294
735 4 0.163327 0.324271 0.320213
309 4 0.244872 0.274184 0.278851
307 2 0.24803 0.289415 0.298427
308 4 0.251188 0.304645 0.318004
497 4 0.271817 0.311652 0.318478
521 4 0.464361 0.263086 0.249733
420 4 0.445074 0.261397 0.259411
520 2 0.486607 0.25421 0.256909
298 2 0.135236 0.378025 0.271972
734 4 0.156435 0.351106 0.278583
299 4 0.141697 0.359919 0.287959
733 2 0.159881 0.337689 0.299398
496 2 0.28441 0.333234 0.319369
498 4 0.297004 0.354816 0.320259
729 4 0.327485 0.400517 0.265338
727 2 0.343512 0.410424 0.281775
728 4 0.359538 0.420331 0.298212
751 2 0.39989 0.400711 0.306668
753 4 0.3797 0.415059 0.303242
445 2 0.437928 0.408624 0.250022
752 4 0.420079 0.386364 0.310093
561 4 0.432479 0.391085 0.324879
776 4 0.0947508 0.455506 0.336081
412 2 0.108255 0.469882 0.296356
602 4 0.109265 0.456085 0.260506
414 4 0.111504 0.473324 0.271804
413 4 0.105007 0.46644 0.320907
1430 4 0.196867 0.506735 0.246853
1435 2 0.237153 0.426432 0.260057
1437 4 0.223843 0.430473 0.280835
435 4 0.323529 0.454447 0.331579
4 3 0.329659 0.458248 0.312346
433 2 0.300167 0.445707 0.32984
1575 4 0.386218 0.474021 0.250878
5 3 0.357319 0.476094 0.294067
1803 4 0.375881 0.434279 0.294817
1802 4 0.398071 0.470297 0.268153
1801 2 0.386976 0.452288 0.281485
1689 4 0.40789 0.475703 0.249261
1 1 0.344001 0.476487 0.312537
3 3 0.357053 0.4761 0.331718
2 3 0.331488 0.495789 0.312445
446 4 0.440456 0.429517 0.263523
713 4 0.4581 0.426573 0.271743
1687 2 0.424618 0.491015 0.259793
231 4 0.471808 0.474126 0.316396
712 2 0.480081 0.435268 0.279894
714 4 0.502062 0.443963 0.288044
2477 4 0.00415269 0.0639942 0.368127
1376 4 0.00895556 0.0453674 0.377833
233 4 0.0184114 0.0504326 0.35955
318 4 0.0827291 0.0607321 0.381168
234 4 0.0668317 0.0519477 0.371955
232 2 0.0426215 0.0511902 0.365752
316 2 0.0903444 0.0490625 0.401929
317 4 0.0979596 0.0373928 0.422689
428 4 0.111697 0.0205847 0.420617
633 4 0.310558 0.00615236 0.360473
632 4 0.312343 0.0560512 0.35771
631 2 0.311451 0.0311018 0.359091
682 2 0.296583 0.0708664 0.393793
683 4 0.313189 0.0667509 0.375559
684 4 0.279976 0.0749819 0.412027
725 4 0.33045 0.00252374 0.364095
257 4 0.404618 0.0614387 0.340042
256 2 0.420318 0.0620468 0.359493
425 4 0.439908 0.0496929 0.395755
258 4 0.436017 0.0626549 0.378944
452 4 0.493459 0.0659219 0.370956
451 2 0.471461 0.0675905 0.382725
453 4 0.449464 0.0692592 0.394494
515 4 0.428163 0.0675297 0.398922
398 4 0.0124852 0.129901 0.340562
397 2 0.0336835 0.118988 0.348092
399 4 0.0548818 0.108074 0.355622
732 4 0.0756683 0.104582 0.356992
598 2 0.126702 0.154979 0.332605
730 2 0.0917863 0.123089 0.361778
599 4 0.117994 0.158011 0.355846
685 2 0.134077 0.154565 0.399179
686 4 0.123867 0.153284 0.376391
731 4 0.107904 0.141595 0.366564
687 4 0.144288 0.155846 0.421967
467 4 0.253654 0.142192 0.406889
466 2 0.253249 0.161316 0.390788
575 4 0.410012 0.124206 0.424048
574 2 0.415377 0.143195 0.408692
576 4 0.420742 0.162184 0.393336
514 2 0.426187 0.0882074 0.41284
305 4 0.440973 0.155907 0.391648
2654 4 0.0668022 0.197471 0.342849
2653 2 0.043377 0.203464 0.349215
2655 4 0.0199519 0.209457 0.355581
616 2 0.0778827 0.253331 0.393523
275 4 0.1611 0.236501 0.338307
617 4 0.0828518 0.251802 0.369066
388 2 0.122542 0.242618 0.362082
390 4 0.100311 0.242187 0.373518
389 4 0.144773 0.243049 0.350646
474 4 0.209514 0.202183 0.3316
472 2 0.230244 0.193805 0.342792
401 4 0.163865 0.254218 0.349777
473 4 0.250974 0.185427 0.353985
409 2 0.29145 0.195039 0.370187
468 4 0.252844 0.180441 0.374686
410 4 0.270367 0.183642 0.363059
411 4 0.312532 0.206436 0.377316
716 4 0.385707 0.224341 0.366206
715 2 0.374757 0.233498 0.386735
615 4 0.391416 0.237912 0.351365
717 4 0.363807 0.242654 0.407263
304 2 0.452032 0.17529 0.380371
269 4 0.466165 0.21473 0.366797
306 4 0.463091 0.194673 0.369094
268 2 0.447753 0.229976 0.374127
400 2 0.173792 0.26702 0.368823
375 4 0.196944 0.2925 0.396222
402 4 0.183719 0.279823 0.387868
373 2 0.220658 0.284633 0.395268
374 4 0.244373 0.276766 0.394315
677 4 0.167745 0.325217 0.340133
509 4 0.265693 0.295121 0.330609
510 4 0.25619 0.285671 0.378786
508 2 0.260941 0.290396 0.354698
378 4 0.264982 0.28166 0.398393
2924 4 0.439303 0.25335 0.396711
2923 2 0.426105 0.267479 0.412566
270 4 0.429341 0.245222 0.381457
548 4 0.0128402 0.391263 0.346456
407 4 0.0193387 0.378122 0.358691
547 2 0.0230315 0.414095 0.346595
676 2 0.188749 0.332981 0.351256
678 4 0.209754 0.340746 0.362378
650 4 0.20483 0.378122 0.411888
649 2 0.229264 0.382814 0.414359
503 4 0.188502 0.378585 0.400022
651 4 0.253699 0.387507 0.41683
667 2 0.416672 0.395198 0.394398
669 4 0.395888 0.393628 0.408209
336 4 0.378141 0.389429 0.403835
559 2 0.44369 0.390987 0.347228
560 4 0.454901 0.390888 0.369577
668 4 0.437456 0.396768 0.380587
588 4 0.456822 0.401382 0.388302
586 2 0.469062 0.414622 0.405625
775 2 0.0699233 0.453335 0.338095
777 4 0.0450958 0.451163 0.34011
549 4 0.0332228 0.436927 0.346735
1545 4 0.10673 0.472242 0.341768
434 4 0.276806 0.436966 0.328101
119 3 0.496626 0.434401 0.338633
3990 4 0.492259 0.453756 0.337817
3988 2 0.483796 0.471493 0.353275
2236 2 0.0164805 0.99945 0.455356
1127 4 0.00137186 0.0331307 0.472877
2238 4 0.00434867 0.0213129 0.455381
1781 4 0.111162 0.0320169 0.438651
1780 2 0.124717 0.0417246 0.457284
1782 4 0.138272 0.0514322 0.475917
341 4 0.156987 0.0616457 0.474236
2430 4 0.154416 0.0470437 0.490011
368 4 0.133546 0.0792002 0.438154
340 2 0.168354 0.0800686 0.461724
2428 2 0.166302 0.025066 0.49095
2429 4 0.178188 0.00308831 0.491889
430 2 0.32794 0.0349421 0.467435
1180 2 0.279453 0.0459522 0.440307
1181 4 0.290118 0.0285464 0.454745
1182 4 0.268787 0.0633579 0.425868
963 4 0.282413 0.0339948 0.474253
432 4 0.303155 0.0365201 0.470332
320 4 0.262814 0.0832678 0.421381
431 4 0.352725 0.0333641 0.464538
841 2 0.385651 0.0196609 0.444124
842 4 0.409629 0.0148194 0.438947
843 4 0.361673 0.0245024 0.449301
424 2 0.434704 0.0322817 0.412929
426 4 0.429499 0.0148705 0.430102
1217 4 0.426577 0.005605 0.449196
1216 2 0.436909 0.0175163 0.468601
1218 4 0.447241 0.0294277 0.488005
457 2 0.0172168 0.118569 0.463815
719 4 0.0459818 0.114343 0.487865
459 4 0.0347174 0.104012 0.474158
1151 4 0.164552 0.151374 0.421257
367 2 0.117301 0.0976622 0.442675
369 4 0.101056 0.116124 0.447195
939 4 0.10604 0.131742 0.459092
937 2 0.118076 0.153356 0.462716
938 4 0.130112 0.17497 0.46634
342 4 0.179721 0.0984914 0.449211
1152 4 0.186515 0.11838 0.451749
1150 2 0.175533 0.134877 0.436503
321 4 0.262243 0.133161 0.424706
319 2 0.262528 0.108214 0.423043
899 4 0.26616 0.153651 0.419888
898 2 0.282533 0.159448 0.437874
900 4 0.298906 0.165245 0.45586
516 4 0.424211 0.108885 0.426757
1034 4 0.148576 0.185899 0.463596
261 4 0.099163 0.230939 0.480303
1035 4 0.119444 0.224563 0.476132
1033 2 0.13401 0.205231 0.469864
695 4 0.106324 0.212568 0.488765
259 2 0.0896725 0.239854 0.458957
267 4 0.35496 0.235882 0.425947
813 4 0.364907 0.202242 0.483163
266 4 0.364353 0.203736 0.463084
265 2 0.359656 0.219809 0.444516
811 2 0.370193 0.217746 0.502055
2847 4 0.0245038 0.276187 0.477255
2801 4 0.0104787 0.295016 0.423512
2802 4 0.0344448 0.290193 0.467137
2800 2 0.0224617 0.292604 0.445324
618 4 0.0729135 0.254859 0.41798
260 4 0.0801821 0.248769 0.437612
347 4 0.0891581 0.265642 0.427738
346 2 0.104445 0.285306 0.429931
348 4 0.119733 0.30497 0.432123
10 3 0.136207 0.297954 0.44178
9 3 0.139945 0.303069 0.478894
6 1 0.143962 0.312064 0.457886
7 3 0.133012 0.332225 0.45621
1259 4 0.125874 0.297337 0.492937
8 3 0.16671 0.315622 0.45501
376 2 0.284437 0.272961 0.411471
377 4 0.303892 0.264263 0.424549
489 4 0.317369 0.276791 0.434184
488 4 0.361741 0.255953 0.424302
487 2 0.339555 0.266372 0.429243
238 2 0.388781 0.317416 0.440324
239 4 0.403177 0.297442 0.435967
2925 4 0.412906 0.281608 0.42842
2456 4 0.483863 0.30242 0.489241
584 4 0.47267 0.291962 0.477249
583 2 0.448913 0.293956 0.484787
585 4 0.425157 0.29595 0.492325
680 4 0.0562428 0.398267 0.483888
504 4 0.155382 0.392537 0.434794
711 4 0.117569 0.341405 0.449191
709 2 0.131034 0.362455 0.448307
710 4 0.144498 0.383505 0.447424
502 2 0.171942 0.385561 0.417408
240 4 0.374385 0.337389 0.444682
335 4 0.37112 0.356722 0.441006
334 2 0.374631 0.373076 0.42242
926 4 0.485199 0.424543 0.494477
679 2 0.0498715 0.422443 0.483542
382 2 0.0670517 0.480286 0.47647
539 4 0.0272549 0.461274 0.486986
538 2 0.00457865 0.46932 0.480186
681 4 0.0435003 0.446619 0.483196
383 4 0.0479039 0.467565 0.486304
384 4 0.0861995 0.493007 0.466636
772 2 0.227127 0.474654 0.461548
774 4 0.207526 0.481586 0.475439
634 2 0.17816 0.483185 0.485496
635 4 0.189984 0.476798 0.464411
773 4 0.246728 0.467723 0.447658
1910 4 0.466948 0.478539 0.473366
661 2 0.464264 0.457795 0.44656
1909 2 0.465349 0.494077 0.492889
663 4 0.476908 0.448785 0.426961
587 4 0.481302 0.427861 0.422948
662 4 0.45162 0.466805 0.466159
1284 4 0.198433 0.0825568 0.574056
1282 2 0.210789 0.0612761 0.57849
962 4 0.267064 0.0197657 0.51967
961 2 0.274739 0.0268802 0.496961
1091 4 0.360749 0.0187969 0.571702
810 4 0.46349 0.0811628 0.571698
1062 4 0.474461 0.0642717 0.56771
720 4 0.0564867 0.124197 0.535753
718 2 0.0512342 0.11927 0.511809
1059 4 0.189163 0.0903588 0.590205
808 2 0.481746 0.0975458 0.576545
327 4 0.0784914 0.23605 0.546754
877 2 0.107696 0.206947 0.563851
878 4 0.090462 0.218791 0.550143
696 4 0.094531 0.231887 0.533356
694 2 0.100427 0.222227 0.51106
879 4 0.124929 0.195103 0.577558
1272 4 0.134708 0.211257 0.586667
856 2 0.203852 0.233833 0.538799
858 4 0.218309 0.228222 0.519186
857 4 0.189395 0.239445 0.558413
953 4 0.392282 0.232287 0.533843
812 4 0.375478 0.23325 0.520946
791 4 0.380004 0.249616 0.534358
790 2 0.361393 0.251525 0.550947
952 2 0.409645 0.217807 0.54452
954 4 0.427009 0.203326 0.555197
873 4 0.392666 0.245708 0.517362
905 4 0.419592 0.20087 0.573526
904 2 0.437997 0.186949 0.583151
982 2 0.0344226 0.296082 0.547127
984 4 0.0550659 0.296506 0.561229
326 4 0.0729982 0.283635 0.561113
1136 4 0.0745469 0.304726 0.556503
325 2 0.0757448 0.259842 0.553934
983 4 0.0137794 0.295657 0.533025
2846 4 0.000881532 0.28416 0.520604
2845 2 0.0126927 0.280173 0.49893
1135 2 0.0864453 0.316285 0.575212
1260 4 0.15014 0.25631 0.508058
1258 2 0.138007 0.276824 0.500498
1239 4 0.311704 0.309408 0.573361
797 4 0.274146 0.25412 0.576345
1237 2 0.328848 0.291212 0.572997
1238 4 0.345993 0.273015 0.572634
792 4 0.342783 0.253434 0.567535
871 2 0.40806 0.261368 0.505406
929 4 0.362417 0.327492 0.574286
872 4 0.423454 0.277029 0.493451
936 4 0.0059368 0.401145 0.541605
934 2 0.0234065 0.413664 0.554383
993 4 0.119949 0.412803 0.561777
804 4 0.31504 0.328564 0.57181
880 2 0.357816 0.413307 0.566453
928 2 0.362665 0.351923 0.579605
882 4 0.365521 0.389672 0.569134
930 4 0.362914 0.376353 0.584923
925 2 0.48195 0.414135 0.516978
927 4 0.4787 0.403728 0.53948
1001 4 0.488389 0.413286 0.554368
3430 2 0.0428949 0.463618 0.563071
3431 4 0.034833 0.483961 0.550974
935 4 0.0408762 0.426183 0.56716
3432 4 0.0509569 0.443275 0.575169
1041 4 0.0533217 0.423511 0.584551
1039 2 0.0764826 0.419421 0.576065
4434 4 0.0221398 0.496943 0.562187
1159 2 0.107587 0.437683 0.529046
1161 4 0.105651 0.421202 0.547749
1160 4 0.109522 0.454164 0.510342
1040 4 0.0996435 0.415331 0.567578
1455 4 0.371244 0.490408 0.525741
1454 4 0.3491 0.451973 0.548831
1453 2 0.360172 0.471191 0.537286
881 4 0.350112 0.436943 0.563772
1000 2 0.483353 0.421824 0.577323
1183 2 0.0215591 0.0487376 0.664072
1184 4 0.013138 0.0253663 0.666909
1892 4 0.0174982 0.0140644 0.649115
4338 4 0.998095 0.0121252 0.659555
945 4 0.0919783 0.0980977 0.655975
1031 4 0.239402 0.0377798 0.596968
1283 4 0.223144 0.0399955 0.582925
2131 2 0.217984 0.0284833 0.625577
2132 4 0.219373 0.0410579 0.60401
2133 4 0.216594 0.0159087 0.647143
824 4 0.205081 0.00701696 0.659659
1030 2 0.264152 0.0380103 0.593421
1032 4 0.288901 0.0382407 0.589875
1090 2 0.344288 0.0111816 0.588914
1092 4 0.327828 0.00356634 0.606125
1060 2 0.48067 0.0416155 0.576273
1061 4 0.486878 0.0189592 0.584836
89 3 0.484915 0.998866 0.585132
944 4 0.044887 0.0859967 0.667667
1081 2 0.010087 0.112627 0.658551
943 2 0.0684327 0.0920472 0.661821
1082 4 0.0242013 0.0925081 0.663156
1083 4 0.995973 0.132745 0.653946
1057 2 0.190207 0.110273 0.605289
1058 4 0.191251 0.130187 0.620372
1155 4 0.1834 0.141347 0.636605
1153 2 0.181044 0.16271 0.623828
909 4 0.189814 0.1211 0.639732
907 2 0.208734 0.122987 0.65597
830 4 0.361975 0.136102 0.622938
829 2 0.372628 0.116857 0.634826
831 4 0.38328 0.0976112 0.646713
887 4 0.356315 0.1566 0.622297
1194 4 0.377178 0.151021 0.623411
1026 4 0.46276 0.135146 0.632504
1024 2 0.467177 0.147188 0.611041
1143 4 0.451402 0.12468 0.647806
1263 4 0.455021 0.146159 0.650602
1141 2 0.461606 0.105753 0.660565
1261 2 0.445194 0.163262 0.665968
1209 4 0.0688197 0.241999 0.651183
1245 4 0.0471528 0.239341 0.650447
852 4 0.0600648 0.222916 0.654543
1270 2 0.153915 0.207487 0.602225
1154 4 0.178687 0.184073 0.611052
1271 4 0.173122 0.203718 0.617783
1221 4 0.193309 0.197171 0.61948
1219 2 0.216862 0.205083 0.622272
1220 4 0.240416 0.212995 0.625065
888 4 0.311599 0.178884 0.624436
798 4 0.249581 0.224712 0.608478
796 2 0.261863 0.239416 0.592412
1212 4 0.256506 0.204655 0.613665
1211 4 0.292901 0.172978 0.626803
1210 2 0.274704 0.188816 0.620234
886 2 0.333957 0.167742 0.623366
1192 2 0.391787 0.170115 0.630279
1193 4 0.406397 0.189209 0.637147
1025 4 0.471594 0.15923 0.589578
906 4 0.456402 0.173028 0.592776
3123 4 0.503522 0.244414 0.649952
1243 2 0.0293157 0.256862 0.650323
1244 4 0.0114785 0.274384 0.650198
1207 2 0.0848947 0.259501 0.658958
946 2 0.143511 0.28302 0.650746
1208 4 0.10097 0.277003 0.666733
947 4 0.12046 0.282769 0.660431
948 4 0.166561 0.283272 0.64106
3112 2 0.467644 0.303653 0.601763
3114 4 0.451506 0.286283 0.609703
3113 4 0.483781 0.321023 0.593824
1137 4 0.0983437 0.327844 0.59392
992 4 0.149472 0.40719 0.601748
991 2 0.13471 0.409997 0.581762
897 4 0.163957 0.397266 0.591316
1191 4 0.220659 0.364436 0.61461
896 4 0.205798 0.377083 0.609826
895 2 0.184878 0.387174 0.600571
1189 2 0.244997 0.363136 0.609029
1027 2 0.200883 0.383222 0.65465
1029 4 0.222114 0.396029 0.65787
1028 4 0.179651 0.370415 0.651429
802 2 0.294523 0.340401 0.579815
803 4 0.274005 0.352239 0.587821
1190 4 0.269335 0.361835 0.603448
3264 4 0.0346606 0.434184 0.585845
3239 4 0.0221464 0.454134 0.634235
3262 2 0.0237251 0.434667 0.608326
3238 2 0.0256759 0.462616 0.65749
3263 4 0.0127896 0.43515 0.630806
3494 4 0.00133811 0.45118 0.638645
2154 4 0.300787 0.504552 0.605674
1173 4 0.298062 0.482952 0.607789
1172 4 0.307884 0.453561 0.647036
1171 2 0.302973 0.468257 0.627413
2435 4 0.280835 0.495367 0.60288
2434 2 0.25695 0.501281 0.60732
3183 4 0.44281 0.486039 0.590075
1002 4 0.478316 0.430362 0.600277
1206 4 0.477022 0.436205 0.620804
1204 2 0.464854 0.438406 0.642536
3182 4 0.475246 0.450999 0.604934
3181 2 0.459028 0.468519 0.597505
3440 4 0.494139 0.441803 0.608765
1185 4 0.0299801 0.072109 0.661235
2283 4 0.366782 0.00522426 0.66422
2400 4 0.349293 0.0604206 0.724152
43 3 0.474772 0.0655983 0.721285
846 4 0.464553 0.0633705 0.738851
41 1 0.479829 0.0873844 0.715104
45 3 0.50158 0.0920067 0.720021
44 3 0.476065 0.09025 0.692388
1077 4 0.0222925 0.0944187 0.728925
1075 2 0.0253788 0.0880133 0.704954
864 4 0.0142242 0.106752 0.740613
1076 4 0.0284651 0.0816078 0.680983
1177 2 0.0251622 0.160251 0.701624
908 4 0.227654 0.124873 0.672207
1227 4 0.214156 0.132556 0.686172
1226 4 0.230029 0.118378 0.731424
1225 2 0.222092 0.125467 0.708798
1142 4 0.47181 0.0868254 0.673325
42 3 0.466199 0.101779 0.726774
1262 4 0.435368 0.180364 0.681335
850 2 0.0590737 0.205628 0.67258
1178 4 0.0414621 0.174488 0.689102
851 4 0.0580826 0.18834 0.690616
1107 4 0.0557011 0.172756 0.705368
1105 2 0.0798909 0.168502 0.710052
1106 4 0.104081 0.164248 0.714736
1073 4 0.107546 0.178233 0.727523
1086 4 0.311989 0.243342 0.744874
1299 4 0.294093 0.231136 0.744236
3270 4 0.462667 0.169092 0.732932
3426 4 0.484267 0.166865 0.72939
1146 4 0.475209 0.185791 0.725448
1145 4 0.488271 0.230319 0.744086
1144 2 0.48174 0.208055 0.734767
1242 4 0.11211 0.283768 0.748248
821 4 0.110849 0.274159 0.729945
820 2 0.11416 0.275172 0.705182
822 4 0.11747 0.276184 0.68042
1098 4 0.348932 0.287415 0.712375
1096 2 0.338498 0.285007 0.734969
816 4 0.0192907 0.331505 0.72744
892 2 0.0592172 0.394227 0.727954
893 4 0.0676652 0.372699 0.718448
815 4 0.0598244 0.354897 0.709819
814 2 0.0395575 0.343201 0.718629
942 4 0.0753272 0.366562 0.699609
894 4 0.0507692 0.415754 0.73746
1067 4 0.129264 0.364895 0.682955
940 2 0.0963378 0.358029 0.689078
941 4 0.117348 0.349495 0.678546
1066 2 0.149779 0.359113 0.669883
1139 4 0.232423 0.402854 0.673873
1068 4 0.170295 0.353332 0.656812
1065 4 0.273737 0.345134 0.688726
1063 2 0.264581 0.352189 0.710898
1064 4 0.255426 0.359244 0.733069
806 4 0.262374 0.365171 0.753043
1236 4 0.241813 0.361246 0.749358
1101 4 0.447914 0.378433 0.681595
1099 2 0.445531 0.403287 0.680257
3240 4 0.0292053 0.471098 0.680744
2172 4 0.0486865 0.480934 0.679858
1279 2 0.0451587 0.450972 0.714897
3276 4 0.0352171 0.42464 0.749755
1280 4 0.0454564 0.436584 0.735344
1281 4 0.044861 0.46536 0.69445
3274 2 0.0109848 0.425808 0.755806
1140 4 0.230762 0.45282 0.672681
1138 2 0.231592 0.427837 0.673277
1176 4 0.186691 0.492057 0.71709
1174 2 0.19172 0.499992 0.693919
2016 4 0.171472 0.494254 0.730947
891 4 0.303113 0.463598 0.663793
889 2 0.300717 0.482156 0.680377
1205 4 0.452686 0.440607 0.664267
2169 4 0.474131 0.504624 0.701579
1269 4 0.459814 0.440265 0.684413
1100 4 0.443148 0.428141 0.678919
1268 4 0.467621 0.485332 0.70463
1267 2 0.463718 0.462798 0.694521
1195 2 0.0772004 0.00411595 0.821877
1196 4 0.0771225 0.017237 0.800593
1203 4 0.0759067 0.0261647 0.779832
911 4 0.0738794 0.0384655 0.797673
1202 4 0.115704 0.00636107 0.756925
1201 2 0.0958053 0.0162629 0.768378
910 2 0.0875224 0.0586272 0.803379
912 4 0.101165 0.078789 0.809084
1149 4 0.208659 0.0647229 0.768805
840 4 0.27204 0.0931966 0.828746
2398 2 0.357008 0.0637066 0.747707
1049 4 0.369772 0.0690986 0.791775
1111 2 0.404915 0.0476472 0.779709
2399 4 0.364723 0.0669927 0.771263
1112 4 0.384459 0.0618484 0.777465
844 2 0.454248 0.0474518 0.755147
1113 4 0.425372 0.0334459 0.781953
845 4 0.443943 0.0315331 0.771444
980 4 0.439681 0.017218 0.787078
979 2 0.434292 0.0151321 0.811405
862 2 0.000861806 0.119262 0.757646
1213 2 0.0784717 0.150913 0.781898
1215 4 0.0655392 0.161584 0.763349
34 3 0.0724905 0.113702 0.842798
1214 4 0.0914042 0.140241 0.800446
33 3 0.0775661 0.129521 0.808616
31 1 0.0879746 0.118538 0.826207
32 3 0.0969256 0.0988319 0.818416
1287 4 0.115523 0.087716 0.823888