ITEM: TIMESTEP
4540000
ITEM: NUMBER OF ATOMS
4590
ITEM: BOX BOUNDS pp pp pp
-9.9985700000000008e+00 9.9985700000000008e+00
-9.9985700000000008e+00 9.9985700000000008e+00
-9.9985700000000008e+00 9.9985700000000008e+00
ITEM: ATOMS id type xs ys zs
1668 4 0.080609 0.0443164 0.0672866
465 4 0.0265921 0.0627121 0.0287081
701 4 0.0130265 0.0779501 0.0298203
3290 4 0.0808221 0.0245349 0.0626386
3289 2 0.0968394 0.0135709 0.0468773
3291 4 0.112857 0.00260694 0.031116
985 2 0.326962 0.0467911 0.0145054
491 4 0.304148 0.0140419 0.0553617
986 4 0.305405 0.0594589 0.0145149
1475 4 0.29965 0.0322181 0.0643803
987 4 0.348519 0.0341232 0.0144958
2144 4 0.364309 0.0300454 0.00328502
700 2 0.0141716 0.101198 0.0206872
555 4 0.027187 0.127983 0.995664
2264 4 0.297222 0.0766062 0.00937577
462 4 0.308239 0.165451 0.0732865
2723 4 0.48464 0.153956 0.06318
2722 2 0.500506 0.13548 0.057517
657 4 0.0146306 0.23128 0.0528239
2808 4 0.0220518 0.237061 0.0697729
422 4 0.0898373 0.224626 0.00261773
507 4 0.113318 0.229279 0.0685455
358 2 0.237427 0.171144 0.0167611
352 2 0.2386 0.21142 0.0626856
354 4 0.225778 0.226801 0.077659
359 4 0.244885 0.179324 0.0391809
461 4 0.258736 0.167344 0.0664585
460 2 0.283487 0.166397 0.0698725
353 4 0.251421 0.196039 0.0477121
665 4 0.323587 0.168742 0.00421334
2806 2 0.0365022 0.25725 0.066806
2807 4 0.0509526 0.277438 0.0638391
913 2 0.151208 0.279404 0.0041031
292 2 0.106625 0.271939 0.0717591
293 4 0.105348 0.247068 0.0695242
456 4 0.116709 0.313686 0.0657474
914 4 0.156921 0.287324 0.0271207
287 4 0.16518 0.295714 0.0426861
294 4 0.107901 0.29681 0.0739941
454 2 0.114663 0.332723 0.0818273
286 2 0.17238 0.318664 0.0495172
611 4 0.270246 0.298911 0.0846718
481 2 0.284342 0.315684 0.998686
482 4 0.307683 0.322495 0.00451576
572 4 0.324761 0.312654 0.0101069
1071 4 0.390855 0.297241 0.0004569
571 2 0.348418 0.304644 0.00893597
1056 4 0.066739 0.33536 0.0103563
1170 4 0.0768588 0.348038 0.998247
989 4 0.149292 0.399659 0.0366031
1104 4 0.155039 0.416023 0.0442551
288 4 0.17958 0.341613 0.0563482
988 2 0.163393 0.379541 0.0412474
990 4 0.177495 0.359423 0.0458917
243 4 0.2265 0.427245 0.0452693
1438 2 0.205492 0.404916 0.0666367
1440 4 0.208777 0.420645 0.0474792
241 2 0.249844 0.424614 0.0367063
741 4 0.287117 0.366665 0.0419646
739 2 0.309926 0.366212 0.0521982
740 4 0.332735 0.365759 0.0624317
242 4 0.273188 0.421984 0.0281432
1305 4 0.391959 0.40385 0.0249281
1303 2 0.39991 0.389812 0.00582572
227 4 0.393798 0.40676 0.0464829
386 4 0.336846 0.380216 0.0759941
314 4 0.0176977 0.434832 0.0583212
550 2 0.999223 0.463965 0.0426388
552 4 0.0150732 0.444674 0.0412926
313 2 0.0286854 0.435405 0.0807738
1102 2 0.15772 0.434876 0.0280519
1786 2 0.139719 0.47881 0.0655975
1103 4 0.160401 0.453729 0.0118487
1787 4 0.150938 0.456803 0.0694718
1222 2 0.135675 0.47644 0.998654
1619 4 0.164264 0.45021 0.0841779
1223 4 0.15046 0.456759 0.994264
251 4 0.298217 0.463309 0.0800138
523 2 0.335183 0.457751 0.0672241
226 2 0.38405 0.429748 0.047792
228 4 0.374303 0.452736 0.049101
525 4 0.354009 0.458123 0.0507729
1583 4 0.493109 0.491818 0.0431366
1666 2 0.0593124 0.0479578 0.0798711
1667 4 0.0380157 0.0515992 0.0924556
19 3 0.014945 0.032973 0.135274
17 3 0.0228253 0.0403571 0.099274
1422 4 0.0102077 0.0453406 0.150324
16 1 0.00968955 0.046465 0.117143
2480 4 0.0126691 0.0638955 0.142029
20 3 0.0136883 0.0682887 0.122279
1504 2 0.121174 0.0470409 0.160392
1506 4 0.116139 0.049356 0.13601
653 4 0.249366 0.0668816 0.156284
1661 4 0.327493 0.0226673 0.145352
1474 2 0.283404 0.0382148 0.0824156
1476 4 0.267157 0.0442116 0.100451
486 4 0.329554 0.0418906 0.139403
654 4 0.252764 0.0567248 0.107437
652 2 0.251065 0.0618032 0.13186
484 2 0.346819 0.0356386 0.122432
297 4 0.379563 0.0156772 0.103918
295 2 0.403888 0.0191007 0.108583
485 4 0.364084 0.0293867 0.105461
296 4 0.428213 0.0225242 0.113248
746 4 0.445338 0.0144544 0.121881
745 2 0.452029 0.994239 0.108776
2479 2 0.0169706 0.0845895 0.155387
2481 4 0.0212721 0.105283 0.168745
450 4 0.0851544 0.110052 0.146093
512 4 0.0129291 0.124224 0.164957
448 2 0.104875 0.106491 0.161046
580 2 0.320371 0.151313 0.150251
581 4 0.311681 0.174673 0.148253
582 4 0.329061 0.127954 0.152248
758 4 0.344088 0.119885 0.142192
757 2 0.344186 0.102038 0.159703
557 4 0.440073 0.0829369 0.123586
556 2 0.452768 0.100229 0.136432
558 4 0.465462 0.117521 0.149279
505 2 0.130088 0.225197 0.086637
506 4 0.146857 0.221115 0.104729
737 4 0.162536 0.208272 0.103155
736 2 0.18406 0.216273 0.093264
738 4 0.205585 0.224275 0.0833726
475 2 0.227596 0.213612 0.158415
476 4 0.206187 0.226366 0.156375
30 3 0.292397 0.181532 0.149856
477 4 0.249006 0.200859 0.160456
253 2 0.348374 0.213417 0.162507
628 2 0.408893 0.221151 0.142214
254 4 0.371532 0.214638 0.15316
630 4 0.389688 0.207369 0.150361
629 4 0.428099 0.234933 0.134067
338 4 0.0473552 0.292412 0.117496
337 2 0.0342521 0.293903 0.138739
339 4 0.0211489 0.295394 0.159982
704 4 0.00312918 0.292454 0.164943
610 2 0.265028 0.323041 0.0807085
278 4 0.284874 0.289894 0.0972561
279 4 0.299575 0.269309 0.140394
277 2 0.292225 0.279602 0.118825
285 4 0.312529 0.276122 0.153789
624 4 0.436108 0.252626 0.139022
622 2 0.447531 0.268465 0.154637
623 4 0.458955 0.284303 0.170252
315 4 0.0396731 0.435978 0.103226
455 4 0.112617 0.351761 0.0979071
647 4 0.123108 0.386522 0.15317
537 4 0.118583 0.389902 0.13404
535 2 0.11742 0.379359 0.111398
536 4 0.116257 0.368815 0.0887558
625 2 0.227107 0.393004 0.121014
627 4 0.215607 0.38392 0.100755
1439 4 0.202208 0.389188 0.0857942
626 4 0.238607 0.402087 0.141273
612 4 0.259809 0.34717 0.0767452
609 4 0.264727 0.355757 0.0930739
608 4 0.271413 0.404436 0.0837832
607 2 0.26807 0.380097 0.0884286
385 2 0.336648 0.38701 0.100056
387 4 0.336449 0.393803 0.124118
12 3 0.386436 0.376779 0.137958
11 1 0.377288 0.397539 0.141762
15 3 0.354858 0.396671 0.137916
672 4 0.404196 0.378878 0.130405
302 4 0.334233 0.408203 0.137569
14 3 0.387195 0.412846 0.127411
495 4 0.403403 0.425915 0.126949
671 4 0.45025 0.36028 0.124591
670 2 0.427223 0.369579 0.127498
281 4 0.463522 0.364877 0.110051
280 2 0.486307 0.36256 0.100017
1618 2 0.168512 0.437652 0.105378
1431 4 0.193314 0.450836 0.145986
1429 2 0.196035 0.428331 0.156534
1620 4 0.17276 0.425095 0.126578
1574 4 0.233667 0.491772 0.133927
1573 2 0.212753 0.481283 0.142746
1575 4 0.19184 0.470794 0.151565
1430 4 0.198755 0.405825 0.167083
524 4 0.316357 0.45738 0.0836752
250 2 0.28532 0.442842 0.0863362
252 4 0.272423 0.422376 0.0926587
639 4 0.253543 0.490543 0.131118
303 4 0.295484 0.4393 0.143244
638 4 0.278962 0.449751 0.144922
637 2 0.266252 0.470147 0.13802
301 2 0.314859 0.423752 0.140406
1862 4 0.283513 0.508661 0.135909
230 4 0.333313 0.497031 0.154431
1559 4 0.360346 0.462543 0.104039
1558 2 0.353827 0.485317 0.112039
493 2 0.392111 0.443159 0.112796
494 4 0.380819 0.460403 0.0986433
1420 2 0.00382952 0.0291033 0.168236
1404 4 0.0568279 0.0297308 0.234162
1415 4 0.0369745 0.0250584 0.235793
1414 2 0.0233191 0.013788 0.218138
1402 2 0.0589626 0.0390822 0.257252
1416 4 0.00966373 0.00251765 0.200483
1505 4 0.126209 0.0447259 0.184773
690 4 0.0941326 0.00791563 0.2339
688 2 0.107148 0.0204602 0.216625
689 4 0.120164 0.0330048 0.199351
1701 4 0.287186 0.0661387 0.199079
1699 2 0.311451 0.0716357 0.196591
691 2 0.256494 0.0768924 0.189569
692 4 0.271781 0.075156 0.209279
1700 4 0.335715 0.0771326 0.194104
22 3 0.37702 0.0514138 0.201486
698 4 0.396887 0.054405 0.205679
697 2 0.404713 0.0308301 0.208535
333 4 0.399845 0.0741341 0.206078
21 1 0.36815 0.0724957 0.199027
23 3 0.348853 0.0740537 0.211818
25 3 0.363232 0.0760513 0.177077
759 4 0.344284 0.0841904 0.177214
699 4 0.412538 0.00725516 0.211392
1518 4 0.426512 0.00927474 0.225199
511 2 0.0309352 0.139699 0.172799
513 4 0.0489413 0.155173 0.180641
449 4 0.124595 0.10293 0.176
236 4 0.143691 0.112448 0.17678
235 2 0.157325 0.125297 0.193339
693 4 0.241206 0.0786288 0.16986
237 4 0.170959 0.138146 0.209898
24 3 0.383737 0.0880827 0.206274
771 4 0.470829 0.111886 0.167162
331 2 0.423048 0.0833963 0.207069
769 2 0.475866 0.135664 0.173029
349 2 0.474999 0.0977794 0.228356
350 4 0.46373 0.104424 0.207048
332 4 0.446252 0.0926586 0.208059
770 4 0.480904 0.159442 0.178896
578 4 0.0511899 0.17186 0.191096
577 2 0.0416126 0.194342 0.196388
579 4 0.0320352 0.216825 0.20168
362 4 0.178678 0.256857 0.224216
372 4 0.175024 0.243803 0.209293
371 4 0.193335 0.218967 0.169941
370 2 0.184179 0.231385 0.189617
29 3 0.266935 0.20076 0.169847
255 4 0.325216 0.212196 0.171855
28 3 0.287112 0.172977 0.18614
26 1 0.287501 0.190031 0.17041
27 3 0.303677 0.205266 0.176358
756 4 0.319147 0.215225 0.191208
754 2 0.329632 0.218892 0.213609
755 4 0.340117 0.222559 0.23601
764 4 0.478519 0.179648 0.254251
312 4 0.484688 0.17212 0.193615
703 2 0.00450019 0.307919 0.184543
361 2 0.15906 0.262834 0.23852
363 4 0.139443 0.268811 0.252824
283 2 0.301512 0.283525 0.174978
284 4 0.290495 0.290928 0.196168
527 4 0.448549 0.299607 0.177953
528 4 0.443769 0.323597 0.221569
526 2 0.446159 0.311602 0.199761
620 4 0.078385 0.407403 0.164656
299 4 0.058007 0.362352 0.224806
298 2 0.0786892 0.355384 0.212604
619 2 0.0574554 0.406598 0.178312
750 4 0.0386759 0.363559 0.220081
748 2 0.0247127 0.357894 0.240034
621 4 0.0365257 0.405793 0.191968
264 4 0.0388897 0.407485 0.210661
646 2 0.113063 0.368218 0.166926
300 4 0.0993714 0.348416 0.200403
648 4 0.103019 0.349914 0.180682
416 4 0.212529 0.405295 0.232396
290 4 0.211421 0.400448 0.251305
415 2 0.206366 0.400634 0.208616
417 4 0.200204 0.395973 0.184837
13 3 0.381313 0.403587 0.163799
597 4 0.374335 0.396672 0.183781
345 4 0.360833 0.350197 0.232508
596 4 0.365949 0.369337 0.224808
595 2 0.370142 0.383004 0.204295
645 4 0.390601 0.413406 0.181648
643 2 0.411462 0.420762 0.193306
542 4 0.443445 0.345502 0.220769
541 2 0.440991 0.343095 0.245536
262 2 0.0343316 0.428377 0.22362
263 4 0.0297734 0.449268 0.236579
438 4 0.282644 0.44472 0.201078
436 2 0.292676 0.441364 0.223733
659 4 0.365459 0.426361 0.218565
229 2 0.348755 0.489012 0.172389
660 4 0.356618 0.474052 0.206396
658 2 0.361038 0.450207 0.212481
231 4 0.364196 0.480994 0.190346
644 4 0.432322 0.428118 0.204964
447 4 0.444798 0.429792 0.220495
445 2 0.437816 0.432887 0.244304
233 4 0.0414711 0.0491902 0.283928
232 2 0.047445 0.052892 0.307924
234 4 0.0534189 0.0565937 0.331919
1403 4 0.0610973 0.0484336 0.280343
674 4 0.119492 0.0512914 0.332026
722 4 0.157368 0.0392162 0.285544
673 2 0.126419 0.067495 0.314287
721 2 0.177489 0.047954 0.297543
723 4 0.197609 0.0566918 0.309543
1405 2 0.234533 0.0477215 0.302517
1406 4 0.216452 0.0585074 0.316005
1407 4 0.252614 0.0369355 0.289029
249 4 0.278869 0.0221066 0.338756
1340 4 0.261167 0.0128018 0.323835
633 4 0.334818 0.0402728 0.345331
743 4 0.508399 0.0234837 0.253916
425 4 0.4879 0.0251243 0.25756
424 2 0.475173 0.0443204 0.267292
426 4 0.462447 0.0635165 0.277025
258 4 0.477194 0.0702113 0.288118
480 4 0.499789 0.0161745 0.348919
391 2 0.0455912 0.123674 0.295848
392 4 0.063362 0.130604 0.279681
393 4 0.0278204 0.116744 0.312014
545 4 0.0823 0.124842 0.28422
675 4 0.133345 0.0836986 0.296549
546 4 0.124027 0.0972913 0.284953
544 2 0.103163 0.111067 0.284587
404 4 0.164907 0.138773 0.293146
403 2 0.163546 0.151257 0.314767
399 4 0.099009 0.129897 0.346592
716 4 0.398899 0.159594 0.321182
256 2 0.483549 0.0865653 0.305931
257 4 0.489905 0.102919 0.323745
530 4 0.0168124 0.240377 0.288394
442 2 0.0560055 0.233227 0.293134
443 4 0.0796038 0.237989 0.299888
400 2 0.155952 0.203828 0.303678
402 4 0.143299 0.219952 0.289357
396 4 0.0963551 0.234894 0.288322
401 4 0.168605 0.187704 0.317999
405 4 0.162186 0.163741 0.336388
472 2 0.210626 0.20524 0.320742
474 4 0.189955 0.191367 0.323071
473 4 0.231297 0.219113 0.318414
763 2 0.50093 0.169793 0.259332
715 2 0.409697 0.178425 0.308774
377 4 0.429089 0.20877 0.310626
717 4 0.420495 0.197256 0.296365
376 2 0.425175 0.23316 0.306755
444 4 0.0324072 0.228466 0.286379
529 2 0.00282355 0.24401 0.26799
395 4 0.127583 0.269302 0.26984
394 2 0.111969 0.252098 0.279081
378 4 0.42126 0.25755 0.302885
266 4 0.416053 0.268415 0.320588
749 4 0.0107496 0.35223 0.259987
366 4 0.00372595 0.363134 0.274928
677 4 0.163379 0.414419 0.263933
734 4 0.142432 0.347211 0.267029
733 2 0.151604 0.370343 0.264588
735 4 0.160776 0.393475 0.262147
727 2 0.324519 0.392708 0.326968
729 4 0.338966 0.372431 0.329276
308 4 0.335493 0.352654 0.327858
343 2 0.368115 0.343302 0.255412
307 2 0.354099 0.345311 0.312856
344 4 0.375398 0.336406 0.278316
309 4 0.372706 0.337968 0.297854
118 3 0.503084 0.38509 0.344844
615 4 0.426071 0.354442 0.278656
543 4 0.438537 0.340688 0.270302
614 4 0.432387 0.35172 0.328188
613 2 0.429229 0.353081 0.303422
2925 4 0.452381 0.35125 0.334045
777 4 0.0677453 0.424738 0.319249
775 2 0.0751775 0.440774 0.301563
602 4 0.0503552 0.423082 0.329599
776 4 0.0826097 0.45681 0.283878
1757 4 0.0742999 0.4745 0.277091
1756 2 0.0775266 0.498757 0.282226
676 2 0.168454 0.437563 0.255948
289 2 0.22125 0.421096 0.261414
635 4 0.192779 0.479278 0.313579
634 2 0.186091 0.456091 0.320125
766 2 0.208858 0.476007 0.252842
678 4 0.173528 0.460708 0.247963
291 4 0.23108 0.441745 0.271522
768 4 0.18955 0.461266 0.258769
414 4 0.246574 0.435276 0.283361
636 4 0.179404 0.432905 0.326671
503 4 0.188746 0.41629 0.319939
767 4 0.228165 0.490747 0.246916
437 4 0.302707 0.438008 0.246389
412 2 0.258032 0.436652 0.305542
728 4 0.310073 0.412984 0.32466
433 2 0.310101 0.432404 0.289282
435 4 0.301168 0.437068 0.266399
434 4 0.319035 0.427739 0.312165
413 4 0.26949 0.438027 0.327723
5 3 0.283234 0.451599 0.329745
2 3 0.315043 0.432886 0.335304
120 3 0.49726 0.415051 0.322798
446 4 0.430834 0.435982 0.268112
713 4 0.485909 0.428665 0.30839
714 4 0.441831 0.43448 0.285498
712 2 0.46387 0.431573 0.296944
2756 4 0.999284 0.0485555 0.405543
2755 2 0.0107697 0.0675538 0.39404
317 4 0.0514363 0.0397802 0.341615
316 2 0.0666843 0.0486335 0.359344
730 2 0.0755077 0.0759081 0.408251
318 4 0.0819324 0.0574868 0.377072
606 4 0.151342 0.0617412 0.387635
604 2 0.134237 0.0577778 0.369834
605 4 0.117131 0.0538145 0.352033
2429 4 0.22444 0.007157 0.404212
683 4 0.238542 0.0488122 0.377429
321 4 0.231673 0.0622585 0.390851
2428 2 0.205425 0.0224027 0.409798
319 2 0.230448 0.080143 0.408282
682 2 0.24919 0.0370956 0.358077
2430 4 0.186411 0.0376484 0.415384
247 2 0.303665 0.0221991 0.341968
248 4 0.328461 0.0222916 0.34518
684 4 0.259838 0.0253789 0.338724
631 2 0.352587 0.0475645 0.36134
632 4 0.370355 0.0548563 0.377349
468 4 0.385121 0.06685 0.384064
466 2 0.380464 0.0801153 0.404741
2586 4 0.0294898 0.105173 0.328075
2757 4 0.0222556 0.0865521 0.382537
2585 4 0.0197761 0.106286 0.377117
2584 2 0.024633 0.10573 0.352596
732 4 0.0864774 0.0755417 0.385786
397 2 0.0925472 0.112641 0.363493
398 4 0.0860854 0.0953844 0.380394
599 4 0.166869 0.101818 0.328476
598 2 0.170381 0.109616 0.351971
600 4 0.173893 0.117414 0.375466
685 2 0.201995 0.144585 0.386781
687 4 0.183006 0.134399 0.3741
686 4 0.220985 0.154771 0.399462
420 4 0.337468 0.150207 0.348199
419 4 0.384353 0.160983 0.334549
418 2 0.360911 0.155595 0.341374
761 4 0.493687 0.103224 0.343201
762 4 0.491961 0.153192 0.344208
760 2 0.492824 0.128208 0.343705
275 4 0.166251 0.182727 0.338352
390 4 0.0912217 0.20238 0.402026
274 2 0.161367 0.180736 0.362793
388 2 0.11413 0.194042 0.396469
276 4 0.156484 0.178746 0.387235
389 4 0.137038 0.185704 0.390913
410 4 0.235444 0.169916 0.398119
409 2 0.232542 0.193274 0.406555
411 4 0.22964 0.216632 0.41499
708 4 0.244514 0.222517 0.333
707 4 0.289749 0.221114 0.354274
706 2 0.267132 0.221815 0.343637
497 4 0.3061 0.214915 0.365632
496 2 0.330319 0.213359 0.359617
2455 2 0.379525 0.219582 0.387769
498 4 0.354539 0.211802 0.353602
2456 4 0.364827 0.209217 0.3704
2457 4 0.394224 0.229948 0.405138
515 4 0.417434 0.209692 0.416142
617 4 0.0206371 0.287688 0.405997
618 4 0.0706378 0.28843 0.405692
616 2 0.0456375 0.288059 0.405844
696 4 0.0797172 0.30617 0.404594
694 2 0.0866447 0.323051 0.3875
488 4 0.275387 0.326989 0.416673
2769 4 0.492794 0.248546 0.345745
267 4 0.433134 0.313309 0.334499
265 2 0.424594 0.290862 0.327544
268 2 0.470227 0.279944 0.365967
269 4 0.480736 0.263264 0.350587
270 4 0.459719 0.296623 0.381348
306 4 0.466216 0.296964 0.400665
304 2 0.452048 0.287811 0.419122
408 4 0.0425955 0.373715 0.384046
406 2 0.0366886 0.366283 0.407178
695 4 0.0935723 0.339933 0.370406
1259 4 0.112964 0.347542 0.367977
1258 2 0.136346 0.346574 0.376782
1260 4 0.159728 0.345607 0.385587
326 4 0.170148 0.335624 0.399733
504 4 0.188848 0.385535 0.359371
502 2 0.188797 0.400912 0.339655
374 4 0.245856 0.388189 0.369046
509 4 0.270892 0.345322 0.40935
510 4 0.259122 0.374553 0.370521
508 2 0.265007 0.359938 0.389936
373 2 0.256029 0.406615 0.355549
2923 2 0.476992 0.354605 0.336914
2924 4 0.501603 0.357961 0.339782
119 3 0.491919 0.418133 0.359941
753 4 0.496042 0.426552 0.375685
751 2 0.487681 0.419223 0.39808
681 4 0.00617535 0.490887 0.38506
601 2 0.0310427 0.426749 0.345051
679 2 0.0127394 0.467482 0.379202
603 4 0.0117303 0.430416 0.360503
680 4 0.0193035 0.444078 0.373344
1775 4 0.129132 0.480343 0.35022
1774 2 0.143369 0.498344 0.340299
569 4 0.107175 0.449067 0.409362
549 4 0.111517 0.474538 0.354045
547 2 0.111395 0.471993 0.378919
548 4 0.111272 0.469447 0.403792
1821 4 0.229013 0.486006 0.351646
1545 4 0.222952 0.482297 0.333983
1819 2 0.225265 0.490563 0.375943
1820 4 0.221516 0.495121 0.40024
375 4 0.266202 0.42504 0.342051
3 3 0.284379 0.423694 0.354998
1 1 0.296137 0.441243 0.345395
668 4 0.304302 0.475358 0.368549
4 3 0.302458 0.456434 0.361756
667 2 0.31374 0.483324 0.390289
669 4 0.323178 0.49129 0.41203
752 4 0.47932 0.411893 0.420475
594 4 0.446346 0.499631 0.408327
731 4 0.0645381 0.0762744 0.430717
368 4 0.0592432 0.0568281 0.430001
367 2 0.0406836 0.0481172 0.444313
369 4 0.022124 0.0394063 0.458626
719 4 0.0155923 0.0545133 0.467204
340 2 0.175138 0.0678832 0.448183
341 4 0.182185 0.0519288 0.430267
342 4 0.168091 0.0838375 0.466099
1216 2 0.374133 0.0208309 0.480413
1217 4 0.375335 0.0423182 0.493142
842 4 0.365921 0.0526726 0.478399
841 2 0.350739 0.0722572 0.481733
843 4 0.335557 0.0918418 0.485067
2878 2 0.499715 0.0219828 0.489115
471 4 0.0657658 0.160626 0.450351
260 4 0.071321 0.167293 0.467766
1152 4 0.174811 0.0893661 0.484314
1150 2 0.170352 0.112815 0.49176
320 4 0.229224 0.0980274 0.425712
725 4 0.249741 0.0935848 0.427081
726 4 0.283349 0.11348 0.458312
432 4 0.285121 0.120901 0.476681
724 2 0.266545 0.103533 0.442697
430 2 0.302724 0.106662 0.48729
575 4 0.417769 0.14724 0.427781
576 4 0.383266 0.111061 0.426643
574 2 0.400517 0.12915 0.427212
467 4 0.375807 0.0933806 0.425417
516 4 0.404704 0.161736 0.422377
470 4 0.080505 0.190272 0.412873
469 2 0.0731354 0.175449 0.431612
259 2 0.0700622 0.17731 0.49064
878 4 0.0987682 0.237328 0.482708
877 2 0.122665 0.236732 0.490041
650 4 0.242176 0.216988 0.430021
649 2 0.252307 0.239789 0.428393
514 2 0.411069 0.185714 0.41926
489 4 0.261023 0.281897 0.432831
651 4 0.262439 0.262589 0.426764
487 2 0.268205 0.304443 0.424752
585 4 0.356073 0.265983 0.480305
583 2 0.354804 0.288642 0.4908
239 4 0.382949 0.332804 0.47089
584 4 0.353534 0.311301 0.501295
305 4 0.437881 0.278658 0.43758
1011 4 0.429947 0.290651 0.452424
1009 2 0.423533 0.309717 0.467274
1010 4 0.417118 0.328783 0.482123
407 4 0.0307817 0.358851 0.430309
570 4 0.11933 0.420028 0.448217
709 2 0.157438 0.412512 0.467674
9 3 0.156993 0.356475 0.485015
325 2 0.178307 0.346875 0.420518
711 4 0.175759 0.403852 0.482321
8 3 0.182136 0.384326 0.478968
327 4 0.186466 0.358126 0.441303
7 3 0.185032 0.351756 0.460435
6 1 0.179226 0.361357 0.480516
10 3 0.192517 0.352933 0.496979
1401 4 0.311094 0.408527 0.438753
336 4 0.330304 0.414592 0.436649
334 2 0.343824 0.394547 0.44302
335 4 0.357345 0.374503 0.449392
240 4 0.376303 0.374724 0.444446
238 2 0.379626 0.353764 0.457668
561 4 0.462854 0.408346 0.431205
2508 4 0.453211 0.380333 0.480585
2506 2 0.444317 0.357291 0.484477
560 4 0.484253 0.389765 0.472407
559 2 0.473554 0.399055 0.451806
2507 4 0.435424 0.334249 0.48837
927 4 0.487007 0.392139 0.491404
1383 4 0.0699044 0.452302 0.42724
538 2 0.0527488 0.447712 0.510496
1381 2 0.0672026 0.45105 0.452065
540 4 0.0722288 0.450856 0.495139
1382 4 0.0645008 0.449798 0.476891
710 4 0.139117 0.421172 0.453027
568 2 0.113252 0.434547 0.428789
1393 2 0.235178 0.496046 0.433395
1395 4 0.221382 0.482628 0.417434
1399 2 0.303965 0.431749 0.444676
588 4 0.304359 0.473913 0.449198
586 2 0.320065 0.486906 0.463679
1400 4 0.296835 0.454972 0.450599
951 4 0.155157 0.0843544 0.559645
1031 4 0.135812 0.089041 0.55626
1180 2 0.224503 0.0599861 0.545419
1181 4 0.242224 0.0428587 0.541197
1182 4 0.206783 0.0771136 0.549641
949 2 0.17889 0.0899823 0.554146
963 4 0.258297 0.0295021 0.54213
961 2 0.251684 0.00873347 0.554382
2283 4 0.446683 0.997562 0.592747
937 2 0.132369 0.151834 0.521863
939 4 0.151069 0.137952 0.512766
938 4 0.113668 0.165717 0.530959
1030 2 0.129855 0.0929435 0.580228
1151 4 0.165893 0.136264 0.499206
950 4 0.202623 0.0956103 0.548648
856 2 0.32914 0.155351 0.571227
431 4 0.320327 0.0924224 0.497899
898 2 0.383544 0.166352 0.574508
857 4 0.350312 0.142444 0.574444
1035 4 0.0535724 0.180141 0.57802
1033 2 0.0545276 0.184555 0.553428
261 4 0.0688033 0.187327 0.513515
1034 4 0.0554827 0.18897 0.528836
879 4 0.146561 0.236137 0.497374
1272 4 0.14983 0.232458 0.516667
1270 2 0.153238 0.231351 0.541412
1271 4 0.156646 0.230244 0.566158
909 4 0.169454 0.215417 0.571382
858 4 0.307968 0.168257 0.568009
796 2 0.300578 0.199921 0.551949
812 4 0.312157 0.239503 0.537082
798 4 0.308474 0.219351 0.538337
797 4 0.292682 0.18049 0.565561
900 4 0.401563 0.181457 0.566004
872 4 0.396935 0.200616 0.564463
873 4 0.380414 0.244616 0.54738
871 2 0.388674 0.222616 0.555922
811 2 0.336632 0.242434 0.541272
929 4 0.327812 0.327923 0.517416
813 4 0.361107 0.245365 0.545463
1204 2 0.399378 0.306353 0.547173
1206 4 0.375247 0.303297 0.541382
930 4 0.362881 0.315038 0.550655
928 2 0.345346 0.32148 0.534036
1205 4 0.423509 0.30941 0.552964
954 4 0.431664 0.297122 0.566899
983 4 0.0488952 0.386164 0.576248
982 2 0.0240345 0.386287 0.573582
1041 4 0.0623161 0.388035 0.562175
1039 2 0.0755335 0.407861 0.554596
1135 2 0.161665 0.40748 0.546673
895 2 0.187677 0.360549 0.536183
896 4 0.201636 0.353888 0.516537
897 4 0.173718 0.367211 0.555828
1137 4 0.164541 0.382652 0.545975
1189 2 0.240169 0.373764 0.517768
1191 4 0.217568 0.364716 0.523471
804 4 0.308407 0.331176 0.513047
802 2 0.292808 0.350713 0.513441
1190 4 0.26277 0.382811 0.512066
803 4 0.27721 0.370251 0.513835
925 2 0.477467 0.404204 0.511118
1001 4 0.469082 0.418342 0.551495
1000 2 0.469112 0.415252 0.576307
539 4 0.0332689 0.444567 0.525852
2813 4 0.016647 0.440975 0.515996
2812 2 0.00138233 0.430479 0.532789
1040 4 0.0887508 0.427686 0.547017
1136 4 0.158788 0.432308 0.54737
992 4 0.141284 0.439949 0.548833
993 4 0.0932694 0.443756 0.535385
991 2 0.117276 0.441853 0.542109
882 4 0.247488 0.492853 0.554607
1172 4 0.258819 0.48138 0.567468
926 4 0.467927 0.416268 0.530831
945 4 0.0234477 0.00702342 0.674136
1058 4 0.0647316 0.0115146 0.656972
1185 4 0.0129638 0.0143279 0.659261
1057 2 0.0856603 0.0251941 0.65717
1155 4 0.120722 0.0483271 0.64694
1059 4 0.106589 0.0388737 0.657368
1153 2 0.126564 0.0636838 0.628093
1004 4 0.330463 0.0682221 0.620622
831 4 0.344683 0.0592794 0.633835
829 2 0.340558 0.0420473 0.651476
1142 4 0.365533 0.0635035 0.64128
44 3 0.46848 0.0597933 0.659205
41 1 0.485999 0.0518157 0.646249
2281 2 0.459405 0.0159549 0.603929
2282 4 0.472126 0.0343479 0.615111
43 3 0.479229 0.032985 0.634503
45 3 0.492912 0.0679537 0.631743
1199 4 0.00755971 0.152658 0.640917
1154 4 0.132406 0.0790406 0.609246
1032 4 0.123897 0.096846 0.604195
1210 2 0.211776 0.148636 0.649877
1211 4 0.228907 0.137245 0.635666
888 4 0.245467 0.127346 0.631754
1212 4 0.194645 0.160026 0.664088
1220 4 0.174644 0.158295 0.670584
886 2 0.249951 0.108937 0.615439
887 4 0.254435 0.0905279 0.599124
1003 2 0.323536 0.0806653 0.60007
1005 4 0.31661 0.0931084 0.579519
899 4 0.365524 0.151246 0.583012
1141 2 0.385705 0.0751636 0.650352
1143 4 0.405877 0.0868237 0.659425
810 4 0.479825 0.0825059 0.626649
808 2 0.494225 0.0905188 0.607844
1082 4 0.0483511 0.18668 0.59627
1083 4 0.0234432 0.158771 0.629457
1081 2 0.0358972 0.172726 0.612863
821 4 0.105165 0.239909 0.657011
907 2 0.182323 0.223508 0.591234
908 4 0.195192 0.231598 0.611087
947 4 0.198006 0.246612 0.622141
946 2 0.206073 0.249801 0.645591
1239 4 0.292935 0.210322 0.642334
1237 2 0.310486 0.216655 0.625689
1238 4 0.328036 0.222987 0.609044
792 4 0.341976 0.234726 0.602565
3357 4 0.483709 0.226579 0.641444
3355 2 0.48512 0.214035 0.663027
2978 4 0.489649 0.183068 0.6768
3044 4 0.000763548 0.278845 0.626692
3043 2 0.0207209 0.28538 0.640263
3045 4 0.0406782 0.291915 0.653835
1208 4 0.0985216 0.258303 0.663114
791 4 0.358291 0.277425 0.582283
790 2 0.350134 0.256075 0.592424
906 4 0.474802 0.24361 0.642173
952 2 0.440197 0.295383 0.590337
904 2 0.466169 0.259751 0.62514
905 4 0.457535 0.275892 0.608107
953 4 0.44873 0.293643 0.613775
3121 2 0.501978 0.302135 0.661156
893 4 0.0818567 0.336819 0.580429
892 2 0.0871924 0.339136 0.604747
894 4 0.0925281 0.341453 0.629064
1281 4 0.0946626 0.36228 0.631629
1279 2 0.0841174 0.367038 0.653795
1068 4 0.202779 0.374911 0.665649
1027 2 0.22714 0.41036 0.663244
1028 4 0.208239 0.394096 0.665099
1910 4 0.462942 0.424663 0.615412
936 4 0.0163776 0.504812 0.584167
1161 4 0.15745 0.492926 0.583271
1159 2 0.179637 0.488445 0.593894
1171 2 0.23902 0.479415 0.582611
1160 4 0.201824 0.483965 0.604517
1173 4 0.219221 0.47745 0.597755
1029 4 0.24604 0.426624 0.66139
889 2 0.358203 0.487442 0.654619
1269 4 0.394313 0.474717 0.653399
890 4 0.377692 0.476103 0.665426
1267 2 0.418855 0.471922 0.657283
891 4 0.338714 0.498782 0.643813
1002 4 0.469143 0.412163 0.601119
1909 2 0.461066 0.442379 0.632957
1911 4 0.45919 0.460095 0.650501
1268 4 0.443396 0.469128 0.661168
943 2 0.0358265 0.0269495 0.682791
944 4 0.0482054 0.0468756 0.691445
1075 2 0.0605718 0.0682063 0.712158
1077 4 0.0780093 0.0702048 0.729966
1076 4 0.0431344 0.0662078 0.69435
1203 4 0.0813196 0.0504062 0.733968
1282 2 0.142602 0.0494735 0.68651
1283 4 0.146385 0.027584 0.697987
1201 2 0.0989384 0.0420927 0.749641
1284 4 0.138819 0.071363 0.675033
2400 4 0.316303 0.0247051 0.668954
2398 2 0.314014 0.00859713 0.68794
830 4 0.336432 0.0248152 0.669117
834 4 0.0816952 0.1555 0.743064
1106 4 0.069991 0.167027 0.72967
832 2 0.0795948 0.135806 0.758325
33 3 0.101671 0.160122 0.742776
1219 2 0.153308 0.156028 0.683422
1129 2 0.144741 0.138999 0.736712
1131 4 0.133971 0.15164 0.71802
1130 4 0.15551 0.126357 0.755404
1221 4 0.131972 0.15376 0.696261
1227 4 0.174017 0.127889 0.749717
1025 4 0.403625 0.091131 0.680056
1024 2 0.400454 0.11528 0.685708
1026 4 0.397284 0.139429 0.69136
1144 2 0.443032 0.17385 0.731471
1146 4 0.447229 0.149529 0.735483
851 4 0.00447676 0.171266 0.712577
1107 4 0.0231974 0.177418 0.715418
1105 2 0.0465942 0.172222 0.722544
1178 4 0.0184995 0.240875 0.727969
3188 4 0.0191404 0.23313 0.746456
35 3 0.081597 0.174972 0.714595
32 3 0.117044 0.164828 0.708803
820 2 0.125567 0.233566 0.67
31 1 0.102293 0.173771 0.724022
822 4 0.145969 0.227222 0.682988
1278 4 0.155263 0.222188 0.698852
1276 2 0.143857 0.208132 0.7161
34 3 0.109552 0.195007 0.729918
1277 4 0.132451 0.194075 0.733348
1064 4 0.244211 0.242984 0.711956
976 2 0.333108 0.20575 0.728555
978 4 0.324993 0.1821 0.728378
918 4 0.332959 0.248399 0.729921
960 4 0.312622 0.169233 0.737031
977 4 0.341223 0.229399 0.728732
1008 4 0.360787 0.229261 0.733185
1006 2 0.380729 0.233965 0.747516
3356 4 0.486531 0.201491 0.68461
1263 4 0.432109 0.206487 0.710699
1261 2 0.430538 0.229618 0.720062
1145 4 0.438835 0.19817 0.72746
1207 2 0.0788868 0.265319 0.676914
1209 4 0.0592521 0.272336 0.690713
1243 2 0.0485415 0.295132 0.71687
1245 4 0.0655177 0.278911 0.708277
1244 4 0.0315653 0.311354 0.725464
942 4 0.136843 0.308978 0.709733
940 2 0.142903 0.332546 0.70399
948 4 0.21414 0.25299 0.669042
1065 4 0.211155 0.266507 0.682721
1063 2 0.227683 0.254745 0.697339
1242 4 0.245384 0.25315 0.730629
917 4 0.297091 0.283011 0.733954
1096 2 0.288503 0.313592 0.715034
1097 4 0.284149 0.29782 0.733941
916 2 0.315025 0.265705 0.731938
806 4 0.406096 0.331565 0.732788
3123 4 0.490729 0.293215 0.681627
1262 4 0.428967 0.252749 0.729426
1192 2 0.423338 0.292425 0.738401
1194 4 0.428779 0.268176 0.741145
1193 4 0.417896 0.316675 0.735656
1280 4 0.0735722 0.371795 0.675961
3275 4 0.0713653 0.382903 0.693163
3274 2 0.0819104 0.396819 0.71106
816 4 0.0872695 0.414392 0.747808
941 4 0.148964 0.356114 0.698246
1067 4 0.159303 0.372367 0.690226
3276 4 0.0924555 0.410735 0.728958
1066 2 0.181041 0.373639 0.677938
1098 4 0.292857 0.329363 0.696127
1228 2 0.287981 0.387798 0.709215
1230 4 0.280777 0.383854 0.732831
1229 4 0.295185 0.391742 0.685599
1139 4 0.244831 0.435959 0.679046
1138 2 0.262266 0.452738 0.685344
1140 4 0.279701 0.469517 0.691643
1989 4 0.290795 0.470131 0.708343
1987 2 0.286627 0.466613 0.732744
864 4 0.0734366 0.0778326 0.811738
2049 4 0.134637 0.0264681 0.768853
2047 2 0.150657 0.00733746 0.767257
1202 4 0.116557 0.0337793 0.765314
818 4 0.374607 0.063756 0.810837
817 2 0.365475 0.0818149 0.796152
965 4 0.394094 0.0643137 0.810502
964 2 0.418512 0.0694313 0.812166
966 4 0.44293 0.074549 0.81383
911 4 0.0880988 0.0790127 0.825249
863 4 0.0889303 0.100115 0.769736
833 4 0.0774944 0.116112 0.773586
862 2 0.0811835 0.0889738 0.790737
1225 2 0.191332 0.122898 0.76705
1226 4 0.208647 0.117906 0.784383
840 4 0.218937 0.132252 0.77514
838 2 0.242778 0.139775 0.774714
1086 4 0.32665 0.146906 0.800463
1084 2 0.331526 0.125133 0.789179
959 4 0.268711 0.155179 0.756398
839 4 0.26662 0.147298 0.774288
958 2 0.290666 0.162206 0.746714
1299 4 0.324785 0.161084 0.813386
1085 4 0.336401 0.10336 0.777894
819 4 0.356342 0.0998738 0.781467
3268 2 0.483806 0.143031 0.760376
1036 2 0.46419 0.106554 0.818259
1037 4 0.483846 0.121374 0.813881