ITEM: TIMESTEP
1050000
ITEM: NUMBER OF ATOMS
4590
ITEM: BOX BOUNDS pp pp pp
-9.9985700000000008e+00 9.9985700000000008e+00
-9.9985700000000008e+00 9.9985700000000008e+00
-9.9985700000000008e+00 9.9985700000000008e+00
ITEM: ATOMS id type xs ys zs
463 2 0.0413436 0.0637328 0.0329275
464 4 0.0378498 0.045648 0.0160186
3290 4 0.0414646 0.0462773 0.996651
1668 4 0.0831805 0.0424913 0.0430837
1666 2 0.0879797 0.0380542 0.0672179
1476 4 0.220564 0.0229465 0.0684274
1474 2 0.233017 0.0289877 0.0476043
1475 4 0.24547 0.0350289 0.0267812
492 4 0.255034 0.0294283 0.00917478
557 4 0.368453 0.0825015 0.0886574
745 2 0.459223 0.0678372 0.0182991
747 4 0.468603 0.0447497 0.01626
2722 2 0.476431 0.0477267 0.0744107
465 4 0.0448374 0.0818176 0.0498364
591 4 0.0627684 0.100758 0.0579879
701 4 0.0515252 0.0987893 0.0416275
700 2 0.0501236 0.119574 0.0278003
423 4 0.0811312 0.161093 0.0101062
2760 4 0.0184168 0.13558 0.0186026
589 2 0.0582073 0.0942693 0.0817001
702 4 0.048722 0.14036 0.0139731
2758 2 0.00566605 0.156073 0.025135
565 2 0.181795 0.0836401 0.0816678
566 4 0.189649 0.100119 0.064582
1133 4 0.230581 0.152322 0.00917373
360 4 0.246074 0.142464 0.0171379
358 2 0.262677 0.125182 0.0242701
359 4 0.27928 0.107901 0.0314022
665 4 0.385587 0.134961 0.00039481
664 2 0.374015 0.157054 0.00217422
746 4 0.449843 0.0909247 0.0203382
771 4 0.480297 0.126447 0.0783905
421 2 0.0696387 0.174052 0.0281386
553 2 0.0266981 0.214729 0.0426523
422 4 0.0581463 0.187011 0.046171
555 4 0.040706 0.195979 0.0514494
554 4 0.0126901 0.233479 0.0338552
352 2 0.250638 0.21378 0.0756793
354 4 0.228924 0.209678 0.087378
353 4 0.272351 0.217883 0.0639805
461 4 0.283788 0.207841 0.0769143
666 4 0.362442 0.179147 0.00395363
1071 4 0.386144 0.24623 0.034625
1014 4 0.481006 0.197455 0.0288522
1170 4 0.0411241 0.316239 0.00178301
294 4 0.154176 0.314433 0.0282621
456 4 0.146942 0.330308 0.0373712
454 2 0.133368 0.331497 0.0583356
455 4 0.119794 0.332687 0.0793001
292 2 0.172782 0.298562 0.0334683
505 2 0.171176 0.253977 0.0640753
507 4 0.180971 0.273054 0.0512193
293 4 0.191388 0.282691 0.0386746
481 2 0.241703 0.289516 0.0274458
482 4 0.243339 0.292489 0.0522181
956 4 0.294705 0.316741 0.99931
1069 2 0.402148 0.260032 0.021262
573 4 0.373766 0.256826 0.045248
571 2 0.363477 0.268165 0.0650144
1070 4 0.418151 0.273834 0.00789907
324 4 0.429776 0.235091 0.0527043
322 2 0.426611 0.243375 0.0760827
1168 2 0.0377895 0.340944 0.999851
328 2 0.0330638 0.399223 0.0125356
1169 4 0.0344549 0.365649 0.997919
329 4 0.0371405 0.374656 0.0147764
287 4 0.118085 0.402988 0.999396
252 4 0.273998 0.406245 0.0763474
250 2 0.291302 0.405799 0.0583037
608 4 0.27111 0.392414 0.0915147
251 4 0.308605 0.405352 0.0402599
281 4 0.436107 0.366286 0.0637552
671 4 0.4211 0.358645 0.075905
280 2 0.460653 0.361606 0.0646426
282 4 0.485198 0.356926 0.0655299
330 4 0.0289871 0.42379 0.0102947
314 4 0.0306956 0.457959 0.0847523
550 2 0.0321524 0.489007 0.0575425
552 4 0.039549 0.473088 0.0753479
313 2 0.0430144 0.436267 0.0830531
244 2 0.213915 0.483418 0.00919504
246 4 0.217306 0.496499 0.0302323
272 4 0.231917 0.502325 0.0442149
227 4 0.413728 0.41549 0.0186158
226 2 0.437256 0.4199 0.0113921
19 3 0.0448449 0.0265083 0.145875
20 3 0.0714869 0.00765643 0.127101
1422 4 0.0305916 0.0290208 0.164629
16 1 0.0647832 0.0282532 0.134135
17 3 0.0614806 0.0418034 0.115842
2480 4 0.0230935 0.0214117 0.145081
2479 2 0.00675725 0.0253696 0.12657
18 3 0.081118 0.0377155 0.147628
1667 4 0.0927789 0.0336171 0.0913521
1506 4 0.213411 0.00261443 0.150947
653 4 0.252334 0.0283716 0.164402
652 2 0.251421 0.0403651 0.142481
654 4 0.250509 0.0523585 0.120561
484 2 0.328934 0.0162691 0.145542
486 4 0.317878 0.00623413 0.165598
582 4 0.312349 0.0598202 0.137026
580 2 0.300096 0.066496 0.157774
485 4 0.339989 0.0263041 0.125485
296 4 0.369394 0.0632917 0.0948439
295 2 0.352323 0.0457971 0.100106
297 4 0.335251 0.0283026 0.105367
1760 4 0.485737 0.010641 0.175441
2723 4 0.482654 0.0359956 0.0955965
590 4 0.0536463 0.0877805 0.105412
450 4 0.172707 0.0868869 0.156568
449 4 0.140727 0.124975 0.161794
448 2 0.156717 0.105931 0.159181
567 4 0.173941 0.0671609 0.0987536
558 4 0.388793 0.128029 0.0848868
556 2 0.378623 0.105265 0.0867721
769 2 0.487083 0.140476 0.0979443
770 4 0.493868 0.154504 0.117498
339 4 0.0866856 0.243657 0.115928
477 4 0.165141 0.168561 0.145048
475 2 0.16913 0.193065 0.148015
737 4 0.171554 0.218482 0.0800854
738 4 0.215404 0.205204 0.100125
736 2 0.193479 0.211843 0.0901051
476 4 0.173119 0.21757 0.150982
460 2 0.304636 0.206607 0.0906627
462 4 0.325484 0.205373 0.104411
255 4 0.326644 0.194185 0.119622
277 2 0.272151 0.231348 0.143279
755 4 0.296803 0.258694 0.122166
279 4 0.262582 0.211041 0.15429
254 4 0.375409 0.204962 0.122175
630 4 0.39058 0.193193 0.123115
253 2 0.351026 0.199573 0.120898
628 2 0.408956 0.208004 0.114859
624 4 0.435082 0.235377 0.121098
629 4 0.427331 0.222815 0.106604
323 4 0.423447 0.251658 0.0994611
338 4 0.0714551 0.267544 0.157137
337 2 0.0790704 0.255601 0.136533
506 4 0.16138 0.234899 0.0769314
612 4 0.236708 0.336811 0.106363
278 4 0.28172 0.251655 0.132267
756 4 0.334708 0.27842 0.0961873
754 2 0.315755 0.268557 0.109176
572 4 0.353187 0.279505 0.0847808
741 4 0.360585 0.294743 0.0978494
739 2 0.350803 0.316976 0.103778
622 2 0.433566 0.255943 0.135238
623 4 0.43205 0.276509 0.149377
527 4 0.435442 0.284651 0.167852
621 4 0.0649004 0.409602 0.0995218
619 2 0.0694959 0.39059 0.115098
620 4 0.0740913 0.371578 0.130674
647 4 0.074416 0.376032 0.149563
536 4 0.173862 0.407105 0.150939
610 2 0.241665 0.328824 0.129532
611 4 0.246622 0.320838 0.152702
535 2 0.176675 0.382385 0.153428
609 4 0.23799 0.355882 0.0998339
607 2 0.25455 0.374148 0.0956743
537 4 0.179489 0.357665 0.155918
740 4 0.341021 0.33921 0.109707
385 2 0.339814 0.363815 0.136302
387 4 0.326587 0.380433 0.149496
386 4 0.353041 0.347198 0.123108
672 4 0.409416 0.351209 0.123956
12 3 0.404811 0.363162 0.139569
11 1 0.406814 0.372457 0.160516
14 3 0.415845 0.393731 0.15845
495 4 0.415222 0.395717 0.139194
670 2 0.415258 0.354927 0.0999305
595 2 0.454813 0.345452 0.153886
596 4 0.4696 0.343051 0.133867
597 4 0.440025 0.347853 0.173905
315 4 0.0553333 0.414575 0.0813539
626 4 0.186549 0.444317 0.115806
625 2 0.203059 0.456209 0.130338
627 4 0.21957 0.468101 0.14487
1438 2 0.245243 0.501865 0.0877773
637 2 0.250537 0.493118 0.142456
638 4 0.236108 0.477458 0.155561
1439 4 0.256487 0.503379 0.110058
524 4 0.348557 0.455714 0.080764
523 2 0.34907 0.457773 0.105677
525 4 0.349584 0.459831 0.130591
493 2 0.420836 0.418756 0.131265
494 4 0.42645 0.441796 0.123337
1420 2 0.0308735 0.00653125 0.175553
690 4 0.161283 0.0390273 0.238324
674 4 0.144212 0.0426207 0.246521
693 4 0.243951 0.04237 0.175979
688 2 0.169869 0.0237309 0.220506
691 2 0.222634 0.0457 0.188615
692 4 0.201317 0.0490299 0.201251
689 4 0.178455 0.00843442 0.202688
1700 4 0.329375 0.0595528 0.232035
28 3 0.276779 0.0923779 0.222857
581 4 0.287842 0.0731718 0.178522
758 4 0.379448 0.0584567 0.154891
21 1 0.36298 0.074058 0.239853
25 3 0.369446 0.0794568 0.218694
759 4 0.365498 0.0674189 0.20207
757 2 0.372473 0.0629378 0.17848
23 3 0.347459 0.056821 0.239232
236 4 0.146591 0.143857 0.162287
579 4 0.10497 0.171554 0.214923
577 2 0.0804421 0.172626 0.21019
235 2 0.151158 0.152216 0.185405
237 4 0.155725 0.160574 0.208524
546 4 0.198421 0.138439 0.245675
544 2 0.17852 0.152053 0.25229
30 3 0.279633 0.0891829 0.18545
26 1 0.285913 0.101475 0.203564
29 3 0.278865 0.123439 0.201057
27 3 0.308846 0.101181 0.205339
24 3 0.353786 0.092624 0.250301
311 4 0.419477 0.149131 0.195999
312 4 0.43149 0.100965 0.202035
310 2 0.425483 0.125048 0.199017
512 4 0.00412045 0.161529 0.193434
513 4 0.045278 0.168033 0.221083
511 2 0.0246992 0.164781 0.207258
578 4 0.0559139 0.173698 0.205458
381 4 0.0065723 0.1774 0.182807
371 4 0.167528 0.253251 0.253068
284 4 0.258277 0.207183 0.221139
283 2 0.264598 0.225161 0.237326
765 4 0.38553 0.224915 0.248396
763 2 0.408124 0.214901 0.252192
2591 4 0.474874 0.201523 0.165025
521 4 0.443421 0.218792 0.250819
520 2 0.468136 0.216323 0.247947
764 4 0.430718 0.204886 0.255988
394 2 0.0813581 0.291055 0.203495
396 4 0.0672032 0.302503 0.220634
443 4 0.0578352 0.293762 0.235951
395 4 0.0955129 0.279607 0.186356
363 4 0.10959 0.266961 0.176614
362 4 0.156137 0.270765 0.194492
361 2 0.132863 0.268863 0.185553
372 4 0.154819 0.254008 0.204709
370 2 0.161174 0.25363 0.228888
345 4 0.233514 0.286174 0.23102
343 2 0.255088 0.29879 0.230269
344 4 0.276662 0.311407 0.229517
526 2 0.447672 0.276565 0.188106
528 4 0.459902 0.26848 0.20836
705 4 0.00289853 0.326677 0.181265
748 2 0.0781107 0.356469 0.228196
646 2 0.0862521 0.36803 0.170082
750 4 0.0942109 0.355524 0.209089
300 4 0.118717 0.360734 0.199957
648 4 0.0980883 0.360027 0.190601
298 2 0.125891 0.376265 0.218191
299 4 0.133066 0.391795 0.236426
734 4 0.14102 0.382939 0.252101
290 4 0.226148 0.400315 0.209964
302 4 0.323005 0.391331 0.167115
15 3 0.386231 0.373658 0.170188
301 2 0.333828 0.413869 0.167372
13 3 0.420819 0.359117 0.173334
643 2 0.446072 0.381136 0.203519
644 4 0.451946 0.398244 0.220782
645 4 0.440199 0.364028 0.186256
447 4 0.465219 0.403963 0.236897
263 4 0.0618569 0.478655 0.204492
262 2 0.055839 0.454773 0.200178
264 4 0.0498211 0.430891 0.195864
417 4 0.167085 0.463775 0.169848
1430 4 0.1784 0.479995 0.174179
289 2 0.230638 0.424787 0.21244
415 2 0.171515 0.447317 0.188142
291 4 0.235128 0.44926 0.214915
416 4 0.175945 0.430858 0.206436
766 2 0.23009 0.482432 0.196506
768 4 0.231913 0.476962 0.220836
767 4 0.228267 0.487903 0.172177
414 4 0.217054 0.443678 0.243165
303 4 0.344652 0.436407 0.16763
659 4 0.350461 0.433622 0.18755
660 4 0.354302 0.478438 0.2094
658 2 0.352382 0.45603 0.198475
231 4 0.338379 0.488977 0.217943
232 2 0.027825 0.0238316 0.324365
233 4 0.0303475 5.73698e-05 0.317044
234 4 0.0253025 0.0476059 0.331687
317 4 0.0197881 0.0666678 0.331203
1464 4 0.103464 0.986768 0.313302
673 2 0.144512 0.0557431 0.267803
675 4 0.144811 0.0688655 0.289084
1406 4 0.255567 0.999998 0.292284
1699 2 0.317437 0.0462259 0.249501
1701 4 0.305498 0.032899 0.266966
1518 4 0.347781 0.0152222 0.295248
697 2 0.377449 0.0377452 0.278542
699 4 0.365384 0.0173551 0.286533
698 4 0.389513 0.0581354 0.270551
22 3 0.381338 0.0671063 0.251845
333 4 0.385324 0.0806582 0.268215
1747 2 0.460145 0.00843946 0.32903
743 4 0.477162 0.0295455 0.271772
742 2 0.48933 0.00856999 0.265676
351 4 0.479024 0.0498397 0.271317
349 2 0.465737 0.0709937 0.272392
256 2 0.454653 0.0659656 0.332306
480 4 0.479723 0.0338943 0.311543
531 4 0.00346545 0.180099 0.261012
399 4 0.124533 0.144283 0.305554
397 2 0.121061 0.129819 0.325652
722 4 0.214007 0.124953 0.241547
723 4 0.237602 0.10038 0.278155
721 2 0.225805 0.112666 0.259851
599 4 0.231931 0.123514 0.299995
404 4 0.239909 0.141113 0.29433
598 2 0.211275 0.120909 0.313841
403 2 0.237866 0.163404 0.283189
600 4 0.190619 0.118303 0.327687
248 4 0.329984 0.104491 0.322092
249 4 0.281415 0.105672 0.310246
247 2 0.305699 0.105082 0.316169
331 2 0.409931 0.08271 0.27215
257 4 0.467428 0.0871754 0.328825
332 4 0.434538 0.0847618 0.276085
350 4 0.452451 0.0921477 0.273468
762 4 0.452148 0.0998597 0.293013
760 2 0.442663 0.11944 0.305334
761 4 0.433178 0.139021 0.317655
530 4 0.98669 0.213014 0.294715
529 2 0.995078 0.196557 0.277864
393 4 0.121437 0.164414 0.305472
392 4 0.15084 0.180805 0.268492
391 2 0.136138 0.17261 0.286982
545 4 0.158618 0.165667 0.258905
405 4 0.235823 0.185695 0.272048
401 4 0.223736 0.200289 0.278821
400 2 0.212588 0.220861 0.287636
402 4 0.201439 0.241433 0.29645
285 4 0.270918 0.243138 0.253514
420 4 0.400738 0.194986 0.327877
522 4 0.492851 0.213855 0.245075
444 4 0.0353208 0.300811 0.280043
442 2 0.046578 0.297287 0.257997
390 4 0.095756 0.292655 0.335842
388 2 0.117338 0.280496 0.339243
309 4 0.285607 0.319875 0.247147
307 2 0.294652 0.332096 0.266997
497 4 0.310646 0.330696 0.302585
308 4 0.303697 0.344317 0.286847
496 2 0.326232 0.322088 0.320139
498 4 0.341819 0.31348 0.337693
543 4 0.428771 0.335994 0.291728
541 2 0.443048 0.315774 0.295266
542 4 0.457324 0.295554 0.298803
749 4 0.0620104 0.357415 0.247302
365 4 0.0234664 0.393171 0.293784
2493 4 0.0110345 0.400458 0.307997
364 2 0.0377546 0.381892 0.276644
366 4 0.0520428 0.370613 0.259503
549 4 0.0251292 0.41185 0.314098
601 2 0.113326 0.384176 0.313501
733 2 0.146005 0.369442 0.27255
602 4 0.123057 0.396059 0.293771
735 4 0.150989 0.355944 0.292999
777 4 0.112499 0.412419 0.295632
677 4 0.162265 0.34011 0.297174
676 2 0.1762 0.349703 0.315584
678 4 0.190136 0.359297 0.333995
729 4 0.294402 0.369309 0.281093
727 2 0.313393 0.379481 0.293785
728 4 0.332383 0.389653 0.306476
613 2 0.40459 0.358568 0.319057
434 4 0.34661 0.394737 0.318043
433 2 0.360904 0.39788 0.338315
615 4 0.417649 0.350024 0.299522
445 2 0.45356 0.422589 0.248828
547 2 0.0452425 0.417156 0.327972
1757 4 0.117739 0.463878 0.255583
499 2 0.130299 0.494986 0.323444
1756 2 0.107489 0.486146 0.250658
776 4 0.110869 0.456811 0.272667
775 2 0.111684 0.434615 0.284149
500 4 0.112286 0.479507 0.33126
413 4 0.199714 0.474709 0.278338
412 2 0.208384 0.459193 0.260752
1436 4 0.227803 0.489392 0.312759
1543 2 0.190631 0.500878 0.32467
1545 4 0.214543 0.493868 0.326732
1435 2 0.246041 0.477298 0.324854
438 4 0.329206 0.476499 0.283331
437 4 0.279294 0.474965 0.285996
436 2 0.30425 0.475732 0.284664
3 3 0.264524 0.433193 0.325047
2 3 0.301981 0.433672 0.321979
713 4 0.39724 0.476274 0.279097
712 2 0.414948 0.458626 0.278693
2862 4 0.484466 0.435317 0.278418
2861 4 0.50134 0.48058 0.265487
446 4 0.4419 0.441214 0.260758
2860 2 0.492903 0.457949 0.271952
714 4 0.432656 0.440979 0.278289
731 4 0.0997712 0.0694818 0.378686
316 2 0.0369008 0.082516 0.340212
429 4 0.101215 0.00431196 0.35078
428 4 0.0967814 0.0515103 0.366698
427 2 0.0989981 0.0279111 0.358739
730 2 0.113672 0.0829903 0.362891
604 2 0.152384 0.0166414 0.344618
368 4 0.121102 0.00598889 0.418401
605 4 0.16771 0.0229361 0.325892
682 2 0.248043 0.0533969 0.399099
684 4 0.232795 0.058196 0.379873
425 4 0.402145 0.0367851 0.391607
1749 4 0.476141 0.0276411 0.329812
2879 4 0.49216 0.0506535 0.399292
424 2 0.413979 0.0381531 0.369624
426 4 0.425813 0.0395212 0.34764
258 4 0.441878 0.0447557 0.335788
2878 2 0.478479 0.0623478 0.416649
318 4 0.0540134 0.0983642 0.349222
398 4 0.117589 0.115355 0.34575
732 4 0.127572 0.0964988 0.347096
686 4 0.192191 0.128837 0.391539
685 2 0.198259 0.124297 0.367712
687 4 0.204327 0.119756 0.343884
632 4 0.372458 0.0845372 0.364446
633 4 0.348379 0.0989885 0.32307
467 4 0.31314 0.157293 0.415192
631 2 0.360419 0.0917629 0.343758
453 4 0.491209 0.14345 0.392948
515 4 0.479271 0.15862 0.391529
2654 4 0.0204942 0.194901 0.354654
617 4 0.0802953 0.248011 0.392967
274 2 0.156797 0.242673 0.343028
276 4 0.146903 0.260341 0.357697
275 4 0.16669 0.225006 0.32836
474 4 0.183516 0.216488 0.338032
472 2 0.207554 0.218816 0.34451
473 4 0.231591 0.221144 0.350987
708 4 0.232072 0.216775 0.370229
707 4 0.279081 0.232144 0.377624
706 2 0.255577 0.224459 0.373927
418 2 0.381672 0.208699 0.336459
419 4 0.362607 0.222411 0.345041
716 4 0.366452 0.216504 0.364709
715 2 0.354194 0.234578 0.376884
514 2 0.469227 0.164227 0.413729
269 4 0.481154 0.238258 0.360468
618 4 0.0346246 0.267866 0.397514
616 2 0.05746 0.257939 0.39524
347 4 0.0165466 0.276708 0.399932
346 2 0.0223741 0.29894 0.409777
389 4 0.138919 0.268336 0.342643
508 2 0.231952 0.295612 0.380917
509 4 0.216664 0.276265 0.38506
510 4 0.24724 0.314959 0.376775
374 4 0.254305 0.331969 0.385264
488 4 0.32059 0.273587 0.400907
487 2 0.298765 0.267217 0.411313
377 4 0.330949 0.277436 0.384021
717 4 0.341935 0.252652 0.389059
376 2 0.326797 0.291504 0.363772
378 4 0.322646 0.305572 0.343523
267 4 0.33648 0.260545 0.406796
585 4 0.417509 0.262538 0.417876
268 2 0.477315 0.247696 0.383302
270 4 0.473476 0.257134 0.406135
603 4 0.103595 0.372293 0.333231
502 2 0.206957 0.402345 0.400238
504 4 0.214782 0.378601 0.399824
373 2 0.238388 0.346956 0.397396
375 4 0.22247 0.361944 0.409529
614 4 0.39153 0.367112 0.338593
335 4 0.36496 0.38161 0.420031
334 2 0.360296 0.402877 0.407738
561 4 0.477335 0.416358 0.393572
752 4 0.474541 0.431424 0.380448
559 2 0.472521 0.406939 0.416228
548 4 0.0653558 0.422463 0.341845
407 4 0.0729255 0.406109 0.353537
406 2 0.0719033 0.417345 0.375851
408 4 0.0708811 0.428581 0.398164
503 4 0.199133 0.426089 0.400652
1437 4 0.264279 0.465204 0.336948
5 3 0.284295 0.462995 0.336821
668 4 0.304103 0.438712 0.361885
1 1 0.284231 0.440292 0.335029
4 3 0.286376 0.430686 0.356041
667 2 0.322126 0.43812 0.379206
435 4 0.375199 0.401023 0.358587
669 4 0.340149 0.437528 0.396527
336 4 0.355633 0.424145 0.395444
593 4 0.436505 0.469595 0.376979
751 2 0.491925 0.428812 0.362668
592 2 0.441784 0.491308 0.365759
718 2 0.0607521 0.0391659 0.502333
719 4 0.0796015 0.0532181 0.493823
367 2 0.123748 0.0180562 0.440139
369 4 0.126394 0.0301235 0.461878
2429 4 0.234252 0.0411072 0.431221
2428 2 0.224987 0.0364488 0.453972
341 4 0.225194 0.0744204 0.47137
2430 4 0.215722 0.0317904 0.476724
1182 4 0.237755 0.0609687 0.478908
683 4 0.263291 0.0485978 0.418325
439 2 0.27561 0.0167723 0.429834
441 4 0.269794 0.0404282 0.435469
430 2 0.321688 0.0743849 0.486076
726 4 0.300537 0.0648343 0.452784
1180 2 0.255514 0.0600665 0.496486
431 4 0.336695 0.0878337 0.500878
2880 4 0.464798 0.074042 0.434006
1033 2 0.0797823 0.157528 0.493487
340 2 0.207206 0.0840154 0.485846
321 4 0.250863 0.152917 0.424575
342 4 0.189218 0.0936104 0.500322
319 2 0.263449 0.131641 0.428334
724 2 0.297482 0.0859138 0.439688
725 4 0.294428 0.106993 0.426592
320 4 0.276036 0.110366 0.432092
466 2 0.328097 0.13989 0.425122
468 4 0.343054 0.122487 0.435052
642 4 0.471809 0.0920481 0.433961
574 2 0.421957 0.162673 0.446137
641 4 0.457267 0.138439 0.44567
640 2 0.464538 0.115244 0.439816
3158 4 0.472471 0.140914 0.459632
3157 2 0.486401 0.149472 0.47855
575 4 0.445739 0.155522 0.443232
471 4 0.0418705 0.249123 0.485823
469 2 0.0315827 0.226607 0.489342
1035 4 0.07081 0.173453 0.476427
261 4 0.121479 0.191665 0.491874
260 4 0.10656 0.212662 0.44901
259 2 0.114019 0.202164 0.470442
938 4 0.121047 0.183738 0.511051
411 4 0.250951 0.198745 0.453216
410 4 0.257587 0.181901 0.499831
409 2 0.254269 0.190323 0.476523
650 4 0.247619 0.223114 0.466999
649 2 0.257859 0.241032 0.452882
576 4 0.398175 0.169824 0.449043
516 4 0.459183 0.169834 0.43593
2814 4 0.016943 0.335182 0.430248
348 4 0.0282017 0.321173 0.419622
695 4 0.111564 0.294787 0.454829
694 2 0.114422 0.28445 0.477416
1260 4 0.135697 0.268341 0.493692
696 4 0.117279 0.274114 0.500003
10 3 0.146669 0.332513 0.478291
489 4 0.27694 0.260847 0.421718
651 4 0.268098 0.25895 0.438766
266 4 0.37247 0.290297 0.42469
265 2 0.354475 0.275421 0.415743
306 4 0.48116 0.261208 0.423674
304 2 0.501059 0.249256 0.432966
2455 2 0.4788 0.299534 0.450175
2456 4 0.455854 0.304828 0.44177
583 2 0.433267 0.274447 0.433206
584 4 0.449025 0.286356 0.448537
2812 2 0.00861873 0.35853 0.433522
326 4 0.0782692 0.389824 0.458993
710 4 0.141131 0.409773 0.424238
7 3 0.138777 0.36894 0.476359
327 4 0.122246 0.366849 0.46523
325 2 0.100258 0.378336 0.462112
6 1 0.154899 0.352969 0.472593
709 2 0.151953 0.387991 0.430034
8 3 0.160601 0.353225 0.450103
9 3 0.173512 0.357901 0.485541
711 4 0.162775 0.366208 0.43583
804 4 0.287102 0.374297 0.492256
238 2 0.368301 0.357747 0.451873
240 4 0.369177 0.363866 0.427645
239 4 0.367425 0.351627 0.4761
560 4 0.467707 0.39752 0.438884
681 4 0.0331765 0.49546 0.436126
680 4 0.0229883 0.480373 0.482701
1383 4 0.00676488 0.469416 0.481065
679 2 0.0280824 0.487916 0.459413
570 4 0.137801 0.428924 0.429178
568 2 0.127252 0.433954 0.451282
569 4 0.116702 0.438985 0.473386
384 4 0.107255 0.448786 0.489373
774 4 0.221439 0.459931 0.464277
772 2 0.212176 0.448955 0.484744
636 4 0.203996 0.441329 0.413442
635 4 0.226794 0.470106 0.447395
634 2 0.215395 0.455717 0.430418
1401 4 0.333116 0.493438 0.472492
1454 4 0.321939 0.485195 0.494785
586 2 0.385474 0.44334 0.438928
588 4 0.377019 0.458734 0.456724
587 4 0.393928 0.427945 0.421131
1399 2 0.353023 0.478397 0.474123
1400 4 0.372931 0.463357 0.475753
1126 2 0.0132532 0.044265 0.530014
1127 4 0.0230057 0.0257762 0.516294
1128 4 0.00350057 0.0627537 0.543734
720 4 0.0419027 0.0251136 0.510842
1058 4 0.0958872 0.0380388 0.583139
1057 2 0.102433 0.0614657 0.588928
1059 4 0.10898 0.0848925 0.594717
951 4 0.195554 0.0604987 0.573683
1031 4 0.214765 0.0601538 0.570833
1030 2 0.237528 0.0607035 0.581164
961 2 0.304884 0.0321461 0.54231
962 4 0.297526 0.0184919 0.561921
963 4 0.312243 0.0458002 0.522699
1181 4 0.273273 0.0591644 0.514064
432 4 0.306681 0.0609362 0.471274
1217 4 0.415712 0.0807221 0.520228
842 4 0.394748 0.0848205 0.520875
841 2 0.37199 0.0782441 0.512875
843 4 0.349232 0.0716677 0.504876
4466 4 0.488124 0.0198126 0.578915
1034 4 0.0887545 0.141602 0.510548
939 4 0.160507 0.154107 0.502951
1151 4 0.153135 0.141128 0.517798
937 2 0.140777 0.168922 0.507001
1150 2 0.172087 0.12496 0.515656
1152 4 0.191039 0.108791 0.513514
899 4 0.318064 0.134668 0.558822
857 4 0.30087 0.14449 0.558681
856 2 0.279449 0.157329 0.55747
898 2 0.33922 0.140406 0.57085
1216 2 0.436955 0.0813897 0.533398
1218 4 0.458198 0.0820574 0.546569
470 4 0.0212948 0.204092 0.492862
1199 4 0.00669266 0.20131 0.557727
878 4 0.065134 0.246266 0.563344
877 2 0.0714119 0.235743 0.585139
797 4 0.255835 0.186714 0.567134
858 4 0.258028 0.170168 0.556259
796 2 0.266016 0.206837 0.577932
798 4 0.276197 0.226959 0.58873
871 2 0.35787 0.220471 0.558333
872 4 0.373992 0.201513 0.560753
873 4 0.341749 0.239429 0.555913
813 4 0.350331 0.25831 0.557282
905 4 0.472582 0.21142 0.584577
1258 2 0.156023 0.26273 0.507129
1259 4 0.176349 0.257118 0.520565
1239 4 0.231315 0.323924 0.55754
812 4 0.325581 0.29222 0.530111
811 2 0.337956 0.275265 0.543697
383 4 0.1178 0.410392 0.519629
897 4 0.143726 0.350044 0.578603
1137 4 0.130906 0.363607 0.57006
895 2 0.167972 0.355859 0.576734
1189 2 0.222502 0.375663 0.548284
896 4 0.192218 0.361675 0.574866
1191 4 0.210638 0.367154 0.568582
803 4 0.240655 0.376641 0.510638
1190 4 0.234366 0.384171 0.527985
802 2 0.263878 0.375469 0.501447
1173 4 0.265164 0.402725 0.562532
929 4 0.352622 0.384798 0.585458
928 2 0.373449 0.373232 0.577865
930 4 0.394276 0.361666 0.570271
1206 4 0.405999 0.347377 0.579893
925 2 0.44705 0.381085 0.519056
926 4 0.42963 0.368268 0.531603
927 4 0.464471 0.393902 0.506509
1001 4 0.444189 0.41431 0.546897
538 2 0.0536097 0.497835 0.538687
540 4 0.0447301 0.480581 0.554454
382 2 0.112528 0.429589 0.504501
773 4 0.202912 0.437978 0.50521
1171 2 0.277501 0.42125 0.551139
1172 4 0.289838 0.439775 0.539745
882 4 0.29275 0.433805 0.520388
880 2 0.298699 0.456715 0.51233
881 4 0.304648 0.479625 0.504272
1000 2 0.452442 0.429679 0.56481
1909 2 0.469794 0.481788 0.582155
1002 4 0.460694 0.445048 0.582723
1910 4 0.474182 0.457763 0.576793
663 4 0.48841 0.442533 0.518918
1185 4 0.0289566 0.0477543 0.644268
945 4 0.0481745 0.0392692 0.644403
1183 2 0.00476127 0.0538432 0.645908
823 2 0.135142 0.00595117 0.615905
825 4 0.120153 0.0253885 0.620672
949 2 0.180602 0.0495224 0.590451
950 4 0.16565 0.038546 0.607218
1032 4 0.26029 0.0612532 0.591495
1004 4 0.369665 0.0549462 0.644038
1003 2 0.355579 0.0550525 0.664695
4465 2 0.468462 0.0334132 0.586235
4467 4 0.448799 0.0470137 0.593556
2283 4 0.435398 0.0606785 0.601359
2282 4 0.451841 0.0692223 0.647806
2281 2 0.443619 0.0649504 0.624583
810 4 0.489923 0.0590021 0.645096
43 3 0.452809 0.0528428 0.660171
1082 4 0.0626187 0.160815 0.594009
1081 2 0.0587271 0.149216 0.615815
1083 4 0.0548354 0.137616 0.637621
1155 4 0.128076 0.0908483 0.597742
1153 2 0.14693 0.10723 0.598905
1154 4 0.165784 0.123611 0.600069
1221 4 0.185001 0.126709 0.593259
1219 2 0.206108 0.134101 0.60444
1220 4 0.227216 0.141494 0.61562
1212 4 0.245487 0.13556 0.616904
1283 4 0.184063 0.107977 0.656259
1210 2 0.254758 0.134144 0.640082
1211 4 0.264029 0.132728 0.66326
900 4 0.360376 0.146145 0.582878
879 4 0.0776899 0.22522 0.606935
1209 4 0.0818269 0.238264 0.656975
1178 4 0.0036662 0.236012 0.670462
1272 4 0.0922851 0.216703 0.616385
1270 2 0.109076 0.198425 0.619413
1271 4 0.125866 0.180147 0.622441
908 4 0.178391 0.188026 0.614885
907 2 0.166416 0.195005 0.635696
1143 4 0.401123 0.181063 0.6707
1025 4 0.419728 0.192559 0.670732
1026 4 0.432355 0.220913 0.631523
1024 2 0.426041 0.206736 0.651127
904 2 0.492247 0.225155 0.591636
3122 4 0.510191 0.242889 0.661945
906 4 0.511912 0.23889 0.598695
1243 2 0.0438446 0.312722 0.663978
1179 4 0.0155325 0.283823 0.661861
1245 4 0.0240528 0.299354 0.671378
1244 4 0.0636363 0.32609 0.656579
1177 2 0.00959937 0.259918 0.666161
947 4 0.201311 0.268137 0.653805
1237 2 0.250578 0.319842 0.57295
948 4 0.18775 0.312346 0.634768
946 2 0.19453 0.290242 0.644286
1238 4 0.269841 0.31576 0.58836
792 4 0.260573 0.304071 0.600845
791 4 0.277775 0.277481 0.639547
790 2 0.269174 0.290776 0.620196
953 4 0.448315 0.260495 0.609428
952 2 0.453868 0.284872 0.609144
954 4 0.459422 0.309249 0.608861
983 4 0.0190585 0.391628 0.624894
1039 2 0.0563469 0.395296 0.632534
1041 4 0.0325157 0.390402 0.638305
982 2 0.999811 0.378738 0.634305
1135 2 0.119822 0.381378 0.583716
1136 4 0.108738 0.39915 0.597373
1040 4 0.0801781 0.40019 0.626763
993 4 0.11806 0.406282 0.61522
991 2 0.117591 0.404495 0.640155
992 4 0.117122 0.402709 0.66509
1204 2 0.419909 0.344346 0.600449
1205 4 0.433818 0.341316 0.621004
2170 2 0.12353 0.486993 0.649109
2172 4 0.116699 0.463351 0.653538
1160 4 0.22014 0.443935 0.599569
1159 2 0.205314 0.463866 0.596721
1161 4 0.190488 0.483798 0.593874
1187 4 0.256956 0.488854 0.609682
890 4 0.322255 0.421009 0.598696
1952 4 0.314256 0.486646 0.598665
889 2 0.318563 0.445139 0.593287
891 4 0.314871 0.46927 0.587877
1268 4 0.428356 0.513669 0.658408
2319 4 0.0191632 0.0214845 0.69583
943 2 0.0521808 0.0451999 0.66836
2317 2 0.997798 0.0114913 0.687532
944 4 0.0561871 0.0511305 0.692318
1075 2 0.0533314 0.057791 0.724318
1076 4 0.0515913 0.0686008 0.701839
1077 4 0.0550716 0.0469812 0.746797
1148 4 0.20396 0.0515342 0.741977
1005 4 0.341492 0.0551587 0.685352
45 3 0.488506 0.063262 0.666074
41 1 0.468591 0.0587062 0.676139
1163 4 0.49005 0.0421324 0.699056
42 3 0.471315 0.0411174 0.690711
44 3 0.461309 0.0772476 0.688038
1162 2 0.504199 0.0495448 0.718293
1105 2 0.0668867 0.171905 0.716819
1106 4 0.079251 0.161067 0.735656
35 3 0.0978867 0.158066 0.739466
1282 2 0.19868 0.106069 0.676455
1284 4 0.213297 0.104161 0.696651
1227 4 0.206895 0.116722 0.710888
1225 2 0.208797 0.126448 0.733844
888 4 0.27674 0.129031 0.678783
886 2 0.295232 0.133103 0.695112
887 4 0.313724 0.137174 0.711441
830 4 0.318778 0.148816 0.695095
1142 4 0.359496 0.163242 0.649478
829 2 0.337152 0.163677 0.703264
1107 4 0.0545223 0.182743 0.697982
851 4 0.0362684 0.178669 0.689395
852 4 0.0184676 0.224132 0.678579
850 2 0.027368 0.201401 0.683987
909 4 0.154441 0.201985 0.656506
822 4 0.147563 0.220448 0.74415
820 2 0.123478 0.226002 0.747923
1064 4 0.242322 0.260186 0.705359
918 4 0.304274 0.233988 0.72791
1141 2 0.380309 0.172153 0.660089
831 4 0.355526 0.178539 0.711434
1193 4 0.358619 0.24171 0.691441
1192 2 0.382619 0.236428 0.696054
1194 4 0.406619 0.231146 0.700666
1262 4 0.420546 0.228522 0.715145
3356 4 0.479542 0.205462 0.707421
3355 2 0.495637 0.217857 0.692843
1261 2 0.442034 0.219151 0.706449
1263 4 0.463522 0.20978 0.697753
1145 4 0.47154 0.192002 0.719621
1144 2 0.476072 0.183688 0.742762
1207 2 0.0638301 0.246043 0.672492
1208 4 0.0458332 0.253822 0.688009
1242 4 0.191536 0.313401 0.752319
1063 2 0.256916 0.278423 0.696438
1065 4 0.271511 0.296661 0.687517
916 2 0.29824 0.256208 0.737658
806 4 0.399644 0.295339 0.695888
805 2 0.404494 0.319741 0.698379
892 2 0.0768635 0.408185 0.688054
894 4 0.0685642 0.384783 0.685118
3275 4 0.0392154 0.417654 0.752122
1068 4 0.216288 0.407219 0.687521
1066 2 0.191764 0.410831 0.690795
1028 4 0.234014 0.404776 0.696631
1140 4 0.323463 0.399492 0.699713
1138 2 0.304863 0.412673 0.689442
807 4 0.409344 0.344142 0.70087
1020 4 0.400675 0.353393 0.71694
1018 2 0.411771 0.365209 0.735978
1280 4 0.0337733 0.421107 0.732206
1281 4 0.0361926 0.470799 0.73726
1279 2 0.034983 0.445953 0.734733
1983 4 0.0241133 0.484444 0.728137
893 4 0.0851627 0.431588 0.69099
940 2 0.145633 0.424828 0.725827
942 4 0.124546 0.427419 0.739011
941 4 0.166719 0.422238 0.712643
1067 4 0.16724 0.414442 0.694069
1027 2 0.251029 0.41867 0.684689
1029 4 0.268043 0.432565 0.672746
1139 4 0.286264 0.425855 0.679171
1987 2 0.317062 0.47239 0.738201
1989 4 0.328625 0.452211 0.72902
1229 4 0.343458 0.445456 0.716758
1228 2 0.368216 0.447354 0.719695
1230 4 0.392974 0.449251 0.722632
1100 4 0.49463 0.464645 0.72884
1099 2 0.48958 0.486102 0.717039
1250 4 0.454903 0.447081 0.742402
3329 4 0.473088 0.445191 0.733238
1203 4 0.0733655 0.042472 0.7404
864 4 0.0578471 0.0690963 0.808027
911 4 0.0699322 0.0843902 0.812331
1201 2 0.0891029 0.034447 0.758095
1202 4 0.10484 0.0264221 0.77579
2049 4 0.121933 0.0155225 0.771823
1147 2 0.211355 0.0715939 0.754943
1149 4 0.21875 0.0916535 0.767908
1049 4 0.270872 0.00147358 0.794484
1048 2 0.289285 0.0118008 0.807882
1256 4 0.312595 0.0675266 0.80013
1255 2 0.290404 0.0773456 0.794105
1050 4 0.307698 0.0221279 0.821279
1112 4 0.413176 0.0299217 0.777732
846 4 0.466136 0.0408766 0.810632
1113 4 0.446416 0.0360362 0.814589
844 2 0.490346 0.0470559 0.811568
1111 2 0.429796 0.0329789 0.796161
980 4 0.43267 0.996482 0.810174
862 2 0.0401303 0.0846918 0.799777
832 2 0.0172221 0.144662 0.787171
863 4 0.0224135 0.100287 0.791526
833 4 0.0187944 0.120089 0.791512
834 4 0.0156498 0.169236 0.782829
33 3 0.0795353 0.139412 0.766538
910 2 0.0932911 0.0914589 0.81777
31 1 0.0980543 0.152469 0.761541
32 3 0.117105 0.140432 0.766161
912 4 0.11665 0.0985276 0.823208
1226 4 0.210698 0.136173 0.7568
1130 4 0.22072 0.134996 0.774696
840 4 0.240463 0.13556 0.771084
1129 2 0.207543 0.15541 0.780596
838 2 0.260177 0.135678 0.786463
1257 4 0.268212 0.0871646 0.78808
839 4 0.279891 0.135796 0.801841