ITEM: TIMESTEP
3830000
ITEM: NUMBER OF ATOMS
4590
ITEM: BOX BOUNDS pp pp pp
-9.9985700000000008e+00 9.9985700000000008e+00
-9.9985700000000008e+00 9.9985700000000008e+00
-9.9985700000000008e+00 9.9985700000000008e+00
ITEM: ATOMS id type xs ys zs
1666 2 0.0498508 0.0551619 0.0735628
1668 4 0.0722541 0.0603473 0.0637455
1667 4 0.0274474 0.0499765 0.0833802
3290 4 0.0821714 0.0491588 0.049257
3289 2 0.104686 0.0396548 0.0439697
3291 4 0.1272 0.0301507 0.0386823
566 4 0.145083 0.0236459 0.0343425
565 2 0.155871 0.00201203 0.0279565
358 2 0.227801 0.162146 0.992322
359 4 0.24186 0.141471 0.992034
2723 4 0.483455 0.15248 0.0456763
2722 2 0.488698 0.12833 0.0494803
505 2 0.131149 0.229902 0.0710908
506 4 0.154186 0.22185 0.0656474
507 4 0.108112 0.237955 0.0765341
737 4 0.152268 0.206196 0.0517594
915 4 0.115799 0.247869 0.0161639
736 2 0.174158 0.200423 0.0411443
738 4 0.196048 0.194651 0.0305292
354 4 0.210088 0.201165 0.0412201
352 2 0.231206 0.198843 0.0544043
360 4 0.213742 0.18282 0.992609
461 4 0.27019 0.191018 0.0613137
460 2 0.292723 0.180834 0.0576077
353 4 0.252324 0.196522 0.0675885
462 4 0.315256 0.170651 0.0539017
2807 4 0.0465501 0.274623 0.0120459
2806 2 0.0232806 0.273793 0.0211574
294 4 0.0845458 0.302672 0.0736028
657 4 0.988855 0.25819 0.0372118
293 4 0.105035 0.257181 0.0702042
292 2 0.0947904 0.279926 0.0719035
456 4 0.0915771 0.315963 0.0608005
913 2 0.135245 0.259708 0.00582512
287 4 0.194221 0.269832 0.0357088
286 2 0.191077 0.293173 0.0441061
288 4 0.187933 0.316513 0.0525033
612 4 0.236405 0.322322 0.0594447
610 2 0.236609 0.303864 0.0763095
609 4 0.249111 0.3375 0.0585273
356 4 0.230553 0.30603 0.995973
571 2 0.32849 0.277375 0.00599167
482 4 0.283865 0.26737 0.00542076
481 2 0.265573 0.284401 0.00614403
1071 4 0.368782 0.279115 0.0158291
573 4 0.352692 0.283542 0.00479287
1095 4 0.408064 0.333142 0.0020922
741 4 0.373626 0.340355 0.0517552
1069 2 0.381873 0.259589 0.00731162
1102 2 0.16118 0.400742 0.0231555
454 2 0.102629 0.335643 0.0715573
455 4 0.113682 0.355323 0.082314
1103 4 0.147983 0.419566 0.0133227
990 4 0.205449 0.32587 0.049381
988 2 0.195939 0.348903 0.0473215
989 4 0.186428 0.371935 0.045262
1289 4 0.198512 0.430134 0.0081897
1104 4 0.174378 0.381919 0.0329882
607 2 0.245273 0.359728 0.0693139
252 4 0.255084 0.388043 0.0932346
740 4 0.33354 0.3567 0.0767895
250 2 0.269058 0.406338 0.0834762
739 2 0.353583 0.348528 0.0642723
226 2 0.384034 0.41141 0.037309
227 4 0.398766 0.393509 0.0279436
1305 4 0.411779 0.383273 0.0403438
1303 2 0.416755 0.362893 0.0267392
1304 4 0.421731 0.342514 0.0131346
1047 4 0.496547 0.34937 0.0621912
280 2 0.461769 0.334284 0.0768133
282 4 0.486122 0.339938 0.0764508
1045 2 0.497356 0.348533 0.0372147
1046 4 0.498164 0.347696 0.0122382
552 4 0.0385496 0.45901 0.0543758
314 4 0.042094 0.443107 0.0672981
550 2 0.0296423 0.48214 0.0510853
1786 2 0.161317 0.494306 0.0368733
1223 4 0.131802 0.429832 0.0179998
1619 4 0.150668 0.477507 0.0892124
1787 4 0.1755 0.474108 0.03287
1440 4 0.20998 0.428198 0.0825455
243 4 0.20871 0.423327 0.0630134
241 2 0.194065 0.439094 0.0502806
242 4 0.179421 0.45486 0.0375478
271 2 0.263927 0.494624 0.0535775
272 4 0.269499 0.482091 0.0326711
251 4 0.283031 0.424633 0.0737178
524 4 0.302827 0.430802 0.0675699
523 2 0.327085 0.429531 0.0616443
228 4 0.369303 0.429311 0.0466743
525 4 0.351343 0.42826 0.0557186
1583 4 0.495936 0.473067 0.0800242
564 4 0.497414 0.471707 0.0597801
1582 2 0.49318 0.497888 0.081254
16 1 0.000531751 0.0606994 0.113835
19 3 0.99922 0.0463074 0.131989
17 3 0.0193657 0.0556026 0.101651
1422 4 0.0065714 0.0594941 0.144984
1420 2 0.0183338 0.0453503 0.161919
2480 4 0.00552715 0.0794639 0.141298
652 2 0.246475 0.0833223 0.154295
654 4 0.259045 0.0772981 0.133537
490 2 0.289763 0.00859344 0.0966154
1475 4 0.276844 0.05292 0.090136
491 4 0.28142 0.031675 0.0918391
1474 2 0.269912 0.07197 0.104772
1661 4 0.308755 0.014663 0.141988
486 4 0.326218 0.0140343 0.131526
1476 4 0.262979 0.09102 0.119408
484 2 0.350356 0.00762634 0.130307
297 4 0.38117 0.0160677 0.142118
295 2 0.40293 0.0279142 0.145484
485 4 0.374494 0.00121843 0.129087
296 4 0.42469 0.0397607 0.148851
746 4 0.435113 0.00548074 0.131397
557 4 0.424019 0.0560723 0.159832
556 2 0.435336 0.0783364 0.158639
20 3 0.00189021 0.0822462 0.121084
450 4 0.0916857 0.159101 0.144659
448 2 0.110874 0.148769 0.156916
580 2 0.326857 0.151773 0.147009
581 4 0.308214 0.167443 0.141344
582 4 0.3455 0.136103 0.152673
758 4 0.345936 0.11702 0.147617
558 4 0.446652 0.1006 0.157446
771 4 0.462458 0.104266 0.146381
769 2 0.485964 0.11163 0.150675
476 4 0.221267 0.231521 0.166203
475 2 0.236017 0.213331 0.157443
477 4 0.250767 0.19514 0.148683
30 3 0.298393 0.181183 0.13066
26 1 0.282959 0.190695 0.144442
29 3 0.263784 0.195902 0.132458
27 3 0.29165 0.210045 0.15334
28 3 0.277772 0.176146 0.161757
628 2 0.406497 0.2439 0.140234
630 4 0.387002 0.252921 0.127438
629 4 0.425992 0.234879 0.15303
624 4 0.445114 0.237312 0.151145
338 4 0.0804865 0.268076 0.141001
337 2 0.0709375 0.275813 0.162775
279 4 0.250189 0.25601 0.145983
611 4 0.236812 0.285405 0.0931742
278 4 0.253476 0.282402 0.103635
277 2 0.251832 0.269206 0.124809
285 4 0.262068 0.266309 0.160387
255 4 0.333452 0.234617 0.147625
254 4 0.370301 0.247118 0.116215
253 2 0.351876 0.240868 0.13192
281 4 0.437415 0.328631 0.0771757
622 2 0.458716 0.25497 0.162474
623 4 0.472318 0.272628 0.173803
2787 4 0.998118 0.352125 0.0766496
619 2 0.0208554 0.361928 0.173662
620 4 0.0221077 0.374504 0.152087
646 2 0.0873553 0.389225 0.158712
537 4 0.105959 0.401187 0.128333
535 2 0.107269 0.387394 0.107519
536 4 0.108578 0.3736 0.0867057
647 4 0.10907 0.393731 0.147165
608 4 0.241436 0.381957 0.0801005
1438 2 0.211706 0.404999 0.0917117
625 2 0.212525 0.386193 0.142948
627 4 0.217878 0.377615 0.12008
1439 4 0.213433 0.3818 0.100878
626 4 0.207172 0.39477 0.165816
386 4 0.319668 0.355592 0.0913065
385 2 0.324405 0.37208 0.109496
387 4 0.329142 0.388569 0.127685
302 4 0.324045 0.406401 0.138007
12 3 0.384648 0.370912 0.127148
11 1 0.369466 0.384823 0.137402
15 3 0.349064 0.382156 0.127641
672 4 0.398484 0.369043 0.113577
13 3 0.368256 0.379315 0.15991
14 3 0.376587 0.406775 0.134991
670 2 0.416144 0.354749 0.103138
671 4 0.433804 0.340455 0.0926977
104 3 0.491635 0.341984 0.0951812
313 2 0.0252829 0.433539 0.0831416
315 4 0.00847179 0.423971 0.0989851
1618 2 0.15464 0.468831 0.112324
1620 4 0.158613 0.460156 0.135435
1431 4 0.168019 0.471998 0.147709
1574 4 0.232927 0.467682 0.163535
639 4 0.242589 0.463498 0.14601
1429 2 0.17993 0.455788 0.162559
1573 2 0.230176 0.492473 0.165276
301 2 0.307336 0.421084 0.126589
638 4 0.271923 0.432433 0.120025
637 2 0.257256 0.447966 0.133017
303 4 0.290627 0.435768 0.11517
1558 2 0.354379 0.499473 0.111498
495 4 0.389647 0.421528 0.130043
1559 4 0.367631 0.480581 0.101871
493 2 0.380718 0.443571 0.122325
494 4 0.371788 0.465614 0.114608
659 4 0.344032 0.436697 0.152162
1415 4 0.996747 0.0120056 0.237413
1416 4 0.0191551 0.0313963 0.197132
1421 4 0.0300962 0.0312066 0.178853
1414 2 0.00795116 0.0217009 0.217272
688 2 0.137585 0.0160328 0.208109
689 4 0.156028 0.0122343 0.191659
674 4 0.153529 0.0718648 0.241621
1506 4 0.215681 0.0203702 0.18806
1505 4 0.169995 0.00147518 0.180548
1504 2 0.192838 0.0109227 0.184304
653 4 0.233906 0.0893465 0.175053
693 4 0.243596 0.0821656 0.191904
691 2 0.260669 0.081353 0.210153
1701 4 0.294763 0.0908643 0.226377
22 3 0.382017 0.0564101 0.207408
698 4 0.396539 0.0566659 0.219584
697 2 0.404949 0.0332811 0.216829
699 4 0.41336 0.00989625 0.214073
333 4 0.399912 0.0746412 0.227762
21 1 0.372516 0.0769899 0.211325
23 3 0.351312 0.0738908 0.220224
1518 4 0.430633 0.0106388 0.224789
511 2 0.0236134 0.128096 0.199107
513 4 0.0393204 0.146167 0.206313
578 4 0.0572906 0.138954 0.200356
577 2 0.0656998 0.162257 0.203732
449 4 0.130062 0.138438 0.169174
236 4 0.137097 0.120098 0.164495
673 2 0.137968 0.0913491 0.23978
675 4 0.122406 0.110833 0.237939
235 2 0.160068 0.110767 0.167723
237 4 0.18304 0.101436 0.170951
692 4 0.277743 0.0805405 0.228402
1699 2 0.318012 0.0889343 0.21738
25 3 0.371107 0.0884597 0.191701
1700 4 0.341261 0.0870042 0.208384
757 2 0.348095 0.104411 0.1691
759 4 0.350254 0.0918019 0.190583
24 3 0.385795 0.088641 0.22637
349 2 0.476785 0.0964817 0.227334
331 2 0.421831 0.0856547 0.232604
350 4 0.455952 0.110098 0.229731
332 4 0.44375 0.0966683 0.237447
531 4 0.993949 0.252713 0.228064
579 4 0.074109 0.185561 0.207108
371 4 0.211465 0.24607 0.174876
370 2 0.209757 0.247455 0.199782
372 4 0.20805 0.24884 0.224689
361 2 0.17454 0.256132 0.245026
362 4 0.197277 0.261407 0.236061
756 4 0.339127 0.237172 0.167243
754 2 0.326223 0.221183 0.18149
755 4 0.313318 0.205193 0.195737
2483 4 0.00361656 0.250483 0.209711
529 2 0.00653962 0.258746 0.248807
339 4 0.0613885 0.28355 0.18455
704 4 0.0519047 0.300647 0.193225
703 2 0.0321315 0.313353 0.201756
705 4 0.0123583 0.326058 0.210286
363 4 0.151802 0.250856 0.253991
395 4 0.138463 0.257736 0.240323
284 4 0.302613 0.280236 0.186134
283 2 0.28234 0.273273 0.173261
542 4 0.420349 0.306217 0.222245
541 2 0.420981 0.323305 0.240486
528 4 0.428652 0.31246 0.206166
526 2 0.443073 0.29939 0.19047
527 4 0.457495 0.28632 0.174774
621 4 0.0196031 0.349352 0.195236
2615 4 0.00814305 0.345648 0.210021
300 4 0.0714585 0.373755 0.186002
264 4 0.00651265 0.409236 0.208436
298 2 0.0714559 0.359526 0.206561
299 4 0.0714532 0.345296 0.227121
750 4 0.0702708 0.33287 0.243358
648 4 0.0656402 0.384719 0.170259
262 2 0.015676 0.404551 0.231223
734 4 0.149856 0.388706 0.237454
733 2 0.140105 0.407723 0.250432
290 4 0.206364 0.424932 0.245249
645 4 0.383273 0.394461 0.16328
597 4 0.365468 0.391738 0.177833
345 4 0.34862 0.36553 0.226503
596 4 0.338535 0.381963 0.218818
595 2 0.352001 0.38685 0.198326
343 2 0.36026 0.357234 0.247018
643 2 0.399649 0.40935 0.174912
735 4 0.130354 0.42674 0.26341
1430 4 0.191841 0.439577 0.177409
416 4 0.187956 0.433792 0.243501
417 4 0.199234 0.434275 0.194785
415 2 0.193595 0.434033 0.219143
767 4 0.22138 0.496662 0.258634
1640 4 0.233982 0.494538 0.241341
438 4 0.270234 0.452059 0.223915
436 2 0.290673 0.457419 0.237283
660 4 0.343181 0.465207 0.193237
658 2 0.343606 0.450952 0.1727
231 4 0.351442 0.481293 0.185789
229 2 0.362303 0.50329 0.190623
644 4 0.416025 0.424239 0.186545
447 4 0.42032 0.417046 0.204541
445 2 0.419197 0.432734 0.223978
446 4 0.418075 0.448423 0.243415
233 4 0.0370425 0.022084 0.289127
232 2 0.0458685 0.0452967 0.292034
234 4 0.0546945 0.0685095 0.29494
317 4 0.0741469 0.0684341 0.298802
1403 4 0.0441638 0.00831899 0.277752
316 2 0.0839243 0.0724169 0.321468
722 4 0.169782 0.0653694 0.251349
721 2 0.171094 0.0644455 0.276301
1340 4 0.238889 0.00660433 0.303228
723 4 0.172406 0.0635215 0.301253
1405 2 0.206549 0.0357046 0.307804
1406 4 0.189044 0.0534142 0.305543
1407 4 0.224054 0.017995 0.310065
743 4 0.479154 0.00579076 0.253176
425 4 0.469489 0.0220927 0.262009
424 2 0.473641 0.0420046 0.276551
426 4 0.477793 0.0619165 0.291092
258 4 0.491799 0.0728335 0.300554
391 2 0.0674617 0.139098 0.316188
392 4 0.0715597 0.137509 0.291574
545 4 0.084535 0.127962 0.279801
546 4 0.121106 0.1293 0.24572
544 2 0.10282 0.128631 0.262761
599 4 0.197738 0.102667 0.293661
598 2 0.19156 0.100739 0.317813
404 4 0.22282 0.161385 0.301009
256 2 0.485696 0.0927117 0.314439
761 4 0.482979 0.129844 0.335739
257 4 0.479593 0.11259 0.328324
402 4 0.174684 0.244471 0.279808
403 2 0.201504 0.171701 0.292984
405 4 0.180189 0.182017 0.284959
401 4 0.172896 0.197155 0.295894
400 2 0.17379 0.220813 0.287851
717 4 0.407981 0.218972 0.333692
715 2 0.391851 0.199908 0.334939
716 4 0.375721 0.180844 0.336186
377 4 0.411777 0.220224 0.314673
763 2 0.456988 0.178271 0.301329
765 4 0.476791 0.165844 0.292464
764 4 0.437185 0.190699 0.310193
530 4 0.0191301 0.264779 0.26955
444 4 0.0388484 0.267712 0.274145
442 2 0.0593779 0.269572 0.259994
394 2 0.114066 0.256165 0.245566
443 4 0.0799074 0.271433 0.245843
396 4 0.0896684 0.254595 0.250809
376 2 0.413551 0.244941 0.311341
266 4 0.412345 0.289332 0.311871
265 2 0.40163 0.301229 0.331076
378 4 0.415324 0.269658 0.30801
263 4 0.0248394 0.399866 0.25401
366 4 0.0413803 0.344273 0.299369
749 4 0.0506683 0.330594 0.289306
364 2 0.0212981 0.352937 0.311486
748 2 0.0604695 0.331732 0.266332
289 2 0.210815 0.414779 0.267661
291 4 0.215267 0.404627 0.290073
414 4 0.234497 0.411419 0.289227
412 2 0.246622 0.41858 0.309888
727 2 0.317916 0.398832 0.323738
729 4 0.325074 0.374904 0.322549
543 4 0.421613 0.340394 0.258728
308 4 0.343317 0.365609 0.322442
307 2 0.359227 0.35793 0.304748
344 4 0.371899 0.348938 0.267533
309 4 0.375137 0.350251 0.287054
615 4 0.42171 0.357393 0.270077
2860 2 0.495677 0.420343 0.268853
614 4 0.450852 0.35747 0.310715
613 2 0.436281 0.357431 0.290396
2923 2 0.484175 0.371412 0.326767
2925 4 0.465298 0.355184 0.324423
2924 4 0.503053 0.38764 0.32911
777 4 0.0559504 0.417614 0.310385
775 2 0.0701865 0.429872 0.293885
776 4 0.0844225 0.44213 0.277385
1757 4 0.0888019 0.461259 0.284129
1756 2 0.0899007 0.48622 0.285095
602 4 0.054229 0.424952 0.328784
677 4 0.135218 0.445276 0.267589
676 2 0.157801 0.455724 0.270045
1544 4 0.182985 0.494629 0.306859
1775 4 0.162008 0.495681 0.306691
678 4 0.180384 0.466172 0.2725
768 4 0.196437 0.454991 0.270554
766 2 0.208908 0.475827 0.264594
635 4 0.188361 0.478579 0.318762
413 4 0.258746 0.425741 0.33055
728 4 0.310757 0.422759 0.324926
437 4 0.311112 0.462779 0.25065
433 2 0.313282 0.448052 0.292062
435 4 0.313855 0.453184 0.267597
434 4 0.312709 0.442921 0.316527
5 3 0.262908 0.442754 0.341047
2862 4 0.47938 0.429218 0.28561
713 4 0.460913 0.441996 0.291285
714 4 0.419942 0.438448 0.262833
120 3 0.471025 0.42942 0.306087
116 1 0.489055 0.430437 0.319961
712 2 0.440427 0.440222 0.277059
1377 4 0.980591 0.013257 0.386577
730 2 0.086458 0.0727024 0.388311
731 4 0.0868378 0.071933 0.4133
606 4 0.149461 0.0515341 0.358346
604 2 0.13612 0.0726443 0.359595
732 4 0.0860782 0.0734718 0.363323
318 4 0.0937017 0.0763998 0.344133
2428 2 0.183219 0.0271744 0.421735
2429 4 0.203892 0.0131665 0.420473
321 4 0.290899 0.0757058 0.376648
683 4 0.276962 0.0642686 0.368876
249 4 0.293681 0.00756291 0.33802
684 4 0.279128 0.0193072 0.347093
682 2 0.278045 0.0417879 0.357984
247 2 0.318254 0.00737089 0.342638
319 2 0.277905 0.084499 0.396117
633 4 0.342796 0.0223562 0.360774
631 2 0.352532 0.0371073 0.37846
632 4 0.362267 0.0518584 0.396146
468 4 0.367508 0.0693254 0.403002
1749 4 0.510276 0.0129947 0.353289
1748 4 0.463091 0.00200243 0.340901
1747 2 0.486684 0.00749855 0.347095
2585 4 0.0243442 0.119203 0.390242
2584 2 0.0366605 0.123799 0.368973
2586 4 0.0489769 0.128395 0.347704
393 4 0.0633637 0.140688 0.340803
399 4 0.0828714 0.136176 0.346197
605 4 0.122779 0.0937545 0.360844
397 2 0.100983 0.140321 0.362929
398 4 0.119095 0.144465 0.379662
600 4 0.185383 0.0988121 0.341964
685 2 0.197619 0.126128 0.366653
687 4 0.198687 0.113811 0.34492
686 4 0.196552 0.138445 0.388386
410 4 0.212265 0.143172 0.399821
409 2 0.229414 0.161349 0.400654
420 4 0.34897 0.151322 0.374033
418 2 0.365055 0.156859 0.355709
575 4 0.404236 0.157625 0.406852
466 2 0.361103 0.0924403 0.410063
576 4 0.361039 0.133084 0.412551
574 2 0.382638 0.145354 0.409701
762 4 0.440458 0.144776 0.357412
760 2 0.461718 0.13731 0.346576
514 2 0.441195 0.136571 0.417266
515 4 0.459203 0.120548 0.42391
516 4 0.423186 0.152593 0.410622
616 2 0.0292488 0.250946 0.397755
618 4 0.0488341 0.246453 0.412635
617 4 0.00966346 0.255439 0.382875
390 4 0.0995925 0.216617 0.405763
388 2 0.11871 0.200933 0.402061
276 4 0.140499 0.192671 0.37932
389 4 0.137827 0.185248 0.398359
274 2 0.163994 0.195726 0.371331
275 4 0.187489 0.198782 0.363342
473 4 0.236331 0.202111 0.345303
474 4 0.190258 0.217389 0.357327
472 2 0.213294 0.20975 0.351315
411 4 0.246562 0.179527 0.401488
650 4 0.246177 0.195908 0.414227
708 4 0.250817 0.209018 0.358033
707 4 0.299426 0.217554 0.366097
706 2 0.275121 0.213286 0.362065
497 4 0.30399 0.236071 0.372213
496 2 0.321359 0.249403 0.384286
419 4 0.38114 0.162397 0.337384
695 4 0.11272 0.299444 0.386894
694 2 0.100384 0.285861 0.403879
1260 4 0.168681 0.321115 0.394897
1258 2 0.146199 0.324553 0.384508
326 4 0.178162 0.32826 0.411245
509 4 0.255205 0.32215 0.420864
498 4 0.338727 0.262736 0.396359
2456 4 0.355522 0.256491 0.405079
2455 2 0.374941 0.248238 0.418494
267 4 0.390915 0.313127 0.350281
584 4 0.323945 0.271941 0.405815
270 4 0.488589 0.260108 0.358248
306 4 0.473306 0.263464 0.371989
304 2 0.469074 0.282671 0.387427
305 4 0.464843 0.301879 0.402865
1011 4 0.45227 0.30989 0.417372
1259 4 0.123717 0.327991 0.37412
508 2 0.253611 0.345216 0.411346
504 4 0.167324 0.383373 0.375794
510 4 0.252018 0.368282 0.401828
374 4 0.242203 0.376796 0.386738
373 2 0.260035 0.384992 0.371245
375 4 0.277867 0.393187 0.355753
3 3 0.280041 0.413133 0.356754
752 4 0.487608 0.397745 0.402928
751 2 0.489196 0.406685 0.379631
601 2 0.0491029 0.442328 0.346018
679 2 0.0412016 0.490902 0.388652
603 4 0.0439768 0.459704 0.363251
680 4 0.0529986 0.47185 0.37756
408 4 0.0186707 0.426349 0.408228
549 4 0.0855429 0.488603 0.394703
547 2 0.106738 0.477702 0.40226
1820 4 0.237658 0.492278 0.393456
1395 4 0.228155 0.489519 0.411818
502 2 0.179443 0.402126 0.36454
634 2 0.191488 0.459431 0.334535
636 4 0.194615 0.440284 0.350307
503 4 0.191562 0.420879 0.353287
2 3 0.299862 0.438753 0.337691
1 1 0.281807 0.435691 0.351611
668 4 0.290341 0.461314 0.384466
4 3 0.28511 0.448001 0.371
667 2 0.297658 0.484305 0.377905
753 4 0.490784 0.415625 0.356334
119 3 0.482064 0.429909 0.34208
368 4 0.0797043 0.0847095 0.429038
367 2 0.0656457 0.0761877 0.447877
369 4 0.051587 0.067666 0.466717
2430 4 0.162546 0.0411822 0.422996
340 2 0.150973 0.0681533 0.452331
341 4 0.149508 0.0484415 0.437018
439 2 0.228353 0.994391 0.436519
441 4 0.222566 0.00777726 0.416209
1216 2 0.376061 0.051653 0.479438
1218 4 0.390674 0.0496205 0.459252
2880 4 0.48171 0.022328 0.448698
642 4 0.475165 0.0398179 0.453356
640 2 0.479176 0.0629577 0.444775
641 4 0.483187 0.0860974 0.436193
718 2 0.015785 0.0820117 0.480819
719 4 0.0387145 0.0822212 0.47085
1152 4 0.15411 0.108249 0.469735
1150 2 0.160116 0.12309 0.488941
342 4 0.152439 0.087865 0.467643
320 4 0.264912 0.0932921 0.415586
726 4 0.278341 0.106804 0.482838
725 4 0.269134 0.0975461 0.434566
724 2 0.273737 0.102175 0.458702
432 4 0.290775 0.114341 0.496993
467 4 0.354699 0.115555 0.417125
3158 4 0.496108 0.10069 0.443771
260 4 0.0528848 0.208619 0.46968
471 4 0.0492215 0.212808 0.450973
469 2 0.067258 0.218226 0.434526
259 2 0.0642329 0.200077 0.490257
878 4 0.0712128 0.255393 0.493991
470 4 0.0852945 0.223645 0.418079
651 4 0.260715 0.242055 0.42687
649 2 0.253446 0.218982 0.420549
3426 4 0.49181 0.178113 0.49841
696 4 0.0880491 0.272277 0.420865
488 4 0.2641 0.310075 0.434662
489 4 0.257553 0.260509 0.435698
487 2 0.260826 0.285292 0.43518
585 4 0.317749 0.292242 0.451095
583 2 0.320847 0.282092 0.428455
2457 4 0.39436 0.239985 0.431909
1010 4 0.441977 0.326912 0.463253
1009 2 0.447124 0.318401 0.440313
407 4 0.0449342 0.404016 0.444453
709 2 0.152934 0.412969 0.490713
8 3 0.175674 0.378904 0.487751
325 2 0.19113 0.336092 0.431136
327 4 0.204099 0.343925 0.451027
7 3 0.192899 0.357128 0.462417
6 1 0.191387 0.362082 0.48483
10 3 0.211719 0.369048 0.49236
9 3 0.184804 0.343015 0.496299
1189 2 0.24383 0.366714 0.499156
802 2 0.296287 0.338065 0.490934
803 4 0.284873 0.359837 0.486369
1190 4 0.26515 0.364603 0.486264
335 4 0.363993 0.407867 0.448894
240 4 0.368139 0.408147 0.468964
238 2 0.379535 0.404005 0.49083
561 4 0.478491 0.395124 0.420582
2507 4 0.436885 0.341472 0.478009
559 2 0.460992 0.400402 0.437644
560 4 0.443493 0.40568 0.454706
2506 2 0.438296 0.36597 0.473209
2508 4 0.439708 0.390467 0.468408
927 4 0.484798 0.385538 0.487068
406 2 0.0318024 0.415182 0.42634
1383 4 0.0311625 0.467944 0.437836
1381 2 0.0430005 0.464091 0.45952
1382 4 0.0548385 0.460237 0.481203
540 4 0.0442079 0.449403 0.49326
710 4 0.141821 0.434079 0.483226
569 4 0.122602 0.457835 0.427335
548 4 0.127932 0.4668 0.409818
570 4 0.146811 0.447569 0.46987
568 2 0.134707 0.452702 0.448602
1393 2 0.236625 0.49511 0.434669
1446 4 0.240911 0.490871 0.473718
1394 4 0.245095 0.500702 0.45752
1400 4 0.303631 0.488133 0.459361
586 2 0.331754 0.493676 0.492126
1399 2 0.313145 0.47057 0.44432
1401 4 0.322659 0.453008 0.42928
1444 2 0.255462 0.48535 0.493288
588 4 0.31095 0.493559 0.478256
334 2 0.348202 0.42157 0.435181
336 4 0.332411 0.435272 0.421467
1154 4 0.125339 0.0822405 0.572877
1180 2 0.229082 0.0638086 0.546396
1182 4 0.207523 0.0660943 0.533941
950 4 0.196211 0.0627019 0.518063
1181 4 0.250642 0.0615228 0.558852
961 2 0.259022 0.0222241 0.569625
963 4 0.258514 0.0472014 0.570652
841 2 0.348703 0.0716943 0.530852
842 4 0.365303 0.0579152 0.518212
1217 4 0.361448 0.0536856 0.499625
1082 4 0.0731804 0.152515 0.569814
1081 2 0.0516713 0.157483 0.581556
1035 4 0.0840979 0.166589 0.559775
1032 4 0.112011 0.0947927 0.563595
951 4 0.1626 0.0968023 0.532493
1030 2 0.132946 0.103189 0.552806
1031 4 0.153881 0.111586 0.542017
1151 4 0.166121 0.137931 0.508147
949 2 0.179405 0.0797521 0.525278
939 4 0.166215 0.157118 0.514887
937 2 0.183037 0.165005 0.53162
431 4 0.317892 0.0892086 0.530664
430 2 0.304333 0.101775 0.513828
856 2 0.332249 0.152209 0.586704
843 4 0.332103 0.0854733 0.543491
898 2 0.386809 0.165563 0.578308
899 4 0.376253 0.144297 0.586151
1033 2 0.0882145 0.181278 0.539964
1034 4 0.0923311 0.195967 0.520153
261 4 0.075581 0.191534 0.510835
879 4 0.086412 0.239377 0.53886
1272 4 0.083086 0.236886 0.558764
877 2 0.0788124 0.247385 0.516425
1270 2 0.107516 0.237358 0.56407
1271 4 0.131945 0.237831 0.569375
909 4 0.142528 0.237529 0.587112
938 4 0.199858 0.172893 0.548353
858 4 0.309622 0.1625 0.589402
797 4 0.304882 0.178066 0.57817
796 2 0.307402 0.202811 0.580719
812 4 0.321013 0.244068 0.576652
900 4 0.397366 0.186828 0.570466
872 4 0.396685 0.192338 0.550995
873 4 0.367329 0.228542 0.532879
871 2 0.382007 0.21044 0.541937
813 4 0.354628 0.242941 0.539646
811 2 0.337821 0.243504 0.558149
3425 4 0.459415 0.207691 0.522418
3424 2 0.475612 0.192902 0.510414
3044 4 0.0185051 0.262589 0.566885
929 4 0.325323 0.308926 0.500652
804 4 0.307701 0.316292 0.4955
1204 2 0.392444 0.296937 0.560479
1206 4 0.374856 0.30883 0.547273
930 4 0.362173 0.316425 0.533615
928 2 0.343748 0.312675 0.517133
1205 4 0.410033 0.285045 0.573685
983 4 0.0457087 0.393032 0.551424
982 2 0.0215321 0.38854 0.555951
1041 4 0.0471639 0.40037 0.56939
1039 2 0.0621694 0.408093 0.587839
895 2 0.202982 0.394006 0.527521
896 4 0.210717 0.387453 0.504665
897 4 0.195247 0.40056 0.550377
1191 4 0.22251 0.368826 0.512048
1137 4 0.178437 0.410362 0.554883
711 4 0.164047 0.39186 0.4982
239 4 0.390932 0.399863 0.512697
1001 4 0.452075 0.389069 0.547241
926 4 0.467885 0.389261 0.533981
925 2 0.476341 0.387399 0.510525
1000 2 0.444459 0.402962 0.566584
539 4 0.0529556 0.435337 0.540444
538 2 0.0485817 0.44237 0.516852
1938 4 0.011701 0.486953 0.574988
1936 2 0.0223583 0.487401 0.552374
1937 4 0.0330156 0.487849 0.52976
1881 4 0.0253797 0.489122 0.511253
2242 2 0.151311 0.495057 0.572018
1171 2 0.237055 0.452098 0.584972
1160 4 0.19725 0.442989 0.600964
882 4 0.274128 0.472617 0.571071
880 2 0.280415 0.475234 0.547013
881 4 0.286703 0.477851 0.522955
1172 4 0.259798 0.460678 0.579111
1445 4 0.270013 0.47983 0.512858
587 4 0.352558 0.493794 0.505996
1454 4 0.343068 0.500774 0.521474
1453 2 0.357266 0.496745 0.541656
1953 4 0.355281 0.496272 0.574062
945 4 0.0229973 0.0360879 0.650335
1057 2 0.114193 0.0168278 0.63326
1155 4 0.113671 0.04499 0.604134
1059 4 0.121796 0.0348996 0.617743
1153 2 0.119505 0.0636153 0.588505
1058 4 0.10659 0.998756 0.648778
1003 2 0.32213 0.0667906 0.633994
1005 4 0.308531 0.0681567 0.613057
1142 4 0.398031 0.100318 0.61048
44 3 0.467238 0.0749791 0.627651
41 1 0.487571 0.0662831 0.620625
43 3 0.484682 0.0445646 0.612986
45 3 0.496261 0.0792595 0.60405
2282 4 0.485901 0.025903 0.608169
1083 4 0.0301622 0.16245 0.593297
1221 4 0.135312 0.130439 0.627185
1219 2 0.159703 0.133899 0.631461
1220 4 0.184094 0.137359 0.635737
1212 4 0.203327 0.14112 0.631078
1210 2 0.223327 0.145174 0.645525
1211 4 0.243328 0.149228 0.659972
1004 4 0.33573 0.0654246 0.654931
831 4 0.332431 0.0806104 0.667078
888 4 0.247491 0.129608 0.661378
887 4 0.293589 0.110391 0.658849
886 2 0.27054 0.12 0.660114
857 4 0.354877 0.141918 0.584007
1141 2 0.382557 0.104555 0.629657
1025 4 0.37695 0.113732 0.665137
1143 4 0.367082 0.108792 0.648835
1199 4 0.0184421 0.171967 0.606314
3045 4 0.0445635 0.24945 0.607493
907 2 0.164686 0.237381 0.598694
947 4 0.181846 0.253147 0.622358
798 4 0.309923 0.227557 0.583267
1239 4 0.289924 0.245135 0.631377
906 4 0.480876 0.2324 0.652854
904 2 0.464403 0.239442 0.635413
905 4 0.447929 0.246485 0.617971
3043 2 0.0315343 0.256019 0.587189
893 4 0.124698 0.314341 0.639583
892 2 0.104495 0.3284 0.643982
908 4 0.186845 0.237232 0.610277
946 2 0.196798 0.266944 0.636891
948 4 0.211751 0.280742 0.651424
1237 2 0.30975 0.253097 0.618389
1238 4 0.329577 0.26106 0.605401
791 4 0.364199 0.304391 0.645103
954 4 0.423154 0.287118 0.588104
792 4 0.344695 0.2683 0.616507
790 2 0.354447 0.286346 0.630805
953 4 0.429236 0.252366 0.623545
952 2 0.426195 0.269742 0.605825
1281 4 0.0876749 0.359198 0.659127
1040 4 0.0771749 0.415816 0.606288
894 4 0.0842917 0.342459 0.648382
991 2 0.117703 0.408289 0.60902
992 4 0.139778 0.39744 0.604527
993 4 0.0956285 0.419139 0.613513
1136 4 0.159245 0.399183 0.599687
1135 2 0.168841 0.404773 0.577285
1027 2 0.245029 0.403441 0.661914
1028 4 0.232442 0.38486 0.650892
1068 4 0.232458 0.36482 0.658461
1066 2 0.208607 0.357832 0.661201
1002 4 0.436843 0.416856 0.585926
3114 4 0.493066 0.329757 0.641684
936 4 0.014668 0.497456 0.591957
2022 4 0.0113667 0.498338 0.645631
2243 4 0.16419 0.483612 0.590138
1161 4 0.169856 0.483968 0.609393
1173 4 0.214313 0.443518 0.590833
1159 2 0.183553 0.463478 0.605178
1029 4 0.257616 0.422022 0.672936
889 2 0.374828 0.493172 0.651773
1952 4 0.34527 0.49733 0.623045
1951 2 0.350276 0.496801 0.598553
1910 4 0.440176 0.425935 0.602814
1909 2 0.447483 0.436415 0.624308
1911 4 0.45479 0.446895 0.645801
1267 2 0.421027 0.4677 0.66713
1268 4 0.437523 0.453607 0.654703
1185 4 0.00451429 0.0315152 0.657187
943 2 0.0364535 0.0399367 0.671055
944 4 0.0499096 0.0437855 0.691774
1075 2 0.0703974 0.0646552 0.709707
1076 4 0.0541806 0.063081 0.69074
1077 4 0.0866142 0.0662295 0.728673
1282 2 0.155426 0.0772525 0.754551
1283 4 0.148312 0.056477 0.742595
2400 4 0.322809 0.0116271 0.711095
1106 4 0.0677998 0.167217 0.749474
32 3 0.112189 0.151767 0.728703
31 1 0.0978692 0.160475 0.74446
1129 2 0.147711 0.130937 0.735305
1131 4 0.12364 0.136756 0.731851
1130 4 0.171781 0.125118 0.738759
829 2 0.329883 0.0788507 0.691889
830 4 0.327336 0.0770911 0.7167
1024 2 0.394063 0.127029 0.677607
1026 4 0.411176 0.140327 0.690077
35 3 0.0801838 0.170237 0.733943
1107 4 0.0223156 0.18799 0.748846
1105 2 0.0450577 0.177603 0.74916
3188 4 0.0314592 0.242454 0.750105
851 4 0.0153143 0.180323 0.731953
850 2 0.00318047 0.199495 0.721445
822 4 0.128905 0.233162 0.69709
1278 4 0.138462 0.221071 0.710522
1276 2 0.130615 0.204489 0.727512
1277 4 0.122769 0.187907 0.744502
977 4 0.309469 0.202394 0.727597
918 4 0.293373 0.205493 0.716263
976 2 0.30551 0.190511 0.749237
916 2 0.294239 0.229183 0.708314
1207 2 0.0527362 0.257765 0.729272
1209 4 0.0314722 0.260392 0.742161
1243 2 0.0202676 0.318833 0.715234
1244 4 0.0285291 0.339888 0.725893
1245 4 0.012006 0.297778 0.704575
1208 4 0.0740002 0.255138 0.716383
1179 4 0.00334688 0.281453 0.692894
1177 2 0.00225788 0.258217 0.702064
820 2 0.108324 0.247108 0.699753
821 4 0.0877423 0.261054 0.702417
1065 4 0.215073 0.274302 0.67185
1240 2 0.234682 0.30709 0.747463
1063 2 0.238046 0.282971 0.67657
1242 4 0.229671 0.29271 0.727632
917 4 0.295105 0.252874 0.700365
1241 4 0.239694 0.321471 0.767294
1064 4 0.261019 0.29164 0.681291
1098 4 0.276812 0.295766 0.669854
1096 2 0.292309 0.278383 0.678956
1097 4 0.307807 0.261 0.688058
3121 2 0.496266 0.28802 0.691985
3123 4 0.495997 0.305662 0.709702
3122 4 0.496534 0.270378 0.674269
1279 2 0.075883 0.372371 0.676808
3275 4 0.0590552 0.385628 0.713997
1280 4 0.0640911 0.385543 0.694489
3274 2 0.0705455 0.388786 0.735978
3276 4 0.0820358 0.391943 0.757959
942 4 0.155062 0.362195 0.726876
940 2 0.163342 0.359428 0.703446
941 4 0.171622 0.356662 0.680016
1067 4 0.184756 0.350845 0.66394
1228 2 0.310461 0.394105 0.72225
1229 4 0.30764 0.399216 0.697938
1981 2 0.0253431 0.505913 0.730509
2020 2 0.00667012 0.496055 0.670083
1139 4 0.275829 0.420396 0.666457
1138 2 0.289307 0.435246 0.68139
1140 4 0.302785 0.450097 0.696323
1989 4 0.308594 0.442512 0.715433
1987 2 0.311483 0.455352 0.736693
890 4 0.395072 0.483848 0.663106
1269 4 0.404531 0.481793 0.679557
1100 4 0.444776 0.489462 0.731367
864 4 0.0604028 0.0622446 0.822009
911 4 0.0746183 0.0711973 0.832849
1203 4 0.0958017 0.0713607 0.746699
2047 2 0.151949 0.023738 0.758163
1201 2 0.101048 0.0517386 0.76128
2049 4 0.137038 0.0420646 0.749979
1202 4 0.106295 0.0321166 0.775862
1148 4 0.166968 0.0381777 0.801891
2048 4 0.16686 0.00541137 0.766348
1147 2 0.178448 0.0482983 0.821664
1050 4 0.228596 0.0746095 0.823162
874 2 0.258792 0.0027695 0.837096
818 4 0.359546 0.0780179 0.817787
1113 4 0.45832 0.0110995 0.778774
846 4 0.463989 0.0226738 0.763931
844 2 0.484664 0.0343308 0.771794
862 2 0.0552446 0.0787629 0.803961
863 4 0.0500864 0.0952811 0.785914
832 2 0.062177 0.131483 0.775274
833 4 0.0533406 0.114428 0.791281
834 4 0.0710133 0.148538 0.759267
33 3 0.0904321 0.143283 0.758153
1227 4 0.166468 0.117919 0.758418
1284 4 0.16254 0.098028 0.766507
1225 2 0.181153 0.123596 0.777842
1226 4 0.195838 0.129272 0.797267
840 4 0.212601 0.122208 0.806271
838 2 0.233559 0.135812 0.807193
839 4 0.254517 0.149417 0.808114
819 4 0.318174 0.10518 0.824947
1085 4 0.306311 0.117045 0.814689
1084 2 0.309964 0.141776 0.814245
817 2 0.33886 0.0915987 0.821367
964 2 0.395716 0.0893657 0.832189