ITEM: TIMESTEP
2040000
ITEM: NUMBER OF ATOMS
4590
ITEM: BOX BOUNDS pp pp pp
-9.9985700000000008e+00 9.9985700000000008e+00
-9.9985700000000008e+00 9.9985700000000008e+00
-9.9985700000000008e+00 9.9985700000000008e+00
ITEM: ATOMS id type xs ys zs
1668 4 0.058616 0.0431959 0.0517781
1666 2 0.0532889 0.0246725 0.0677055
3290 4 0.0843413 0.0271316 0.00761372
1667 4 0.0479619 0.00614909 0.083633
464 4 0.0724403 0.0441132 0.00794782
463 2 0.0743035 0.0681346 0.00126359
566 4 0.166562 0.0314613 0.0267064
565 2 0.176792 0.0505262 0.0392389
567 4 0.187021 0.0695911 0.0517714
492 4 0.272192 0.024016 0.0596541
1475 4 0.270291 0.0196795 0.0784577
490 2 0.278696 0.0270584 0.0357037
491 4 0.285199 0.0301007 0.0117533
986 4 0.30288 0.0370035 0.00604888
985 2 0.320679 0.0242035 0.994027
2143 2 0.367908 0.998215 0.00732686
745 2 0.467771 0.0492445 0.0380919
747 4 0.488825 0.0565298 0.0494425
2722 2 0.492694 0.0651012 0.0848213
746 4 0.446717 0.0419593 0.0267414
700 2 0.0573314 0.129525 0.00471966
702 4 0.0452817 0.148472 0.0157196
465 4 0.0761668 0.092156 0.994579
358 2 0.225651 0.164752 0.0202404
359 4 0.246454 0.151102 0.0227052
665 4 0.356023 0.16192 0.0111951
555 4 0.0539708 0.166726 0.0161668
553 2 0.043906 0.188715 0.00981483
836 4 0.056629 0.234399 0.007265
554 4 0.0338413 0.210705 0.00346291
422 4 0.104311 0.187168 0.0408528
421 2 0.110627 0.181247 0.0173961
360 4 0.204847 0.178402 0.0177757
737 4 0.207649 0.227832 0.0533924
736 2 0.222121 0.209325 0.0619488
738 4 0.236593 0.190817 0.0705053
506 4 0.220736 0.243141 0.0512339
354 4 0.23233 0.176115 0.0822118
664 2 0.349524 0.184354 0.00227037
1069 2 0.377281 0.232482 0.00850483
254 4 0.38754 0.250262 0.0768358
1070 4 0.385917 0.209153 0.011029
2807 4 0.00888759 0.277489 0.0233481
294 4 0.141504 0.322764 0.0615174
456 4 0.128458 0.326125 0.0448643
292 2 0.163799 0.312048 0.0578753
507 4 0.203771 0.290177 0.0505037
293 4 0.186094 0.301331 0.0542332
505 2 0.212253 0.266659 0.0508688
481 2 0.303294 0.281389 0.00738646
482 4 0.313657 0.299369 0.0213327
1071 4 0.368646 0.255811 0.00598071
573 4 0.356999 0.271997 0.00423816
571 2 0.361427 0.288469 0.0225199
572 4 0.365854 0.304942 0.0408016
741 4 0.363468 0.305053 0.0884039
323 4 0.445014 0.254858 0.0738616
324 4 0.469335 0.282037 0.0396486
322 2 0.457175 0.268448 0.0567551
1047 4 0.488767 0.326059 0.0338627
315 4 0.0507656 0.39334 0.0730202
454 2 0.118109 0.347961 0.0512888
455 4 0.107759 0.369797 0.0577133
608 4 0.243148 0.384415 0.0639491
607 2 0.240001 0.363072 0.0765874
252 4 0.253857 0.375151 0.0492837
250 2 0.272298 0.390591 0.0424502
251 4 0.290739 0.406031 0.0356167
226 2 0.401471 0.387563 0.0240518
228 4 0.386562 0.394089 0.0430338
670 2 0.404262 0.356987 0.0695662
227 4 0.41638 0.381037 0.00506987
671 4 0.411027 0.339993 0.0525192
281 4 0.43108 0.342675 0.0532672
280 2 0.455807 0.339302 0.0517203
282 4 0.480534 0.335929 0.0501734
104 3 0.49072 0.34567 0.0649361
1045 2 0.493219 0.332966 0.010248
313 2 0.0424836 0.416453 0.0682912
552 4 0.0168967 0.449432 0.0579775
314 4 0.0342015 0.439566 0.0635621
550 2 0.000524331 0.453286 0.0394769
244 2 0.23774 0.473228 0.00928581
243 4 0.224799 0.491555 0.0582288
245 4 0.221453 0.455394 0.0157585
1440 4 0.239388 0.482192 0.0696115
272 4 0.250845 0.495765 0.0804954
524 4 0.303608 0.421634 0.0391392
523 2 0.323703 0.429711 0.051634
246 4 0.254027 0.491061 0.00281314
37 3 0.345997 0.47564 0.0127591
525 4 0.343798 0.437788 0.0641288
16 1 0.0501994 0.00466186 0.122631
1422 4 0.0203372 0.0161592 0.152706
2480 4 0.012076 0.0177414 0.131189
18 3 0.0674858 0.0201051 0.121587
19 3 0.03263 0.0132691 0.135106
17 3 0.0427641 0.000369915 0.101289
2479 2 0.0079495 0.038314 0.117591
2481 4 0.00382305 0.0588867 0.103993
652 2 0.235275 0.0558734 0.148488
654 4 0.239896 0.0492173 0.124834
1474 2 0.277821 0.0276232 0.100938
1476 4 0.285351 0.0355669 0.123419
296 4 0.395805 0.0557912 0.0937207
297 4 0.367252 0.015454 0.0860801
295 2 0.381528 0.0356226 0.0899004
485 4 0.362337 0.00372428 0.101721
557 4 0.400423 0.0750296 0.0913783
1760 4 0.49115 0.0138503 0.157061
2723 4 0.485625 0.0791122 0.104287
235 2 0.137422 0.163422 0.150772
236 4 0.143996 0.147005 0.168448
556 2 0.408548 0.0981894 0.0961528
558 4 0.416672 0.121349 0.100927
771 4 0.428736 0.138433 0.101022
769 2 0.444304 0.135017 0.120287
770 4 0.459872 0.131602 0.139553
338 4 0.0305958 0.246316 0.139586
237 4 0.130849 0.17984 0.133096
476 4 0.190671 0.183169 0.143885
477 4 0.226335 0.216411 0.132761
475 2 0.208503 0.19979 0.138323
352 2 0.249348 0.179244 0.100261
353 4 0.266365 0.182374 0.118311
461 4 0.28192 0.193437 0.124194
460 2 0.301735 0.198337 0.109753
462 4 0.32155 0.203237 0.0953124
279 4 0.264831 0.244518 0.156135
630 4 0.392381 0.239183 0.0928982
628 2 0.406265 0.234646 0.113192
624 4 0.428218 0.230585 0.152151
629 4 0.420148 0.230108 0.133486
622 2 0.441761 0.247023 0.165249
337 2 0.0485144 0.262512 0.146049
339 4 0.0664331 0.278709 0.152512
395 4 0.0777373 0.292593 0.161689
612 4 0.250517 0.331697 0.100909
610 2 0.251356 0.306734 0.102065
611 4 0.252196 0.281772 0.103221
755 4 0.285334 0.271252 0.107959
278 4 0.265905 0.27263 0.114792
277 2 0.265368 0.258574 0.135463
754 2 0.309937 0.268457 0.104481
756 4 0.334539 0.265662 0.101002
740 4 0.319515 0.328013 0.094862
255 4 0.346918 0.277193 0.0880316
739 2 0.341492 0.316533 0.091633
253 2 0.367229 0.263727 0.0824337
596 4 0.364775 0.319252 0.169241
527 4 0.452439 0.280058 0.165963
619 2 0.0711524 0.385388 0.105994
621 4 0.0509613 0.393254 0.0935194
647 4 0.0838659 0.37485 0.14646
620 4 0.0913435 0.377521 0.118469
537 4 0.107391 0.389098 0.121358
535 2 0.126955 0.37363 0.119577
536 4 0.146518 0.358162 0.117797
609 4 0.236855 0.341728 0.0892258
386 4 0.326356 0.344479 0.104815
385 2 0.333658 0.368235 0.107548
387 4 0.340961 0.391992 0.110281
302 4 0.341572 0.405443 0.127971
12 3 0.384332 0.375196 0.101768
11 1 0.381354 0.387566 0.120933
15 3 0.359079 0.390847 0.124357
672 4 0.397497 0.373982 0.0866133
14 3 0.392071 0.407992 0.118419
13 3 0.390493 0.375976 0.138837
597 4 0.385511 0.363394 0.158186
301 2 0.34289 0.419712 0.148461
645 4 0.378741 0.385109 0.154925
595 2 0.375143 0.341323 0.163713
626 4 0.17562 0.446232 0.1223
1438 2 0.2385 0.468878 0.0907566
625 2 0.200466 0.448201 0.124291
1439 4 0.237612 0.455564 0.111902
638 4 0.229064 0.447699 0.157159
637 2 0.242795 0.468525 0.158863
627 4 0.225313 0.450169 0.126281
639 4 0.256527 0.489351 0.160567
495 4 0.40028 0.425401 0.123545
1559 4 0.343726 0.495737 0.102246
493 2 0.414447 0.434279 0.104953
494 4 0.428614 0.443157 0.086361
1583 4 0.495064 0.479274 0.114115
1582 2 0.477897 0.491951 0.101086
1420 2 0.0138599 0.00121739 0.171679
450 4 0.139334 0.0828574 0.161559
689 4 0.193327 0.00763717 0.195279
690 4 0.175642 0.017367 0.241032
688 2 0.184484 0.0125021 0.218156
653 4 0.230653 0.0625296 0.172142
693 4 0.24459 0.0612755 0.185733
691 2 0.265896 0.0512117 0.194097
692 4 0.287202 0.0411479 0.20246
1699 2 0.308612 0.0585247 0.230156
1701 4 0.288874 0.0460139 0.221263
1700 4 0.32835 0.0710355 0.239048
21 1 0.363803 0.0722894 0.225904
25 3 0.374537 0.0763787 0.206239
23 3 0.340889 0.0745539 0.223037
22 3 0.368359 0.0507883 0.232694
698 4 0.379291 0.0556016 0.249392
333 4 0.386141 0.0738736 0.247411
511 2 0.0100695 0.122087 0.223477
578 4 0.0377734 0.149058 0.230439
513 4 0.0259213 0.134033 0.238683
318 4 0.0607521 0.0914702 0.240804
449 4 0.145467 0.129983 0.177124
448 2 0.142401 0.10642 0.169341
28 3 0.241908 0.154153 0.19032
27 3 0.221701 0.137314 0.217167
26 1 0.242558 0.138632 0.207556
580 2 0.28514 0.111671 0.177668
581 4 0.26169 0.113197 0.186211
30 3 0.248357 0.118181 0.199383
582 4 0.308589 0.110145 0.169125
29 3 0.257837 0.145336 0.223681
758 4 0.328076 0.113 0.173918
24 3 0.371243 0.087037 0.2422
759 4 0.366584 0.0850588 0.189318
757 2 0.34733 0.0990291 0.181618
312 4 0.419796 0.134352 0.205059
311 4 0.466066 0.151731 0.21266
310 2 0.442931 0.143041 0.208859
521 4 0.473897 0.161484 0.232385
577 2 0.0401224 0.17355 0.225984
529 2 0.0130438 0.224939 0.228507
530 4 0.0351709 0.215986 0.221064
579 4 0.0424713 0.198041 0.22153
372 4 0.145784 0.235337 0.196576
362 4 0.133032 0.244284 0.184379
370 2 0.167784 0.223455 0.196635
371 4 0.189784 0.211573 0.196694
284 4 0.27602 0.23555 0.224162
283 2 0.27347 0.239603 0.199621
285 4 0.27092 0.243655 0.175081
764 4 0.465075 0.172777 0.248898
396 4 0.0621494 0.301509 0.208361
443 4 0.0631944 0.311929 0.226148
394 2 0.0699434 0.297051 0.185025
442 2 0.054692 0.303742 0.24819
704 4 0.0139201 0.311145 0.17041
703 2 0.00900269 0.33096 0.184844
363 4 0.0965819 0.278519 0.18457
361 2 0.114807 0.261402 0.184475
623 4 0.455304 0.263462 0.178347
526 2 0.460444 0.299799 0.179054
528 4 0.46845 0.319539 0.192146
264 4 0.0238671 0.420618 0.183654
705 4 0.00408524 0.350776 0.199278
646 2 0.0926455 0.371554 0.169638
648 4 0.101425 0.368257 0.192817
300 4 0.091926 0.349512 0.194643
298 2 0.099267 0.347199 0.218432
299 4 0.106608 0.344886 0.242222
345 4 0.257095 0.348369 0.231896
343 2 0.275777 0.340174 0.246354
643 2 0.39096 0.393419 0.175095
644 4 0.403178 0.401728 0.195266
447 4 0.405088 0.389461 0.210048
445 2 0.415266 0.406698 0.225031
2861 4 0.491209 0.414432 0.226602
262 2 0.0351667 0.428002 0.204701
263 4 0.0464664 0.435386 0.225748
1430 4 0.167039 0.494642 0.173358
289 2 0.236536 0.439574 0.231842
417 4 0.170336 0.480571 0.186202
290 4 0.225432 0.444874 0.210075
416 4 0.208158 0.455893 0.207679
415 2 0.189247 0.468232 0.19694
768 4 0.187564 0.463127 0.242911
659 4 0.32757 0.445956 0.171612
303 4 0.344208 0.433982 0.16895
658 2 0.338524 0.464589 0.184182
660 4 0.349478 0.483221 0.196752
231 4 0.360135 0.48623 0.213752
446 4 0.425444 0.423934 0.240014
2860 2 0.485552 0.420284 0.250244
232 2 0.0377599 0.0316472 0.294437
234 4 0.0439288 0.0553554 0.299441
317 4 0.0467125 0.0665826 0.281843
233 4 0.0315909 0.00793904 0.289432
316 2 0.0537323 0.0790264 0.261323
674 4 0.162274 0.0232591 0.254183
673 2 0.144041 0.040363 0.25374
675 4 0.125808 0.0574669 0.253297
722 4 0.187216 0.0937625 0.273217
1518 4 0.364322 0.0153943 0.302038
697 2 0.373253 0.0375022 0.265552
699 4 0.367214 0.0194028 0.281711
331 2 0.409074 0.0773967 0.25673
743 4 0.492176 0.0236812 0.258501
742 2 0.485765 0.00271826 0.270527
351 4 0.489642 0.0431518 0.25678
349 2 0.469146 0.0566238 0.261638
350 4 0.44865 0.0700957 0.266495
332 4 0.432007 0.0809198 0.26605
391 2 0.143314 0.145698 0.31862
392 4 0.160452 0.154871 0.302894
546 4 0.164393 0.123695 0.250613
545 4 0.170486 0.158473 0.286025
544 2 0.167439 0.141084 0.268319
723 4 0.233129 0.0786656 0.260379
721 2 0.210172 0.0862141 0.266798
599 4 0.214176 0.131199 0.309169
404 4 0.222698 0.140805 0.293888
598 2 0.196945 0.138659 0.325681
403 2 0.229508 0.154716 0.274259
405 4 0.236319 0.168627 0.25463
762 4 0.428356 0.109661 0.292911
761 4 0.472417 0.132389 0.299448
760 2 0.450386 0.121025 0.29618
401 4 0.249614 0.183523 0.256805
402 4 0.225516 0.227257 0.254111
400 2 0.237565 0.20539 0.255458
765 4 0.42879 0.197647 0.27268
763 2 0.446933 0.185212 0.260789
444 4 0.0461897 0.295555 0.270232
309 4 0.296661 0.322085 0.277366
307 2 0.300747 0.333588 0.299187
498 4 0.31716 0.278565 0.332008
496 2 0.334107 0.286148 0.315261
497 4 0.351055 0.293731 0.298514
613 2 0.401709 0.321467 0.319519
541 2 0.448138 0.290664 0.300031
542 4 0.472494 0.285603 0.297508
615 4 0.414027 0.313042 0.299457
543 4 0.423783 0.295726 0.302554
749 4 0.0591984 0.350354 0.293023
365 4 0.00951967 0.334336 0.327152
364 2 0.0241967 0.341266 0.308133
366 4 0.0388737 0.348196 0.289113
748 2 0.0790978 0.347323 0.27819
735 4 0.152536 0.354082 0.301374
734 4 0.119133 0.336821 0.268404
750 4 0.0989972 0.344292 0.263357
733 2 0.135835 0.345451 0.284889
602 4 0.113838 0.406036 0.316792
777 4 0.126177 0.398746 0.301064
676 2 0.166839 0.371454 0.322833
677 4 0.162177 0.347543 0.3172
413 4 0.242528 0.410638 0.305557
412 2 0.238607 0.415345 0.281316
344 4 0.294459 0.331979 0.260811
727 2 0.321471 0.381623 0.31988
728 4 0.323047 0.405714 0.313374
308 4 0.304834 0.345092 0.321008
729 4 0.319895 0.357533 0.326387
3 3 0.282955 0.416147 0.32817
2924 4 0.493443 0.384534 0.311733
118 3 0.502445 0.402759 0.3017
2537 4 0.4929 0.380195 0.291223
1757 4 0.127968 0.454018 0.289569
776 4 0.113913 0.442532 0.280254
775 2 0.120045 0.420639 0.290659
1756 2 0.130843 0.478138 0.283642
766 2 0.180612 0.483958 0.254866
414 4 0.234685 0.420052 0.257074
291 4 0.247641 0.434273 0.253608
1436 4 0.246918 0.485333 0.328955
2 3 0.318391 0.42666 0.321353
1435 2 0.25496 0.470178 0.310767
438 4 0.311578 0.449711 0.252989
437 4 0.28318 0.45502 0.293806
436 2 0.297379 0.452365 0.273397
1437 4 0.263002 0.455022 0.292579
5 3 0.290361 0.449992 0.313427
1 1 0.297663 0.434093 0.328006
434 4 0.334207 0.424884 0.306176
433 2 0.353181 0.440806 0.309584
435 4 0.372156 0.456729 0.312992
119 3 0.477289 0.422813 0.321934
2862 4 0.479894 0.426135 0.273885
120 3 0.489422 0.435592 0.28866
714 4 0.429191 0.432984 0.257217
713 4 0.435602 0.421723 0.305516
712 2 0.432396 0.427353 0.281366
116 1 0.495338 0.424097 0.307409
429 4 0.0741179 0.999261 0.352623
428 4 0.0424549 0.0253032 0.381259
427 2 0.0582864 0.0122822 0.366941
606 4 0.142628 0.00312283 0.378464
730 2 0.10591 0.0761989 0.408908
604 2 0.152147 0.0261693 0.376608
605 4 0.161665 0.0492158 0.374752
683 4 0.225359 0.0433871 0.382122
682 2 0.242484 0.0460673 0.364101
684 4 0.259608 0.0487475 0.346081
249 4 0.335489 0.061096 0.373572
247 2 0.344575 0.0825931 0.3646
424 2 0.442461 0.0410693 0.370033
426 4 0.443127 0.0660395 0.371141
425 4 0.441796 0.0160992 0.368925
393 4 0.126175 0.136525 0.334346
399 4 0.120897 0.139165 0.353465
732 4 0.113844 0.0959043 0.395719
398 4 0.122344 0.095436 0.37768
397 2 0.12162 0.117301 0.365573
321 4 0.233117 0.079512 0.388226
686 4 0.206857 0.131369 0.39973
600 4 0.179715 0.146118 0.342193
685 2 0.191953 0.135469 0.380077
687 4 0.177049 0.139569 0.360424
319 2 0.237266 0.0876126 0.411514
410 4 0.225204 0.124805 0.402858
409 2 0.239136 0.145256 0.406441
707 4 0.271769 0.166805 0.360598
248 4 0.353661 0.10409 0.355628
633 4 0.373928 0.100445 0.358901
632 4 0.395259 0.145213 0.365341
631 2 0.384594 0.122829 0.362121
420 4 0.391624 0.161143 0.377372
468 4 0.362723 0.0932605 0.396333
257 4 0.486259 0.0961296 0.329597
258 4 0.448318 0.0789916 0.357301
256 2 0.467288 0.0875606 0.343449
2654 4 0.00209806 0.242252 0.386235
390 4 0.0763248 0.238389 0.369137
274 2 0.157891 0.228013 0.361029
388 2 0.101268 0.239796 0.368126
389 4 0.126212 0.241202 0.367114
276 4 0.133888 0.222443 0.365273
473 4 0.231059 0.199226 0.334094
275 4 0.181894 0.233584 0.356785
474 4 0.189481 0.226399 0.339895
472 2 0.21027 0.212812 0.336994
708 4 0.228618 0.190506 0.351827
489 4 0.22521 0.243838 0.396409
651 4 0.236964 0.229937 0.405657
706 2 0.250193 0.178655 0.356212
411 4 0.253067 0.165708 0.410024
649 2 0.245887 0.207131 0.4107
418 2 0.372122 0.175245 0.384154
419 4 0.35262 0.189347 0.390936
716 4 0.351467 0.204145 0.378051
715 2 0.344428 0.228062 0.379954
515 4 0.445993 0.190138 0.380035
514 2 0.448467 0.173778 0.398781
270 4 0.490623 0.25245 0.388571
617 4 0.0558229 0.262746 0.419954
618 4 0.0159074 0.2565 0.390485
616 2 0.0358652 0.259623 0.40522
487 2 0.236379 0.263877 0.386464
377 4 0.318018 0.258808 0.384114
488 4 0.247547 0.283916 0.376519
508 2 0.262732 0.313621 0.352898
509 4 0.258448 0.289934 0.359663
376 2 0.31706 0.275099 0.36517
378 4 0.316101 0.29139 0.346227
614 4 0.389392 0.329892 0.339581
717 4 0.337389 0.251979 0.381857
267 4 0.35294 0.323769 0.343148
265 2 0.36013 0.311402 0.363655
266 4 0.367321 0.299036 0.384162
585 4 0.363813 0.281643 0.392043
583 2 0.383939 0.278852 0.406615
2456 4 0.421987 0.276498 0.41321
269 4 0.460726 0.262561 0.349781
268 2 0.475674 0.257506 0.369176
547 2 0.0769006 0.40223 0.384299
548 4 0.0607262 0.419478 0.392427
549 4 0.093075 0.384982 0.376171
601 2 0.110998 0.396128 0.339572
603 4 0.108158 0.38622 0.362352
709 2 0.14328 0.394718 0.419291
678 4 0.171501 0.395365 0.328465
502 2 0.19084 0.401096 0.363769
504 4 0.203573 0.390241 0.345189
373 2 0.233379 0.362579 0.336203
375 4 0.212997 0.377055 0.336648
374 4 0.253761 0.348103 0.335758
503 4 0.178107 0.41195 0.38235
510 4 0.267017 0.337308 0.346133
336 4 0.336692 0.405421 0.40264
679 2 0.00493376 0.490756 0.413309
407 4 0.061352 0.436379 0.38206
406 2 0.0530687 0.459795 0.384937
408 4 0.0447853 0.48321 0.387814
710 4 0.134885 0.416353 0.409982
570 4 0.142669 0.433735 0.405733
568 2 0.124653 0.449753 0.412369
1543 2 0.220133 0.490955 0.360582
1545 4 0.23922 0.48274 0.346676
636 4 0.19026 0.418289 0.39814
634 2 0.184267 0.44065 0.407587
668 4 0.306776 0.441248 0.367484
4 3 0.299409 0.443099 0.349319
667 2 0.322015 0.433191 0.385596
669 4 0.337254 0.425134 0.403708
561 4 0.494368 0.439458 0.403965
753 4 0.481138 0.430289 0.341023
751 2 0.491603 0.433609 0.363487
718 2 0.0374027 0.0414467 0.491575
719 4 0.0568284 0.0380068 0.476213
369 4 0.0485901 0.041662 0.457682
367 2 0.0715974 0.0456906 0.448759
731 4 0.0979763 0.0564936 0.422096
368 4 0.0946047 0.0497193 0.439837
439 2 0.223639 0.00356779 0.450001
2430 4 0.19149 0.0736909 0.458502
2428 2 0.199306 0.0540035 0.445217
2429 4 0.207123 0.0343161 0.431932
441 4 0.216249 0.0274323 0.448975
950 4 0.240989 0.050547 0.502007
430 2 0.312981 0.0768469 0.498338
432 4 0.289374 0.0824949 0.492338
725 4 0.255823 0.0816798 0.434225
843 4 0.346202 0.0582607 0.492374
841 2 0.370509 0.0626538 0.496253
2879 4 0.428904 0.0546696 0.426301
2878 2 0.448398 0.0574141 0.441717
2880 4 0.467891 0.0601585 0.457133
642 4 0.476907 0.0716975 0.471423
2584 2 0.00658139 0.0884224 0.446911
2586 4 0.0207271 0.108883 0.449451
341 4 0.207921 0.0849369 0.455104
340 2 0.202416 0.109267 0.453387
1152 4 0.184156 0.136732 0.46617
342 4 0.196912 0.133596 0.451669
1150 2 0.172736 0.13776 0.48839
320 4 0.241415 0.0957132 0.434802
726 4 0.274823 0.086818 0.480196
724 2 0.265323 0.0842489 0.457211
466 2 0.364489 0.0962991 0.421088
467 4 0.366255 0.0993377 0.445844
516 4 0.45094 0.157417 0.417526
576 4 0.432656 0.121451 0.458176
640 2 0.490732 0.0925108 0.470498
574 2 0.436973 0.142756 0.445822
469 2 0.0668489 0.212342 0.448445
470 4 0.0504302 0.229909 0.455301
471 4 0.0832676 0.194775 0.441589
260 4 0.0968459 0.185185 0.451604
259 2 0.103608 0.177966 0.474568
261 4 0.11037 0.170748 0.497532
650 4 0.254811 0.184325 0.415744
575 4 0.441291 0.164061 0.433467
2812 2 0.00798087 0.328303 0.497458
695 4 0.107941 0.280021 0.429083
694 2 0.130847 0.289908 0.427421
696 4 0.153752 0.299794 0.425758
1260 4 0.17151 0.306282 0.434792
1258 2 0.187481 0.314577 0.45215
1259 4 0.203452 0.322871 0.469508
584 4 0.404064 0.276061 0.421188
2455 2 0.440111 0.263712 0.424752
2457 4 0.458235 0.250925 0.436293
326 4 0.0629403 0.389927 0.456301
10 3 0.140734 0.338555 0.456908
325 2 0.0824847 0.374367 0.457345
7 3 0.119353 0.36838 0.463708
327 4 0.102029 0.358807 0.458388
6 1 0.140926 0.360404 0.46333
8 3 0.153308 0.372976 0.448263
9 3 0.150007 0.362326 0.484596
711 4 0.151675 0.373084 0.4286
334 2 0.350485 0.398794 0.422414
335 4 0.364277 0.392167 0.442189
238 2 0.352018 0.376006 0.478099
240 4 0.367575 0.387653 0.462367
239 4 0.336461 0.364359 0.493832
560 4 0.486514 0.395259 0.425999
2712 4 0.486963 0.395715 0.490156
1383 4 0.0233418 0.475947 0.436585
540 4 0.0312987 0.43713 0.487917
1381 2 0.0223868 0.458037 0.454005
1382 4 0.0214317 0.440126 0.471426
680 4 0.0201668 0.495633 0.432527
384 4 0.137558 0.493502 0.471099
772 2 0.160843 0.483735 0.437566
569 4 0.106637 0.46577 0.419005
773 4 0.141495 0.484609 0.45338
382 2 0.13516 0.473965 0.486517
774 4 0.180191 0.482861 0.421753
635 4 0.178274 0.463011 0.417033
1400 4 0.319295 0.491723 0.443079
1399 2 0.315678 0.468038 0.450228
1401 4 0.312061 0.444353 0.457378
559 2 0.490441 0.417359 0.414982
720 4 0.0179769 0.0448866 0.506937
1059 4 0.0713489 0.0709765 0.563022
1057 2 0.0738599 0.0507673 0.577529
1032 4 0.154445 0.0191577 0.550888
951 4 0.191328 0.05388 0.506846
1031 4 0.180473 0.0520054 0.523606
1030 2 0.167459 0.0355816 0.537247
949 2 0.216159 0.0522135 0.504427
1182 4 0.239526 0.0560572 0.521768
961 2 0.306807 0.0256432 0.547688
1180 2 0.262241 0.0525349 0.531607
963 4 0.29646 0.0370012 0.527962
1181 4 0.284956 0.0490126 0.541445
962 4 0.317155 0.0142852 0.567414
2195 4 0.303268 0.0101531 0.581142
842 4 0.394816 0.0670469 0.500131
1217 4 0.404239 0.0680822 0.516618
1216 2 0.416832 0.070135 0.538121
431 4 0.336587 0.071199 0.504339
1218 4 0.429425 0.0721878 0.559624
1155 4 0.0758538 0.0901385 0.568324
939 4 0.143649 0.132444 0.518633
937 2 0.128044 0.15198 0.518605
1151 4 0.161316 0.138788 0.510609
938 4 0.112438 0.171516 0.518578
856 2 0.288779 0.161851 0.585174
899 4 0.327279 0.143501 0.582319
898 2 0.344338 0.158318 0.571613
1033 2 0.0801271 0.201949 0.524687
1035 4 0.0664971 0.198405 0.545347
1082 4 0.0622848 0.208846 0.561913
1081 2 0.0487186 0.196144 0.578641
1034 4 0.0937572 0.205493 0.504027
877 2 0.091894 0.243663 0.572346
797 4 0.261582 0.184169 0.564836
811 2 0.308567 0.233754 0.536358
812 4 0.28374 0.236461 0.535154
796 2 0.263398 0.206625 0.553991
798 4 0.265213 0.229081 0.543146
858 4 0.266534 0.171277 0.578731
900 4 0.361397 0.173135 0.560907
813 4 0.333394 0.231046 0.537562
872 4 0.368189 0.185835 0.547659
873 4 0.337813 0.216823 0.522805
871 2 0.353001 0.201329 0.535232
904 2 0.452157 0.24439 0.56114
906 4 0.467384 0.227062 0.570787
2813 4 0.0289601 0.332004 0.510548
878 4 0.0957571 0.254716 0.550253
1189 2 0.256661 0.336838 0.521233
1190 4 0.278397 0.330225 0.510793
954 4 0.409185 0.304537 0.578038
905 4 0.436931 0.261718 0.551492
952 2 0.417242 0.289633 0.559649
953 4 0.425299 0.274729 0.541261
1135 2 0.163717 0.398214 0.56015
1136 4 0.139066 0.40223 0.561317
1137 4 0.188369 0.394197 0.558983
896 4 0.215913 0.348107 0.528306
1191 4 0.234925 0.343451 0.531674
897 4 0.189704 0.374755 0.561528
895 2 0.202808 0.361431 0.544917
803 4 0.287662 0.345125 0.520969
802 2 0.303476 0.361499 0.531312
804 4 0.31929 0.377873 0.541655
929 4 0.330747 0.367957 0.554017
928 2 0.344329 0.358229 0.572619
925 2 0.4728 0.395263 0.533565
927 4 0.476633 0.398227 0.509036
1001 4 0.465283 0.403615 0.573828
926 4 0.468966 0.392299 0.558095
539 4 0.0505785 0.464948 0.524729
936 4 0.0216163 0.457518 0.53051
1938 4 0.059602 0.482279 0.524754
538 2 0.0409386 0.451039 0.506323
934 2 0.000148642 0.454482 0.542964
383 4 0.132762 0.454427 0.501934
2244 4 0.1879 0.453043 0.5478
2242 2 0.176392 0.456459 0.569734
1171 2 0.241308 0.443365 0.577087
1172 4 0.259196 0.451631 0.561697
882 4 0.269407 0.466905 0.552778
880 2 0.276908 0.490693 0.554519
1185 4 0.0183604 0.0573576 0.656493
945 4 0.0380987 0.0588631 0.658117
825 4 0.0750769 0.0338987 0.611267
1058 4 0.076371 0.0305582 0.592037
823 2 0.0885368 0.0149484 0.620481
1004 4 0.325054 0.065727 0.669446
2283 4 0.442064 0.0134389 0.585769
2282 4 0.462897 0.0250649 0.629718
2281 2 0.452481 0.0192519 0.607744
43 3 0.465717 0.035857 0.646302
41 1 0.479386 0.0510013 0.657357
44 3 0.469119 0.0717931 0.658195
45 3 0.499414 0.0526508 0.646643
1198 2 0.00918397 0.161933 0.597994
1153 2 0.0903454 0.102353 0.584632
1154 4 0.104837 0.114568 0.600941
1221 4 0.121257 0.111584 0.611108
1219 2 0.135986 0.123883 0.627137
1220 4 0.150715 0.136183 0.643167
1283 4 0.152487 0.136564 0.662599
1212 4 0.235797 0.129402 0.627649
1210 2 0.248478 0.127941 0.649149
857 4 0.311023 0.152425 0.591616
1083 4 0.0351525 0.183443 0.595368
1199 4 0.0233532 0.178182 0.610658
879 4 0.088031 0.23261 0.594438
1272 4 0.0864649 0.225051 0.613458
1270 2 0.106673 0.21332 0.622357
1271 4 0.126881 0.201589 0.631257
909 4 0.146487 0.196595 0.630591
907 2 0.164001 0.21435 0.632375
908 4 0.181515 0.232106 0.634158
947 4 0.187843 0.249905 0.628443
1025 4 0.384805 0.20395 0.643859
1024 2 0.400078 0.20777 0.624434
1143 4 0.383953 0.186007 0.65311
1026 4 0.41535 0.211591 0.605008
946 2 0.184675 0.263634 0.649099
792 4 0.259313 0.305009 0.603397
791 4 0.295163 0.281651 0.62928
790 2 0.277238 0.29333 0.616338
1238 4 0.259217 0.324654 0.597115
1206 4 0.37759 0.343972 0.589372
1205 4 0.399922 0.299672 0.595655
1204 2 0.388756 0.321822 0.592514
983 4 0.011342 0.392983 0.63683
1041 4 0.0213139 0.407825 0.627957
1039 2 0.04628 0.406821 0.627026
1040 4 0.071246 0.405817 0.626095
992 4 0.129342 0.399743 0.658409
991 2 0.109096 0.406976 0.645643
993 4 0.0888512 0.414209 0.632876
1237 2 0.234809 0.32883 0.600575
1239 4 0.210401 0.333006 0.604035
930 4 0.357912 0.348501 0.591222
3330 4 0.486672 0.415559 0.661519
2243 4 0.164885 0.459875 0.591668
2171 4 0.142796 0.502823 0.64911
1173 4 0.223419 0.435098 0.592476
1161 4 0.163179 0.467457 0.609712
1160 4 0.196595 0.454567 0.644611
1159 2 0.179887 0.461012 0.627161
1175 4 0.211726 0.48492 0.640572
1174 2 0.234856 0.491948 0.646958
889 2 0.329754 0.46442 0.637724
891 4 0.324615 0.479738 0.618642
890 4 0.334893 0.449103 0.656807
1952 4 0.336603 0.495307 0.624307
1911 4 0.42329 0.491731 0.591923
1000 2 0.459223 0.419884 0.591821
1910 4 0.437433 0.4478 0.611179
1002 4 0.453163 0.436152 0.609815
1909 2 0.430361 0.469765 0.601551
3328 2 0.485714 0.433504 0.644134
3329 4 0.484756 0.451448 0.626748
1268 4 0.430881 0.481881 0.66557
943 2 0.0465478 0.0613387 0.68152
944 4 0.0549969 0.0638144 0.704922
1075 2 0.0590274 0.0473888 0.733086
1076 4 0.0509166 0.0440071 0.709678
1148 4 0.195004 0.0708027 0.744276
1005 4 0.299923 0.0224933 0.669455
1003 2 0.312489 0.0441101 0.669451
42 3 0.482877 0.0435606 0.678842
1163 4 0.485675 0.0510904 0.697372
1105 2 0.0373218 0.166756 0.740705
1106 4 0.0565286 0.155953 0.75252
1282 2 0.163531 0.131754 0.684509
32 3 0.0962147 0.141095 0.743772
1284 4 0.174574 0.126944 0.70642
1227 4 0.194867 0.121027 0.705675
1225 2 0.211566 0.136495 0.716022
1226 4 0.228265 0.151963 0.726369
1211 4 0.26116 0.126479 0.670648
888 4 0.273115 0.142142 0.671551
886 2 0.280829 0.13149 0.692817
887 4 0.288543 0.120838 0.714082
830 4 0.303847 0.114351 0.724351
829 2 0.328514 0.111535 0.727316
977 4 0.279087 0.169492 0.747176
831 4 0.353181 0.108719 0.73028
1144 2 0.472379 0.161614 0.749526
1209 4 0.0416779 0.227219 0.681281
1107 4 0.0181151 0.177558 0.728891
851 4 0.999237 0.177896 0.722107
1207 2 0.0614559 0.242216 0.684296
35 3 0.0707793 0.168267 0.74654
822 4 0.148426 0.243471 0.694254
1278 4 0.166406 0.235405 0.701029
820 2 0.123775 0.245624 0.690671
1276 2 0.177245 0.218778 0.716237
1130 4 0.230652 0.16802 0.737463
1277 4 0.188084 0.202152 0.731444
1129 2 0.213908 0.185613 0.743402
916 2 0.285023 0.209997 0.731784
918 4 0.27848 0.187467 0.74043
917 4 0.291565 0.232528 0.723138
1141 2 0.366306 0.193663 0.669083
1142 4 0.348659 0.201319 0.685056
3123 4 0.446831 0.215747 0.674858
1194 4 0.418956 0.237653 0.733565
3121 2 0.471599 0.215929 0.671438
1262 4 0.416592 0.219051 0.741311
1145 4 0.455684 0.163999 0.731066
1261 2 0.433974 0.201289 0.738561
1263 4 0.451356 0.183527 0.735812
3122 4 0.496367 0.216111 0.668018
3357 4 0.498802 0.19994 0.680058
1208 4 0.0812338 0.257213 0.68731
1243 2 0.0187794 0.325375 0.717874
1245 4 0.00174969 0.307549 0.7137
821 4 0.0991228 0.247777 0.687089
948 4 0.181507 0.277362 0.669755
1065 4 0.187634 0.295433 0.674308
1064 4 0.209111 0.29133 0.719281
1063 2 0.198372 0.293382 0.696794
1097 4 0.286112 0.249959 0.729731
1008 4 0.350773 0.262938 0.731018
806 4 0.420614 0.310653 0.743323
1244 4 0.0358091 0.3432 0.722049
893 4 0.0719953 0.354235 0.681646
894 4 0.0865335 0.399268 0.697811
892 2 0.0792644 0.376751 0.689729
941 4 0.157509 0.397813 0.706244
940 2 0.157167 0.408085 0.729038
1066 2 0.192584 0.415067 0.685551
1067 4 0.172281 0.402647 0.693214
1029 4 0.276552 0.415662 0.682385
1230 4 0.383372 0.402482 0.738896
1983 4 0.0348014 0.466177 0.757464
2021 4 0.0428104 0.46974 0.739987
2020 2 0.0632526 0.473995 0.726233
1281 4 0.095285 0.416852 0.702091
1279 2 0.0945815 0.418102 0.727053
2022 4 0.0836949 0.478251 0.712478
1068 4 0.212887 0.427487 0.677889
1028 4 0.229371 0.430248 0.690255
2016 4 0.172187 0.492983 0.751346
1027 2 0.252961 0.422955 0.68632
1139 4 0.293804 0.425699 0.68062
1138 2 0.30641 0.432356 0.701161
1140 4 0.319016 0.439014 0.721703
1989 4 0.318493 0.441467 0.741642
1229 4 0.36399 0.434884 0.706106
1228 2 0.373681 0.418683 0.722501
1100 4 0.49562 0.482257 0.731738
1269 4 0.478948 0.484624 0.679088
1267 2 0.454914 0.483253 0.672329
1250 4 0.485804 0.474686 0.747062
1077 4 0.0671381 0.0507705 0.756495
1203 4 0.0637846 0.0356785 0.770872
1201 2 0.0845965 0.0225182 0.775214
2049 4 0.120888 0.998848 0.785317
1202 4 0.105408 0.00935781 0.779556
1147 2 0.210324 0.0573518 0.758753
1149 4 0.225643 0.0439009 0.773229
1049 4 0.240492 0.0541654 0.781542
1970 4 0.200344 0.00276904 0.805312
1048 2 0.264476 0.0510792 0.775187
1050 4 0.288461 0.0479929 0.768831
817 2 0.387391 0.0731411 0.82856
846 4 0.472445 0.0399879 0.800066
1113 4 0.463659 0.0264693 0.788585
844 2 0.496297 0.0474806 0.800369
1111 2 0.462779 0.00158904 0.786266
832 2 0.046609 0.131799 0.785404
863 4 0.0247031 0.121302 0.82119
833 4 0.0334435 0.12031 0.803288
33 3 0.0772541 0.145612 0.775909
834 4 0.0597745 0.143288 0.767519
862 2 0.0366067 0.103423 0.833991
31 1 0.0867695 0.156645 0.757849
840 4 0.202421 0.101701 0.77948
838 2 0.225299 0.109646 0.785701
839 4 0.248176 0.117591 0.791921
978 4 0.314455 0.154239 0.779069
959 4 0.266886 0.124763 0.795628
958 2 0.273161 0.112903 0.816727
976 2 0.296771 0.161866 0.763122
819 4 0.402343 0.0862552 0.813407
1084 2 0.379158 0.117111 0.791707
1085 4 0.389469 0.0986887 0.805104
1086 4 0.368847 0.135533 0.77831
1299 4 0.367062 0.150187 0.793759
1146 4 0.489074 0.159229 0.767986
3270 4 0.482668 0.149337 0.784342
3268 2 0.489878 0.152913 0.808015
1214 4 0.0219352 0.23891 0.805633
778 2 0.063788 0.238193 0.805758
779 4 0.0401791 0.237315 0.797571
1073 4 0.10923 0.167094 0.783736
1072 2 0.124533 0.174633 0.802015
1074 4 0.139837 0.182172 0.820294
34 3 0.103335 0.171114 0.765239
780 4 0.087397 0.23907 0.813945
869 4 0.0931529 0.239904 0.833782
1131 4 0.197163 0.203207 0.74934
1297 2 0.376603 0.171079 0.803641
1298 4 0.386145 0.191971 0.813524
47 3 0.384518 0.208903 0.82334
1043 4 0.388686 0.24631 0.823785
1042 2 0.373942 0.249449 0.803836
1007 4 0.34099 0.249601 0.778211