ITEM: TIMESTEP
5850000
ITEM: NUMBER OF ATOMS
4590
ITEM: BOX BOUNDS pp pp pp
-9.9985700000000008e+00 9.9985700000000008e+00
-9.9985700000000008e+00 9.9985700000000008e+00
-9.9985700000000008e+00 9.9985700000000008e+00
ITEM: ATOMS id type xs ys zs
1668 4 0.0682536 0.0346181 0.0565674
1666 2 0.0562024 0.0323477 0.0783571
3290 4 0.0745704 0.044563 0.0408703
3289 2 0.0781541 0.0240221 0.0270715
3291 4 0.0817377 0.00348118 0.0132727
464 4 0.0325863 0.0112284 0.00400536
566 4 0.0980873 0.993378 0.0147406
2264 4 0.321236 0.058943 0.00828043
986 4 0.336587 0.0490312 0.0150529
985 2 0.335515 0.0250507 0.00805528
2722 2 0.483822 0.0599434 0.0156709
702 4 0.0055035 0.106214 0.0134194
555 4 0.0237806 0.11543 0.0136747
553 2 0.0446433 0.129007 0.0160408
554 4 0.065506 0.142583 0.018407
2835 4 0.0788723 0.158181 0.0197113
1475 4 0.318154 0.130698 0.038861
1474 2 0.308408 0.127549 0.0616707
2833 2 0.0757561 0.182746 0.0162435
2806 2 0.0432039 0.238866 0.0277852
2808 4 0.0290439 0.234086 0.0478307
657 4 0.0136293 0.222639 0.050844
2834 4 0.0726399 0.207311 0.0127756
2807 4 0.0573639 0.243647 0.00773974
737 4 0.145671 0.207899 0.0673908
736 2 0.166951 0.213882 0.0557054
506 4 0.141308 0.225354 0.0778825
915 4 0.182993 0.238841 0.0476165
358 2 0.223624 0.185837 0.000879601
738 4 0.188231 0.219866 0.0440201
352 2 0.230507 0.226588 0.0445946
359 4 0.241211 0.192965 0.0171604
354 4 0.238028 0.208352 0.0292304
353 4 0.222986 0.244824 0.0599587
462 4 0.287995 0.176673 0.0771672
1054 2 0.076648 0.286685 0.00747862
1055 4 0.0666718 0.263867 0.00523407
837 4 0.0864343 0.25069 0.011982
1056 4 0.0866241 0.309502 0.00972317
1170 4 0.0929958 0.329172 0.00993014
913 2 0.187687 0.263212 0.0445813
278 4 0.229262 0.255688 0.0759601
914 4 0.192381 0.287583 0.0415461
287 4 0.20105 0.30088 0.0551763
286 2 0.218944 0.315916 0.0462937
288 4 0.236838 0.330952 0.037411
610 2 0.272263 0.293067 0.03267
611 4 0.272266 0.280409 0.011107
612 4 0.272259 0.305725 0.054233
609 4 0.276043 0.323007 0.0633079
571 2 0.332232 0.317661 0.00724946
572 4 0.312167 0.332415 0.00504114
573 4 0.352297 0.302906 0.00945777
741 4 0.373882 0.331076 0.0448695
990 4 0.238507 0.341542 0.0194558
988 2 0.228394 0.363386 0.0126937
989 4 0.218282 0.385231 0.00593166
1104 4 0.201855 0.388687 0.0144684
1102 2 0.199227 0.41198 0.00576651
250 2 0.300914 0.393679 0.0775364
607 2 0.285364 0.339593 0.0795314
251 4 0.29704 0.415147 0.0653168
740 4 0.363655 0.37738 0.0607464
386 4 0.351387 0.370366 0.0755062
739 2 0.368768 0.354228 0.0528079
1305 4 0.407449 0.417184 0.0261842
1303 2 0.415779 0.394577 0.0328701
1093 2 0.430496 0.340979 0.00879645
1304 4 0.424109 0.37197 0.039556
1095 4 0.428138 0.35403 0.029993
1620 4 0.137986 0.418516 0.025338
1618 2 0.138551 0.439977 0.0381559
1619 4 0.139116 0.461438 0.0509739
1787 4 0.149618 0.478468 0.0509059
1223 4 0.150737 0.484298 0.0314219
1786 2 0.161499 0.489287 0.0700628
1222 2 0.142151 0.499599 0.0136078
243 4 0.244158 0.436261 0.0727639
242 4 0.278136 0.438685 0.036153
241 2 0.261147 0.437473 0.0544584
524 4 0.290874 0.453133 0.041029
523 2 0.314395 0.455189 0.032801
227 4 0.389991 0.422637 0.0331726
226 2 0.372625 0.438343 0.0244013
228 4 0.355259 0.454048 0.01563
525 4 0.337916 0.457246 0.024573
1422 4 0.0153296 0.0278651 0.147255
1667 4 0.0441512 0.0300772 0.100147
19 3 0.0291622 0.0127398 0.14445
17 3 0.0486485 0.0145657 0.112363
16 1 0.0275708 0.0123471 0.121305
2480 4 0.00466435 0.0356903 0.131945
20 3 0.014523 0.0295743 0.11412
1506 4 0.161274 0.015069 0.163012
693 4 0.250319 0.0827635 0.135485
295 2 0.38911 0.0179065 0.106862
297 4 0.368626 0.0300368 0.114507
484 2 0.356663 0.0311464 0.155256
485 4 0.368405 0.0353581 0.133586
296 4 0.409594 0.00577619 0.0992177
350 4 0.453753 0.0744027 0.149415
578 4 0.00519696 0.159953 0.163959
653 4 0.265722 0.0958006 0.131162
691 2 0.255924 0.0834669 0.159842
652 2 0.282173 0.101099 0.113093
1476 4 0.298662 0.124401 0.0844803
654 4 0.298624 0.106398 0.0950245
580 2 0.327003 0.163365 0.158362
582 4 0.327147 0.138604 0.15489
758 4 0.338447 0.122376 0.149599
757 2 0.337635 0.103013 0.165398
557 4 0.439349 0.130171 0.11847
556 2 0.450101 0.111771 0.131546
558 4 0.460854 0.0933708 0.144623
577 2 0.00126693 0.18241 0.15369
505 2 0.12305 0.239928 0.0867932
475 2 0.237884 0.187288 0.145824
279 4 0.203473 0.256124 0.118803
476 4 0.214891 0.185644 0.155509
477 4 0.260877 0.188932 0.13614
461 4 0.272341 0.195165 0.120914
460 2 0.280168 0.185919 0.0990404
29 3 0.289185 0.217534 0.130085
30 3 0.313754 0.197321 0.150221
581 4 0.326859 0.188126 0.161834
26 1 0.292045 0.204042 0.148745
28 3 0.278107 0.185544 0.147357
285 4 0.284928 0.235375 0.118444
2894 4 0.496386 0.175607 0.140704
2893 2 0.497172 0.20047 0.138174
2895 4 0.497957 0.225333 0.135644
507 4 0.104791 0.254502 0.0957038
456 4 0.0909312 0.324666 0.0932953
294 4 0.0884706 0.314232 0.109575
293 4 0.0901497 0.264506 0.104549
292 2 0.0893102 0.289369 0.107062
277 2 0.216368 0.255906 0.0973813
284 4 0.250635 0.268925 0.132553
283 2 0.267781 0.25215 0.125499
624 4 0.406227 0.255823 0.127641
628 2 0.373249 0.256766 0.153146
629 4 0.395607 0.251005 0.143547
630 4 0.350891 0.262526 0.162745
622 2 0.425503 0.271401 0.130944
623 4 0.44478 0.28698 0.134248
527 4 0.459043 0.289836 0.147837
454 2 0.106165 0.341633 0.103553
536 4 0.138439 0.36659 0.120633
455 4 0.1214 0.3586 0.113811
535 2 0.135853 0.360587 0.144767
625 2 0.20099 0.399633 0.154283
627 4 0.217335 0.411171 0.139285
1439 4 0.217636 0.41136 0.119729
252 4 0.304788 0.372212 0.0897559
608 4 0.294685 0.356178 0.0957549
301 2 0.316263 0.409465 0.134263
302 4 0.340383 0.403754 0.130977
385 2 0.350079 0.378672 0.0990537
387 4 0.348772 0.386978 0.122601
12 3 0.387427 0.400253 0.138544
11 1 0.368216 0.391758 0.14792
15 3 0.360007 0.375251 0.134549
672 4 0.403051 0.392441 0.128238
14 3 0.352636 0.408841 0.14988
671 4 0.445481 0.380368 0.104687
670 2 0.424266 0.386404 0.116462
281 4 0.464151 0.372218 0.109325
280 2 0.48768 0.367765 0.102131
315 4 0.0161551 0.431535 0.141766
313 2 0.99506 0.439736 0.131138
1431 4 0.162326 0.445887 0.148028
1429 2 0.153244 0.427922 0.162859
1440 4 0.23671 0.445819 0.0889155
1438 2 0.227173 0.428589 0.104322
1573 2 0.200022 0.459196 0.156754
1575 4 0.175461 0.460077 0.152153
303 4 0.292143 0.415175 0.137549
638 4 0.279533 0.430601 0.138299
637 2 0.260154 0.439016 0.151672
1705 2 0.263009 0.49491 0.129496
1706 4 0.255785 0.472834 0.12024
495 4 0.347201 0.423778 0.132435
1559 4 0.367201 0.481131 0.105263
493 2 0.358324 0.445019 0.125345
494 4 0.369447 0.46626 0.118254
1420 2 0.0151114 0.0281194 0.172257
1421 4 0.0148932 0.0283738 0.197258
1416 4 0.0126017 0.0130345 0.210666
1504 2 0.16224 0.000423615 0.183255
688 2 0.134557 0.00732277 0.230558
690 4 0.117457 0.0191425 0.244453
1660 2 0.319182 0.0134548 0.208173
23 3 0.326364 0.0661946 0.206254
1700 4 0.321114 0.080725 0.194321
1661 4 0.331072 0.0310898 0.195027
486 4 0.34492 0.0269347 0.176925
22 3 0.350732 0.0415324 0.191742
698 4 0.367001 0.0496739 0.238995
697 2 0.373002 0.0257752 0.24324
333 4 0.379612 0.0664732 0.233807
21 1 0.348623 0.0625751 0.200792
331 2 0.400452 0.0702082 0.220506
24 3 0.361774 0.063891 0.219864
699 4 0.379003 0.00187654 0.247485
25 3 0.355492 0.0780253 0.185536
759 4 0.336823 0.083651 0.181197
351 4 0.425497 0.0646784 0.189512
742 2 0.481808 0.0694224 0.234896
332 4 0.421293 0.0739431 0.207206
744 4 0.491128 0.0491603 0.223593
349 2 0.439625 0.0695406 0.169463
511 2 0.0354966 0.155994 0.196785
512 4 0.052318 0.157424 0.215229
450 4 0.0721665 0.15266 0.212769
513 4 0.0186753 0.154563 0.178341
448 2 0.0905498 0.140184 0.201298
449 4 0.108933 0.127708 0.189827
236 4 0.11724 0.109568 0.184283
235 2 0.141205 0.107673 0.177407
237 4 0.16517 0.105779 0.170531
692 4 0.26153 0.0841703 0.184199
1699 2 0.296761 0.084867 0.198191
1701 4 0.272409 0.089009 0.202061
769 2 0.478529 0.164908 0.176336
743 4 0.472489 0.0896846 0.2462
770 4 0.457933 0.151604 0.181233
361 2 0.155145 0.213718 0.239936
363 4 0.133615 0.219234 0.25139
395 4 0.117319 0.230122 0.247853
362 4 0.176676 0.208202 0.228483
372 4 0.177566 0.205656 0.208817
370 2 0.188082 0.196607 0.188016
371 4 0.198599 0.187559 0.167214
27 3 0.286551 0.216098 0.167551
755 4 0.310144 0.18106 0.22405
756 4 0.293885 0.211909 0.188207
754 2 0.302014 0.196485 0.206129
255 4 0.296933 0.233999 0.181238
253 2 0.31587 0.250141 0.178793
716 4 0.359482 0.172879 0.250101
771 4 0.499124 0.178213 0.171439
765 4 0.495613 0.165736 0.221446
705 4 0.00838272 0.288157 0.220426
703 2 0.0101565 0.277451 0.1979
444 4 0.0130188 0.263216 0.247616
704 4 0.0119303 0.266746 0.175374
254 4 0.334808 0.266284 0.176348
343 2 0.37434 0.310334 0.234942
345 4 0.384679 0.311088 0.212189
596 4 0.381022 0.330316 0.205903
526 2 0.45435 0.297889 0.171038
528 4 0.449658 0.305942 0.194239
542 4 0.462465 0.313441 0.208122
541 2 0.462216 0.315599 0.233031
300 4 0.0799986 0.355632 0.2144
648 4 0.0764628 0.340465 0.203484
298 2 0.0738158 0.360583 0.238116
264 4 0.0517994 0.41616 0.220426
262 2 0.0493623 0.409302 0.244347
537 4 0.133266 0.354585 0.168901
647 4 0.1148 0.357121 0.176032
646 2 0.0956312 0.348793 0.189758
417 4 0.152526 0.412324 0.195569
1430 4 0.144162 0.409957 0.177691
415 2 0.165666 0.411908 0.216837
626 4 0.184646 0.388096 0.16928
416 4 0.178807 0.411493 0.238106
13 3 0.373256 0.38319 0.168887
597 4 0.362406 0.37229 0.186096
595 2 0.371714 0.351303 0.196
645 4 0.376664 0.389326 0.189973
643 2 0.381543 0.402728 0.21051
644 4 0.386423 0.416129 0.231047
621 4 0.0383962 0.429302 0.227802
620 4 0.0221862 0.45289 0.186795
619 2 0.0302912 0.441096 0.207298
1574 4 0.224582 0.458314 0.161355
639 4 0.240775 0.44743 0.165044
768 4 0.196932 0.484281 0.246126
766 2 0.21522 0.497431 0.235273
678 4 0.2235 0.443162 0.243629
438 4 0.234882 0.45929 0.249629
231 4 0.342696 0.488467 0.206286
660 4 0.349514 0.472636 0.214364
447 4 0.387787 0.427631 0.247514
658 2 0.369549 0.458949 0.220404
659 4 0.389583 0.445263 0.226443
233 4 0.0224724 0.0170195 0.309101
232 2 0.0345819 0.0338082 0.323126
234 4 0.0466914 0.050597 0.33715
1403 4 0.00883031 0.00266549 0.304682
675 4 0.140863 0.0738289 0.316039
722 4 0.164092 0.0158686 0.297447
545 4 0.0914991 0.0752825 0.279787
544 2 0.113092 0.0811204 0.29096
1462 2 0.10047 0.00392177 0.281106
1464 4 0.108082 0.00830771 0.257697
721 2 0.187345 0.0249762 0.296215
723 4 0.210598 0.0340838 0.294983
1405 2 0.239006 0.0472117 0.284698
1406 4 0.224976 0.0265691 0.283205
1407 4 0.253035 0.0678544 0.286191
392 4 0.0829643 0.0916384 0.285788
391 2 0.0597097 0.094684 0.294455
393 4 0.0364551 0.0977296 0.303123
2586 4 0.0202555 0.104722 0.29465
399 4 0.0594928 0.126959 0.315241
397 2 0.0688985 0.143424 0.33154
546 4 0.134686 0.0869583 0.302133
599 4 0.242872 0.0830433 0.293232
598 2 0.256186 0.104207 0.293149
600 4 0.2695 0.125371 0.293067
419 4 0.354761 0.161449 0.266807
420 4 0.330515 0.121172 0.24976
418 2 0.342638 0.14131 0.258283
425 4 0.464786 0.0941632 0.264732
424 2 0.468498 0.101445 0.288362
258 4 0.482088 0.110883 0.328906
426 4 0.47221 0.108726 0.311992
396 4 0.0771762 0.251078 0.26907
394 2 0.0972476 0.2406 0.258462
404 4 0.203254 0.176553 0.322247
473 4 0.279686 0.245473 0.329338
715 2 0.378307 0.188296 0.255859
717 4 0.397131 0.203713 0.261616
377 4 0.396967 0.221612 0.270438
376 2 0.379715 0.236927 0.280082
443 4 0.059468 0.25928 0.265718
442 2 0.0362434 0.261248 0.256667
400 2 0.210034 0.28946 0.328564
401 4 0.233078 0.296917 0.322354
474 4 0.247437 0.283584 0.326466
402 4 0.186991 0.282003 0.334774
472 2 0.263562 0.264528 0.327902
344 4 0.364 0.309581 0.257695
309 4 0.368411 0.328682 0.261914
378 4 0.362464 0.252242 0.289727
266 4 0.369363 0.255694 0.309389
265 2 0.368583 0.26999 0.329887
543 4 0.461967 0.317757 0.25794
364 2 0.0154096 0.36291 0.317496
366 4 0.0348067 0.347544 0.313917
748 2 0.0638379 0.345217 0.294032
749 4 0.0506451 0.334946 0.312624
299 4 0.067633 0.365534 0.261831
263 4 0.0469253 0.402444 0.268267
750 4 0.0770307 0.355487 0.275441
677 4 0.195777 0.402976 0.254455
290 4 0.199666 0.383821 0.260589
289 2 0.210011 0.379931 0.283018
504 4 0.21455 0.391395 0.316218
291 4 0.220356 0.376042 0.305446
414 4 0.238345 0.379648 0.29708
735 4 0.17699 0.406476 0.260207
502 2 0.216264 0.407296 0.335438
412 2 0.25958 0.387257 0.307867
413 4 0.280815 0.394865 0.318654
5 3 0.282407 0.411594 0.308758
727 2 0.34107 0.402751 0.28814
308 4 0.348377 0.37074 0.280093
729 4 0.358807 0.385136 0.288697
307 2 0.358394 0.349711 0.271003
614 4 0.440305 0.331911 0.30826
2925 4 0.44712 0.343794 0.320938
613 2 0.449591 0.334447 0.285183
615 4 0.458876 0.336983 0.262106
2923 2 0.464597 0.357244 0.332721
775 2 0.0831776 0.454831 0.319068
776 4 0.0679582 0.471987 0.309108
1757 4 0.0773377 0.485569 0.297039
777 4 0.098397 0.437674 0.329029
733 2 0.160568 0.415593 0.27671
734 4 0.144146 0.424711 0.293214
676 2 0.209638 0.423069 0.249042
1544 4 0.18416 0.485831 0.296466
1543 2 0.187223 0.48706 0.321251
435 4 0.298467 0.46674 0.267329
437 4 0.282685 0.453662 0.263189
1 1 0.297053 0.426113 0.31842
436 2 0.258783 0.456476 0.256409
433 2 0.316507 0.450082 0.272044
2 3 0.315143 0.429006 0.304509
4 3 0.286796 0.446657 0.321757
728 4 0.323333 0.420365 0.287583
434 4 0.334547 0.433424 0.27676
445 2 0.401265 0.437496 0.266121
446 4 0.414743 0.44736 0.284728
713 4 0.469764 0.438829 0.312712
120 3 0.478062 0.420143 0.32175
2862 4 0.489114 0.430117 0.303819
712 2 0.447521 0.436025 0.301641
714 4 0.425278 0.433222 0.29057
317 4 0.0435394 0.0679013 0.347108
316 2 0.0651642 0.0674727 0.359652
318 4 0.086789 0.067044 0.372197
732 4 0.101804 0.0642417 0.384144
673 2 0.147674 0.0814442 0.33886
674 4 0.154486 0.0890595 0.361681
604 2 0.149229 0.0611975 0.394277
605 4 0.147017 0.0779568 0.375854
730 2 0.0952954 0.0583016 0.407544
606 4 0.15144 0.0444382 0.4127
321 4 0.23138 0.0753442 0.38756
683 4 0.23737 0.058661 0.37665
682 2 0.223729 0.0390752 0.369201
1340 4 0.227466 0.00732506 0.360005
684 4 0.210088 0.0194894 0.361752
319 2 0.236386 0.0789966 0.411784
248 4 0.291395 0.00764771 0.356751
633 4 0.309824 0.0139148 0.354824
631 2 0.330999 0.0221615 0.365254
632 4 0.352174 0.0304082 0.375683
468 4 0.349377 0.0463152 0.38697
466 2 0.36326 0.0657565 0.394351
398 4 0.0783042 0.159888 0.347838
389 4 0.0967894 0.155418 0.355113
686 4 0.26113 0.162963 0.374884
685 2 0.267631 0.146037 0.392102
687 4 0.274133 0.129112 0.409319
467 4 0.377143 0.0851978 0.401732
576 4 0.388667 0.0984609 0.409701
574 2 0.40403 0.118188 0.409771
257 4 0.496377 0.101225 0.375845
256 2 0.489232 0.106054 0.352375
575 4 0.419393 0.137915 0.409841
516 4 0.414699 0.154914 0.416646
388 2 0.0952291 0.171229 0.37442
390 4 0.0936689 0.18704 0.393727
470 4 0.0943338 0.171882 0.406267
403 2 0.188858 0.191791 0.335876
274 2 0.174005 0.235756 0.370104
405 4 0.174461 0.207028 0.349505
275 4 0.181715 0.212036 0.368337
650 4 0.226224 0.230706 0.414769
411 4 0.242766 0.21939 0.408854
409 2 0.248669 0.200562 0.393497
410 4 0.254571 0.181733 0.37814
708 4 0.283088 0.231746 0.34242
706 2 0.307222 0.229705 0.348632
707 4 0.331355 0.227664 0.354844
497 4 0.347214 0.224599 0.370047
496 2 0.34296 0.241454 0.388019
617 4 0.0569132 0.287331 0.343878
616 2 0.078748 0.29843 0.348901
276 4 0.166294 0.259475 0.371871
618 4 0.100583 0.309529 0.353924
696 4 0.115667 0.315329 0.367031
1259 4 0.166197 0.328853 0.387658
694 2 0.132592 0.325713 0.382228
695 4 0.149516 0.336096 0.397424
488 4 0.307784 0.298986 0.39847
509 4 0.291114 0.306586 0.391175
508 2 0.285815 0.328419 0.380201
487 2 0.292485 0.285789 0.4132
267 4 0.367804 0.284287 0.350385
498 4 0.338706 0.258308 0.405992
305 4 0.411565 0.274969 0.398321
1011 4 0.419507 0.290885 0.408281
269 4 0.495751 0.302043 0.351162
268 2 0.471769 0.294977 0.351504
270 4 0.447787 0.28791 0.351847
306 4 0.436685 0.272634 0.355144
304 2 0.424125 0.273801 0.376732
602 4 0.0564667 0.415307 0.366384
549 4 0.0762358 0.409831 0.36798
1258 2 0.187871 0.336921 0.397162
1260 4 0.209544 0.34499 0.406666
375 4 0.293808 0.399566 0.333841
373 2 0.291941 0.383506 0.352914
374 4 0.290074 0.367446 0.371987
510 4 0.280516 0.350253 0.369228
2924 4 0.482074 0.370694 0.344504
118 3 0.487967 0.391413 0.343979
116 1 0.486093 0.414479 0.342295
601 2 0.0352233 0.425377 0.374899
603 4 0.0139798 0.435446 0.383413
680 4 0.0102741 0.455163 0.386138
548 4 0.102575 0.436566 0.401028
547 2 0.0894053 0.423199 0.384504
569 4 0.119684 0.445227 0.408457
503 4 0.217979 0.423197 0.354658
1545 4 0.190287 0.488288 0.346036
636 4 0.234653 0.427339 0.366261
634 2 0.258239 0.423927 0.373827
3 3 0.304462 0.417574 0.338683
635 4 0.281825 0.420514 0.381393
668 4 0.291934 0.451496 0.340218
667 2 0.301763 0.461595 0.360872
669 4 0.311593 0.471694 0.381525
1586 4 0.327367 0.485098 0.380266
751 2 0.487997 0.422961 0.397695
753 4 0.477641 0.431365 0.376546
119 3 0.471921 0.422503 0.358823
369 4 0.0597888 0.0587151 0.481909
367 2 0.0742402 0.0486443 0.464163
719 4 0.0436992 0.0660352 0.49292
368 4 0.0886916 0.0385735 0.446418
731 4 0.0887869 0.0523614 0.430943
341 4 0.199858 0.0778863 0.427228
2430 4 0.20198 0.0780025 0.447137
2429 4 0.200043 0.0301364 0.461483
2428 2 0.201011 0.0540695 0.45431
441 4 0.204532 0.0131853 0.471053
431 4 0.314179 0.0683496 0.477678
843 4 0.334275 0.0694465 0.475417
841 2 0.344153 0.0466735 0.472417
842 4 0.35403 0.0239004 0.469417
1216 2 0.387426 0.00564837 0.465514
1217 4 0.374324 0.0254006 0.473475
259 2 0.0678185 0.140331 0.485144
260 4 0.0799241 0.152525 0.466979
471 4 0.0935022 0.151334 0.45185
469 2 0.093918 0.161608 0.429058
320 4 0.241392 0.082649 0.436007
342 4 0.169348 0.117141 0.421851
340 2 0.184603 0.0975138 0.42454
1152 4 0.171856 0.136164 0.4246
1150 2 0.18376 0.153825 0.437698
430 2 0.304236 0.0906481 0.472285
725 4 0.257269 0.124295 0.418023
724 2 0.266456 0.11643 0.439907
726 4 0.275644 0.108564 0.46179
432 4 0.294292 0.112947 0.466892
1151 4 0.195664 0.171486 0.450796
939 4 0.190223 0.178012 0.468821
937 2 0.184643 0.193097 0.487964
2457 4 0.310672 0.214069 0.448872
2455 2 0.318539 0.232796 0.434291
514 2 0.407546 0.173698 0.431518
515 4 0.400393 0.192482 0.44639
2655 4 0.00711101 0.265767 0.43196
878 4 0.125576 0.258782 0.494694
649 2 0.241724 0.249243 0.421197
651 4 0.257224 0.26778 0.427624
489 4 0.277185 0.272593 0.427929
2456 4 0.326405 0.251523 0.419711
585 4 0.350495 0.332427 0.452164
1009 2 0.430973 0.306902 0.42368
1010 4 0.44244 0.322919 0.43908
2507 4 0.459753 0.329956 0.448964
406 2 0.0533032 0.356203 0.485874
408 4 0.0347589 0.340481 0.480034
407 4 0.0718475 0.371925 0.491714
710 4 0.157847 0.413325 0.433971
326 4 0.222133 0.353036 0.420924
709 2 0.170855 0.399045 0.449846
711 4 0.183864 0.384764 0.465721
8 3 0.189065 0.395574 0.482579
325 2 0.210497 0.362562 0.4409
327 4 0.198862 0.372088 0.460877
7 3 0.208904 0.364154 0.476941
6 1 0.202527 0.379628 0.492722
583 2 0.369061 0.337358 0.468169
584 4 0.387627 0.342289 0.484175
238 2 0.404782 0.373619 0.48605
240 4 0.385394 0.386086 0.476361
334 2 0.363101 0.415338 0.460648
335 4 0.381393 0.398294 0.460919
239 4 0.424169 0.361152 0.49574
2506 2 0.44539 0.344799 0.463056
2508 4 0.431028 0.359642 0.477148
568 2 0.141669 0.438555 0.418322
1382 4 0.100626 0.467716 0.474347
570 4 0.163654 0.431884 0.428188
1381 2 0.0939973 0.479766 0.453466
1383 4 0.0873687 0.491816 0.432584
540 4 0.0906264 0.474412 0.492183
880 2 0.211278 0.464887 0.47989
881 4 0.209759 0.450897 0.459222
882 4 0.212796 0.478877 0.500558
1444 2 0.261847 0.494659 0.490784
1446 4 0.263989 0.491603 0.466061
1401 4 0.327224 0.441987 0.463499
1399 2 0.338892 0.463328 0.469292
1400 4 0.350561 0.48467 0.475086
336 4 0.344809 0.432382 0.460376
588 4 0.360395 0.497225 0.462446
1030 2 0.157281 0.0813276 0.581444
1180 2 0.227593 0.034493 0.532691
1182 4 0.207085 0.0446501 0.522619
950 4 0.210051 0.0632496 0.516986
1181 4 0.248101 0.024336 0.542763
949 2 0.192396 0.0762303 0.529026
963 4 0.263413 0.0144194 0.552939
961 2 0.276467 0.999275 0.537926
3059 4 0.487654 0.0794901 0.539244
3007 2 0.472362 0.0819716 0.569628
3009 4 0.468128 0.0761668 0.545679
1034 4 0.0616448 0.141741 0.517579
1082 4 0.0171383 0.154803 0.567977
720 4 0.015784 0.102045 0.513529
1033 2 0.0454744 0.143452 0.536573
1035 4 0.029304 0.145163 0.555567
261 4 0.0557129 0.128138 0.503308
718 2 0.0297416 0.0840403 0.503224
1031 4 0.169462 0.0856833 0.560047
951 4 0.17474 0.089211 0.541066
857 4 0.34997 0.131605 0.539139
856 2 0.343022 0.153973 0.530387
899 4 0.363555 0.142274 0.550602
898 2 0.381638 0.1394 0.567629
938 4 0.179063 0.208183 0.507108
1270 2 0.183683 0.224132 0.535115
1271 4 0.183524 0.218823 0.559548
1272 4 0.183841 0.229442 0.510682
909 4 0.180261 0.225912 0.577985
858 4 0.336074 0.176341 0.521636
796 2 0.358768 0.211307 0.521723
798 4 0.375944 0.228197 0.528424
812 4 0.383868 0.231173 0.547426
811 2 0.394049 0.221928 0.568308
797 4 0.341591 0.194418 0.515022
2511 4 0.017879 0.262278 0.544485
877 2 0.149072 0.253903 0.501718
879 4 0.172567 0.249024 0.508741
954 4 0.446594 0.320795 0.5684
1205 4 0.428416 0.325324 0.573921
1041 4 0.0590827 0.388699 0.547938
1039 2 0.0676415 0.408198 0.561043
982 2 0.0208152 0.381543 0.543507
983 4 0.0441607 0.386286 0.535913
896 4 0.222102 0.398522 0.523382
1191 4 0.234278 0.380276 0.515941
10 3 0.221087 0.389535 0.501441
1189 2 0.24706 0.362002 0.527248
9 3 0.190712 0.368798 0.509501
803 4 0.278146 0.352201 0.536055
802 2 0.302103 0.345057 0.535645
1190 4 0.259843 0.343728 0.538555
804 4 0.326061 0.337913 0.535235
930 4 0.389535 0.330063 0.526801
1204 2 0.40963 0.33227 0.558954
1206 4 0.390843 0.339217 0.543988
928 2 0.365503 0.336734 0.525029
929 4 0.341471 0.343404 0.523258
1001 4 0.424259 0.411112 0.582558
926 4 0.432073 0.412733 0.563714
2813 4 0.0140418 0.497005 0.525868
1040 4 0.0762002 0.427696 0.574148
2812 2 0.000811752 0.476792 0.532316
993 4 0.0860333 0.444778 0.573195
539 4 0.0932383 0.46695 0.541561
992 4 0.126556 0.472948 0.581263
991 2 0.106295 0.458863 0.577229
538 2 0.0919324 0.470681 0.516872
1135 2 0.163138 0.450957 0.572777
895 2 0.209859 0.415591 0.536945
897 4 0.197616 0.43266 0.550507
1137 4 0.183031 0.439184 0.563246
1172 4 0.225592 0.478255 0.515814
1171 2 0.223812 0.480446 0.540658
1173 4 0.222033 0.482636 0.565502
1176 4 0.237173 0.476846 0.576907
1445 4 0.259706 0.497714 0.515508
927 4 0.454892 0.426931 0.521543
925 2 0.443482 0.419832 0.542628
1330 2 0.50206 0.48879 0.545265
1155 4 0.11838 0.0242562 0.608096
1153 2 0.130633 0.0452141 0.61408
1284 4 0.118445 0.0060635 0.599687
1154 4 0.142886 0.066172 0.620063
1032 4 0.1451 0.0769718 0.602841
886 2 0.232847 0.0833621 0.647768
888 4 0.210554 0.0796781 0.637062
1211 4 0.191005 0.0759926 0.637095
808 2 0.496308 0.0787542 0.62874
810 4 0.50046 0.0690482 0.651406
2281 2 0.491363 0.0116094 0.620426
2283 4 0.471281 0.0160458 0.606206
4467 4 0.454196 0.00997642 0.595672
1081 2 0.00609055 0.149899 0.589864
1199 4 0.00440521 0.158674 0.621749
1220 4 0.134687 0.113358 0.659998
1212 4 0.150991 0.102046 0.651955
1210 2 0.170998 0.0890192 0.644525
887 4 0.25514 0.0870461 0.658474
1239 4 0.312655 0.159245 0.63377
900 4 0.399721 0.136525 0.584656
1026 4 0.369373 0.166284 0.645761
1024 2 0.377087 0.14255 0.647292
1143 4 0.396083 0.111043 0.663904
1025 4 0.3848 0.118815 0.648824
872 4 0.404028 0.154046 0.596235
809 4 0.492156 0.0884602 0.606074
3008 4 0.476596 0.0877765 0.593577
1209 4 0.0251133 0.239397 0.660941
907 2 0.190711 0.240655 0.595266
1237 2 0.328064 0.178638 0.637186
813 4 0.404229 0.212683 0.58919
1238 4 0.343474 0.19803 0.640602
792 4 0.350191 0.218098 0.640549
873 4 0.411479 0.202593 0.605638
871 2 0.407753 0.17832 0.600936
790 2 0.351425 0.242928 0.643224
3357 4 0.470758 0.234303 0.642099
906 4 0.452625 0.237053 0.633648
3355 2 0.493138 0.230694 0.652649
1207 2 0.0377771 0.259031 0.652034
1208 4 0.0504409 0.278664 0.643128
892 2 0.0750216 0.305932 0.633759
894 4 0.0614183 0.31545 0.615063
893 4 0.0886249 0.296414 0.652455
821 4 0.0987083 0.278357 0.652668
820 2 0.108471 0.258899 0.664966
940 2 0.145965 0.325948 0.66374
908 4 0.201161 0.255397 0.612547
947 4 0.183443 0.267793 0.613397
946 2 0.192779 0.283557 0.630411
948 4 0.202115 0.299321 0.647426
1065 4 0.216784 0.296225 0.66115
791 4 0.352659 0.267757 0.645899
952 2 0.461593 0.306314 0.582203
953 4 0.476591 0.291832 0.596005
904 2 0.459482 0.255996 0.618838
905 4 0.466338 0.27494 0.604029
3121 2 0.497376 0.311246 0.653462
941 4 0.129294 0.33623 0.648198
1279 2 0.0999697 0.353911 0.646374
1281 4 0.111498 0.332729 0.639772
1280 4 0.0884411 0.375093 0.652975
1067 4 0.149492 0.364628 0.614483
1066 2 0.162493 0.384057 0.623352
3275 4 0.0936839 0.394363 0.650409
1068 4 0.175494 0.403486 0.632221
1028 4 0.195135 0.404169 0.627012
1027 2 0.211164 0.408157 0.645783
1029 4 0.227194 0.412146 0.664553
1000 2 0.433995 0.412344 0.605555
1002 4 0.443731 0.413575 0.628552
1910 4 0.446746 0.399637 0.644017
2129 4 0.0119655 0.474546 0.596259
2128 2 0.0189867 0.494823 0.609092
3494 4 0.99592 0.462203 0.600213
1136 4 0.143244 0.46273 0.582307
1174 2 0.238098 0.491425 0.5972
889 2 0.375744 0.48685 0.627653
890 4 0.381483 0.483951 0.651816
891 4 0.370005 0.48975 0.60349
1952 4 0.35284 0.491482 0.595225
1909 2 0.43824 0.416718 0.660175
943 2 0.0149796 0.0273157 0.681654
944 4 0.0343914 0.0286806 0.697354
1075 2 0.0442998 0.057768 0.728095
1076 4 0.0333727 0.0436654 0.710576
1203 4 0.0753441 0.071554 0.745865
1077 4 0.0552269 0.0718706 0.745613
1202 4 0.122514 0.0559777 0.740111
2049 4 0.124168 0.0369023 0.731201
1201 2 0.0989289 0.0637658 0.742988
2047 2 0.140188 0.0268485 0.747556
2400 4 0.301579 0.0463923 0.66588
2398 2 0.289213 0.0267898 0.675261
830 4 0.315689 0.060368 0.670287
2399 4 0.276846 0.00718728 0.684641
829 2 0.340392 0.0639375 0.668804
831 4 0.365095 0.0675069 0.667321
1142 4 0.384543 0.062637 0.668849
1105 2 0.0690175 0.161943 0.725081
1106 4 0.0920117 0.152141 0.725688
1219 2 0.144666 0.12785 0.677762
1131 4 0.150165 0.125443 0.710159
1221 4 0.154645 0.142343 0.695526
32 3 0.138484 0.145496 0.710102
31 1 0.124678 0.15889 0.722718
834 4 0.101162 0.147287 0.743405
1129 2 0.158886 0.11575 0.731493
35 3 0.104346 0.160376 0.712566
33 3 0.122331 0.149493 0.743803
1141 2 0.390313 0.0868398 0.666376
1146 4 0.481275 0.166316 0.732807
3270 4 0.500922 0.166135 0.73461
1107 4 0.0460232 0.171744 0.724475
3188 4 0.0402293 0.191409 0.719472
1177 2 0.00856173 0.217666 0.682281
3187 2 0.0305794 0.199694 0.740999
1179 4 0.0216436 0.238912 0.680649
34 3 0.134219 0.179969 0.724456
822 4 0.118235 0.239441 0.677264
1278 4 0.133752 0.226902 0.673673
1276 2 0.135895 0.213286 0.694534
1277 4 0.138037 0.19967 0.715395
1073 4 0.136049 0.196697 0.738633
1008 4 0.357962 0.225122 0.738024
977 4 0.337791 0.220002 0.740096
1006 2 0.381451 0.225455 0.746587
1262 4 0.409966 0.238764 0.714516
1261 2 0.430686 0.225973 0.720191
1263 4 0.451407 0.213181 0.725865
1145 4 0.443264 0.198463 0.737548
1144 2 0.46227 0.182389 0.735177
1243 2 0.0139857 0.305605 0.700472
1244 4 0.0270043 0.296693 0.71987
3044 4 0.00683729 0.326252 0.665739
942 4 0.162635 0.315667 0.679282
1063 2 0.212914 0.298687 0.685729
1064 4 0.209045 0.301148 0.710308
1242 4 0.199417 0.285797 0.719506
918 4 0.254609 0.257919 0.689257
1240 2 0.201801 0.281964 0.744099
1097 4 0.290974 0.29507 0.731846
917 4 0.282346 0.277587 0.725924
916 2 0.268478 0.267753 0.707591
1193 4 0.400089 0.307227 0.715869
1194 4 0.405495 0.25757 0.718245
1192 2 0.402792 0.282399 0.717057
806 4 0.406831 0.310862 0.735179
3123 4 0.480638 0.308346 0.671809
3274 2 0.106776 0.406704 0.667772
1228 2 0.284949 0.352074 0.714865
1230 4 0.273551 0.367254 0.698592
1229 4 0.296347 0.336893 0.731138
3276 4 0.119869 0.419045 0.685134
816 4 0.127125 0.434976 0.694241
814 2 0.130802 0.43877 0.71868
815 4 0.134478 0.442563 0.743119
1139 4 0.240956 0.421562 0.677671
1138 2 0.256081 0.432356 0.694403
1989 4 0.272985 0.461934 0.704801
1140 4 0.271205 0.443149 0.711134
1987 2 0.286703 0.481625 0.711821
1269 4 0.387502 0.482867 0.672267
1267 2 0.403619 0.465397 0.680028
1099 2 0.406751 0.498077 0.737964
1911 4 0.429734 0.433798 0.676333
1268 4 0.419736 0.447928 0.687788
2048 4 0.156207 0.0167947 0.76391
1197 4 0.142265 0.036549 0.810619
1896 4 0.12769 0.0232922 0.813682
1894 2 0.111215 0.00613876 0.821397
1195 2 0.162498 0.0435885 0.823513
2390 4 0.175479 0.0209808 0.766002
2391 4 0.209015 0.0149382 0.802601
2389 2 0.192247 0.0179595 0.784301
2341 2 0.389426 0.000834558 0.764746
965 4 0.398904 0.0587081 0.812351
818 4 0.388282 0.074561 0.809124
2342 4 0.374904 0.0115379 0.782059
975 4 0.36941 0.0114751 0.801511
964 2 0.418962 0.0727335 0.817461
2322 4 0.491386 0.0570339 0.804241
833 4 0.0919009 0.129049 0.789037
863 4 0.102624 0.111561 0.789438
832 2 0.0965313 0.138168 0.766221
862 2 0.0977086 0.105643 0.813229
1130 4 0.167608 0.106057 0.752828
1227 4 0.177123 0.122593 0.760786
1225 2 0.193907 0.10894 0.77332
1226 4 0.21069 0.0952882 0.785854
840 4 0.223127 0.118287 0.800782
1050 4 0.21673 0.099323 0.803676
838 2 0.239071 0.135882 0.792949
1048 2 0.206439 0.0941219 0.825862
839 4 0.255015 0.153478 0.785116
959 4 0.273267 0.15986 0.789752
1085 4 0.329584 0.105209 0.790593
1086 4 0.334373 0.154718 0.795753
817 2 0.365895 0.0847825 0.804707
1084 2 0.331979 0.129963 0.793173
819 4 0.343508 0.0950039 0.800289
966 4 0.439021 0.086759 0.822572
153 3 0.00854565 0.208148 0.794462
1213 2 0.0442251 0.207616 0.799752
1215 4 0.0261852 0.206555 0.782471
3189 4 0.0209294 0.20798 0.762525
1214 4 0.062265 0.208678 0.817032
779 4 0.0804094 0.200943 0.812874
1072 2 0.137521 0.209441 0.760095
1074 4 0.138993 0.222184 0.781557
778 2 0.10057 0.211052 0.802079
780 4 0.12073 0.221161 0.791283
978 4 0.302792 0.216365 0.775629
960 4 0.303785 0.196842 0.77555
958 2 0.288526 0.178351 0.782651
976 2 0.320291 0.218183 0.757863
1299 4 0.340483 0.171589 0.78586
1007 4 0.40494 0.225788 0.75515
1297 2 0.355272 0.179649 0.804339
1298 4 0.370061 0.18771 0.822819
47 3 0.38918 0.188474 0.819696
1044 4 0.423899 0.223015 0.759999
1042 2 0.426466 0.221354 0.784815
1043 4 0.429033 0.219692 0.809631
1166 4 0.443947 0.20586 0.817877
49 3 0.422265 0.20516 0.825989
1241 4 0.204184 0.278131 0.768692
1096 2 0.306233 0.302747 0.750106
1098 4 0.321491 0.310424 0.768366