ITEM: TIMESTEP
5400000
ITEM: NUMBER OF ATOMS
4590
ITEM: BOX BOUNDS pp pp pp
-9.9985700000000008e+00 9.9985700000000008e+00
-9.9985700000000008e+00 9.9985700000000008e+00
-9.9985700000000008e+00 9.9985700000000008e+00
ITEM: ATOMS id type xs ys zs
1668 4 0.0620982 0.041202 0.0485427
701 4 0.0372281 0.0619549 0.00966223
1666 2 0.0554248 0.0513765 0.0703859
700 2 0.0336582 0.0806341 0.0258956
3290 4 0.0607551 0.0397405 0.0282687
465 4 0.0411857 0.0650989 0.989235
3289 2 0.0798556 0.0237541 0.0304553
3291 4 0.0989562 0.00776761 0.0326419
2264 4 0.31521 0.0626963 0.996961
296 4 0.418144 0.020283 0.088637
2469 4 0.500825 0.0653671 0.0625397
2724 4 0.488968 0.0806234 0.066513
2183 4 0.0666414 0.0823103 0.0119953
555 4 0.0418279 0.115714 0.0372232
553 2 0.0410728 0.137986 0.0258847
702 4 0.0300883 0.0993132 0.042129
554 4 0.0403177 0.160258 0.0145461
2723 4 0.449794 0.0746812 0.036004
2722 2 0.469381 0.0776523 0.0512585
837 4 0.0713062 0.245483 0.0122544
2833 2 0.0373489 0.193513 0.0169051
2835 4 0.0281543 0.171233 0.0235555
2834 4 0.0465434 0.215794 0.0102547
835 2 0.0854756 0.22498 0.0102496
836 4 0.099645 0.204477 0.00824483
915 4 0.190842 0.225433 0.0328547
358 2 0.223783 0.179611 0.0123665
354 4 0.235548 0.216217 0.0264892
359 4 0.239299 0.196795 0.021808
738 4 0.198691 0.213612 0.0462837
736 2 0.193318 0.222621 0.0689807
462 4 0.235735 0.199613 0.0996495
360 4 0.208267 0.162427 0.00292492
352 2 0.246609 0.229723 0.0443891
278 4 0.247644 0.243977 0.0814641
913 2 0.183724 0.24467 0.0185565
2806 2 0.0327115 0.254681 0.0331723
2807 4 0.0557063 0.252988 0.0235002
1054 2 0.0624389 0.292669 0.00824192
1056 4 0.070378 0.313534 0.996981
1055 4 0.0544999 0.271804 0.0195025
2808 4 0.00971664 0.256374 0.0428444
456 4 0.075903 0.312337 0.0723187
294 4 0.0868337 0.295962 0.0716164
292 2 0.100169 0.2773 0.0815691
293 4 0.113504 0.258637 0.0915218
287 4 0.181361 0.282259 0.0104421
914 4 0.176605 0.263908 0.00425838
286 2 0.191795 0.301105 0.0231359
288 4 0.202228 0.319952 0.0358298
353 4 0.257671 0.243229 0.0622891
572 4 0.302194 0.318258 0.99462
482 4 0.289339 0.318826 0.00914166
610 2 0.279147 0.300317 0.0625793
611 4 0.265448 0.280048 0.0677442
612 4 0.292846 0.320586 0.0574145
609 4 0.287721 0.329626 0.0745742
1093 2 0.42512 0.337282 0.0111556
1170 4 0.0725035 0.333227 0.00214303
454 2 0.0848698 0.332381 0.084277
990 4 0.198943 0.339258 0.0399595
988 2 0.199237 0.364009 0.0434919
989 4 0.199531 0.38876 0.0470243
1104 4 0.205097 0.404957 0.0348578
1102 2 0.209004 0.411346 0.011002
1438 2 0.224134 0.422529 0.0698488
1439 4 0.210392 0.416537 0.0898598
741 4 0.325482 0.369713 0.0122769
740 4 0.352952 0.376393 0.053526
386 4 0.357375 0.364907 0.069173
739 2 0.339217 0.373053 0.0329015
227 4 0.411756 0.41405 0.0287551
1305 4 0.431412 0.410999 0.0323189
1303 2 0.432457 0.386194 0.0352847
1304 4 0.433502 0.361389 0.0382504
1095 4 0.442358 0.349997 0.024053
1620 4 0.0941447 0.467346 0.0668149
1618 2 0.118937 0.46948 0.0643682
1619 4 0.143729 0.471613 0.0619215
1787 4 0.16061 0.460572 0.0643431
1223 4 0.150766 0.469351 0.0052016
1222 2 0.138278 0.490884 0.00756143
1786 2 0.17121 0.482582 0.0696708
1440 4 0.237875 0.428522 0.0498379
243 4 0.249482 0.440576 0.0400385
242 4 0.295561 0.445692 0.0587801
241 2 0.272521 0.443134 0.0494093
524 4 0.306936 0.428648 0.0631896
251 4 0.294255 0.427389 0.0802846
523 2 0.327367 0.431671 0.0490969
226 2 0.387679 0.420598 0.0271326
228 4 0.363603 0.427145 0.0255102
525 4 0.347798 0.434695 0.0350043
1667 4 0.0487515 0.061551 0.0922291
19 3 0.0211758 0.0375252 0.132832
17 3 0.0338583 0.055456 0.102331
16 1 0.0157238 0.0446066 0.111419
1422 4 0.00804786 0.0484952 0.142566
1420 2 0.0050459 0.0355883 0.163769
20 3 0.998045 0.0589398 0.11224
1504 2 0.137342 0.0194295 0.160308
1506 4 0.147062 0.0227729 0.137514
1661 4 0.326587 0.0276638 0.161341
654 4 0.295289 0.0763428 0.112184
486 4 0.330244 0.0299323 0.14106
295 2 0.397836 0.0157444 0.102499
297 4 0.377527 0.0112058 0.11636
484 2 0.351949 0.0307028 0.128672
485 4 0.373654 0.0314734 0.116283
747 4 0.480536 0.99495 0.0932351
745 2 0.457147 0.00351173 0.0954291
746 4 0.433758 0.0120737 0.0976231
1476 4 0.305105 0.0938663 0.107994
653 4 0.265084 0.0949976 0.147404
1474 2 0.315803 0.107382 0.0898822
652 2 0.280187 0.0856702 0.129794
580 2 0.309303 0.160189 0.140483
582 4 0.320882 0.138794 0.146257
758 4 0.332048 0.125695 0.158004
693 4 0.24754 0.0964861 0.158988
1475 4 0.326501 0.120898 0.0717701
557 4 0.449477 0.121007 0.096414
350 4 0.453688 0.0881429 0.139468
556 2 0.441837 0.107381 0.115936
558 4 0.434196 0.0937539 0.135459
771 4 0.48687 0.144144 0.14553
769 2 0.473496 0.155311 0.163464
338 4 0.010921 0.209323 0.162492
505 2 0.151063 0.24063 0.100653
506 4 0.170528 0.22494 0.100357
737 4 0.187945 0.23163 0.0916776
460 2 0.243156 0.179584 0.112647
475 2 0.234772 0.207907 0.163839
476 4 0.213235 0.196864 0.170114
277 2 0.233284 0.255418 0.0984372
461 4 0.250578 0.159555 0.125645
371 4 0.193145 0.191494 0.171781
29 3 0.29949 0.236835 0.135341
285 4 0.315059 0.248998 0.142709
30 3 0.299819 0.199799 0.128567
581 4 0.297723 0.181584 0.134709
26 1 0.296108 0.215743 0.1444
477 4 0.25631 0.21895 0.157564
27 3 0.310814 0.212687 0.161822
628 2 0.399216 0.234653 0.131129
254 4 0.36807 0.240055 0.159391
630 4 0.380337 0.230907 0.14709
253 2 0.349832 0.222954 0.159694
629 4 0.418095 0.238398 0.115168
624 4 0.43491 0.249134 0.118705
507 4 0.131597 0.25632 0.100949
279 4 0.218924 0.266859 0.11541
283 2 0.310819 0.273434 0.14588
284 4 0.306578 0.297871 0.149052
622 2 0.453663 0.263703 0.126532
623 4 0.472416 0.278272 0.134359
527 4 0.463633 0.284475 0.152302
536 4 0.0881217 0.364021 0.111623
455 4 0.0938366 0.352425 0.0962353
647 4 0.107286 0.3542 0.164099
537 4 0.118108 0.366877 0.15154
535 2 0.103115 0.365449 0.131582
625 2 0.21243 0.398815 0.119448
626 4 0.220945 0.398377 0.142952
627 4 0.203915 0.399254 0.0959427
250 2 0.29096 0.403457 0.0867344
607 2 0.284426 0.348435 0.0907159
252 4 0.287665 0.379526 0.0931843
608 4 0.281131 0.367243 0.106858
301 2 0.324186 0.390104 0.140925
303 4 0.303598 0.40414 0.142998
638 4 0.287138 0.415792 0.145684
385 2 0.352252 0.371277 0.0928026
302 4 0.344774 0.376068 0.138852
387 4 0.347129 0.377647 0.116432
12 3 0.398451 0.395441 0.132488
11 1 0.377695 0.400844 0.140805
15 3 0.361804 0.388997 0.129591
672 4 0.415586 0.400181 0.140677
671 4 0.446742 0.389496 0.10305
670 2 0.431164 0.394839 0.121864
281 4 0.465698 0.382958 0.0991727
280 2 0.487664 0.371332 0.0964302
313 2 0.0044232 0.466815 0.12641
315 4 0.0181643 0.459363 0.145925
1573 2 0.221922 0.450971 0.142882
1575 4 0.198902 0.443742 0.149439
1574 4 0.244943 0.4582 0.136326
639 4 0.257215 0.44839 0.122387
637 2 0.272177 0.432091 0.134036
14 3 0.374138 0.423588 0.137897
495 4 0.382863 0.439787 0.132047
1559 4 0.342361 0.477172 0.110451
493 2 0.360897 0.450375 0.126517
494 4 0.338931 0.460963 0.120987
1421 4 0.00204395 0.0226815 0.184973
1416 4 0.00265438 0.0273052 0.203522
1414 2 0.99999 0.0173497 0.226303
1415 4 0.997325 0.00739424 0.249084
690 4 0.108714 0.0241141 0.239042
1505 4 0.127622 0.016086 0.183101
688 2 0.110749 0.0149712 0.215859
689 4 0.112784 0.00582832 0.192676
1660 2 0.324681 0.00685622 0.175074
1700 4 0.324217 0.082205 0.211884
22 3 0.354044 0.0481144 0.198574
698 4 0.371978 0.0413761 0.20403
697 2 0.370463 0.0165589 0.206673
333 4 0.383862 0.0573203 0.209381
21 1 0.353384 0.0694737 0.207088
23 3 0.337251 0.0704165 0.223739
331 2 0.406789 0.0606799 0.199987
24 3 0.3742 0.0746724 0.215924
25 3 0.348173 0.08405 0.190384
2744 4 0.484127 0.0369108 0.193022
351 4 0.448402 0.0670384 0.184495
742 2 0.477302 0.0633205 0.227908
349 2 0.451045 0.0775907 0.161982
332 4 0.429715 0.0640395 0.190593
743 4 0.47222 0.0776035 0.247791
744 4 0.482384 0.0490375 0.208025
513 4 0.00391655 0.139533 0.171596
511 2 0.024629 0.129415 0.181282
512 4 0.0453414 0.119298 0.190967
450 4 0.0600132 0.1257 0.201419
448 2 0.0846942 0.128293 0.204469
578 4 0.00106676 0.159272 0.174513
449 4 0.109375 0.130886 0.207519
236 4 0.114705 0.127816 0.187295
235 2 0.135219 0.113524 0.187027
237 4 0.155734 0.0992314 0.18676
1701 4 0.274872 0.0826386 0.219983
691 2 0.258384 0.0873287 0.179573
1699 2 0.299545 0.0824218 0.215934
692 4 0.269229 0.0781714 0.200157
757 2 0.330981 0.108775 0.176382
759 4 0.329914 0.0918548 0.19476
770 4 0.460123 0.166478 0.181398
337 2 0.0267805 0.227606 0.168769
339 4 0.04264 0.245889 0.175046
361 2 0.129465 0.217659 0.215555
372 4 0.150386 0.20137 0.195759
363 4 0.127821 0.237634 0.230504
362 4 0.131109 0.197685 0.200605
395 4 0.11302 0.238007 0.244901
370 2 0.171766 0.196432 0.18377
28 3 0.27443 0.213976 0.152484
756 4 0.321488 0.208343 0.180568
754 2 0.324926 0.199368 0.20365
255 4 0.331594 0.205852 0.159997
755 4 0.328364 0.190393 0.226733
703 2 0.0390725 0.274842 0.208706
704 4 0.0363355 0.257773 0.190641
2615 4 0.0367313 0.296277 0.245858
705 4 0.0418095 0.291911 0.22677
343 2 0.377913 0.321198 0.236413
528 4 0.447828 0.29634 0.198238
526 2 0.455731 0.290407 0.17527
542 4 0.444631 0.30614 0.215608
541 2 0.448111 0.322744 0.233976
620 4 0.0424054 0.422516 0.174119
619 2 0.0315371 0.412829 0.194446
262 2 0.0457831 0.41574 0.248619
298 2 0.0964848 0.354205 0.246945
646 2 0.110667 0.345355 0.18724
300 4 0.105193 0.348668 0.224171
648 4 0.114048 0.336509 0.210381
415 2 0.165046 0.387989 0.221066
1430 4 0.163013 0.408515 0.184643
417 4 0.16133 0.391287 0.196561
416 4 0.168761 0.384692 0.245571
13 3 0.377052 0.39555 0.163387
345 4 0.383234 0.329359 0.213386
597 4 0.390528 0.37688 0.171836
596 4 0.383408 0.349269 0.212917
595 2 0.386968 0.363075 0.192377
645 4 0.391826 0.397181 0.181062
264 4 0.02988 0.411021 0.229911
621 4 0.0206687 0.403143 0.214774
1319 4 0.0897808 0.496979 0.195827
1431 4 0.202607 0.426456 0.15992
1429 2 0.18281 0.417486 0.172281
766 2 0.214167 0.477773 0.237534
768 4 0.214796 0.454334 0.228852
438 4 0.247949 0.444296 0.22942
436 2 0.266911 0.450573 0.244461
230 4 0.334312 0.481895 0.192132
643 2 0.406907 0.416828 0.184489
229 2 0.342887 0.475527 0.214739
231 4 0.351462 0.469159 0.237346
660 4 0.356626 0.450894 0.239244
644 4 0.421988 0.436474 0.187915
447 4 0.425376 0.439436 0.207342
445 2 0.429054 0.437586 0.232004
1402 2 0.00974867 0.0041475 0.282899
233 4 0.0168782 0.0269772 0.315524
232 2 0.0398492 0.0327747 0.323517
1403 4 0.0211154 0.0142128 0.302765
234 4 0.0628202 0.0385722 0.331511
723 4 0.218024 0.0115775 0.284889
1405 2 0.229399 0.040079 0.314538
1406 4 0.221657 0.0192866 0.303009
1407 4 0.237141 0.0608715 0.326067
425 4 0.463412 0.0906301 0.260358
391 2 0.07256 0.0997593 0.293086
393 4 0.0558238 0.100169 0.311658
2586 4 0.0371631 0.101338 0.317345
392 4 0.0892963 0.0993494 0.274514
2584 2 0.0167443 0.0889469 0.324742
675 4 0.135602 0.0902883 0.309854
546 4 0.145913 0.102083 0.298755
545 4 0.106537 0.103591 0.267967
544 2 0.126225 0.102837 0.283361
399 4 0.0841198 0.147291 0.327619
599 4 0.246252 0.0748812 0.33719
598 2 0.250742 0.0915442 0.319097
600 4 0.255233 0.108207 0.301004
716 4 0.366537 0.155259 0.287388
419 4 0.36269 0.14107 0.300995
418 2 0.358325 0.134638 0.324759
424 2 0.470717 0.0937558 0.284065
258 4 0.497696 0.0983748 0.312008
426 4 0.478021 0.0968816 0.307773
765 4 0.478819 0.147516 0.269509
394 2 0.100541 0.250189 0.262819
397 2 0.0962216 0.16599 0.33898
275 4 0.166434 0.212177 0.335984
404 4 0.205765 0.168118 0.30729
403 2 0.187738 0.180726 0.319174
401 4 0.217342 0.257233 0.323776
474 4 0.231373 0.244214 0.325249
472 2 0.255999 0.245761 0.321205
405 4 0.169711 0.193334 0.331059
708 4 0.285243 0.249131 0.337369
473 4 0.280625 0.247309 0.317161
715 2 0.386806 0.169894 0.28779
717 4 0.407074 0.18453 0.288193
377 4 0.40679 0.201978 0.29934
376 2 0.410189 0.224405 0.309862
378 4 0.413587 0.246831 0.320383
444 4 0.0209546 0.259499 0.27049
2614 2 0.0127052 0.300048 0.251663
442 2 0.0451763 0.257179 0.276243
443 4 0.0693981 0.254858 0.281996
396 4 0.0880632 0.262372 0.280737
402 4 0.169466 0.271416 0.321048
400 2 0.193404 0.264325 0.322412
309 4 0.360866 0.320502 0.275296
344 4 0.372592 0.313038 0.259441
266 4 0.408371 0.264275 0.312859
265 2 0.393066 0.276857 0.328111
2769 4 0.502677 0.275475 0.335479
615 4 0.436612 0.339123 0.265123
269 4 0.484686 0.281964 0.329573
750 4 0.0703394 0.359349 0.279819
366 4 0.00958863 0.334646 0.278465
748 2 0.0468698 0.352919 0.274073
749 4 0.0234003 0.346489 0.268326
263 4 0.0616862 0.42046 0.267328
299 4 0.0877767 0.359741 0.26972
734 4 0.147377 0.384272 0.305401
733 2 0.158234 0.391212 0.283973
735 4 0.169091 0.398152 0.262546
290 4 0.21907 0.363314 0.246303
289 2 0.231125 0.377194 0.26325
504 4 0.20012 0.379082 0.299895
502 2 0.203552 0.395624 0.318327
291 4 0.24318 0.391074 0.280197
414 4 0.243106 0.41043 0.282828
677 4 0.182215 0.41414 0.267461
412 2 0.257913 0.412125 0.302904
413 4 0.272721 0.413819 0.32298
728 4 0.322716 0.411322 0.308628
727 2 0.336572 0.392004 0.30088
308 4 0.337988 0.357612 0.299794
729 4 0.350428 0.372687 0.293132
307 2 0.349427 0.339057 0.287545
659 4 0.362402 0.415348 0.273941
543 4 0.451591 0.339348 0.252343
614 4 0.446171 0.338126 0.314198
613 2 0.441392 0.338624 0.28966
2925 4 0.4646 0.330222 0.317271
120 3 0.478635 0.414494 0.327306
775 2 0.0781571 0.453317 0.325058
776 4 0.0793645 0.456936 0.300347
1757 4 0.0854498 0.466142 0.282702
1756 2 0.089769 0.490598 0.279795
678 4 0.217671 0.4378 0.241312
1544 4 0.208448 0.503854 0.307874
676 2 0.199943 0.42597 0.254386
437 4 0.285872 0.456851 0.259501
433 2 0.308764 0.438421 0.282022
435 4 0.301461 0.443582 0.258672
2 3 0.316645 0.424184 0.324823
5 3 0.280248 0.431599 0.328455
434 4 0.316066 0.433261 0.305372
658 2 0.359514 0.433121 0.256593
2862 4 0.492836 0.422128 0.302891
446 4 0.432733 0.435736 0.256666
713 4 0.473096 0.424787 0.310885
714 4 0.439073 0.431479 0.274852
712 2 0.456084 0.428133 0.292869
317 4 0.078593 0.0506879 0.331328
732 4 0.0871445 0.080708 0.391546
316 2 0.0853723 0.0607478 0.353191
318 4 0.0921515 0.0708076 0.375055
673 2 0.135551 0.0787546 0.332038
674 4 0.1355 0.0672209 0.354223
606 4 0.165546 0.038757 0.397097
604 2 0.146854 0.0465574 0.382437
605 4 0.128161 0.0543577 0.367777
321 4 0.233752 0.0510803 0.387913
683 4 0.240602 0.0397354 0.372349
319 2 0.23833 0.0733022 0.398421
682 2 0.254773 0.0226977 0.36077
684 4 0.268944 0.00565999 0.34919
247 2 0.308101 0.0167256 0.362849
248 4 0.32724 0.0269826 0.375245
633 4 0.331461 0.0427626 0.363134
631 2 0.354218 0.0529908 0.361491
632 4 0.376975 0.0632189 0.359848
468 4 0.390283 0.0675428 0.373684
2585 4 0.996326 0.0765556 0.332139
730 2 0.0837842 0.0922388 0.413476
686 4 0.221393 0.14965 0.369829
685 2 0.236473 0.131089 0.377128
320 4 0.242909 0.0955241 0.408928
687 4 0.251552 0.112528 0.384427
725 4 0.255472 0.110815 0.404651
466 2 0.396434 0.0801949 0.394354
420 4 0.353959 0.128206 0.348523
467 4 0.402584 0.0928471 0.415025
398 4 0.108323 0.184689 0.350341
390 4 0.0960072 0.201818 0.408677
388 2 0.104279 0.201374 0.385085
276 4 0.132089 0.202263 0.370954
389 4 0.11255 0.200931 0.361494
274 2 0.149262 0.20722 0.353469
410 4 0.228739 0.167673 0.361238
409 2 0.234855 0.184903 0.378294
649 2 0.244226 0.240571 0.399945
706 2 0.305022 0.23939 0.349163
650 4 0.243223 0.219355 0.386753
707 4 0.324802 0.22965 0.360957
411 4 0.240972 0.202133 0.395349
497 4 0.342468 0.237355 0.355833
496 2 0.357429 0.236415 0.375844
498 4 0.37239 0.235476 0.395856
2456 4 0.374242 0.230151 0.415805
616 2 0.0794075 0.28317 0.373762
617 4 0.0796871 0.263598 0.38932
618 4 0.0791278 0.302742 0.358204
696 4 0.0901346 0.31397 0.370336
694 2 0.11227 0.325275 0.373059
695 4 0.134405 0.336579 0.375782
651 4 0.245228 0.261787 0.413138
488 4 0.29538 0.295144 0.391676
487 2 0.27647 0.285997 0.405237
509 4 0.297091 0.308424 0.375006
508 2 0.285356 0.321182 0.356986
489 4 0.257559 0.276851 0.418798
267 4 0.377761 0.289439 0.343363
268 2 0.462641 0.279424 0.341093
270 4 0.440595 0.276885 0.352613
306 4 0.441069 0.273504 0.371502
304 2 0.436064 0.28082 0.394882
1259 4 0.146368 0.348498 0.385846
1258 2 0.156723 0.343369 0.408019
548 4 0.137563 0.40825 0.380269
375 4 0.279689 0.39851 0.335626
373 2 0.281958 0.374225 0.341124
374 4 0.284227 0.349939 0.346623
510 4 0.273622 0.33394 0.338965
3 3 0.295917 0.404197 0.348979
2923 2 0.47927 0.345429 0.33064
118 3 0.490929 0.384145 0.345891
2924 4 0.493939 0.360637 0.344008
116 1 0.487827 0.407122 0.346794
119 3 0.474003 0.412555 0.364621
751 2 0.471489 0.415225 0.406068
753 4 0.470738 0.406241 0.382746
777 4 0.0769497 0.449699 0.349769
602 4 0.0570519 0.450459 0.353709
601 2 0.039898 0.453919 0.371568
603 4 0.0227442 0.45738 0.389427
680 4 0.00837187 0.46356 0.37644
1775 4 0.106525 0.456488 0.369436
1774 2 0.118148 0.477674 0.363014
549 4 0.098964 0.439345 0.373639
547 2 0.118263 0.423798 0.376954
569 4 0.141635 0.417766 0.398692
1545 4 0.201956 0.49376 0.35642
1543 2 0.205202 0.498807 0.332147
503 4 0.206984 0.412166 0.33676
635 4 0.209841 0.445536 0.386023
636 4 0.195507 0.425702 0.342412
634 2 0.202674 0.435619 0.364217
1 1 0.299045 0.425189 0.339601
668 4 0.301256 0.45907 0.3596
4 3 0.304056 0.440613 0.356196
667 2 0.316592 0.477156 0.367532
669 4 0.331927 0.495241 0.375464
2430 4 0.169874 0.0545891 0.434801
341 4 0.154876 0.0673602 0.440556
2429 4 0.20384 0.0179531 0.437001
2428 2 0.186857 0.0362711 0.435901
842 4 0.349939 0.0622457 0.457998
1216 2 0.370602 0.0377578 0.453315
1217 4 0.364139 0.0598347 0.443517
1218 4 0.377065 0.0156808 0.463114
2878 2 0.493916 0.0245016 0.482107
2879 4 0.47309 0.0115221 0.486899
367 2 0.0634427 0.0953477 0.472178
368 4 0.0652243 0.0986318 0.447455
259 2 0.0465388 0.155462 0.488113
260 4 0.0601288 0.154469 0.467148
731 4 0.0804239 0.10377 0.435406
369 4 0.0616611 0.0920636 0.496901
342 4 0.178187 0.110476 0.430641
340 2 0.166531 0.0889182 0.435599
1152 4 0.180403 0.130412 0.429701
1150 2 0.187382 0.13879 0.452202
1151 4 0.19436 0.147168 0.474703
939 4 0.190423 0.165584 0.48031
724 2 0.264316 0.123798 0.424104
431 4 0.310167 0.106983 0.487773
726 4 0.27316 0.136781 0.443557
432 4 0.284248 0.139704 0.460236
430 2 0.297208 0.123344 0.474005
843 4 0.312603 0.0907787 0.475104
576 4 0.410716 0.11051 0.41207
841 2 0.331271 0.0765122 0.466551
575 4 0.390143 0.153734 0.426531
516 4 0.398592 0.171935 0.429877
574 2 0.400429 0.132122 0.4193
471 4 0.0650343 0.174339 0.463399
469 2 0.0720249 0.183514 0.441215
470 4 0.0790155 0.192688 0.419031
879 4 0.161266 0.232272 0.498338
2455 2 0.36111 0.234326 0.436669
2457 4 0.347978 0.238501 0.457533
514 2 0.397454 0.193021 0.443266
515 4 0.396317 0.214107 0.456656
877 2 0.144038 0.250256 0.496117
584 4 0.358568 0.289139 0.468396
583 2 0.353709 0.292005 0.444037
585 4 0.34885 0.294872 0.419679
239 4 0.427797 0.343471 0.463931
305 4 0.43106 0.288137 0.418262
1011 4 0.427208 0.281894 0.436643
1009 2 0.428867 0.3031 0.449786
1010 4 0.430526 0.324306 0.462929
2507 4 0.4466 0.322657 0.47489
406 2 0.0548812 0.381876 0.476668
407 4 0.040613 0.365198 0.488645
408 4 0.0691494 0.398554 0.464691
1260 4 0.167078 0.338239 0.430191
326 4 0.18785 0.339025 0.428858
709 2 0.176339 0.408416 0.462781
711 4 0.179484 0.386951 0.475214
8 3 0.17491 0.388445 0.494486
325 2 0.189538 0.355412 0.447668
327 4 0.191226 0.371798 0.466478
7 3 0.193641 0.358653 0.481286
238 2 0.406226 0.354565 0.457864
240 4 0.384656 0.365659 0.451796
334 2 0.364835 0.393166 0.456178
335 4 0.36562 0.368861 0.45036
560 4 0.487201 0.376836 0.476726
752 4 0.47224 0.42421 0.429389
559 2 0.480978 0.395932 0.461834
561 4 0.474754 0.415029 0.446943
2506 2 0.461195 0.342362 0.479776
2508 4 0.475791 0.362067 0.484661
538 2 0.0620553 0.476667 0.473286
539 4 0.0536379 0.479089 0.496705
540 4 0.0704728 0.474246 0.449867
2812 2 0.00438668 0.459321 0.493334
568 2 0.156094 0.428953 0.415749
710 4 0.173194 0.42988 0.450349
570 4 0.170554 0.44014 0.432806
881 4 0.238932 0.481355 0.490316
1446 4 0.280013 0.499154 0.472426
1399 2 0.355417 0.439818 0.426996
1401 4 0.364803 0.422353 0.44223
1400 4 0.346032 0.457284 0.411763
336 4 0.364051 0.41747 0.461996
927 4 0.438727 0.453042 0.503543
1180 2 0.222836 0.0493385 0.537394
1182 4 0.204267 0.065077 0.531677
950 4 0.195514 0.0654192 0.5139
1181 4 0.241404 0.0336 0.54311
963 4 0.260621 0.0393673 0.544565
961 2 0.279104 0.0247331 0.536234
962 4 0.297587 0.0100988 0.527904
1005 4 0.351974 0.00710078 0.593831
4465 2 0.444874 0.994996 0.574183
87 3 0.455718 0.00911622 0.496742
4466 4 0.453103 0.992833 0.550671
720 4 0.00432172 0.0930265 0.52913
718 2 0.0253451 0.0868624 0.51708
261 4 0.0329488 0.156455 0.509077
719 4 0.0463684 0.0806983 0.50503
1030 2 0.154998 0.0969334 0.568472
1031 4 0.16637 0.108828 0.549647
951 4 0.175231 0.108002 0.530515
949 2 0.185372 0.0867105 0.522207
858 4 0.325346 0.168401 0.519913
857 4 0.340449 0.129428 0.547367
856 2 0.332897 0.148914 0.53364
899 4 0.34781 0.125666 0.56443
1034 4 0.0477614 0.164296 0.520688
1035 4 0.0327756 0.179884 0.565778
1033 2 0.0402685 0.17209 0.543233
1082 4 0.0380814 0.163033 0.574955
1272 4 0.175792 0.224758 0.508367
938 4 0.151013 0.178256 0.508363
1270 2 0.184662 0.235811 0.528966
1271 4 0.193533 0.246865 0.549565
909 4 0.192983 0.251008 0.568261
937 2 0.170718 0.17192 0.494337
797 4 0.333896 0.183633 0.51054
796 2 0.34476 0.205043 0.517523
798 4 0.355624 0.226453 0.524506
812 4 0.370041 0.23446 0.536072
811 2 0.387884 0.222753 0.549101
813 4 0.405727 0.211047 0.56213
873 4 0.403545 0.195272 0.57477
878 4 0.12681 0.268241 0.493895
804 4 0.323362 0.318387 0.516213
929 4 0.340994 0.326856 0.520805
1206 4 0.408873 0.32914 0.533958
930 4 0.390682 0.325259 0.526209
928 2 0.365838 0.326058 0.523507
1204 2 0.423333 0.330735 0.554294
954 4 0.451141 0.315798 0.570674
1205 4 0.437793 0.332329 0.57463
1041 4 0.0672881 0.377074 0.574266
1039 2 0.0814517 0.394317 0.562986
1040 4 0.0956152 0.411561 0.551706
9 3 0.175895 0.356037 0.514315
895 2 0.205633 0.411303 0.538473
896 4 0.210791 0.398011 0.517933
1189 2 0.246905 0.367108 0.516827
1191 4 0.22723 0.382508 0.517787
10 3 0.206874 0.377158 0.510873
6 1 0.18792 0.370155 0.500369
802 2 0.303094 0.332143 0.511197
803 4 0.282826 0.345899 0.506182
1190 4 0.26658 0.351708 0.515867
1937 4 0.00138661 0.491157 0.53165
2813 4 0.00891133 0.482661 0.501077
993 4 0.0851952 0.426822 0.543887
1136 4 0.141526 0.453187 0.555959
992 4 0.124065 0.457954 0.548432
991 2 0.10463 0.442388 0.546159
1135 2 0.162425 0.440971 0.562217
897 4 0.200474 0.424595 0.559013
1137 4 0.183324 0.428755 0.568475
882 4 0.217222 0.470087 0.533932
1172 4 0.216488 0.473736 0.554377
880 2 0.228077 0.475721 0.512124
1171 2 0.223099 0.484637 0.575886
2223 4 0.286749 0.496598 0.536021
926 4 0.449514 0.423607 0.542504
925 2 0.444121 0.438324 0.523023
1001 4 0.442342 0.431545 0.559824
1000 2 0.443415 0.448654 0.578025
945 4 0.992633 0.0201345 0.677927
1155 4 0.16042 0.0422046 0.632967
1153 2 0.148524 0.057466 0.617131
1284 4 0.148081 0.03301 0.645212
1154 4 0.136628 0.0727274 0.601296
1282 2 0.147178 0.00854505 0.650294
4467 4 0.436646 0.997158 0.597694
808 2 0.492536 0.0653223 0.608966
810 4 0.483404 0.0480862 0.624609
43 3 0.491286 0.01285 0.650398
41 1 0.493902 0.0341983 0.659105
45 3 0.485892 0.0496261 0.644392
809 4 0.501668 0.0825585 0.593323
2282 4 0.48444 0.00463542 0.633943
1032 4 0.143627 0.0850392 0.587298
1211 4 0.198139 0.120865 0.637937
888 4 0.214205 0.113226 0.6306
1210 2 0.180247 0.121963 0.655369
886 2 0.238536 0.116962 0.626217
887 4 0.262867 0.120698 0.621834
898 2 0.358996 0.137744 0.583249
900 4 0.370182 0.149822 0.602069
872 4 0.378312 0.167264 0.607627
1199 4 0.0083844 0.179966 0.635638
1083 4 0.0208491 0.172615 0.620911
1081 2 0.0294653 0.167824 0.597933
820 2 0.108332 0.23124 0.665272
947 4 0.184208 0.231883 0.634672
1239 4 0.322707 0.161899 0.61752
1237 2 0.335129 0.1832 0.613382
871 2 0.390928 0.181268 0.591199
1238 4 0.347551 0.204502 0.609244
792 4 0.354512 0.212916 0.627964
790 2 0.364649 0.224315 0.647776
3357 4 0.473025 0.233454 0.666387
906 4 0.480815 0.238082 0.647855
1208 4 0.0797688 0.253769 0.665022
893 4 0.0775232 0.301699 0.630899
1207 2 0.0556087 0.259594 0.667765
892 2 0.0909278 0.319862 0.64165
821 4 0.0988392 0.25328 0.658251
907 2 0.188516 0.246634 0.59247
946 2 0.183226 0.246872 0.654661
908 4 0.184048 0.24226 0.616679
904 2 0.476884 0.248171 0.625317
952 2 0.456031 0.294031 0.581963
905 4 0.472952 0.25826 0.60278
953 4 0.460921 0.272264 0.593253
3121 2 0.486739 0.301855 0.639546
3114 4 0.506476 0.282599 0.603707
3123 4 0.474752 0.311939 0.659034
982 2 0.0291778 0.369192 0.579319
984 4 0.00609159 0.363878 0.571321
983 4 0.052264 0.374506 0.587317
894 4 0.104332 0.338026 0.652401
1279 2 0.104824 0.373927 0.661298
1281 4 0.0916986 0.353854 0.654227
1280 4 0.11795 0.393999 0.668368
1066 2 0.174771 0.380454 0.63999
1068 4 0.181658 0.400615 0.626903
1067 4 0.167885 0.360293 0.653077
941 4 0.164705 0.3406 0.649063
2128 2 0.0178112 0.480425 0.636215
2129 4 0.00594388 0.458992 0.631216
2130 4 0.0296785 0.501857 0.641214
3275 4 0.111741 0.412248 0.672224
1028 4 0.194695 0.414132 0.620258
1027 2 0.214626 0.421447 0.633467
1173 4 0.229711 0.495538 0.597395
1029 4 0.234556 0.428761 0.646675
1139 4 0.236892 0.41935 0.664327
889 2 0.37102 0.470227 0.635485
890 4 0.371985 0.458897 0.657753
891 4 0.370055 0.481557 0.613217
1952 4 0.375207 0.499139 0.604333
1910 4 0.454751 0.459577 0.612842
1002 4 0.444487 0.465763 0.596227
1909 2 0.44179 0.451039 0.632446
1911 4 0.42883 0.442501 0.652049
1268 4 0.428754 0.431192 0.668459
943 2 0.0154752 0.0292993 0.682333
944 4 0.0383175 0.0384642 0.686739
1075 2 0.0509908 0.0584151 0.722639
1076 4 0.038605 0.0490783 0.703028
1077 4 0.0633765 0.0677518 0.742251
829 2 0.366299 0.0176115 0.687467
831 4 0.380516 0.0279155 0.705268
1142 4 0.390858 0.0413223 0.716154
1141 2 0.393053 0.0629938 0.703878
1143 4 0.395249 0.0846653 0.691601
830 4 0.352082 0.00730754 0.669666
44 3 0.482643 0.0359433 0.679319
1106 4 0.087008 0.167274 0.735847
35 3 0.0970214 0.161805 0.720182
1219 2 0.141837 0.129859 0.695831
1131 4 0.14222 0.110495 0.730073
1221 4 0.131409 0.119746 0.716181
32 3 0.117029 0.130559 0.724213
31 1 0.111479 0.150703 0.733833
1220 4 0.152266 0.139973 0.67548
1212 4 0.162355 0.123061 0.672801
1025 4 0.378223 0.0958767 0.691189
1024 2 0.374604 0.118119 0.680356
1026 4 0.370984 0.140362 0.669524
1105 2 0.064233 0.175729 0.729932
1107 4 0.041458 0.184185 0.724018
3188 4 0.0322452 0.197609 0.73449
1177 2 0.0125562 0.24494 0.704615
822 4 0.117826 0.2092 0.672292
34 3 0.130809 0.163207 0.736738
1278 4 0.121718 0.21743 0.690237
1276 2 0.122969 0.200609 0.708695
1277 4 0.12422 0.183789 0.727153
1073 4 0.138235 0.184604 0.742051
918 4 0.252629 0.245387 0.704087
978 4 0.300849 0.215924 0.746789
791 4 0.374785 0.235713 0.667587
1262 4 0.406467 0.243009 0.729804
3355 2 0.492073 0.218654 0.67297
1261 2 0.429458 0.23336 0.73167
3270 4 0.485416 0.176571 0.747135
1263 4 0.45245 0.223711 0.733535
1146 4 0.485225 0.17364 0.727298
1145 4 0.45731 0.213748 0.716675
1144 2 0.471267 0.193694 0.721986
1209 4 0.0314486 0.26542 0.670509
1243 2 0.0193066 0.30104 0.663963
1179 4 0.0236557 0.261577 0.689608
1244 4 0.0421681 0.308771 0.670502
942 4 0.168794 0.305356 0.684302
1065 4 0.18641 0.272676 0.690256
940 2 0.16675 0.322978 0.666683
948 4 0.182243 0.26186 0.67465
1063 2 0.183605 0.281532 0.713469
1064 4 0.1808 0.290389 0.736683
1242 4 0.190346 0.282834 0.75251
1097 4 0.283129 0.278406 0.736627
917 4 0.284021 0.282196 0.71675
916 2 0.268325 0.263791 0.710419
1096 2 0.29185 0.288659 0.757699
1192 2 0.399978 0.285129 0.728992
1194 4 0.404801 0.261194 0.723607
1193 4 0.395155 0.309065 0.734377
1228 2 0.287448 0.378965 0.722075
1230 4 0.303067 0.365818 0.707639
1229 4 0.271828 0.392112 0.73651
1982 4 0.040683 0.491365 0.740263
3276 4 0.0842184 0.42654 0.711454
3274 2 0.0979795 0.419394 0.691839
816 4 0.100191 0.426006 0.724463
814 2 0.117337 0.430079 0.742201
1078 2 0.159321 0.466613 0.748304
2016 4 0.167123 0.501686 0.740452
1138 2 0.232631 0.429108 0.68695
1140 4 0.22837 0.438866 0.709574
1079 4 0.172978 0.48289 0.735123
1989 4 0.240332 0.454698 0.711659
1987 2 0.248832 0.478125 0.713687
1988 4 0.257331 0.501551 0.715714
1269 4 0.380593 0.444539 0.670213
1267 2 0.404674 0.437865 0.669336
4323 4 0.414294 0.490292 0.713119
1100 4 0.433891 0.484016 0.748377
1203 4 0.0729527 0.0500909 0.748806
1197 4 0.129205 0.0104118 0.837971
2049 4 0.12823 0.0288931 0.768285
1201 2 0.0909057 0.0376549 0.760981
1202 4 0.108859 0.025219 0.773155
2047 2 0.146791 0.0213878 0.753306
818 4 0.385832 0.0723318 0.816295
965 4 0.395441 0.0885871 0.809067
817 2 0.367081 0.0806806 0.802017
964 2 0.41608 0.0981834 0.819419
832 2 0.0770767 0.151469 0.777427
863 4 0.0791608 0.135043 0.813866
833 4 0.068074 0.14246 0.798944
862 2 0.0782959 0.110548 0.818808
869 4 0.0992605 0.140532 0.817513
834 4 0.0860794 0.160477 0.75591
1129 2 0.15299 0.110785 0.752636
33 3 0.101473 0.146698 0.754381
1130 4 0.163761 0.111075 0.775199
1227 4 0.175237 0.0967255 0.784077
1225 2 0.197895 0.105281 0.790289
1226 4 0.220553 0.113836 0.796501
840 4 0.225572 0.132362 0.788837
838 2 0.247053 0.140322 0.778818
1049 4 0.214916 0.0870452 0.832079
1084 2 0.331425 0.126103 0.794939
1086 4 0.32492 0.149836 0.790513
1085 4 0.337931 0.102369 0.799365
819 4 0.34833 0.0890294 0.787738
966 4 0.436718 0.10778 0.82977
1038 4 0.440529 0.124137 0.841855
1213 2 0.0469564 0.226657 0.808953
1215 4 0.0257404 0.218152 0.798817
3189 4 0.0194075 0.214673 0.779708
1214 4 0.0681724 0.235161 0.819089
153 3 0.0117306 0.224636 0.812062
3187 2 0.0258264 0.206141 0.757099
779 4 0.0831539 0.23844 0.806468
1072 2 0.13876 0.195838 0.764382
1074 4 0.139285 0.207071 0.786714
778 2 0.105966 0.230781 0.799676
780 4 0.128777 0.223121 0.792884
839 4 0.268534 0.148282 0.7688
959 4 0.281456 0.162246 0.772407
960 4 0.305829 0.204913 0.763121
958 2 0.293642 0.183579 0.767764
976 2 0.321511 0.229849 0.748878
1299 4 0.3339 0.168043 0.790009
1297 2 0.351804 0.176919 0.805037
1298 4 0.369709 0.185795 0.820065
1008 4 0.355735 0.244523 0.766459
1006 2 0.374823 0.230208 0.773933
1007 4 0.393912 0.215892 0.781407
47 3 0.378062 0.198549 0.834154
1044 4 0.414312 0.212074 0.777866
1042 2 0.414703 0.2073 0.802406
1043 4 0.415095 0.202527 0.826947