ITEM: TIMESTEP
3790000
ITEM: NUMBER OF ATOMS
4590
ITEM: BOX BOUNDS pp pp pp
-9.9985700000000008e+00 9.9985700000000008e+00
-9.9985700000000008e+00 9.9985700000000008e+00
-9.9985700000000008e+00 9.9985700000000008e+00
ITEM: ATOMS id type xs ys zs
1666 2 0.0460943 0.0516567 0.0761809
1668 4 0.0702291 0.0485929 0.07041
3290 4 0.0853569 0.0504646 0.0573763
3289 2 0.102619 0.0376676 0.0445916
3291 4 0.11988 0.0248706 0.031807
566 4 0.136352 0.0199218 0.021906
565 2 0.149217 0.999349 0.0158696
358 2 0.227229 0.164398 0.00587842
359 4 0.247506 0.150208 0.00943805
2723 4 0.481955 0.13895 0.0315227
2724 4 0.504683 0.110332 0.0656569
2722 2 0.493319 0.124641 0.0485898
505 2 0.126167 0.221436 0.0635339
506 4 0.14667 0.208894 0.0566434
507 4 0.105663 0.233978 0.0704244
737 4 0.155409 0.212016 0.0394199
736 2 0.17834 0.202111 0.0405296
738 4 0.201271 0.192205 0.0416393
354 4 0.220515 0.192007 0.0364405
352 2 0.239044 0.192782 0.0532107
360 4 0.206953 0.178588 0.00231879
461 4 0.274787 0.202153 0.0620817
460 2 0.292624 0.185241 0.0666622
353 4 0.257573 0.193557 0.069981
462 4 0.310461 0.168328 0.0712427
665 4 0.364836 0.194046 0.995806
2807 4 0.0403663 0.280895 0.0111284
2806 2 0.0188224 0.276015 0.0228426
2808 4 0.997278 0.271135 0.0345569
294 4 0.0832568 0.30079 0.069458
915 4 0.121124 0.245035 0.0101572
293 4 0.100987 0.254078 0.0673681
292 2 0.0921221 0.277434 0.0684131
456 4 0.0954577 0.315224 0.0689618
913 2 0.134607 0.264791 0.00287011
287 4 0.176841 0.26744 0.0522995
286 2 0.17998 0.291692 0.0470903
288 4 0.183118 0.315945 0.0418811
612 4 0.24085 0.318461 0.0597437
610 2 0.240713 0.302997 0.0793916
571 2 0.326543 0.280895 0.00387943
1071 4 0.368528 0.277726 0.0142081
573 4 0.348918 0.286104 0.0137483
2787 4 0.00227918 0.359399 0.0843922
1102 2 0.162374 0.402921 0.0285531
454 2 0.106243 0.336221 0.0772061
455 4 0.117029 0.357218 0.0854505
990 4 0.194313 0.332191 0.0474505
988 2 0.193422 0.357162 0.0483544
989 4 0.192531 0.382133 0.0492584
1289 4 0.21525 0.413131 0.0144644
1104 4 0.184791 0.395474 0.0367492
609 4 0.241673 0.333349 0.0747675
607 2 0.242956 0.358063 0.0783427
252 4 0.254399 0.399332 0.0776964
608 4 0.244239 0.382776 0.0819178
740 4 0.33065 0.369566 0.0710903
386 4 0.31788 0.370344 0.086438
1095 4 0.406358 0.33208 0.0104669
739 2 0.3445 0.348948 0.0682169
741 4 0.35835 0.32833 0.0653436
226 2 0.390753 0.413138 0.0494472
227 4 0.414304 0.405285 0.04647
281 4 0.434417 0.328906 0.082381
1305 4 0.405683 0.393014 0.0315419
1047 4 0.490321 0.346351 0.0619913
1303 2 0.408132 0.37198 0.0182473
280 2 0.45817 0.336703 0.0819678
282 4 0.481923 0.344501 0.0815547
1045 2 0.488386 0.351909 0.0376901
1046 4 0.486451 0.357466 0.0133889
552 4 0.0271568 0.464237 0.0631458
314 4 0.0222322 0.44377 0.0661504
550 2 0.0301068 0.485396 0.0501543
1103 4 0.139956 0.410368 0.020357
1786 2 0.159213 0.4954 0.0428154
1223 4 0.14258 0.430581 0.0187436
1787 4 0.174154 0.475419 0.0444639
1440 4 0.225627 0.42532 0.0740294
243 4 0.209947 0.422016 0.0588679
241 2 0.193487 0.438943 0.0506379
242 4 0.177027 0.45587 0.0424079
250 2 0.273655 0.414122 0.071726
271 2 0.265861 0.497967 0.0488305
272 4 0.265732 0.485322 0.0272604
251 4 0.292911 0.428912 0.0657556
524 4 0.306121 0.442301 0.0710459
228 4 0.367202 0.420991 0.0524243
525 4 0.349921 0.429624 0.0505129
523 2 0.328021 0.435963 0.0607794
1583 4 0.48883 0.471092 0.0737989
564 4 0.500753 0.468253 0.0572562
1667 4 0.0219595 0.0547205 0.0819518
16 1 0.00241284 0.066237 0.109595
19 3 0.00986551 0.0470304 0.12027
17 3 0.0157303 0.0701983 0.0912616
1422 4 0.00888937 0.0556913 0.139041
1420 2 0.0188883 0.040401 0.156111
2480 4 0.00801284 0.0765053 0.143125
20 3 0.00369761 0.0840074 0.12378
652 2 0.246632 0.0695287 0.155112
654 4 0.255477 0.0732687 0.132026
490 2 0.29399 0.00817965 0.0982735
1475 4 0.285229 0.046895 0.0926109
491 4 0.289969 0.0318754 0.105167
1474 2 0.271421 0.0649055 0.103105
1661 4 0.317707 0.0134773 0.149799
484 2 0.35744 0.0105046 0.133724
486 4 0.332658 0.00896086 0.136663
297 4 0.395164 0.00925282 0.147267
295 2 0.415242 0.0214028 0.155892
485 4 0.382222 0.0120483 0.130786
296 4 0.435321 0.0335528 0.164517
745 2 0.45418 0.998085 0.12516
746 4 0.433971 0.0125805 0.127738
557 4 0.427867 0.0509831 0.157712
556 2 0.43494 0.0744153 0.152606
450 4 0.0877843 0.130284 0.147443
448 2 0.110089 0.134747 0.157825
235 2 0.16499 0.112235 0.179122
449 4 0.132393 0.139209 0.168207
237 4 0.187009 0.101045 0.183011
1476 4 0.257612 0.0829161 0.113599
580 2 0.315794 0.141862 0.142516
581 4 0.294314 0.154065 0.138657
582 4 0.337273 0.129658 0.146375
758 4 0.353668 0.117351 0.144435
558 4 0.442014 0.0978475 0.1475
771 4 0.4616 0.0991895 0.145159
769 2 0.485476 0.104684 0.150154
770 4 0.509351 0.110178 0.155149
476 4 0.211841 0.219066 0.164712
475 2 0.233177 0.207978 0.157853
477 4 0.254512 0.196891 0.150994
30 3 0.286931 0.16962 0.128832
26 1 0.282813 0.185897 0.144219
29 3 0.26637 0.200253 0.13635
27 3 0.302076 0.197933 0.147856
255 4 0.338375 0.255169 0.155868
756 4 0.332563 0.247821 0.172215
629 4 0.431214 0.244096 0.153573
628 2 0.408611 0.243391 0.142905
624 4 0.445066 0.236879 0.16349
338 4 0.0713216 0.272396 0.143571
279 4 0.239391 0.270771 0.147347
278 4 0.260144 0.281584 0.103153
611 4 0.240577 0.287534 0.0990395
277 2 0.249767 0.276177 0.12525
285 4 0.25574 0.267484 0.160787
630 4 0.386009 0.242685 0.132237
254 4 0.37162 0.248155 0.119176
253 2 0.354997 0.251662 0.137522
622 2 0.457558 0.258478 0.165108
2785 2 0.993356 0.369956 0.105227
619 2 0.0201127 0.35957 0.156367
620 4 0.0371423 0.362842 0.138354
646 2 0.0873105 0.393449 0.158935
537 4 0.110033 0.408453 0.127393
535 2 0.114262 0.392469 0.108637
536 4 0.118491 0.376485 0.0898801
647 4 0.107582 0.397758 0.144947
1438 2 0.221264 0.405716 0.0889236
625 2 0.217671 0.379873 0.140127
627 4 0.224504 0.373252 0.117005
1439 4 0.2169 0.386112 0.103818
626 4 0.210838 0.386493 0.16325
385 2 0.325066 0.380111 0.108305
387 4 0.332253 0.389877 0.130171
302 4 0.317955 0.404184 0.136287
12 3 0.384333 0.369458 0.126461
11 1 0.372903 0.386806 0.136338
15 3 0.352984 0.389695 0.125682
672 4 0.402847 0.370977 0.126083
13 3 0.369261 0.38164 0.158664
14 3 0.385657 0.406116 0.134653
670 2 0.416114 0.357988 0.109337
671 4 0.429382 0.344999 0.0925907
104 3 0.495322 0.339767 0.0965604
313 2 0.020705 0.42974 0.0867903
315 4 0.0191779 0.41571 0.10743
1465 2 0.0224529 0.504707 0.156952
1467 4 0.0428227 0.505398 0.142468
1791 4 0.0552998 0.510982 0.128539
1618 2 0.146714 0.479601 0.102057
1620 4 0.15337 0.467594 0.122954
1431 4 0.165024 0.476535 0.137863
1574 4 0.222958 0.462887 0.160833
639 4 0.236081 0.461356 0.143898
1429 2 0.177151 0.463647 0.155527
1573 2 0.227602 0.487139 0.164764
301 2 0.306532 0.425878 0.131384
638 4 0.276501 0.443384 0.120574
637 2 0.256291 0.45237 0.132236
303 4 0.295109 0.447573 0.12648
1558 2 0.353629 0.493712 0.122944
495 4 0.375559 0.422458 0.137666
1559 4 0.366924 0.472811 0.126351
493 2 0.376334 0.443523 0.124217
494 4 0.377109 0.464587 0.110769
659 4 0.340241 0.441177 0.146724
1416 4 0.0255316 0.0338807 0.190006
1421 4 0.0288872 0.0251108 0.173182
1414 2 0.0123723 0.0217868 0.207492
688 2 0.148082 0.0115947 0.211811
690 4 0.131702 0.000794916 0.227311
689 4 0.164462 0.0223946 0.196311
1506 4 0.224479 0.0263827 0.172797
1505 4 0.179458 0.0101152 0.187261
1504 2 0.201969 0.018249 0.180029
653 4 0.237788 0.0657886 0.178198
693 4 0.244792 0.0795856 0.191386
691 2 0.259759 0.0824845 0.211204
22 3 0.376806 0.0581437 0.208715
698 4 0.393518 0.0610984 0.219797
697 2 0.402609 0.0378886 0.217834
699 4 0.411699 0.0146789 0.215871
333 4 0.400221 0.0806085 0.219541
21 1 0.36933 0.079678 0.211803
25 3 0.369435 0.0905936 0.191816
1700 4 0.338707 0.0893263 0.205212
512 4 0.999436 0.109436 0.188658
511 2 0.0180656 0.119325 0.202086
513 4 0.0366956 0.129213 0.215514
578 4 0.0538742 0.138709 0.2163
674 4 0.144808 0.0759068 0.245652
722 4 0.162708 0.0701465 0.253875
236 4 0.14297 0.123425 0.175234
673 2 0.129349 0.0953998 0.243158
546 4 0.114246 0.131455 0.25065
1701 4 0.292247 0.0813495 0.221902
692 4 0.274726 0.0853834 0.231022
1699 2 0.315477 0.0853379 0.213557
757 2 0.352177 0.107123 0.167202
23 3 0.347761 0.0789801 0.22033
759 4 0.350686 0.0968944 0.189969
24 3 0.383422 0.0904358 0.226773
349 2 0.478025 0.0877539 0.227381
331 2 0.420935 0.0880061 0.231432
350 4 0.454883 0.0970515 0.229166
332 4 0.441649 0.0954037 0.243323
312 4 0.509347 0.114729 0.173731
310 2 0.517499 0.133447 0.188166
577 2 0.065088 0.160734 0.212514
579 4 0.0763018 0.182759 0.208728
2483 4 0.00913042 0.250313 0.203348
371 4 0.216665 0.234444 0.177528
370 2 0.21389 0.235487 0.202355
372 4 0.211116 0.23653 0.227183
28 3 0.276052 0.176329 0.164248
754 2 0.340244 0.226464 0.182706
755 4 0.347925 0.205107 0.193198
529 2 0.01169 0.252156 0.243231
337 2 0.0644109 0.278313 0.166861
339 4 0.0575003 0.284229 0.190151
704 4 0.0423677 0.288051 0.201747
703 2 0.0274217 0.308042 0.200283
705 4 0.0124757 0.328034 0.198819
363 4 0.144452 0.25702 0.234823
395 4 0.138695 0.273965 0.243132
394 2 0.118366 0.264678 0.254343
443 4 0.0843788 0.267146 0.256057
361 2 0.167745 0.248987 0.230572
362 4 0.191039 0.240955 0.226321
284 4 0.299177 0.265939 0.185516
283 2 0.277458 0.266712 0.173151
542 4 0.430945 0.310293 0.221893
541 2 0.422934 0.328839 0.236625
528 4 0.431341 0.321412 0.206037
526 2 0.44579 0.309618 0.189384
623 4 0.47005 0.280077 0.166725
527 4 0.46024 0.297824 0.172732
621 4 0.00308307 0.356298 0.17438
2615 4 0.00759354 0.345554 0.209565
300 4 0.0668086 0.375892 0.185751
264 4 0.00583802 0.41364 0.206511
298 2 0.0653311 0.360546 0.205436
299 4 0.0638535 0.3452 0.22512
750 4 0.06941 0.341706 0.245562
648 4 0.0670386 0.389139 0.172923
262 2 0.01397 0.406945 0.229187
734 4 0.138188 0.381912 0.230459
733 2 0.134913 0.405491 0.238106
645 4 0.378408 0.399303 0.169104
597 4 0.360357 0.387832 0.178244
345 4 0.351124 0.35993 0.228961
596 4 0.338612 0.371041 0.220028
595 2 0.349485 0.379437 0.199136
343 2 0.366698 0.357161 0.248326
643 2 0.393886 0.415122 0.180739
1430 4 0.189277 0.450759 0.173191
416 4 0.198432 0.434977 0.240295
417 4 0.190467 0.450842 0.193545
415 2 0.194449 0.442909 0.21692
290 4 0.198876 0.41535 0.239333
438 4 0.284597 0.467875 0.216053
436 2 0.297197 0.464194 0.237333
660 4 0.351031 0.45893 0.192211
658 2 0.345636 0.450053 0.169468
231 4 0.365654 0.471561 0.191086
229 2 0.36561 0.49649 0.193008
644 4 0.409363 0.430942 0.192374
447 4 0.424918 0.425564 0.204235
445 2 0.424695 0.44206 0.223024
446 4 0.424473 0.458557 0.241812
233 4 0.0390231 0.030314 0.267746
232 2 0.0423482 0.047781 0.285325
234 4 0.0456734 0.065248 0.302905
317 4 0.0650485 0.0692955 0.301408
1403 4 0.0276349 0.0166785 0.257224
1402 2 0.0436541 0.997583 0.255248
316 2 0.0774785 0.0675443 0.323032
721 2 0.17072 0.0702671 0.27756
1340 4 0.226118 0.00278845 0.304285
723 4 0.178732 0.0703876 0.301245
1405 2 0.213483 0.0444487 0.302987
1406 4 0.198764 0.0644925 0.300382
1407 4 0.228202 0.024405 0.305592
599 4 0.203277 0.0854682 0.300978
1427 4 0.436994 0.996539 0.327246
743 4 0.486132 0.00823991 0.255769
425 4 0.475283 0.0222653 0.265733
424 2 0.476587 0.0429545 0.279713
426 4 0.47789 0.0636438 0.293693
391 2 0.0742682 0.132374 0.324587
675 4 0.11389 0.114893 0.240663
544 2 0.0985604 0.134873 0.269819
392 4 0.0802749 0.124421 0.301656
545 4 0.0828745 0.138291 0.288987
598 2 0.194951 0.0998852 0.319633
404 4 0.223652 0.147214 0.280292
258 4 0.492492 0.0719753 0.304022
256 2 0.482452 0.0942903 0.309161
761 4 0.471856 0.116895 0.334447
257 4 0.472412 0.116605 0.3143
403 2 0.213138 0.16982 0.278398
405 4 0.202624 0.192427 0.276504
401 4 0.191758 0.20628 0.283829
400 2 0.177769 0.225387 0.291854
402 4 0.16378 0.244493 0.29988
717 4 0.38911 0.225444 0.33563
715 2 0.384931 0.201209 0.331115
716 4 0.380751 0.176974 0.3266
376 2 0.414992 0.251288 0.320341
763 2 0.449761 0.179492 0.291496
765 4 0.47271 0.172406 0.284546
764 4 0.426812 0.186579 0.298446
530 4 0.0197504 0.262138 0.264692
444 4 0.0370428 0.265673 0.272114
442 2 0.0607108 0.26641 0.264085
396 4 0.0980369 0.255392 0.265553
266 4 0.406111 0.284274 0.315287
265 2 0.393989 0.301084 0.329276
378 4 0.422511 0.273733 0.312288
263 4 0.022102 0.400251 0.251864
366 4 0.0418557 0.34611 0.296244
749 4 0.0585 0.335182 0.293927
364 2 0.0207215 0.357536 0.30317
748 2 0.063955 0.338444 0.269744
365 4 0.999587 0.368962 0.310096
289 2 0.210036 0.409248 0.260859
291 4 0.221197 0.403147 0.282386
414 4 0.236895 0.393886 0.288009
412 2 0.247178 0.409075 0.305002
727 2 0.322329 0.404766 0.328814
729 4 0.339503 0.386621 0.327826
543 4 0.414923 0.347386 0.251357
615 4 0.414712 0.346793 0.271277
308 4 0.349759 0.367655 0.32734
307 2 0.359342 0.364931 0.304407
344 4 0.382271 0.354392 0.267691
309 4 0.368925 0.362207 0.281474
2860 2 0.485427 0.406993 0.264868
614 4 0.453394 0.365962 0.296516
613 2 0.434053 0.356377 0.283897
2923 2 0.47803 0.372077 0.320605
2925 4 0.458257 0.358192 0.314169
2924 4 0.497803 0.385961 0.327042
777 4 0.0611201 0.424286 0.313282
775 2 0.0723658 0.436335 0.294479
776 4 0.0836114 0.448384 0.275676
1757 4 0.0774086 0.467774 0.272157
735 4 0.131638 0.429069 0.245754
1756 2 0.081872 0.491277 0.279428
677 4 0.131629 0.443734 0.259469
676 2 0.15025 0.455448 0.271355
1544 4 0.185797 0.498578 0.316415
767 4 0.215061 0.489453 0.248097
1775 4 0.16691 0.495982 0.31821
678 4 0.16887 0.467161 0.283241
768 4 0.186952 0.459187 0.276286
766 2 0.201006 0.47432 0.262191
635 4 0.191276 0.480225 0.321578
413 4 0.257461 0.424264 0.321994
728 4 0.305155 0.422912 0.329802
437 4 0.309797 0.460512 0.258614
433 2 0.310184 0.453554 0.301103
435 4 0.307449 0.463013 0.27812
434 4 0.312919 0.444094 0.324086
5 3 0.268211 0.440542 0.328831
2862 4 0.468328 0.423062 0.273504
713 4 0.459707 0.43115 0.29149
714 4 0.424782 0.448625 0.260256
120 3 0.475732 0.42392 0.303723
116 1 0.491522 0.425477 0.32006
712 2 0.442244 0.439887 0.275873
730 2 0.0769772 0.0715695 0.38614
606 4 0.144027 0.0410404 0.362683
604 2 0.136355 0.0647304 0.364943
732 4 0.0845356 0.0614161 0.364577
318 4 0.0899085 0.0657932 0.344656
321 4 0.291797 0.0763496 0.381564
683 4 0.278657 0.0696174 0.366763
249 4 0.299305 0.00543551 0.349068
684 4 0.288981 0.0228429 0.352401
682 2 0.283819 0.0462301 0.359582
247 2 0.322786 0.00294911 0.357293
248 4 0.346267 0.00046272 0.365518
633 4 0.34907 0.0181528 0.372771
631 2 0.358774 0.0356568 0.387758
632 4 0.368478 0.0531608 0.402746
468 4 0.361603 0.0712131 0.399311
1749 4 0.500268 0.0144105 0.336828
1748 4 0.450798 0.00714105 0.337636
1747 2 0.475533 0.0107758 0.337232
731 4 0.0694189 0.0817228 0.407703
2585 4 0.0121805 0.114547 0.376876
2584 2 0.0315697 0.122504 0.363241
2586 4 0.050959 0.130462 0.349606
393 4 0.0682615 0.140328 0.347518
605 4 0.128683 0.0884203 0.367203
399 4 0.078262 0.142577 0.36554
397 2 0.101643 0.145319 0.373967
398 4 0.125024 0.14806 0.382393
600 4 0.186626 0.114302 0.338288
685 2 0.201901 0.132252 0.365255
687 4 0.201438 0.126746 0.34087
686 4 0.202364 0.137759 0.389641
410 4 0.215386 0.144457 0.404002
409 2 0.230113 0.164537 0.406251
319 2 0.276807 0.0822352 0.400691
420 4 0.350308 0.133764 0.370766
418 2 0.361203 0.151484 0.356892
419 4 0.372097 0.169204 0.343018
762 4 0.43119 0.14031 0.351731
760 2 0.451523 0.128603 0.343089
514 2 0.436649 0.132216 0.41571
3158 4 0.492333 0.099722 0.438214
515 4 0.451332 0.111993 0.414912
616 2 0.026649 0.245603 0.401038
470 4 0.0878686 0.226626 0.418824
390 4 0.101393 0.21113 0.418088
618 4 0.0426778 0.242859 0.420031
388 2 0.115673 0.199128 0.401438
276 4 0.148129 0.184299 0.393873
389 4 0.129953 0.187127 0.384788
274 2 0.169259 0.190036 0.381798
275 4 0.190389 0.195773 0.369724
473 4 0.243893 0.205645 0.346363
474 4 0.194355 0.205057 0.353169
472 2 0.219124 0.205351 0.349766
650 4 0.261755 0.196653 0.40958
708 4 0.255301 0.22167 0.342718
411 4 0.244841 0.184618 0.4085
707 4 0.301257 0.217118 0.361901
706 2 0.278279 0.219394 0.35231
497 4 0.306025 0.224625 0.379183
496 2 0.319969 0.242165 0.390278
498 4 0.333913 0.259705 0.401373
377 4 0.407472 0.228842 0.328394
2456 4 0.354039 0.260079 0.397854
617 4 0.0106201 0.248347 0.382046
695 4 0.101855 0.285476 0.382056
694 2 0.095406 0.276363 0.404428
509 4 0.259017 0.31718 0.415364
1260 4 0.166364 0.314483 0.39284
488 4 0.272671 0.305932 0.424934
2455 2 0.37648 0.257898 0.408663
267 4 0.381868 0.317893 0.343265
270 4 0.492293 0.262738 0.373301
306 4 0.482218 0.253258 0.387398
304 2 0.470686 0.274181 0.394775
305 4 0.459155 0.295104 0.402152
1011 4 0.458689 0.311225 0.414919
1259 4 0.121121 0.330649 0.378968
1258 2 0.143742 0.322566 0.385904
326 4 0.175217 0.322321 0.410331
508 2 0.249624 0.339748 0.410109
504 4 0.176015 0.39456 0.369557
510 4 0.24023 0.362316 0.404854
374 4 0.255616 0.366807 0.393874
373 2 0.262288 0.381441 0.37473
375 4 0.268961 0.396075 0.355585
3 3 0.276934 0.41458 0.354667
752 4 0.492535 0.394931 0.400931
751 2 0.488775 0.408761 0.380443
602 4 0.0564877 0.426016 0.331829
601 2 0.0551505 0.447154 0.345117
679 2 0.047012 0.49544 0.386538
603 4 0.0538133 0.468292 0.358405
680 4 0.0607019 0.479486 0.373001
408 4 0.00585459 0.432182 0.399989
549 4 0.0899549 0.486579 0.382986
547 2 0.102749 0.475637 0.401473
1820 4 0.247223 0.495919 0.38954
1395 4 0.244175 0.483824 0.405371
502 2 0.187479 0.41672 0.367918
634 2 0.200226 0.467359 0.34106
636 4 0.209177 0.454493 0.360541
503 4 0.198942 0.438881 0.366279
2 3 0.302671 0.439418 0.343119
1 1 0.280321 0.436445 0.347678
668 4 0.283853 0.461147 0.378008
4 3 0.274064 0.451187 0.364469
667 2 0.289481 0.485407 0.375773
753 4 0.485014 0.422592 0.359955
119 3 0.481326 0.428839 0.340631
718 2 0.0163367 0.0844547 0.477277
719 4 0.0410893 0.0831766 0.473983
2430 4 0.159056 0.0510872 0.415847
340 2 0.164324 0.0768502 0.450092
439 2 0.227184 0.00156123 0.437915
341 4 0.160902 0.0577387 0.434336
441 4 0.208923 0.0141856 0.426412
2428 2 0.177266 0.0340342 0.414184
2429 4 0.195476 0.0169812 0.412521
1216 2 0.383264 0.0512541 0.482264
1218 4 0.392168 0.0591769 0.460284
2878 2 0.477197 0.994987 0.431213
2880 4 0.468885 0.0182568 0.427391
642 4 0.4686 0.0386145 0.43348
640 2 0.480476 0.0605314 0.431534
368 4 0.0686836 0.0716274 0.425541
367 2 0.0648216 0.0760613 0.449844
369 4 0.0609597 0.0804952 0.474146
342 4 0.167745 0.0959617 0.465847
1152 4 0.154339 0.107546 0.474148
1150 2 0.152807 0.125472 0.491511
320 4 0.261817 0.0881209 0.419818
726 4 0.278823 0.113929 0.481854
725 4 0.27295 0.0958264 0.43561
724 2 0.275887 0.104878 0.458732
432 4 0.287229 0.11389 0.49909
575 4 0.403005 0.1566 0.410157
467 4 0.354582 0.117474 0.416957
466 2 0.358093 0.0943433 0.408134
576 4 0.357343 0.137208 0.416452
574 2 0.380174 0.146904 0.413304
516 4 0.421967 0.152439 0.416508
641 4 0.492352 0.0824483 0.429588
260 4 0.0500067 0.21338 0.474194
471 4 0.0628387 0.222075 0.461876
469 2 0.0753536 0.224351 0.44035
259 2 0.0633214 0.198966 0.48969
651 4 0.252119 0.241765 0.428888
649 2 0.256937 0.219209 0.419234
3426 4 0.48357 0.178169 0.491883
696 4 0.0889571 0.26725 0.426801
489 4 0.254626 0.260388 0.434974
487 2 0.263648 0.28316 0.429954
585 4 0.311653 0.288139 0.454639
583 2 0.32445 0.281662 0.434158
804 4 0.31189 0.322031 0.502701
802 2 0.291052 0.333975 0.495752
2457 4 0.398921 0.255718 0.419471
584 4 0.337247 0.275185 0.413677
1010 4 0.448549 0.323353 0.462361
1009 2 0.453619 0.317289 0.43864
407 4 0.0404596 0.416974 0.432729
709 2 0.159758 0.409335 0.497048
8 3 0.164311 0.370798 0.491916
325 2 0.184131 0.336273 0.429068
327 4 0.193046 0.350224 0.447805
7 3 0.187684 0.361402 0.464022
6 1 0.181299 0.356339 0.485534
10 3 0.199182 0.358747 0.499429
9 3 0.173696 0.334425 0.48614
711 4 0.168438 0.386572 0.502675
1189 2 0.238786 0.367666 0.493945
803 4 0.270213 0.34592 0.488804
1190 4 0.257067 0.357875 0.479978
240 4 0.354582 0.4154 0.472369
238 2 0.368714 0.406239 0.49085
561 4 0.488689 0.39253 0.420813
2507 4 0.449421 0.334492 0.479631
559 2 0.471944 0.394547 0.439272
560 4 0.455199 0.396564 0.45773
2506 2 0.447307 0.3588 0.474166
2508 4 0.445193 0.383107 0.468701
927 4 0.49004 0.387411 0.494909
406 2 0.0231571 0.424578 0.416359
1383 4 0.030647 0.477202 0.438527
1381 2 0.0422679 0.469081 0.459123
1382 4 0.0538887 0.460961 0.479719
540 4 0.0456199 0.449257 0.494804
570 4 0.139658 0.442973 0.478785
568 2 0.134071 0.44899 0.455168
548 4 0.115542 0.464696 0.419961
569 4 0.128483 0.455007 0.431551
710 4 0.151077 0.432098 0.491421
1446 4 0.240596 0.493085 0.470401
1393 2 0.242373 0.481128 0.430163
1394 4 0.240571 0.478433 0.454956
1444 2 0.257746 0.488404 0.487984
1401 4 0.324067 0.461671 0.421048
1399 2 0.309999 0.474708 0.43709
336 4 0.330966 0.443156 0.423443
586 2 0.321385 0.492324 0.488943
335 4 0.358753 0.413792 0.452877
334 2 0.344859 0.428474 0.43816
1154 4 0.0991941 0.0775502 0.576299
1180 2 0.233306 0.0649974 0.54529
1182 4 0.217396 0.067387 0.52615
950 4 0.198638 0.0760967 0.528235
949 2 0.176999 0.0885095 0.529914
1181 4 0.249215 0.0626077 0.56443
961 2 0.268052 0.0244483 0.565078
963 4 0.266365 0.0493947 0.565148
962 4 0.269739 0.999502 0.565008
841 2 0.357186 0.0746785 0.528534
842 4 0.373301 0.0594876 0.516927
1217 4 0.37436 0.0433312 0.504244
1035 4 0.088262 0.163339 0.561386
1082 4 0.0777543 0.154033 0.576863
1032 4 0.113531 0.0854027 0.566581
951 4 0.155359 0.100922 0.531593
1030 2 0.128097 0.0996961 0.552134
1031 4 0.142662 0.11399 0.537686
1151 4 0.151274 0.143398 0.508875
939 4 0.169108 0.152143 0.510947
937 2 0.186251 0.160514 0.527109
431 4 0.326038 0.0963231 0.525281
430 2 0.306633 0.105107 0.512185
856 2 0.331773 0.158283 0.577426
843 4 0.341071 0.0898694 0.540142
857 4 0.352517 0.146541 0.584976
898 2 0.387317 0.156935 0.571347
899 4 0.372776 0.140298 0.583049
809 4 0.498375 0.115451 0.562258
808 2 0.502452 0.100901 0.582179
1033 2 0.0817387 0.177845 0.542094
1034 4 0.0752155 0.192352 0.522802
261 4 0.0766361 0.184552 0.505187
879 4 0.0814298 0.246181 0.545043
1270 2 0.106851 0.230565 0.563851
1272 4 0.0826416 0.231482 0.557668
1271 4 0.131061 0.229648 0.570034
909 4 0.150027 0.231276 0.58051
938 4 0.203394 0.168886 0.543271
858 4 0.311029 0.170024 0.569876
797 4 0.300804 0.180885 0.581892
796 2 0.300876 0.205874 0.582744
900 4 0.401859 0.173572 0.559645
872 4 0.398969 0.194158 0.554475
873 4 0.366418 0.231039 0.54548
871 2 0.382693 0.212598 0.549977
813 4 0.359805 0.247295 0.555006
811 2 0.339913 0.242157 0.569257
3425 4 0.467921 0.174424 0.539231
3424 2 0.475746 0.176297 0.515557
877 2 0.0704563 0.243872 0.522695
878 4 0.0594827 0.241563 0.500347
929 4 0.330023 0.313963 0.503228
1204 2 0.387532 0.297893 0.560754
1206 4 0.381819 0.306484 0.537978
930 4 0.363896 0.298435 0.536578
928 2 0.34696 0.306199 0.519903
1205 4 0.393244 0.289303 0.583529
983 4 0.0484435 0.387297 0.551771
982 2 0.0234847 0.386477 0.553022
1041 4 0.0499341 0.40523 0.563459
3263 4 0.990343 0.398 0.566816
895 2 0.1966 0.389468 0.533641
896 4 0.199861 0.372901 0.515199
897 4 0.19334 0.406035 0.552083
1191 4 0.220504 0.377458 0.507912
1137 4 0.186447 0.4126 0.569766
239 4 0.382846 0.397078 0.509331
1001 4 0.455161 0.403525 0.549027
926 4 0.457315 0.393464 0.532234
925 2 0.473677 0.390437 0.513572
1000 2 0.444456 0.400335 0.571396
539 4 0.067502 0.443742 0.53943
538 2 0.056561 0.446499 0.517117
1938 4 0.0111485 0.486119 0.574268
1936 2 0.0203884 0.483574 0.551174
1937 4 0.0296283 0.481028 0.52808
1881 4 0.0274433 0.4931 0.512331
2813 4 0.00189616 0.422253 0.511117
2242 2 0.14423 0.492867 0.570675
2243 4 0.149607 0.484752 0.593705
1173 4 0.221432 0.436081 0.59079
1171 2 0.241807 0.448208 0.582854
882 4 0.276474 0.471786 0.567972
880 2 0.27856 0.471564 0.543056
881 4 0.280645 0.471342 0.518141
587 4 0.338863 0.490726 0.506751
1172 4 0.262182 0.460335 0.574918
1445 4 0.274895 0.483723 0.505567
1454 4 0.340753 0.487874 0.527046
1453 2 0.354107 0.499108 0.544952
1185 4 0.00629513 0.0321064 0.667372
945 4 0.0254831 0.0238128 0.664567
1057 2 0.110892 0.0223875 0.642662
1155 4 0.119423 0.056922 0.617115
1059 4 0.112292 0.0387545 0.623811
1153 2 0.109309 0.0672361 0.596707
1058 4 0.109491 0.00602046 0.661512
1004 4 0.306722 0.0874566 0.648983
1003 2 0.317386 0.0756841 0.629674
1005 4 0.328049 0.0639115 0.610364
831 4 0.321411 0.0865931 0.663409
1142 4 0.397669 0.0726282 0.621813
44 3 0.467515 0.0617044 0.629376
41 1 0.489722 0.0602447 0.62281
43 3 0.495718 0.0380009 0.620041
45 3 0.492826 0.0716126 0.603321
2282 4 0.490438 0.0193354 0.615612
1081 2 0.0532893 0.155627 0.581773
1083 4 0.0288243 0.157222 0.586682
1199 4 0.0175153 0.164585 0.603437
1221 4 0.14474 0.133304 0.642151
1219 2 0.165728 0.141438 0.631263
1220 4 0.186716 0.149572 0.620375
1212 4 0.199707 0.155776 0.634161
1210 2 0.220568 0.151072 0.647118
1211 4 0.241429 0.146367 0.660074
888 4 0.255695 0.137295 0.649919
887 4 0.279314 0.0948767 0.637939
886 2 0.267505 0.116086 0.643929
1141 2 0.3843 0.0910641 0.632136
1025 4 0.374016 0.114496 0.663221
1143 4 0.370932 0.1095 0.64246
3045 4 0.0398731 0.239778 0.607399
3043 2 0.0258011 0.251003 0.590045
907 2 0.168313 0.242316 0.593507
908 4 0.186599 0.253356 0.606505
947 4 0.194427 0.249143 0.625494
798 4 0.300948 0.230863 0.583597
906 4 0.476662 0.229546 0.653855
904 2 0.454489 0.237184 0.645183
905 4 0.432316 0.244821 0.63651
893 4 0.127941 0.313921 0.634224
892 2 0.105366 0.323067 0.63987
946 2 0.203826 0.267099 0.640136
948 4 0.213226 0.285056 0.654777
812 4 0.320021 0.237019 0.583507
1239 4 0.283172 0.248591 0.625484
1237 2 0.307021 0.252713 0.619205
1238 4 0.33087 0.256834 0.612926
791 4 0.350964 0.315783 0.638709
954 4 0.411776 0.28139 0.583633
792 4 0.339769 0.275434 0.611372
790 2 0.345366 0.295608 0.625041
953 4 0.434063 0.252325 0.617681
952 2 0.42292 0.266858 0.600657
3357 4 0.506278 0.245999 0.667172
1039 2 0.06536 0.411703 0.582042
1281 4 0.0821481 0.349869 0.656452
1040 4 0.080786 0.418176 0.600625
894 4 0.0827907 0.332213 0.645517
991 2 0.123339 0.410022 0.611802
992 4 0.146553 0.406111 0.620228
993 4 0.100125 0.413933 0.603376
1136 4 0.16039 0.396255 0.609195
1135 2 0.173418 0.404428 0.589481
1027 2 0.246074 0.404026 0.664071
1028 4 0.235435 0.381416 0.664969
1029 4 0.256714 0.426635 0.663173
1002 4 0.43375 0.397146 0.593766
936 4 0.01395 0.500997 0.587323
1161 4 0.16647 0.476895 0.586293
1159 2 0.187032 0.462674 0.585909
1160 4 0.207594 0.448453 0.585525
889 2 0.382555 0.494081 0.650195
1952 4 0.350185 0.498501 0.62493
1951 2 0.357238 0.49714 0.600981
1910 4 0.435344 0.416839 0.596975
1909 2 0.440323 0.431934 0.616277
1911 4 0.445302 0.447028 0.635578
1267 2 0.427307 0.46068 0.6647
1268 4 0.449171 0.454257 0.654409
943 2 0.0388851 0.0406416 0.677309
944 4 0.0522871 0.0574703 0.690051
1075 2 0.0700966 0.0702389 0.713802
1076 4 0.0613705 0.0755179 0.690973
1077 4 0.0788227 0.0649599 0.736631
829 2 0.331405 0.0858757 0.686318
830 4 0.341399 0.0851583 0.709226
2400 4 0.34243 0.998694 0.700471
35 3 0.0819934 0.165867 0.735392
1106 4 0.0667138 0.159225 0.746242
32 3 0.109053 0.140362 0.732205
31 1 0.10005 0.156629 0.74575
1129 2 0.148775 0.138098 0.732786
1131 4 0.12547 0.132135 0.739603
1130 4 0.172081 0.144062 0.72597
1227 4 0.181364 0.116531 0.754257
1024 2 0.39244 0.124112 0.677124
1026 4 0.410863 0.133728 0.691027
1107 4 0.02745 0.183829 0.727434
1105 2 0.0470819 0.171527 0.736838
3188 4 0.0309265 0.240289 0.745789
822 4 0.131463 0.249933 0.720875
1278 4 0.128446 0.231095 0.71875
1276 2 0.129284 0.210788 0.733314
1277 4 0.130122 0.190481 0.747879
34 3 0.11613 0.1729 0.749637
977 4 0.313466 0.198105 0.724997
918 4 0.30172 0.201348 0.709194
976 2 0.312771 0.196191 0.749918
916 2 0.300128 0.22549 0.702883
917 4 0.298536 0.249631 0.696572
1261 2 0.450695 0.243094 0.751463
1263 4 0.459827 0.220165 0.755472
1207 2 0.0580869 0.256895 0.722177
1209 4 0.0380877 0.256162 0.737166
1243 2 0.0155218 0.304506 0.716909
1244 4 0.0263566 0.32415 0.727949
1245 4 0.00468699 0.284861 0.705868
1208 4 0.078086 0.257627 0.707188
1179 4 0.0188934 0.269849 0.703449
820 2 0.11168 0.255054 0.706466
821 4 0.0918985 0.260175 0.692057
1065 4 0.221212 0.272597 0.670326
1240 2 0.244058 0.305149 0.740958
1063 2 0.244637 0.280055 0.674885
1242 4 0.221336 0.302691 0.730815
1241 4 0.266779 0.307606 0.7511
1064 4 0.268063 0.287513 0.679444
1098 4 0.28484 0.295143 0.670523
1096 2 0.29983 0.27901 0.682363
1097 4 0.31482 0.262877 0.694204
3121 2 0.490134 0.280679 0.690455
3123 4 0.479822 0.301527 0.699631
3122 4 0.500445 0.25983 0.68128
1279 2 0.0769085 0.368939 0.671751
3275 4 0.0607607 0.390892 0.703327
1280 4 0.0716688 0.388009 0.68705
3274 2 0.0660554 0.396767 0.727046
3276 4 0.0713501 0.402642 0.750766
940 2 0.170389 0.371704 0.702277
942 4 0.158264 0.388675 0.716066
941 4 0.182515 0.354733 0.688488
1068 4 0.221561 0.369317 0.652496
1067 4 0.187281 0.340848 0.675194
1066 2 0.204421 0.355083 0.663845
1228 2 0.312628 0.397158 0.731352
1139 4 0.275373 0.423279 0.669089
1229 4 0.32289 0.403312 0.709397
2021 4 0.00169969 0.505731 0.702544
1983 4 0.0209707 0.503272 0.7025
1981 2 0.0277475 0.500526 0.726411
1138 2 0.290696 0.438793 0.681325
1140 4 0.306019 0.454307 0.69356
1989 4 0.296747 0.451014 0.711511
1987 2 0.298233 0.453767 0.736318
890 4 0.396377 0.484158 0.668516
1269 4 0.405443 0.467102 0.674991
1100 4 0.449351 0.489276 0.739437
1250 4 0.441043 0.480736 0.755556
864 4 0.0670134 0.0802873 0.830556
1203 4 0.0863866 0.0648793 0.754605
1282 2 0.154829 0.0803403 0.746586
1283 4 0.14117 0.0593977 0.74653
2047 2 0.156438 0.0249878 0.758811
1201 2 0.105496 0.0509792 0.762778
2049 4 0.139372 0.0432605 0.75895
1202 4 0.124606 0.0370791 0.77095
911 4 0.0785602 0.0639064 0.833752
1148 4 0.166102 0.0317819 0.808365
2048 4 0.173505 0.00671508 0.758673
1147 2 0.1792 0.0458155 0.824386
1050 4 0.24417 0.0724036 0.818335
874 2 0.250935 0.00244923 0.828004
818 4 0.352945 0.0753844 0.830058
965 4 0.373753 0.07713 0.836951
1113 4 0.457011 0.00684909 0.778894
846 4 0.473019 0.0117424 0.769379
844 2 0.493838 0.0251391 0.772884
862 2 0.0540806 0.0922608 0.81282
863 4 0.0411478 0.104234 0.795084
832 2 0.0579476 0.134665 0.778638
833 4 0.0432894 0.124176 0.795967
834 4 0.0726058 0.145154 0.761309
1284 4 0.168489 0.101283 0.746642
33 3 0.09357 0.146944 0.765815
1225 2 0.197318 0.108081 0.771556
1226 4 0.213271 0.0996309 0.788854