ITEM: TIMESTEP
4190000
ITEM: NUMBER OF ATOMS
4590
ITEM: BOX BOUNDS pp pp pp
-9.9985700000000008e+00 9.9985700000000008e+00
-9.9985700000000008e+00 9.9985700000000008e+00
-9.9985700000000008e+00 9.9985700000000008e+00
ITEM: ATOMS id type xs ys zs
1668 4 0.0747836 0.0461018 0.0698525
701 4 0.0169694 0.0721387 0.00553765
1666 2 0.0577916 0.0599526 0.0818776
465 4 0.0172706 0.0522902 0.00542174
3290 4 0.09433 0.0489377 0.0700187
3289 2 0.0960815 0.0342113 0.049888
3291 4 0.097833 0.0194849 0.0297572
566 4 0.11791 0.0172329 0.0267462
565 2 0.13798 0.00632545 0.016579
985 2 0.318395 0.0393908 0.00204366
986 4 0.316473 0.0640406 0.00576855
359 4 0.260297 0.167826 0.00954208
655 2 0.0060484 0.24455 0.0499051
656 4 0.99376 0.222882 0.0477502
505 2 0.117503 0.226918 0.0599935
506 4 0.137845 0.213237 0.064914
737 4 0.150651 0.228123 0.0593362
507 4 0.097161 0.240599 0.055073
913 2 0.159235 0.243923 0.00681479
736 2 0.173021 0.220035 0.0670409
738 4 0.195391 0.211947 0.0747456
354 4 0.21565 0.210785 0.0753566
352 2 0.226458 0.188991 0.0695781
353 4 0.237266 0.167198 0.0637996
461 4 0.251482 0.173168 0.0525936
665 4 0.337004 0.179978 0.993195
460 2 0.272953 0.171821 0.039852
462 4 0.294424 0.170475 0.0271105
2806 2 0.0110791 0.287304 0.0160953
2808 4 0.0224406 0.27866 0.0366229
657 4 0.0183366 0.266219 0.0520599
294 4 0.107188 0.305666 0.0637903
292 2 0.107716 0.280671 0.0633557
293 4 0.108245 0.255677 0.0629211
990 4 0.16862 0.333907 0.0581877
456 4 0.103934 0.31649 0.080538
914 4 0.16764 0.254193 0.0280054
287 4 0.174987 0.272097 0.0330861
286 2 0.176934 0.29574 0.0409847
288 4 0.178881 0.319383 0.0488834
356 4 0.247125 0.287627 0.997993
610 2 0.25707 0.318668 0.0752182
741 4 0.325227 0.329356 0.0498239
573 4 0.368779 0.275705 0.00644354
1071 4 0.388907 0.275054 0.00692105
571 2 0.344273 0.277825 0.00195869
1046 4 0.489176 0.323008 0.0249531
1047 4 0.500201 0.334114 0.0724486
1045 2 0.494689 0.328561 0.0487008
1056 4 0.0931833 0.339065 0.00668512
1102 2 0.150392 0.408975 0.0225041
1104 4 0.153437 0.386149 0.0322455
455 4 0.10361 0.36625 0.0854936
989 4 0.170273 0.380702 0.0406328
988 2 0.169447 0.357304 0.0494103
454 2 0.103772 0.34137 0.0830158
1440 4 0.215324 0.413459 0.0628919
612 4 0.251517 0.340032 0.0634747
609 4 0.259721 0.356079 0.0714567
607 2 0.263299 0.380188 0.0770332
608 4 0.266876 0.404298 0.0826098
386 4 0.340762 0.382067 0.0767708
740 4 0.351801 0.366239 0.0706603
739 2 0.338514 0.347797 0.0602421
227 4 0.403607 0.411409 0.0387338
1305 4 0.406767 0.391513 0.0374684
1303 2 0.403241 0.380438 0.0153304
552 4 0.00711002 0.432452 0.057726
1786 2 0.146788 0.491495 0.0607444
1103 4 0.147348 0.431801 0.0127627
1787 4 0.162681 0.472234 0.0594767
1618 2 0.165264 0.443554 0.0790612
1224 4 0.131689 0.485614 0.0038887
1222 2 0.131214 0.46063 0.00303154
1619 4 0.171492 0.454481 0.0574512
1289 4 0.202773 0.434499 0.0166068
243 4 0.225314 0.429055 0.0691067
241 2 0.220913 0.444899 0.0502707
242 4 0.216513 0.460743 0.0314347
524 4 0.300588 0.457367 0.0648865
523 2 0.324771 0.451093 0.0638821
251 4 0.294666 0.449759 0.0813619
226 2 0.382009 0.422593 0.0445325
228 4 0.360411 0.433777 0.0503312
525 4 0.348954 0.44482 0.0628777
1583 4 0.486235 0.49737 0.0616306
1667 4 0.0407995 0.0738035 0.0939027
19 3 0.0133619 0.0285961 0.116395
17 3 0.0279174 0.0597204 0.101161
1420 2 0.0092109 0.0177424 0.150212
1421 4 0.0147399 0.000275603 0.167227
1422 4 0.0036819 0.0352093 0.133197
16 1 0.0084662 0.0478986 0.104485
1504 2 0.149542 0.0212793 0.148148
1505 4 0.137011 0.0101545 0.166706
1506 4 0.162073 0.032404 0.129591
490 2 0.292842 0.00526516 0.097418
1661 4 0.32502 0.0137296 0.155227
652 2 0.249344 0.0748555 0.159783
491 4 0.305928 0.0265327 0.0961435
1475 4 0.307694 0.046555 0.0958264
1474 2 0.290877 0.0582874 0.110134
1476 4 0.274059 0.0700199 0.124442
486 4 0.318702 0.0302741 0.145596
654 4 0.264298 0.0701211 0.140312
484 2 0.337838 0.0359999 0.130556
297 4 0.370756 0.0344292 0.127137
295 2 0.393277 0.0293007 0.117561
485 4 0.356975 0.0417258 0.115516
557 4 0.407214 0.0647923 0.142522
296 4 0.415798 0.0241723 0.107985
747 4 0.471526 0.00372712 0.101076
745 2 0.450728 0.0134395 0.11099
746 4 0.42993 0.0231519 0.120904
450 4 0.109157 0.102135 0.11272
448 2 0.108102 0.108793 0.136798
449 4 0.107046 0.115451 0.160875
580 2 0.326379 0.149282 0.141277
582 4 0.347671 0.136176 0.141013
758 4 0.342393 0.119695 0.15105
556 2 0.426832 0.0802904 0.1429
558 4 0.446449 0.0957886 0.143279
771 4 0.460567 0.107963 0.145102
769 2 0.476942 0.11233 0.163487
338 4 0.0577156 0.253743 0.139628
581 4 0.305087 0.162388 0.141541
30 3 0.299606 0.169417 0.159234
26 1 0.287884 0.187551 0.166471
29 3 0.270897 0.192504 0.15146
27 3 0.302031 0.205632 0.167922
255 4 0.322523 0.212398 0.158728
477 4 0.252409 0.19089 0.15962
253 2 0.336329 0.220956 0.139719
628 2 0.393002 0.235023 0.123342
254 4 0.350135 0.229515 0.12071
630 4 0.368447 0.233635 0.127847
629 4 0.417557 0.236411 0.118836
624 4 0.424719 0.237446 0.13779
337 2 0.053194 0.278221 0.141982
339 4 0.0486724 0.3027 0.144337
704 4 0.0377625 0.312379 0.158445
611 4 0.262623 0.297303 0.0869618
278 4 0.257944 0.282465 0.0979595
279 4 0.272182 0.268425 0.143795
277 2 0.265063 0.275445 0.120877
285 4 0.28061 0.270154 0.162227
622 2 0.436626 0.247389 0.157399
647 4 0.0811285 0.380108 0.151727
537 4 0.091003 0.387846 0.136442
535 2 0.0966735 0.387024 0.112104
536 4 0.102344 0.386202 0.0877657
1438 2 0.207279 0.403142 0.0841998
625 2 0.209069 0.382895 0.142818
627 4 0.194921 0.383108 0.122204
1439 4 0.199234 0.392826 0.105508
626 4 0.223217 0.382683 0.163433
252 4 0.265629 0.41425 0.101279
301 2 0.320431 0.416345 0.147878
302 4 0.341113 0.403169 0.142998
385 2 0.34295 0.392054 0.0995887
387 4 0.345137 0.402041 0.122407
12 3 0.390413 0.377003 0.135587
11 1 0.385505 0.399362 0.13786
15 3 0.363047 0.40238 0.135585
672 4 0.395543 0.370907 0.117484
13 3 0.392358 0.406448 0.158865
14 3 0.396793 0.411228 0.121423
670 2 0.410095 0.356602 0.103034
282 4 0.488375 0.343295 0.0870966
671 4 0.424646 0.342296 0.0885848
281 4 0.440322 0.349896 0.0992648
280 2 0.464348 0.346596 0.0931807
104 3 0.498225 0.342071 0.10458
313 2 0.0217849 0.4217 0.0914689
315 4 0.0366793 0.426741 0.110909
1431 4 0.159617 0.43819 0.119441
1620 4 0.159036 0.432627 0.100671
1429 2 0.166073 0.430228 0.142247
1573 2 0.227962 0.478702 0.159831
250 2 0.280147 0.432004 0.0913205
303 4 0.299748 0.429521 0.152759
638 4 0.295769 0.444214 0.166257
637 2 0.280789 0.463963 0.162978
1574 4 0.248186 0.493238 0.157627
639 4 0.265809 0.483712 0.159699
1558 2 0.360897 0.49921 0.11482
495 4 0.38685 0.427458 0.12677
1559 4 0.375441 0.48239 0.103385
493 2 0.378703 0.445795 0.111852
494 4 0.370556 0.464132 0.0969343
1404 4 0.0581979 0.00846353 0.242024
1416 4 0.000612616 0.00799007 0.180036
1415 4 0.00586093 0.0140479 0.229397
1414 2 0.00323677 0.011019 0.204716
690 4 0.113684 0.0290736 0.223991
688 2 0.117502 0.0202582 0.200907
689 4 0.12132 0.0114429 0.177822
653 4 0.234389 0.0795898 0.179254
22 3 0.370955 0.0526058 0.213755
698 4 0.391243 0.0553668 0.216459
697 2 0.403729 0.0341517 0.212076
333 4 0.39725 0.0720346 0.226209
21 1 0.366328 0.075127 0.213015
25 3 0.364551 0.0817098 0.191286
23 3 0.346344 0.0790488 0.224136
351 4 0.48051 0.0720673 0.200184
699 4 0.416214 0.0129365 0.207694
349 2 0.468024 0.0851578 0.217444
1518 4 0.42237 0.00236915 0.224271
742 2 0.495892 0.000228277 0.236318
512 4 0.00245367 0.137601 0.166424
511 2 0.0207905 0.147592 0.180176
513 4 0.0391272 0.157583 0.193928
578 4 0.0496436 0.171637 0.203778
236 4 0.127204 0.108179 0.16441
235 2 0.14763 0.113413 0.177847
693 4 0.245857 0.0807774 0.194031
237 4 0.168056 0.118647 0.191284
691 2 0.261954 0.0847968 0.212737
692 4 0.278051 0.0888162 0.231443
1701 4 0.294474 0.102449 0.230142
1699 2 0.315899 0.0956579 0.219188
24 3 0.38357 0.0866716 0.2234
757 2 0.343875 0.103553 0.170088
759 4 0.345356 0.0874107 0.189125
1700 4 0.337325 0.0888666 0.208233
331 2 0.417643 0.0839358 0.234435
350 4 0.455537 0.0982482 0.234704
332 4 0.438036 0.0958371 0.242661
770 4 0.493316 0.116697 0.181871
312 4 0.500632 0.135 0.187528
577 2 0.0520791 0.186314 0.223874
579 4 0.0545146 0.200991 0.243969
475 2 0.237668 0.206669 0.172225
476 4 0.222926 0.222449 0.184829
371 4 0.209485 0.235334 0.192756
756 4 0.318904 0.211118 0.181564
28 3 0.278928 0.183331 0.187457
754 2 0.315983 0.224575 0.202434
755 4 0.313062 0.238032 0.223304
763 2 0.482869 0.181668 0.242936
764 4 0.457937 0.183135 0.244134
2615 4 0.997089 0.31528 0.192979
703 2 0.02333 0.306039 0.177854
705 4 0.00889756 0.299698 0.197262
2483 4 0.0047244 0.251738 0.216355
370 2 0.198358 0.252865 0.206686
361 2 0.16914 0.276994 0.249383
372 4 0.187231 0.270396 0.220616
362 4 0.19075 0.268696 0.23993
283 2 0.2789 0.293452 0.171141
284 4 0.27719 0.316749 0.180056
623 4 0.448534 0.257331 0.177009
528 4 0.441554 0.301397 0.228882
542 4 0.433233 0.320875 0.229893
526 2 0.44637 0.283735 0.211851
527 4 0.451186 0.266074 0.19482
619 2 0.0161433 0.384023 0.179553
621 4 0.0316172 0.401475 0.188562
298 2 0.0841003 0.352025 0.227669
299 4 0.0751821 0.332503 0.240496
264 4 0.0328075 0.403347 0.208798
646 2 0.0881538 0.37157 0.174154
300 4 0.0930184 0.371546 0.214841
648 4 0.0951791 0.363033 0.19658
645 4 0.405806 0.400278 0.174597
597 4 0.384304 0.403838 0.179916
345 4 0.381563 0.367399 0.222974
596 4 0.363005 0.37343 0.213419
595 2 0.373655 0.388634 0.196667
343 2 0.37984 0.365617 0.247854
541 2 0.43062 0.342409 0.242329
543 4 0.428007 0.363943 0.254764
262 2 0.0230481 0.416228 0.227876
1430 4 0.17253 0.422266 0.165052
1575 4 0.207737 0.464166 0.162036
417 4 0.184417 0.419168 0.181819
290 4 0.219495 0.422573 0.241298
416 4 0.209062 0.427979 0.224431
415 2 0.19674 0.423574 0.203125
766 2 0.197063 0.499055 0.243166
768 4 0.177933 0.483003 0.244421
438 4 0.277729 0.424076 0.213954
436 2 0.286045 0.435448 0.23461
1641 4 0.276533 0.499236 0.248927
1659 4 0.340056 0.50408 0.249412
659 4 0.361742 0.421143 0.198127
660 4 0.372011 0.467114 0.181335
658 2 0.366877 0.444129 0.189731
231 4 0.357212 0.477119 0.188354
229 2 0.347746 0.492215 0.170813
643 2 0.420761 0.416586 0.18624
644 4 0.435717 0.432894 0.197882
447 4 0.439883 0.440344 0.216461
445 2 0.438476 0.433603 0.240497
1402 2 0.0413392 0.0264557 0.246177
233 4 0.0265383 0.053359 0.268037
232 2 0.0379851 0.0614114 0.288757
234 4 0.0494318 0.0694638 0.309477
1403 4 0.0244804 0.0444479 0.250329
317 4 0.0559941 0.0598322 0.325813
674 4 0.13876 0.0656304 0.290193
722 4 0.143757 0.0458041 0.297335
721 2 0.167351 0.0536213 0.300055
1340 4 0.249245 0.00092375 0.326005
723 4 0.190944 0.0614386 0.302774
1405 2 0.224163 0.0373495 0.317361
1406 4 0.207467 0.0552892 0.312401
1407 4 0.240858 0.0194098 0.32232
743 4 0.483171 0.010099 0.255447
424 2 0.493017 0.0418661 0.272481
426 4 0.487048 0.0642896 0.281795
258 4 0.495315 0.0802085 0.272056
391 2 0.0613313 0.13184 0.301425
392 4 0.078083 0.146566 0.290125
393 4 0.0445797 0.117114 0.312725
673 2 0.127757 0.0838724 0.277102
675 4 0.116755 0.102114 0.264012
546 4 0.121251 0.120347 0.25592
545 4 0.0905584 0.153232 0.277766
544 2 0.105905 0.13679 0.266843
404 4 0.16754 0.138274 0.296145
599 4 0.177142 0.110994 0.318739
403 2 0.170732 0.163024 0.294581
256 2 0.492674 0.093854 0.29284
257 4 0.490033 0.1075 0.313625
761 4 0.476425 0.0986654 0.326854
444 4 0.0329935 0.23758 0.290261
529 2 0.0117796 0.250728 0.258468
530 4 0.0160078 0.243073 0.281893
400 2 0.138674 0.211886 0.281639
402 4 0.116276 0.221018 0.275304
401 4 0.161071 0.202753 0.287973
405 4 0.173925 0.187774 0.293017
472 2 0.208073 0.215429 0.32407
474 4 0.184722 0.218083 0.315534
275 4 0.176211 0.201513 0.321967
717 4 0.389369 0.217584 0.324942
715 2 0.393367 0.193402 0.329888
377 4 0.408474 0.217504 0.317528
376 2 0.415995 0.24113 0.314293
442 2 0.0570642 0.244302 0.29103
443 4 0.081135 0.251024 0.291798
363 4 0.147531 0.285291 0.258836
396 4 0.100248 0.252429 0.284966
395 4 0.12872 0.288067 0.264472
394 2 0.114484 0.270248 0.274719
265 2 0.409251 0.293769 0.333303
267 4 0.398658 0.316258 0.335993
266 4 0.419843 0.27128 0.330613
378 4 0.423516 0.264755 0.311058
750 4 0.0628388 0.343429 0.252726
749 4 0.0318248 0.35161 0.291092
366 4 0.0154384 0.36224 0.295411
748 2 0.0473318 0.34752 0.271909
733 2 0.158239 0.396093 0.258126
734 4 0.163353 0.371619 0.25793
727 2 0.310331 0.39968 0.32504
729 4 0.317133 0.376575 0.318328
308 4 0.31776 0.37343 0.298573
307 2 0.340299 0.365542 0.29116
344 4 0.378117 0.363836 0.272734
309 4 0.362838 0.357655 0.283747
615 4 0.437179 0.366441 0.272566
614 4 0.447967 0.355643 0.320186
613 2 0.442573 0.361042 0.296376
2925 4 0.46505 0.355898 0.329989
120 3 0.480877 0.418239 0.32304
263 4 0.0132888 0.42911 0.246955
777 4 0.034006 0.43994 0.313931
775 2 0.0484928 0.451313 0.29702
602 4 0.0424286 0.426312 0.32601
776 4 0.0629796 0.462687 0.28011
1757 4 0.0727451 0.477753 0.271077
735 4 0.153125 0.420567 0.258323
677 4 0.144067 0.437521 0.262723
676 2 0.160037 0.456749 0.262062
1775 4 0.146777 0.481565 0.310921
635 4 0.161083 0.468064 0.304404
678 4 0.176007 0.475976 0.261401
291 4 0.23807 0.438758 0.284815
414 4 0.229854 0.435125 0.302
289 2 0.228783 0.430665 0.263056
1544 4 0.210897 0.485453 0.294711
634 2 0.16864 0.453151 0.322996
412 2 0.248289 0.433869 0.318845
728 4 0.30353 0.422786 0.331752
437 4 0.294361 0.44682 0.255267
433 2 0.303971 0.445298 0.29553
435 4 0.303704 0.452847 0.271694
434 4 0.304239 0.43775 0.319365
446 4 0.437068 0.426862 0.264534
2862 4 0.493909 0.420693 0.299281
713 4 0.472752 0.427372 0.303617
714 4 0.427798 0.41999 0.282992
712 2 0.450275 0.423681 0.293304
316 2 0.0740973 0.0698927 0.339821
2755 2 0.00270183 0.0702465 0.38333
731 4 0.054081 0.065542 0.39803
730 2 0.0788425 0.0685849 0.3997
368 4 0.0526603 0.0578186 0.415943
606 4 0.152301 0.0638836 0.365579
604 2 0.127338 0.0651456 0.364932
732 4 0.103604 0.0716278 0.401369
605 4 0.102375 0.0664076 0.364285
318 4 0.0922006 0.0799532 0.35383
2429 4 0.217168 0.0211797 0.406351
683 4 0.242397 0.0602038 0.385432
682 2 0.250618 0.0411681 0.37146
321 4 0.251669 0.0772394 0.387332
249 4 0.278278 0.0255796 0.359006
684 4 0.25884 0.0221324 0.357488
247 2 0.302186 0.029307 0.352707
248 4 0.326094 0.0330343 0.346408
319 2 0.257012 0.0848024 0.410558
633 4 0.333192 0.0287464 0.364524
631 2 0.348071 0.0385536 0.382063
632 4 0.36295 0.0483608 0.399602
468 4 0.351779 0.0661781 0.399747
2757 4 0.0150586 0.0880156 0.37081
2585 4 0.00198667 0.102995 0.36674
2584 2 0.0208163 0.118048 0.360104
2586 4 0.0396458 0.133101 0.353467
399 4 0.0546398 0.126995 0.364805
397 2 0.0786008 0.125209 0.371723
398 4 0.102562 0.123424 0.378641
598 2 0.180597 0.114365 0.343273
600 4 0.184052 0.117736 0.367806
685 2 0.212434 0.146745 0.377931
687 4 0.190031 0.135728 0.376546
686 4 0.234836 0.157763 0.379317
420 4 0.363748 0.117049 0.345127
418 2 0.374411 0.139572 0.347182
466 2 0.351036 0.0900916 0.407011
419 4 0.385074 0.162094 0.349238
716 4 0.397364 0.169221 0.334833
467 4 0.350292 0.114005 0.414275
762 4 0.46883 0.134005 0.361411
760 2 0.472627 0.116335 0.344133
274 2 0.153544 0.199428 0.332316
470 4 0.0937714 0.210526 0.40636
390 4 0.110213 0.20737 0.393494
388 2 0.112329 0.197688 0.370538
276 4 0.130878 0.197342 0.342664
389 4 0.114445 0.188006 0.347583
473 4 0.231425 0.212775 0.332605
708 4 0.235756 0.214342 0.351576
410 4 0.236772 0.174314 0.392464
409 2 0.238793 0.194278 0.407381
707 4 0.28513 0.206704 0.353707
706 2 0.260443 0.210523 0.352642
497 4 0.301362 0.21641 0.34812
496 2 0.321613 0.223162 0.361139
2455 2 0.371828 0.237502 0.383084
498 4 0.341864 0.229914 0.374158
2456 4 0.351836 0.22512 0.391579
2457 4 0.391821 0.249884 0.374589
270 4 0.490317 0.249265 0.385647
618 4 0.0493048 0.254591 0.423889
616 2 0.032123 0.26541 0.409297
617 4 0.0149413 0.276229 0.394705
696 4 0.0521721 0.321384 0.395682
694 2 0.0750257 0.311881 0.392134
695 4 0.0978792 0.302378 0.388586
1258 2 0.128038 0.327392 0.381159
1259 4 0.106675 0.316052 0.374819
509 4 0.279791 0.320632 0.379487
488 4 0.286326 0.312955 0.396418
487 2 0.274222 0.299065 0.413322
306 4 0.494065 0.262307 0.401043
304 2 0.473461 0.270084 0.412883
408 4 0.0267551 0.400639 0.372306
406 2 0.0281489 0.399262 0.397233
1260 4 0.149401 0.338733 0.387499
326 4 0.166279 0.334936 0.399296
374 4 0.240608 0.377684 0.369581
504 4 0.203282 0.403796 0.37472
502 2 0.197286 0.416622 0.354111
510 4 0.248619 0.359232 0.373238
508 2 0.264205 0.339932 0.376363
373 2 0.251331 0.39842 0.360625
2923 2 0.485947 0.368154 0.336178
752 4 0.489129 0.413934 0.418297
681 4 0.0340093 0.497954 0.372981
601 2 0.0505657 0.432825 0.348737
679 2 0.0459847 0.4766 0.378056
603 4 0.0587029 0.439339 0.371465
680 4 0.0579601 0.455246 0.383131
549 4 0.115388 0.451458 0.370348
547 2 0.129885 0.449019 0.390573
548 4 0.144382 0.446581 0.410799
636 4 0.176198 0.438238 0.341588
503 4 0.19129 0.429448 0.333503
2 3 0.30816 0.440058 0.34533
413 4 0.266724 0.432613 0.33569
375 4 0.262053 0.419157 0.351669
3 3 0.280478 0.421658 0.362875
5 3 0.272818 0.451134 0.340736
1 1 0.287725 0.44247 0.355614
668 4 0.28708 0.473522 0.384246
4 3 0.290082 0.456796 0.373714
667 2 0.304492 0.488365 0.39433
751 2 0.482422 0.422615 0.395829
753 4 0.475715 0.431297 0.373361
119 3 0.48867 0.428398 0.358448
367 2 0.0412591 0.0561075 0.43813
369 4 0.029858 0.0543964 0.460317
719 4 0.0427116 0.0674125 0.469067
439 2 0.23871 0.996023 0.431973
441 4 0.232537 0.00963811 0.41193
340 2 0.171025 0.0757866 0.451124
341 4 0.179314 0.0566973 0.437266
2430 4 0.197519 0.0608826 0.429551
2428 2 0.207344 0.0410312 0.417951
1216 2 0.381469 0.0362169 0.478964
1218 4 0.374423 0.0273735 0.456663
2878 2 0.485773 0.0247492 0.472371
2879 4 0.477804 0.00119379 0.469759
718 2 0.0330895 0.082859 0.486213
720 4 0.0234674 0.0983055 0.50336
342 4 0.162735 0.0948759 0.464983
1152 4 0.17725 0.109393 0.470324
1150 2 0.179751 0.123783 0.490619
725 4 0.249669 0.102249 0.445883
726 4 0.288237 0.104237 0.477652
320 4 0.262355 0.0923654 0.433784
432 4 0.295798 0.120979 0.486579
724 2 0.268953 0.103243 0.461767
430 2 0.317174 0.113068 0.496858
575 4 0.40082 0.156019 0.437085
574 2 0.381378 0.14135 0.43143
576 4 0.361935 0.126681 0.425776
516 4 0.418762 0.147571 0.444131
514 2 0.442708 0.15426 0.44678
515 4 0.466654 0.160948 0.44943
260 4 0.0576042 0.180844 0.458586
471 4 0.0707314 0.185578 0.443068
469 2 0.0822514 0.198052 0.424714
259 2 0.0663512 0.18432 0.48175
878 4 0.115117 0.201534 0.473954
877 2 0.118796 0.216134 0.493916
411 4 0.240813 0.214242 0.422298
650 4 0.23816 0.223009 0.440502
649 2 0.243241 0.246567 0.433841
651 4 0.248321 0.270126 0.42718
489 4 0.262118 0.285175 0.430225
584 4 0.343164 0.277901 0.454958
583 2 0.352047 0.265711 0.4749
585 4 0.360929 0.253521 0.494842
305 4 0.452857 0.27786 0.424723
1011 4 0.456679 0.289635 0.439658
1010 4 0.438171 0.324899 0.469901
1009 2 0.447425 0.307267 0.45478
407 4 0.0295427 0.397885 0.42216
709 2 0.150882 0.413212 0.489702
711 4 0.172066 0.400743 0.49428
9 3 0.164332 0.349218 0.48619
325 2 0.176412 0.342058 0.421017
8 3 0.179146 0.384196 0.484937
327 4 0.186544 0.34918 0.442738
7 3 0.190173 0.357997 0.460347
6 1 0.183526 0.36159 0.482074
10 3 0.200161 0.35505 0.496186
1189 2 0.244871 0.358747 0.490404
336 4 0.316273 0.406496 0.434342
803 4 0.276029 0.354453 0.500837
1190 4 0.268273 0.355356 0.482279
334 2 0.334843 0.391606 0.441999
335 4 0.353412 0.376715 0.449657
240 4 0.369415 0.381239 0.461229
238 2 0.377594 0.400528 0.474876
561 4 0.499315 0.400289 0.4288
2507 4 0.428981 0.339649 0.479691
559 2 0.485382 0.395398 0.448977
560 4 0.471449 0.390507 0.469154
2506 2 0.446404 0.357577 0.47922
2508 4 0.463827 0.375504 0.47875
538 2 0.00839154 0.450885 0.494368
540 4 0.0239201 0.459541 0.476786
1383 4 0.0748175 0.479904 0.449777
1381 2 0.0513106 0.47875 0.45822
1382 4 0.0278038 0.477595 0.466662
710 4 0.129698 0.425681 0.485124
570 4 0.139421 0.432341 0.469085
568 2 0.134239 0.435834 0.444875
569 4 0.129056 0.439326 0.420665
1400 4 0.325471 0.471146 0.457641
586 2 0.320706 0.48292 0.490153
588 4 0.317235 0.463681 0.474565
1399 2 0.322354 0.448384 0.447774
1401 4 0.319237 0.425621 0.437908
239 4 0.385773 0.419816 0.488523
1180 2 0.216165 0.0463671 0.530205
1182 4 0.195766 0.0600703 0.525593
1181 4 0.236565 0.0326638 0.534816
963 4 0.234965 0.0165186 0.545954
841 2 0.356255 0.0742074 0.512429
842 4 0.376755 0.0600431 0.510346
1217 4 0.388514 0.0450604 0.501265
951 4 0.155498 0.105987 0.554956
1030 2 0.122766 0.105614 0.578373
1031 4 0.136904 0.104105 0.557806
937 2 0.153662 0.151677 0.534634
949 2 0.17359 0.0917162 0.54525
950 4 0.191682 0.0774454 0.535544
939 4 0.171907 0.135668 0.528632
1151 4 0.182253 0.138173 0.510913
856 2 0.328693 0.158059 0.581293
431 4 0.33855 0.105157 0.507136
843 4 0.335756 0.0883716 0.514512
898 2 0.384878 0.166083 0.571694
899 4 0.364164 0.158916 0.583725
808 2 0.502017 0.0991251 0.589486
809 4 0.49418 0.103831 0.566213
1035 4 0.0747793 0.182094 0.568288
1033 2 0.0687884 0.180774 0.544049
261 4 0.0750982 0.187796 0.504914
1034 4 0.0627975 0.179454 0.51981
1082 4 0.0671074 0.17892 0.586988
3044 4 0.031232 0.241654 0.578251
938 4 0.135417 0.167686 0.540636
879 4 0.122474 0.230734 0.513878
1272 4 0.133351 0.227243 0.53008
1270 2 0.137968 0.225424 0.554586
909 4 0.151552 0.241235 0.585109
1271 4 0.142586 0.223605 0.579092
858 4 0.307745 0.170666 0.576056
796 2 0.30528 0.205268 0.55682
812 4 0.327424 0.238987 0.560547
798 4 0.31511 0.227082 0.549558
797 4 0.295451 0.183455 0.564082
900 4 0.405592 0.173249 0.559662
872 4 0.40604 0.193305 0.560265
873 4 0.392061 0.232763 0.53291
871 2 0.399051 0.213034 0.546587
813 4 0.373633 0.237562 0.541483
811 2 0.350529 0.238275 0.551015
929 4 0.324995 0.316618 0.521777
804 4 0.313052 0.321325 0.506534
928 2 0.341849 0.299687 0.529157
1204 2 0.39047 0.292723 0.561967
1206 4 0.367375 0.28841 0.553412
930 4 0.358703 0.282756 0.536537
1205 4 0.413566 0.297036 0.570522
954 4 0.432975 0.301074 0.563733
952 2 0.441786 0.28458 0.580331
983 4 0.0396002 0.38379 0.551671
982 2 0.0146263 0.384637 0.550795
1041 4 0.0544215 0.391921 0.542095
1039 2 0.0749935 0.405973 0.544223
895 2 0.200459 0.368037 0.538578
896 4 0.208961 0.358344 0.517155
897 4 0.191957 0.37773 0.560001
1137 4 0.188646 0.398216 0.559068
1135 2 0.166613 0.408869 0.564189
1191 4 0.221469 0.362137 0.498529
802 2 0.29454 0.337889 0.503686
926 4 0.474788 0.399973 0.547546
925 2 0.490705 0.400731 0.528278
1000 2 0.457185 0.410608 0.577641
927 4 0.506622 0.401489 0.50901
1936 2 0.0328485 0.487645 0.552559
1937 4 0.0437049 0.488003 0.530038
1938 4 0.021992 0.487286 0.575079
1040 4 0.0955655 0.420024 0.546351
2242 2 0.136238 0.497425 0.552774
1136 4 0.144579 0.419522 0.56931
992 4 0.141428 0.440074 0.565181
993 4 0.0924266 0.430192 0.563796
991 2 0.116927 0.435133 0.564488
2244 4 0.128775 0.503174 0.529613
2243 4 0.1437 0.491675 0.575934
1172 4 0.265026 0.472503 0.578351
882 4 0.26315 0.480182 0.560546
880 2 0.271052 0.495817 0.542705
1454 4 0.338157 0.503614 0.521005
1001 4 0.459656 0.413958 0.552986
945 4 0.0220108 0.0241485 0.661564
1185 4 0.00467934 0.0340533 0.652368
825 4 0.0753223 0.0114071 0.65647
1057 2 0.104995 0.0301341 0.658246
1155 4 0.126994 0.0473723 0.627737
1059 4 0.119913 0.0464993 0.646634
1153 2 0.122064 0.0695721 0.617342
1058 4 0.0900776 0.013769 0.669857
1004 4 0.309458 0.076718 0.6498
831 4 0.322408 0.0624117 0.654797
1925 4 0.400252 0.00584429 0.650983
1142 4 0.380786 0.0760257 0.627964
44 3 0.466442 0.0677759 0.640397
41 1 0.48902 0.0661722 0.635293
2281 2 0.476566 0.014193 0.603148
42 3 0.500866 0.0632688 0.654797
2282 4 0.488999 0.0287104 0.619268
43 3 0.492739 0.0479106 0.621469
1083 4 0.0415721 0.148537 0.617411
1199 4 0.022172 0.150694 0.61913
1154 4 0.117134 0.091772 0.606948
1032 4 0.108628 0.107124 0.59894
1210 2 0.219736 0.157524 0.658419
1211 4 0.244175 0.152483 0.656834
1212 4 0.195298 0.162565 0.660004
888 4 0.245329 0.134438 0.648735
1003 2 0.312564 0.094117 0.632114
1005 4 0.315671 0.111516 0.614428
887 4 0.265191 0.105767 0.612899
886 2 0.25526 0.120103 0.630817
857 4 0.349642 0.145453 0.586531
1141 2 0.389925 0.0927834 0.644114
1143 4 0.399064 0.109541 0.660265
45 3 0.496039 0.0852487 0.625023
1081 2 0.0543398 0.163728 0.6022
907 2 0.175441 0.247168 0.589501
1239 4 0.313623 0.201314 0.604997
1237 2 0.316222 0.224054 0.615064
1238 4 0.318821 0.246794 0.62513
906 4 0.481882 0.228996 0.624425
3357 4 0.495242 0.218391 0.633161
3355 2 0.501177 0.209206 0.655646
3043 2 0.0297986 0.260827 0.594235
3045 4 0.0283653 0.280001 0.61022
894 4 0.0802395 0.335279 0.643886
893 4 0.118993 0.315356 0.619351
892 2 0.0996164 0.325317 0.631619
908 4 0.19933 0.253102 0.593893
947 4 0.217279 0.261499 0.596271
946 2 0.215792 0.270082 0.619708
948 4 0.214304 0.278665 0.643145
1065 4 0.220271 0.264095 0.655138
792 4 0.31589 0.266996 0.624722
791 4 0.359987 0.274926 0.646931
790 2 0.337939 0.270961 0.635827
904 2 0.472197 0.251192 0.618204
905 4 0.462513 0.273389 0.611983
953 4 0.450597 0.268087 0.596929
1279 2 0.0797177 0.366141 0.664401
1281 4 0.0837032 0.355541 0.642109
1027 2 0.226371 0.415601 0.667898
1068 4 0.198269 0.388007 0.661076
1028 4 0.204428 0.404349 0.672027
1002 4 0.454713 0.407258 0.602296
936 4 0.0152262 0.50455 0.583795
1161 4 0.15988 0.480582 0.578711
1171 2 0.24209 0.470362 0.588073
1160 4 0.208409 0.483361 0.590454
1173 4 0.219154 0.468221 0.597796
1159 2 0.184144 0.481971 0.584582
1139 4 0.26297 0.423574 0.649474
891 4 0.346446 0.496844 0.635333
889 2 0.361565 0.488885 0.653588
1952 4 0.352656 0.487974 0.619144
1951 2 0.364432 0.495986 0.598594
1267 2 0.412901 0.470231 0.655912
1910 4 0.458334 0.426585 0.608103
1909 2 0.452826 0.433859 0.631382
1911 4 0.447318 0.441134 0.654661
1268 4 0.432616 0.455816 0.650557
943 2 0.0349334 0.0341792 0.680474
944 4 0.0478559 0.0442099 0.699383
1075 2 0.0541025 0.0619569 0.73138
1076 4 0.0376066 0.0556907 0.713666
1077 4 0.0705984 0.0682232 0.749094
829 2 0.315202 0.0568959 0.678096
830 4 0.307997 0.0513801 0.701395
2400 4 0.346061 0.0114257 0.70063
1163 4 0.499873 0.056285 0.673436
1221 4 0.148758 0.140534 0.698006
1219 2 0.169456 0.144055 0.684427
32 3 0.109261 0.158898 0.718276
1129 2 0.133663 0.124477 0.723132
1131 4 0.115898 0.139973 0.714799
1130 4 0.151428 0.10898 0.731465
1284 4 0.161139 0.092296 0.729118
1227 4 0.160261 0.119792 0.745877
31 1 0.100721 0.164724 0.738826
1220 4 0.190154 0.147575 0.670848
1025 4 0.400106 0.113597 0.679655
1024 2 0.389171 0.124836 0.699131
1026 4 0.378237 0.136075 0.718606
3188 4 0.0125879 0.235094 0.749799
851 4 0.0111723 0.18264 0.73074
1208 4 0.0818018 0.236168 0.691138
1107 4 0.0266875 0.193721 0.726656
1105 2 0.0471346 0.182502 0.735669
1178 4 0.00845467 0.249068 0.735783
1207 2 0.0608217 0.246178 0.700348
1106 4 0.0675816 0.171284 0.744682
35 3 0.0852133 0.18118 0.736112
822 4 0.13561 0.218937 0.700485
1278 4 0.149566 0.214475 0.713882
1276 2 0.144617 0.198737 0.732671
820 2 0.11548 0.227341 0.688265
821 4 0.0953506 0.235745 0.676044
1277 4 0.139668 0.183 0.75146
977 4 0.322914 0.225023 0.714858
918 4 0.314945 0.231152 0.697553
976 2 0.312925 0.210881 0.732897
1008 4 0.35552 0.232556 0.735626
1209 4 0.0398417 0.256188 0.709558
1243 2 0.0365625 0.299123 0.702509
1245 4 0.0335507 0.276081 0.711737
1244 4 0.0395743 0.322165 0.69328
1177 2 0.999211 0.272181 0.733432
942 4 0.178199 0.317751 0.725657
1063 2 0.225471 0.267517 0.679354
1240 2 0.245271 0.293599 0.725977
1064 4 0.230671 0.270939 0.703571
1242 4 0.245168 0.285018 0.702492
916 2 0.31753 0.256022 0.69768
917 4 0.320115 0.280891 0.697807
1096 2 0.308776 0.318546 0.707763
1097 4 0.311445 0.293749 0.709547
3121 2 0.483568 0.33079 0.671954
3123 4 0.459185 0.331447 0.677452
1194 4 0.432054 0.285183 0.754289
1261 2 0.434427 0.246998 0.749115
1262 4 0.441159 0.270308 0.743072
3275 4 0.0668259 0.372937 0.704346
1280 4 0.0757321 0.376741 0.686693
3274 2 0.0819381 0.390704 0.713354
3276 4 0.0970504 0.408471 0.722362
941 4 0.156624 0.343606 0.688687
940 2 0.167411 0.330678 0.707172
1067 4 0.171981 0.353364 0.685765
1066 2 0.185125 0.370686 0.67342
1098 4 0.306107 0.343342 0.705979
1228 2 0.29107 0.407397 0.718036
1230 4 0.312283 0.394303 0.7161
2130 4 0.00943706 0.456119 0.712917
816 4 0.0933973 0.421273 0.739167
1029 4 0.248315 0.426853 0.66377
1229 4 0.269857 0.42049 0.719971
1138 2 0.278857 0.432332 0.666681
1140 4 0.294744 0.441091 0.683888
1989 4 0.284936 0.455723 0.693438
1987 2 0.289716 0.462882 0.716913
1988 4 0.294496 0.470041 0.740388
890 4 0.376684 0.480926 0.671843
1269 4 0.393185 0.484646 0.661268
1100 4 0.440574 0.493216 0.744894
1250 4 0.454846 0.479447 0.746006
1203 4 0.0782923 0.0728374 0.76727
911 4 0.0870419 0.0695887 0.831821
864 4 0.072414 0.0738589 0.81836
1282 2 0.152757 0.0776458 0.747565
2049 4 0.12915 0.0394309 0.766388
1283 4 0.144375 0.0629957 0.766012
2047 2 0.145039 0.0205033 0.770191
1201 2 0.102017 0.0652536 0.769464
1202 4 0.125741 0.0576699 0.771658
2048 4 0.160928 0.00157572 0.773993
1050 4 0.224259 0.0608841 0.819137
818 4 0.372536 0.0869052 0.834683
965 4 0.388914 0.0868555 0.824358
844 2 0.488811 0.0138543 0.777805
845 4 0.494847 0.0360663 0.787571
862 2 0.0670955 0.0959768 0.807983
863 4 0.0617771 0.118095 0.797605
832 2 0.0623585 0.136028 0.766536
833 4 0.0512005 0.11886 0.780886
834 4 0.0735165 0.153197 0.752186
33 3 0.0908462 0.146044 0.748415
1225 2 0.173484 0.131489 0.763583
1226 4 0.186707 0.143187 0.781289
840 4 0.201837 0.151878 0.773731
838 2 0.224345 0.162662 0.775234
1086 4 0.312195 0.152773 0.810947
1084 2 0.319678 0.13044 0.802552
1085 4 0.32716 0.108108 0.794158
1299 4 0.324992 0.163397 0.822667
817 2 0.358088 0.0908072 0.814653
819 4 0.34364 0.0947092 0.794623
3268 2 0.490541 0.158763 0.784186
1036 2 0.465172 0.106801 0.826228
1037 4 0.48512 0.10435 0.811354
3270 4 0.467807 0.160572 0.773935
1146 4 0.448024 0.16265 0.776491
1213 2 0.0337339 0.218638 0.822916
1215 4 0.0145188 0.233711 0.817552
3189 4 0.00766823 0.236378 0.799547
3187 2 0.0101281 0.235736 0.774673
153 3 0.00897309 0.244297 0.833447
34 3 0.118044 0.172309 0.752271
1073 4 0.122202 0.187885 0.766808
1072 2 0.115738 0.192266 0.790561
1074 4 0.109275 0.196648 0.814314
839 4 0.246853 0.173446 0.776737