ITEM: TIMESTEP
5700000
ITEM: NUMBER OF ATOMS
4590
ITEM: BOX BOUNDS pp pp pp
-9.9985700000000008e+00 9.9985700000000008e+00
-9.9985700000000008e+00 9.9985700000000008e+00
-9.9985700000000008e+00 9.9985700000000008e+00
ITEM: ATOMS id type xs ys zs
1668 4 0.0781806 0.0466166 0.0640947
1666 2 0.0611529 0.0420048 0.0818138
700 2 0.0144667 0.07347 0.0103511
3290 4 0.0741672 0.0461902 0.0451494
3289 2 0.0877546 0.0318418 0.0298299
3291 4 0.101342 0.0174934 0.0145104
566 4 0.103928 0.997943 0.00606873
986 4 0.308238 0.0524253 0.0024361
2264 4 0.304915 0.0725371 0.00924988
746 4 0.415899 0.0165101 0.0759969
2723 4 0.445282 0.0712495 0.0198549
2724 4 0.487444 0.0494159 0.0355516
2722 2 0.466363 0.0603327 0.0277032
745 2 0.434996 0.000371216 0.0758469
702 4 0.0130147 0.08515 0.0324112
555 4 0.0227998 0.102951 0.0313262
553 2 0.038019 0.122109 0.0364755
554 4 0.0532382 0.141267 0.0416248
2835 4 0.0557837 0.150175 0.0229622
2833 2 0.070418 0.170405 0.0216234
1476 4 0.287271 0.0940968 0.0832605
1474 2 0.311828 0.0987753 0.0837894
2806 2 0.0346444 0.242891 0.0310966
2808 4 0.0274151 0.234153 0.0533801
657 4 0.0131441 0.222777 0.0503915
2807 4 0.0418738 0.251629 0.0088131
2834 4 0.0850523 0.190634 0.0202845
837 4 0.0906749 0.246664 0.0104735
737 4 0.15005 0.197491 0.0745428
915 4 0.163995 0.228612 0.0289579
360 4 0.207732 0.175323 0.00621343
358 2 0.226266 0.189432 0.0153007
354 4 0.245141 0.222233 0.0308745
359 4 0.244801 0.203541 0.024388
738 4 0.169484 0.208808 0.0298778
736 2 0.159767 0.203149 0.0522103
352 2 0.231673 0.2384 0.0443803
353 4 0.218204 0.254567 0.0578862
278 4 0.202275 0.251202 0.0707688
1056 4 0.0767815 0.312171 0.00619883
1054 2 0.0792328 0.287968 0.0119779
1055 4 0.0816841 0.263765 0.017757
456 4 0.0915271 0.312278 0.0781324
454 2 0.101606 0.332979 0.0878829
914 4 0.18823 0.267667 0.00925815
913 2 0.176113 0.24814 0.019108
287 4 0.198617 0.279472 0.0216656
286 2 0.206966 0.300291 0.0327131
288 4 0.215315 0.32111 0.0437607
610 2 0.273943 0.301665 0.0400755
611 4 0.276018 0.292301 0.0169849
612 4 0.271868 0.31103 0.0631661
990 4 0.227338 0.334095 0.0334444
988 2 0.215571 0.356124 0.0322604
989 4 0.203803 0.378154 0.0310763
1104 4 0.186509 0.383388 0.0243306
1102 2 0.195426 0.404017 0.0133702
250 2 0.292989 0.404395 0.0798164
252 4 0.288711 0.380781 0.0868343
741 4 0.367818 0.364327 0.0194411
740 4 0.349702 0.372627 0.0653065
386 4 0.344275 0.363955 0.0822401
739 2 0.35876 0.368477 0.0423738
227 4 0.399715 0.414189 0.019991
1093 2 0.428717 0.344801 0.0107906
1303 2 0.43159 0.397676 0.0242483
1304 4 0.443787 0.377626 0.0328743
1095 4 0.433566 0.360772 0.0294068
1620 4 0.118671 0.423412 0.0605231
1618 2 0.138091 0.432134 0.0474097
1619 4 0.157512 0.440856 0.0342963
1787 4 0.155177 0.485776 0.0403219
1223 4 0.140784 0.495529 0.0295609
1786 2 0.153411 0.498829 0.0615744
1103 4 0.204342 0.424646 0.00240982
243 4 0.237474 0.453036 0.0750993
242 4 0.285411 0.442252 0.0658031
241 2 0.261443 0.447644 0.0704512
524 4 0.294071 0.455372 0.0540344
523 2 0.317546 0.449401 0.0478337
251 4 0.297266 0.428009 0.0727986
226 2 0.378752 0.423153 0.0302554
228 4 0.357789 0.432118 0.0405199
525 4 0.341021 0.44343 0.041633
1305 4 0.419394 0.417727 0.0156223
1422 4 0.0127236 0.0352589 0.140023
1667 4 0.0441251 0.0373929 0.0995329
19 3 0.0217999 0.021273 0.130517
17 3 0.0260834 0.0326355 0.0949475
16 1 0.0106843 0.0260574 0.110719
18 3 0.999693 0.00712391 0.103031
1420 2 0.015143 0.0296907 0.164278
2480 4 0.00488697 0.0508537 0.129963
1506 4 0.139579 0.00991817 0.150546
693 4 0.247857 0.075436 0.146577
653 4 0.263342 0.0777497 0.135063
295 2 0.391631 0.0319111 0.10134
297 4 0.368998 0.0348193 0.111561
484 2 0.350281 0.0378754 0.146101
485 4 0.350869 0.034824 0.121291
296 4 0.414264 0.0290029 0.0911186
237 4 0.151003 0.113729 0.161452
654 4 0.269093 0.0880665 0.0864705
652 2 0.266218 0.0829081 0.110767
1475 4 0.336384 0.103454 0.0843183
580 2 0.338524 0.164549 0.149215
582 4 0.35649 0.147892 0.144222
758 4 0.348736 0.128461 0.144119
757 2 0.34588 0.108831 0.15934
557 4 0.43518 0.12528 0.136473
556 2 0.443208 0.104482 0.147793
558 4 0.451237 0.083683 0.159113
578 4 0.996672 0.168549 0.168172
338 4 0.996109 0.221488 0.132519
505 2 0.116548 0.223119 0.0853236
507 4 0.0966514 0.238261 0.0852104
506 4 0.136446 0.207977 0.0854368
293 4 0.107883 0.250185 0.0958464
461 4 0.240229 0.192298 0.127323
475 2 0.2344 0.189481 0.15731
477 4 0.252391 0.20041 0.143816
460 2 0.25714 0.192575 0.108907
462 4 0.274051 0.192851 0.0904917
29 3 0.291244 0.220779 0.141246
30 3 0.301962 0.187451 0.155104
581 4 0.320558 0.181207 0.154208
26 1 0.288912 0.205752 0.158771
28 3 0.266702 0.199356 0.160819
285 4 0.292987 0.240429 0.141129
628 2 0.370935 0.237075 0.142154
629 4 0.393014 0.239056 0.130588
630 4 0.348856 0.235093 0.15372
624 4 0.401024 0.249102 0.116333
2894 4 0.500528 0.198768 0.131714
294 4 0.0921802 0.297315 0.0901105
292 2 0.100032 0.27375 0.0929785
277 2 0.208582 0.262061 0.0923906
279 4 0.214889 0.272919 0.114012
609 4 0.275446 0.314808 0.0819114
283 2 0.278923 0.259803 0.148341
284 4 0.264859 0.279177 0.155554
622 2 0.415347 0.267794 0.124738
623 4 0.42967 0.286486 0.133144
527 4 0.42985 0.290263 0.152821
526 2 0.448561 0.298189 0.16739
536 4 0.125612 0.348717 0.112078
455 4 0.111685 0.35368 0.0976334
537 4 0.111147 0.365582 0.156878
535 2 0.118379 0.35715 0.134478
625 2 0.201085 0.383507 0.131964
626 4 0.196977 0.376358 0.155569
627 4 0.205193 0.390656 0.108359
1439 4 0.202667 0.410447 0.10074
607 2 0.277981 0.339625 0.0802186
608 4 0.280515 0.364442 0.0785257
301 2 0.312321 0.413551 0.13665
303 4 0.287469 0.416297 0.136725
302 4 0.337173 0.410805 0.136575
385 2 0.343746 0.381501 0.100045
387 4 0.343218 0.399047 0.117851
12 3 0.385737 0.392089 0.134455
11 1 0.367924 0.400523 0.146317
15 3 0.348642 0.39128 0.138481
672 4 0.403889 0.385358 0.126595
671 4 0.447097 0.370104 0.106567
670 2 0.425493 0.377731 0.116581
281 4 0.466704 0.374694 0.105665
280 2 0.490014 0.367294 0.100462
315 4 0.00712662 0.427125 0.125857
1431 4 0.17018 0.454566 0.159642
1440 4 0.220592 0.454945 0.0866209
1438 2 0.211629 0.432696 0.0936803
1573 2 0.205934 0.467868 0.157119
1575 4 0.181814 0.469854 0.163401
1574 4 0.230054 0.465881 0.150837
639 4 0.246646 0.456182 0.15215
638 4 0.276588 0.416219 0.15482
637 2 0.261617 0.4362 0.153485
14 3 0.367336 0.42356 0.143599
495 4 0.351187 0.42582 0.129684
1559 4 0.344869 0.484852 0.0996067
493 2 0.349357 0.445712 0.114646
494 4 0.347526 0.465604 0.0996087
1558 2 0.345443 0.50058 0.119036
1421 4 0.0175624 0.0241225 0.188533
1416 4 0.0126273 0.020192 0.207435
1504 2 0.146025 0.0142929 0.174305
1505 4 0.152471 0.0186677 0.198064
688 2 0.124245 0.0200342 0.224696
689 4 0.142892 0.00824561 0.212928
690 4 0.105598 0.0318227 0.236465
691 2 0.258219 0.0844061 0.16749
1661 4 0.338225 0.0267653 0.18568
1660 2 0.321651 0.0147356 0.200024
486 4 0.349693 0.0409268 0.17091
23 3 0.337137 0.0820531 0.204036
22 3 0.340984 0.0476528 0.18939
698 4 0.376478 0.0427191 0.21575
697 2 0.373416 0.0185921 0.221555
333 4 0.37953 0.0611492 0.230054
21 1 0.352086 0.0671768 0.19436
331 2 0.403096 0.0686646 0.226404
24 3 0.369288 0.0624555 0.209199
25 3 0.360582 0.0760628 0.175189
2744 4 0.479485 0.0585827 0.209329
351 4 0.429951 0.0624641 0.209233
742 2 0.471082 0.0724095 0.242884
332 4 0.426663 0.07618 0.222754
744 4 0.488234 0.0633987 0.227079
349 2 0.442173 0.0633246 0.187437
350 4 0.454396 0.0641851 0.165641
511 2 0.0241093 0.160094 0.193197
512 4 0.0403773 0.143963 0.203213
450 4 0.0515032 0.137469 0.188467
448 2 0.0725083 0.125184 0.194215
449 4 0.0935134 0.1129 0.199964
236 4 0.107079 0.111024 0.185204
235 2 0.129041 0.112376 0.173328
692 4 0.268582 0.0933762 0.188402
1700 4 0.329311 0.0935597 0.189286
1699 2 0.305425 0.0939254 0.196668
1701 4 0.281539 0.0942911 0.20405
755 4 0.314829 0.165392 0.215493
759 4 0.343025 0.0892013 0.174562
769 2 0.482634 0.156502 0.166902
770 4 0.461344 0.164218 0.177502
513 4 0.00784136 0.176225 0.183181
444 4 0.0243211 0.247684 0.245157
530 4 0.00652486 0.238928 0.246948
361 2 0.144877 0.227142 0.223944
363 4 0.131466 0.239983 0.240691
362 4 0.158289 0.214302 0.207198
372 4 0.17691 0.223934 0.203541
370 2 0.189819 0.20602 0.191811
476 4 0.21641 0.178551 0.170803
371 4 0.202728 0.188105 0.18008
27 3 0.295531 0.215991 0.178278
756 4 0.309853 0.210123 0.193696
754 2 0.312341 0.187758 0.204594
255 4 0.306525 0.233297 0.190349
253 2 0.325251 0.242985 0.176908
703 2 0.00573516 0.290452 0.193961
2615 4 0.0163391 0.314304 0.230063
705 4 0.0101823 0.303588 0.214766
254 4 0.343976 0.252674 0.163467
343 2 0.384225 0.313936 0.226531
345 4 0.385417 0.318605 0.201997
596 4 0.385425 0.328636 0.185511
344 4 0.383032 0.309267 0.251066
528 4 0.467272 0.306115 0.181959
542 4 0.46215 0.299592 0.201482
541 2 0.464396 0.312133 0.222996
543 4 0.466642 0.324675 0.24451
620 4 0.0334521 0.396171 0.199459
619 2 0.0287437 0.410149 0.219649
647 4 0.114733 0.35567 0.174133
298 2 0.0900207 0.346381 0.248537
300 4 0.0881495 0.340726 0.224253
648 4 0.0821918 0.334544 0.205684
646 2 0.0984626 0.345107 0.189909
1430 4 0.168508 0.408201 0.178302
415 2 0.190651 0.395799 0.209505
417 4 0.184025 0.400126 0.185786
416 4 0.197277 0.391473 0.233223
677 4 0.196545 0.408202 0.244402
735 4 0.177315 0.407608 0.250732
13 3 0.370683 0.395261 0.168747
597 4 0.376873 0.377374 0.178289
595 2 0.381149 0.353005 0.1819
645 4 0.384237 0.397749 0.185781
643 2 0.395556 0.404981 0.20687
644 4 0.406876 0.412212 0.227959
621 4 0.0240353 0.424128 0.239838
264 4 0.0418281 0.426652 0.247795
1319 4 0.110209 0.49029 0.184997
1429 2 0.169344 0.431384 0.168972
768 4 0.192665 0.493497 0.195721
676 2 0.208106 0.429686 0.249875
438 4 0.234888 0.447735 0.245888
229 2 0.340888 0.4944 0.196473
231 4 0.354065 0.473308 0.193894
660 4 0.350318 0.45613 0.201837
447 4 0.393934 0.41423 0.242888
658 2 0.355281 0.445634 0.223982
659 4 0.360243 0.435138 0.246127
233 4 0.00500733 0.0323507 0.3214
232 2 0.0292068 0.0293526 0.32693
1462 2 0.0975281 0.00967666 0.273698
1464 4 0.108314 0.0215799 0.254537
392 4 0.0936052 0.0763405 0.279944
545 4 0.113975 0.0782097 0.274818
544 2 0.127704 0.0860038 0.294207
675 4 0.141836 0.0802499 0.328517
722 4 0.161123 0.0344801 0.261283
721 2 0.175509 0.0353871 0.281714
723 4 0.189894 0.0362941 0.302145
1405 2 0.221715 0.0643441 0.297348
1406 4 0.208641 0.0446848 0.30558
1407 4 0.234789 0.0840034 0.289115
743 4 0.45393 0.0814204 0.258689
391 2 0.0742788 0.0921849 0.279156
393 4 0.0549523 0.108029 0.278367
2586 4 0.0355651 0.106669 0.28256
2584 2 0.0131149 0.10348 0.293096
399 4 0.0692726 0.152127 0.306163
397 2 0.0795472 0.158406 0.328076
546 4 0.141434 0.093798 0.313596
599 4 0.248909 0.0808273 0.302591
598 2 0.272543 0.0853727 0.309373
600 4 0.296176 0.089918 0.316155
420 4 0.338677 0.139832 0.28397
418 2 0.34719 0.158506 0.269688
765 4 0.476532 0.155264 0.25411
425 4 0.468913 0.0929378 0.266121
424 2 0.473987 0.108183 0.285279
258 4 0.491599 0.109347 0.312498
426 4 0.479061 0.123429 0.304436
443 4 0.0645832 0.246976 0.274808
442 2 0.0444522 0.24733 0.259982
473 4 0.275753 0.245114 0.325383
708 4 0.279842 0.225464 0.327628
419 4 0.355703 0.177181 0.255407
716 4 0.375601 0.177958 0.257525
715 2 0.391457 0.196147 0.264076
717 4 0.407312 0.214337 0.270626
377 4 0.411405 0.224553 0.286932
376 2 0.405078 0.248124 0.292368
396 4 0.0752507 0.255241 0.257499
395 4 0.124613 0.256837 0.249657
394 2 0.0999321 0.256039 0.253578
402 4 0.19057 0.308699 0.306001
400 2 0.204691 0.290369 0.315476
474 4 0.237553 0.276341 0.317238
401 4 0.218813 0.27204 0.324952
472 2 0.256653 0.260728 0.321311
309 4 0.378581 0.326572 0.262205
378 4 0.398752 0.271695 0.297805
266 4 0.381561 0.273172 0.309794
265 2 0.370509 0.287938 0.326676
614 4 0.451006 0.325994 0.303244
613 2 0.452957 0.33162 0.278959
269 4 0.486428 0.277448 0.329861
364 2 0.00475273 0.361045 0.317879
750 4 0.0797369 0.355846 0.288124
366 4 0.0243304 0.352829 0.304673
748 2 0.0584811 0.360928 0.300271
749 4 0.0372252 0.36601 0.312417
299 4 0.0918919 0.352035 0.272821
734 4 0.137776 0.410653 0.281197
733 2 0.157546 0.40913 0.265964
290 4 0.197124 0.374269 0.242293
289 2 0.213199 0.374001 0.261441
504 4 0.208619 0.403706 0.309528
291 4 0.229275 0.373733 0.28059
414 4 0.23278 0.386813 0.295822
412 2 0.25409 0.394747 0.306221
413 4 0.275399 0.402681 0.316619
5 3 0.281979 0.419014 0.308634
1 1 0.300701 0.420402 0.321526
727 2 0.338823 0.391695 0.290616
308 4 0.357847 0.363503 0.288793
729 4 0.339569 0.367678 0.283702
307 2 0.368214 0.345037 0.275499
615 4 0.454909 0.337246 0.254675
2925 4 0.452081 0.338304 0.319638
2923 2 0.468609 0.355828 0.326341
262 2 0.06273 0.426078 0.261505
775 2 0.0822158 0.455893 0.320013
776 4 0.0721913 0.474185 0.306226
1757 4 0.0601067 0.485051 0.296231
263 4 0.083632 0.425504 0.275215
678 4 0.219668 0.45117 0.255347
1544 4 0.188917 0.484049 0.313619
1543 2 0.190338 0.490588 0.33771
435 4 0.2986 0.468293 0.266158
436 2 0.256932 0.454821 0.255322
437 4 0.278977 0.461907 0.264756
433 2 0.311567 0.450452 0.277935
2 3 0.319296 0.418845 0.308075
434 4 0.324534 0.43261 0.289713
728 4 0.338076 0.415712 0.297529
445 2 0.404312 0.428747 0.260402
446 4 0.414689 0.443264 0.277916
713 4 0.467418 0.430218 0.305041
120 3 0.478939 0.431678 0.324096
2862 4 0.489748 0.43452 0.305618
712 2 0.444688 0.428223 0.294816
714 4 0.421958 0.426229 0.284591
234 4 0.0534062 0.0263545 0.33246
317 4 0.0641245 0.043053 0.335997
316 2 0.0694533 0.0503231 0.359319
318 4 0.0747822 0.0575931 0.382642
732 4 0.0924519 0.0617474 0.390548
673 2 0.138972 0.0622561 0.34564
674 4 0.136107 0.0442623 0.362763
604 2 0.150338 0.0466036 0.396971
605 4 0.13422 0.0367268 0.380605
730 2 0.0888739 0.0618463 0.415294
321 4 0.216548 0.076706 0.40011
683 4 0.223897 0.0611388 0.392427
682 2 0.236069 0.0522563 0.372474
1340 4 0.257679 0.00767415 0.354905
684 4 0.24824 0.0433738 0.352521
249 4 0.259173 0.0274452 0.359167
247 2 0.282591 0.030451 0.350936
248 4 0.306008 0.0334568 0.342704
633 4 0.318007 0.0213984 0.353499
631 2 0.335632 0.0290038 0.369521
632 4 0.353258 0.0366092 0.385542
468 4 0.353999 0.0568428 0.386047
466 2 0.371991 0.0741842 0.38519
398 4 0.0898219 0.164685 0.349989
389 4 0.104689 0.156372 0.361245
404 4 0.196868 0.162982 0.328191
319 2 0.233162 0.0859921 0.416325
685 2 0.251927 0.135843 0.393576
687 4 0.246468 0.117657 0.409844
686 4 0.257387 0.154029 0.377308
467 4 0.389983 0.0915256 0.384334
576 4 0.397241 0.100738 0.399813
574 2 0.404371 0.123086 0.40847
256 2 0.493646 0.0999302 0.33557
257 4 0.495693 0.0905135 0.358642
388 2 0.0922049 0.165692 0.380801
390 4 0.0797207 0.175013 0.400358
276 4 0.153286 0.246164 0.373007
274 2 0.163806 0.225172 0.364413
405 4 0.161833 0.193457 0.346752
403 2 0.17935 0.178219 0.337472
275 4 0.174326 0.204181 0.355818
650 4 0.231316 0.22475 0.405472
411 4 0.237132 0.213302 0.390388
409 2 0.243841 0.191934 0.379271
410 4 0.250549 0.170566 0.368154
706 2 0.300755 0.226336 0.341305
707 4 0.321669 0.227208 0.354981
497 4 0.335614 0.241795 0.34909
496 2 0.343813 0.249312 0.371483
617 4 0.0430336 0.298324 0.335623
616 2 0.0661876 0.303937 0.343211
618 4 0.0893417 0.309549 0.350798
696 4 0.0988415 0.310048 0.368183
694 2 0.11738 0.321069 0.380834
695 4 0.135918 0.332089 0.393486
488 4 0.301341 0.291976 0.396098
487 2 0.286162 0.278572 0.410764
509 4 0.286573 0.304094 0.391953
508 2 0.287258 0.320001 0.372674
267 4 0.359456 0.302704 0.343557
498 4 0.352012 0.25683 0.393876
2456 4 0.345652 0.252856 0.414085
305 4 0.422541 0.289419 0.40826
268 2 0.462842 0.275445 0.337916
270 4 0.439256 0.273442 0.34597
306 4 0.425135 0.275468 0.360309
304 2 0.423838 0.282443 0.384285
1259 4 0.155688 0.33173 0.396606
548 4 0.10044 0.403442 0.393505
502 2 0.207976 0.40558 0.334453
1258 2 0.175546 0.339223 0.409823
503 4 0.207334 0.407454 0.359378
375 4 0.285319 0.39205 0.330005
373 2 0.283101 0.372664 0.345639
374 4 0.280882 0.353277 0.361274
510 4 0.287943 0.335909 0.353395
3 3 0.301059 0.402996 0.336865
2924 4 0.485138 0.373351 0.333043
118 3 0.483725 0.395162 0.331926
602 4 0.0609158 0.430789 0.375733
601 2 0.0409781 0.445846 0.376717
603 4 0.0210405 0.460902 0.377701
680 4 0.00251834 0.466989 0.379634
549 4 0.074873 0.430942 0.360478
777 4 0.0922402 0.437601 0.333801
569 4 0.118981 0.410813 0.397833
1775 4 0.115627 0.473075 0.382855
1774 2 0.127119 0.486188 0.364934
547 2 0.0876564 0.417192 0.376992
636 4 0.211478 0.427264 0.360554
1821 4 0.201228 0.481654 0.372192
635 4 0.231945 0.439117 0.404614
634 2 0.221711 0.43319 0.382584
668 4 0.291475 0.458218 0.33078
4 3 0.301167 0.440765 0.332641
667 2 0.306524 0.472849 0.344368
669 4 0.321572 0.487481 0.357956
1586 4 0.324842 0.498957 0.373223
116 1 0.486992 0.416879 0.339418
753 4 0.486917 0.427005 0.374619
119 3 0.476274 0.419933 0.359769
369 4 0.0275832 0.0550876 0.47604
367 2 0.049987 0.0551593 0.464939
368 4 0.0723908 0.0552309 0.453837
719 4 0.0367669 0.0688102 0.489222
731 4 0.0852958 0.0619451 0.44004
606 4 0.166455 0.0564803 0.413337
341 4 0.179464 0.0690975 0.424772
2430 4 0.193532 0.0603894 0.435314
2429 4 0.174054 0.0210939 0.459339
2428 2 0.183793 0.0407417 0.447327
441 4 0.168964 0.00201574 0.455725
843 4 0.315046 0.0649237 0.469247
431 4 0.308019 0.0711074 0.485888
841 2 0.330877 0.0456377 0.467628
1218 4 0.411357 0.0113038 0.450014
842 4 0.346707 0.0263518 0.466009
1216 2 0.388087 0.019477 0.454125
1217 4 0.364818 0.0276502 0.458236
2879 4 0.494908 0.0164568 0.484912
259 2 0.0510067 0.140697 0.481972
260 4 0.0678916 0.128264 0.468353
261 4 0.0341217 0.153131 0.495591
718 2 0.022895 0.0872364 0.498877
471 4 0.0817956 0.139203 0.458177
469 2 0.0849494 0.153671 0.438029
342 4 0.172353 0.117401 0.435586
340 2 0.175908 0.0932491 0.430179
1152 4 0.176964 0.135238 0.429011
1150 2 0.184764 0.156802 0.438978
725 4 0.248395 0.114181 0.429475
320 4 0.249775 0.0952781 0.43254
724 2 0.26348 0.121416 0.448057
726 4 0.278564 0.12865 0.46664
432 4 0.292003 0.114135 0.466067
430 2 0.300011 0.0926211 0.475977
575 4 0.4115 0.145433 0.417127
516 4 0.40068 0.156118 0.43045
470 4 0.0881031 0.168138 0.417882
877 2 0.155317 0.231424 0.486246
878 4 0.132356 0.232162 0.476375
649 2 0.248195 0.236302 0.419853
1151 4 0.192565 0.178366 0.448945
939 4 0.1998 0.17627 0.466987
937 2 0.188657 0.185568 0.487348
879 4 0.178278 0.230685 0.496117
2457 4 0.327562 0.232794 0.456167
514 2 0.39513 0.170759 0.449945
515 4 0.38958 0.185399 0.46944
2455 2 0.336607 0.242825 0.435126
797 4 0.352306 0.185781 0.500443
651 4 0.265075 0.247855 0.434233
489 4 0.270982 0.265168 0.425431
584 4 0.362536 0.297897 0.471005
583 2 0.368581 0.311734 0.451076
585 4 0.374626 0.325572 0.431147
1011 4 0.433071 0.286845 0.424926
1009 2 0.440379 0.307182 0.437504
1010 4 0.447686 0.327518 0.450082
406 2 0.0636867 0.367349 0.464296
408 4 0.0524902 0.354093 0.446294
407 4 0.0748832 0.380606 0.482299
710 4 0.156631 0.408898 0.434655
1260 4 0.195404 0.346715 0.42304
326 4 0.215353 0.342623 0.427366
709 2 0.17585 0.39887 0.447114
711 4 0.19507 0.388842 0.459573
8 3 0.195345 0.401816 0.47647
325 2 0.213013 0.359219 0.445922
327 4 0.210673 0.375814 0.464477
7 3 0.224941 0.378781 0.478945
6 1 0.207165 0.38765 0.490542
238 2 0.396486 0.377058 0.487484
240 4 0.372509 0.37284 0.48178
334 2 0.35 0.403757 0.464583
335 4 0.356998 0.38175 0.474168
561 4 0.503655 0.408987 0.438182
2507 4 0.460001 0.34248 0.456223
239 4 0.420462 0.381275 0.493188
2506 2 0.449043 0.357518 0.472925
2508 4 0.438085 0.372556 0.489628
559 2 0.496392 0.386671 0.446809
1382 4 0.0803619 0.490326 0.471802
540 4 0.0836952 0.479733 0.489002
568 2 0.133049 0.419508 0.416586
538 2 0.0962652 0.460922 0.499647
570 4 0.147117 0.428202 0.435339
1381 2 0.0856261 0.495956 0.448016
880 2 0.215903 0.488155 0.483659
881 4 0.206728 0.498513 0.462834
1394 4 0.257765 0.491609 0.452778
1444 2 0.278477 0.4978 0.491176
1399 2 0.348376 0.469507 0.459503
1400 4 0.348877 0.494446 0.457784
336 4 0.343002 0.425764 0.454997
1401 4 0.347875 0.444568 0.461223
1180 2 0.226581 0.0371405 0.525805
1182 4 0.21342 0.0560964 0.51618
950 4 0.207658 0.057071 0.535091
1181 4 0.239742 0.0181847 0.53543
963 4 0.254548 0.0155054 0.547918
961 2 0.276826 0.0149562 0.53658
962 4 0.299104 0.014407 0.525241
3059 4 0.501628 0.0801603 0.532779
3007 2 0.491789 0.08371 0.568902
4465 2 0.467264 0.000475013 0.566383
89 3 0.461213 0.00440022 0.514393
1034 4 0.045077 0.161727 0.509541
1082 4 0.0288997 0.154785 0.573401
720 4 0.00902304 0.105663 0.508532
1033 2 0.0416104 0.163443 0.534244
1035 4 0.0381439 0.165158 0.558947
1030 2 0.159948 0.101409 0.581704
1031 4 0.180709 0.106538 0.568748
951 4 0.179242 0.094756 0.551617
949 2 0.19345 0.0759135 0.543354
857 4 0.348235 0.137617 0.547099
856 2 0.345458 0.156567 0.531025
899 4 0.360756 0.146226 0.561115
898 2 0.373429 0.153762 0.581309
3009 4 0.490611 0.0901872 0.54478
938 4 0.177514 0.194867 0.507708
1270 2 0.174852 0.220712 0.540344
1271 4 0.172374 0.214219 0.564363
1272 4 0.177331 0.227205 0.516326
909 4 0.185607 0.224231 0.574025
858 4 0.342681 0.175516 0.51495
796 2 0.358473 0.208135 0.509795
798 4 0.364639 0.23049 0.519146
812 4 0.377638 0.230783 0.534525
811 2 0.39106 0.227128 0.555302
813 4 0.404481 0.223473 0.576079
1204 2 0.419314 0.332329 0.549874
1205 4 0.436569 0.317776 0.560627
954 4 0.455989 0.314819 0.566695
952 2 0.468717 0.297992 0.580113
1041 4 0.0547439 0.378315 0.569925
1039 2 0.0678216 0.39929 0.573689
982 2 0.0119412 0.374387 0.56411
983 4 0.0358467 0.381649 0.5651
9 3 0.193468 0.370331 0.497673
896 4 0.21252 0.396185 0.529904
1191 4 0.230581 0.387347 0.517844
10 3 0.214974 0.399278 0.508499
895 2 0.21082 0.412801 0.548511
1189 2 0.251047 0.378818 0.529403
803 4 0.279035 0.354961 0.531761
802 2 0.303676 0.350737 0.531337
1190 4 0.271512 0.370289 0.540961
804 4 0.328316 0.346513 0.530914
1206 4 0.402058 0.346883 0.539122
930 4 0.39223 0.332024 0.532347
928 2 0.368459 0.337025 0.526426
929 4 0.344687 0.342026 0.520504
2813 4 0.0276109 0.476889 0.53499
2812 2 0.0135725 0.461514 0.521143
2814 4 0.999534 0.446139 0.507297
539 4 0.108835 0.442111 0.510292
1135 2 0.171224 0.444003 0.581632
897 4 0.20912 0.429417 0.567118
1137 4 0.19538 0.439619 0.576896
882 4 0.225078 0.477797 0.504485
1172 4 0.220657 0.486988 0.520623
1171 2 0.220372 0.489042 0.54554
1173 4 0.220087 0.491096 0.570458
1445 4 0.291221 0.496199 0.512628
2223 4 0.274983 0.495876 0.523204
927 4 0.464875 0.43141 0.520734
926 4 0.431254 0.42252 0.556669
925 2 0.448064 0.426965 0.538701
1001 4 0.425157 0.416838 0.575071
1155 4 0.128434 0.0350843 0.606535
1153 2 0.126096 0.05916 0.600205
1284 4 0.130476 0.0159534 0.612813
1282 2 0.131181 0.999745 0.631838
887 4 0.227897 0.0476794 0.651467
886 2 0.217001 0.0673709 0.640572
2400 4 0.334641 0.0194139 0.656672
2398 2 0.313492 0.00647 0.659889
830 4 0.331338 0.030243 0.672087
808 2 0.483419 0.0616742 0.623181
810 4 0.487221 0.0427367 0.639058
809 4 0.479617 0.0806118 0.607303
3008 4 0.492968 0.0772328 0.593023
4467 4 0.458201 0.0104806 0.587429
1081 2 0.0204278 0.150787 0.596584
1083 4 0.011956 0.146789 0.619766
1154 4 0.123757 0.0832357 0.593875
1032 4 0.139187 0.0962803 0.59466
1220 4 0.138793 0.131781 0.656811
1212 4 0.14738 0.115585 0.6505
1211 4 0.188343 0.089752 0.638033
888 4 0.206106 0.0870624 0.629676
1210 2 0.167861 0.102668 0.644266
1239 4 0.309378 0.153393 0.649564
900 4 0.386102 0.161299 0.601502
1026 4 0.385355 0.16402 0.661029
1024 2 0.397604 0.143187 0.667441
907 2 0.187939 0.231399 0.597866
908 4 0.19027 0.238567 0.621706
1237 2 0.323975 0.170004 0.637893
792 4 0.329841 0.20543 0.624166
873 4 0.417366 0.212426 0.58689
1238 4 0.338571 0.186614 0.626222
872 4 0.401521 0.170494 0.609059
871 2 0.409444 0.19146 0.597975
790 2 0.342733 0.221235 0.638629
791 4 0.355624 0.23704 0.653093
3357 4 0.47182 0.210234 0.64051
906 4 0.48106 0.222011 0.626367
904 2 0.479942 0.241812 0.61114
3355 2 0.490502 0.212059 0.657028
1207 2 0.0579862 0.268583 0.654677
1209 4 0.0381987 0.253686 0.651253
1208 4 0.0777737 0.28348 0.658102
1245 4 0.001163 0.293389 0.654286
893 4 0.0965315 0.284955 0.650805
892 2 0.104798 0.305915 0.639964
894 4 0.113064 0.326875 0.629123
821 4 0.106846 0.268582 0.650239
820 2 0.122784 0.250779 0.657602
947 4 0.19373 0.255968 0.629643
946 2 0.19709 0.274124 0.646502
948 4 0.20045 0.292281 0.663362
918 4 0.280468 0.2537 0.664206
905 4 0.478824 0.261612 0.595913
953 4 0.481444 0.281165 0.593532
3121 2 0.482148 0.313783 0.646176
3122 4 0.488154 0.32872 0.627044
3123 4 0.476143 0.298847 0.665307
1279 2 0.10751 0.370601 0.636341
1281 4 0.111688 0.347162 0.628701
1280 4 0.103333 0.394039 0.643982
1067 4 0.150543 0.361139 0.657555
941 4 0.144426 0.342094 0.659428
3275 4 0.105155 0.403747 0.661355
1066 2 0.164599 0.372316 0.640157
1068 4 0.178656 0.383493 0.62276
1028 4 0.195858 0.394386 0.631221
1027 2 0.209582 0.410153 0.644943
3114 4 0.489353 0.338169 0.609882
993 4 0.0842325 0.440064 0.579242
1040 4 0.0808993 0.420266 0.577454
1136 4 0.147067 0.448387 0.586369
992 4 0.129952 0.455713 0.592107
991 2 0.107092 0.447889 0.585674
1029 4 0.223305 0.425919 0.658664
1176 4 0.221238 0.502005 0.586744
889 2 0.372116 0.4749 0.638893
890 4 0.37352 0.468407 0.662998
891 4 0.370711 0.481392 0.614788
1952 4 0.374768 0.495802 0.602339
1000 2 0.437625 0.422827 0.5959
1910 4 0.460156 0.436188 0.632164
1002 4 0.450092 0.428816 0.61673
1909 2 0.453416 0.440256 0.655896
943 2 0.0137662 0.0322051 0.675752
944 4 0.0333129 0.0377104 0.690339
1075 2 0.0488453 0.0559665 0.721426
1076 4 0.0305414 0.051681 0.70494
1077 4 0.0671492 0.060252 0.737911
1202 4 0.118162 0.0373919 0.741704
2049 4 0.11711 0.0175134 0.73871
2047 2 0.141957 0.0202968 0.738445
1201 2 0.0978091 0.0501363 0.748669
2048 4 0.166804 0.0230801 0.738179
829 2 0.35214 0.0440969 0.672802
831 4 0.372943 0.0579509 0.673517
1142 4 0.391065 0.0562603 0.665302
1141 2 0.395831 0.0801618 0.670888
44 3 0.487718 0.0241732 0.677319
1105 2 0.0697133 0.162763 0.723851
1106 4 0.0926818 0.157198 0.732015
35 3 0.105488 0.161275 0.718247
1219 2 0.132974 0.132348 0.681121
1131 4 0.137778 0.120976 0.722033
1221 4 0.127155 0.132915 0.705432
32 3 0.137391 0.142788 0.724023
31 1 0.123362 0.159087 0.73219
834 4 0.0986231 0.143179 0.74621
1129 2 0.152133 0.10736 0.737321
1143 4 0.400596 0.104063 0.676473
1025 4 0.409853 0.122353 0.673852
1178 4 0.00899653 0.209518 0.676089
1107 4 0.0467449 0.168329 0.715687
3188 4 0.0367561 0.183699 0.723303
1177 2 0.0175485 0.232578 0.671581
3187 2 0.0275081 0.193242 0.744483
34 3 0.135008 0.179123 0.733337
822 4 0.138722 0.232976 0.664965
1278 4 0.13175 0.223031 0.68094
1276 2 0.13304 0.211199 0.70293
1277 4 0.134331 0.199368 0.724919
1073 4 0.147336 0.1948 0.743313
1008 4 0.365553 0.21976 0.736296
977 4 0.347384 0.219236 0.744563
1006 2 0.387692 0.228083 0.744407
3270 4 0.492436 0.174683 0.755877
1146 4 0.479531 0.164497 0.742333
1261 2 0.442059 0.231547 0.722851
1263 4 0.449628 0.208222 0.717969
1145 4 0.457291 0.193336 0.708064
1144 2 0.468411 0.178916 0.725199
1179 4 0.0261004 0.255637 0.667073
1243 2 0.00574845 0.291814 0.678815
1244 4 0.0103339 0.290239 0.703344
940 2 0.157915 0.32401 0.670209
942 4 0.171404 0.305927 0.680989
1065 4 0.204385 0.311691 0.670074
1063 2 0.211521 0.307559 0.693678
1064 4 0.218657 0.303426 0.717283
1242 4 0.200577 0.301344 0.725195
1240 2 0.196908 0.288745 0.746479
1097 4 0.2758 0.281566 0.716819
917 4 0.26746 0.264319 0.71131
916 2 0.273964 0.259009 0.687758
1096 2 0.279457 0.29506 0.737549
1194 4 0.42754 0.264057 0.711716
806 4 0.424258 0.316842 0.742712
1262 4 0.434491 0.254872 0.727732
1192 2 0.425109 0.288324 0.717226
1193 4 0.422677 0.312591 0.722737
3274 2 0.115864 0.415738 0.680505
1228 2 0.286287 0.364193 0.720275
1230 4 0.271322 0.373627 0.702605
1229 4 0.301251 0.354759 0.737945
805 2 0.425766 0.340239 0.751399
1982 4 0.0474548 0.487773 0.74488
1981 2 0.0539657 0.499517 0.723788
3276 4 0.126573 0.42773 0.699654
816 4 0.122114 0.429498 0.719323
814 2 0.11859 0.445636 0.738093
1139 4 0.239006 0.426489 0.669629
1138 2 0.252534 0.442072 0.683748
1989 4 0.26355 0.472733 0.711521
1140 4 0.266062 0.457655 0.697867
1987 2 0.284229 0.486067 0.715964
1269 4 0.387513 0.465426 0.677207
1267 2 0.408566 0.453682 0.683843
1911 4 0.446677 0.444325 0.679628
4323 4 0.440139 0.49305 0.680086
1268 4 0.429618 0.441937 0.69048
1099 2 0.425535 0.495568 0.74408
1203 4 0.077456 0.0628806 0.755634
864 4 0.100478 0.073416 0.825735
1197 4 0.132003 0.0185182 0.826353
2390 4 0.173878 0.0200136 0.755482
1970 4 0.230393 0.00760744 0.794847
2391 4 0.213438 0.0150357 0.785664
2389 2 0.193658 0.0175246 0.770573
965 4 0.402037 0.0792957 0.797831
833 4 0.0814852 0.122542 0.788413
863 4 0.0906523 0.117816 0.804931
832 2 0.0900542 0.13286 0.767312
862 2 0.0955649 0.0956159 0.815333
33 3 0.116174 0.152879 0.753361
1130 4 0.166487 0.0937436 0.752609
1227 4 0.169306 0.0999169 0.770959
1225 2 0.187989 0.11398 0.779809
1226 4 0.206673 0.128044 0.78866
840 4 0.223176 0.117658 0.784077
838 2 0.240134 0.134839 0.79059
1050 4 0.220184 0.109479 0.819927
839 4 0.257091 0.152021 0.797102
1084 2 0.331483 0.132928 0.7988
1086 4 0.335618 0.157414 0.801719
1085 4 0.327349 0.108442 0.795881
959 4 0.265453 0.169782 0.789802
818 4 0.387526 0.0803922 0.783864
817 2 0.36508 0.0885871 0.791227
964 2 0.413152 0.0901944 0.817398
819 4 0.342635 0.096782 0.798591
1213 2 0.038019 0.206156 0.798021
1215 4 0.0162852 0.203387 0.785973
3189 4 0.0182602 0.202784 0.765663
1214 4 0.0597528 0.208925 0.810069
779 4 0.0788161 0.208586 0.815236
1072 2 0.138099 0.209174 0.761568
1074 4 0.128862 0.223548 0.779823
778 2 0.101563 0.215823 0.807793
780 4 0.12431 0.223059 0.80035
978 4 0.301668 0.218672 0.764823
960 4 0.301399 0.202267 0.777419
958 2 0.283426 0.186025 0.783611
976 2 0.324526 0.218954 0.754693
1299 4 0.329583 0.17441 0.811119
1297 2 0.35288 0.183157 0.808684
1298 4 0.376177 0.191903 0.806249
1042 2 0.418893 0.229748 0.795036
1007 4 0.409831 0.236405 0.752518
47 3 0.384446 0.19467 0.823447
1044 4 0.417946 0.237879 0.77141
1043 4 0.419839 0.221617 0.818661
49 3 0.419282 0.204257 0.8338
1166 4 0.437268 0.216293 0.827256
1241 4 0.19324 0.276147 0.767762
1098 4 0.283114 0.308554 0.758278
1273 2 0.356588 0.317151 0.823033