ITEM: TIMESTEP
4460000
ITEM: NUMBER OF ATOMS
4590
ITEM: BOX BOUNDS pp pp pp
-9.9985700000000008e+00 9.9985700000000008e+00
-9.9985700000000008e+00 9.9985700000000008e+00
-9.9985700000000008e+00 9.9985700000000008e+00
ITEM: ATOMS id type xs ys zs
1668 4 0.0781148 0.02857 0.0778489
465 4 0.0258367 0.0720384 0.0107197
3290 4 0.0674655 0.0247774 0.0608949
463 2 0.0280261 0.0480774 0.00391859
3289 2 0.0819596 0.0231111 0.0405891
3291 4 0.0964537 0.0214449 0.0202834
566 4 0.108448 0.0051931 0.0237965
985 2 0.328768 0.0469559 0.0112118
491 4 0.312653 0.0198275 0.069413
986 4 0.306489 0.0573347 0.0158025
2264 4 0.297789 0.073622 0.00900771
987 4 0.351048 0.0365771 0.00662114
701 4 0.0248043 0.0930035 0.00999805
700 2 0.00700202 0.109072 0.00292196
358 2 0.24508 0.165254 0.0133685
462 4 0.306363 0.155297 0.0581213
2723 4 0.486987 0.151291 0.0534278
655 2 0.00442371 0.217945 0.0448868
657 4 0.0238389 0.229509 0.0341858
2808 4 0.0385525 0.24448 0.035854
836 4 0.0841851 0.231049 0.00699637
505 2 0.122351 0.223976 0.0763455
507 4 0.104175 0.236119 0.0642056
422 4 0.0857375 0.210595 0.00688376
352 2 0.238948 0.213869 0.0761016
354 4 0.21493 0.220766 0.0769497
359 4 0.260909 0.169787 0.032186
461 4 0.276767 0.194698 0.066628
460 2 0.291565 0.174997 0.0623746
353 4 0.262967 0.206972 0.0752535
2806 2 0.0424603 0.265675 0.0485311
2807 4 0.0463681 0.286869 0.0612081
1055 4 0.0666841 0.28292 0.00368764
913 2 0.152735 0.26324 0.00680777
292 2 0.109288 0.279103 0.0753541
293 4 0.112092 0.255908 0.0664483
456 4 0.104748 0.31601 0.0698756
914 4 0.150967 0.278306 0.0266836
287 4 0.166664 0.289872 0.030403
294 4 0.106483 0.302298 0.0842599
286 2 0.17163 0.310096 0.0442423
288 4 0.176595 0.330319 0.0580816
611 4 0.25618 0.294693 0.0813349
573 4 0.367151 0.300808 0.00305595
1071 4 0.376752 0.284718 0.00979856
989 4 0.158116 0.391912 0.0341984
988 2 0.162543 0.369443 0.0442364
454 2 0.109362 0.340215 0.0741191
1104 4 0.1492 0.40545 0.0467065
455 4 0.113976 0.36442 0.0783627
990 4 0.16697 0.346975 0.0542743
243 4 0.230896 0.417967 0.0397853
1438 2 0.220482 0.400597 0.0732203
241 2 0.24922 0.417529 0.0227787
741 4 0.294168 0.339197 0.0507553
739 2 0.312938 0.354635 0.0566297
740 4 0.331708 0.370074 0.0625042
1305 4 0.383723 0.393868 0.0370528
1303 2 0.391757 0.379659 0.0181127
227 4 0.393171 0.408824 0.0445994
386 4 0.337281 0.368196 0.0828688
3347 4 0.498119 0.342548 0.00635338
551 4 0.00415654 0.490273 0.0512691
314 4 0.0256979 0.438218 0.0531583
550 2 0.00809433 0.4663 0.0453554
552 4 0.0120321 0.442327 0.0394418
313 2 0.0435007 0.429609 0.0684596
1102 2 0.148338 0.425268 0.0314856
1786 2 0.138321 0.474474 0.0640859
1103 4 0.147476 0.445086 0.0162647
1787 4 0.147372 0.451266 0.0619377
1222 2 0.132457 0.472277 0.00867483
1788 4 0.12927 0.497683 0.066234
1619 4 0.143055 0.444109 0.0796009
1224 4 0.124851 0.49393 0.0185967
1440 4 0.218916 0.418361 0.0556944
242 4 0.267544 0.417091 0.00577216
524 4 0.315554 0.473428 0.0806322
251 4 0.299128 0.463361 0.0751593
250 2 0.286548 0.441982 0.0783011
252 4 0.273967 0.420604 0.0814429
523 2 0.33457 0.466889 0.0657728
226 2 0.38283 0.431578 0.0453386
228 4 0.372489 0.454331 0.0460778
525 4 0.353587 0.46035 0.0509134
2479 2 0.00445041 0.0818216 0.151765
1666 2 0.0636776 0.0382861 0.0958029
1667 4 0.0492403 0.0480021 0.113757
19 3 0.000552538 0.0267216 0.127692
17 3 0.0318882 0.0379037 0.110208
1422 4 0.0020011 0.0382522 0.142813
16 1 0.00941169 0.0420937 0.112738
2480 4 0.00618156 0.0601808 0.139361
20 3 0.00657448 0.0632304 0.120728
1504 2 0.134273 0.0457422 0.150614
1506 4 0.152197 0.0543227 0.135439
1505 4 0.116349 0.0371617 0.165789
1475 4 0.304921 0.0286629 0.0858927
653 4 0.254007 0.0795317 0.157923
1661 4 0.313632 0.0189056 0.132126
1474 2 0.285619 0.042612 0.093509
1476 4 0.266316 0.056561 0.101125
486 4 0.322203 0.0373439 0.13126
654 4 0.269363 0.0498922 0.120689
652 2 0.261685 0.0647119 0.139306
484 2 0.343985 0.0397499 0.119222
297 4 0.37193 0.0244392 0.114749
295 2 0.395572 0.0163325 0.114049
485 4 0.365768 0.0421559 0.107185
296 4 0.419215 0.0082258 0.11335
746 4 0.436216 0.0187931 0.113435
2481 4 0.00271925 0.103462 0.164169
450 4 0.0935641 0.103222 0.134097
448 2 0.111152 0.110488 0.150315
580 2 0.320186 0.146877 0.146681
581 4 0.298083 0.158517 0.145604
582 4 0.342288 0.135237 0.147757
758 4 0.341496 0.115031 0.145501
757 2 0.342916 0.0984358 0.164149
557 4 0.442794 0.0917513 0.106503
556 2 0.447746 0.103361 0.128088
558 4 0.452698 0.11497 0.149672
771 4 0.47164 0.112925 0.156882
506 4 0.140527 0.211834 0.0884854
737 4 0.159956 0.204822 0.0886897
736 2 0.182821 0.214605 0.0912686
738 4 0.205686 0.224388 0.0938475
475 2 0.226487 0.215195 0.155365
476 4 0.202478 0.222133 0.156126
30 3 0.294101 0.176974 0.152964
477 4 0.250497 0.208257 0.154604
29 3 0.263088 0.195617 0.163369
253 2 0.337204 0.209323 0.162613
628 2 0.396006 0.223255 0.146853
254 4 0.356156 0.203013 0.147574
630 4 0.373361 0.21343 0.150837
629 4 0.418651 0.233079 0.14287
624 4 0.434341 0.237575 0.155295
338 4 0.0675673 0.262208 0.144726
337 2 0.0464602 0.275429 0.146932
339 4 0.0253532 0.28865 0.149138
704 4 0.0109228 0.296275 0.161383
610 2 0.255682 0.319603 0.0834383
278 4 0.268984 0.280469 0.0873475
279 4 0.28729 0.276299 0.133697
277 2 0.278137 0.278384 0.110522
285 4 0.294337 0.285654 0.150508
622 2 0.44397 0.26053 0.157647
623 4 0.453599 0.283485 0.159999
647 4 0.125041 0.37656 0.154689
537 4 0.113936 0.382758 0.140029
535 2 0.108077 0.374038 0.11734
536 4 0.102217 0.365319 0.0946502
625 2 0.215121 0.379844 0.122847
627 4 0.211531 0.368929 0.10064
1439 4 0.222048 0.382833 0.0907462
626 4 0.218712 0.390758 0.145054
612 4 0.255184 0.344513 0.0855418
609 4 0.268636 0.355325 0.0962577
608 4 0.265976 0.405186 0.0935019
607 2 0.267306 0.380255 0.0948798
385 2 0.340391 0.377767 0.105758
387 4 0.343502 0.387338 0.128647
12 3 0.390352 0.380197 0.134208
11 1 0.380513 0.397558 0.145652
15 3 0.358161 0.397701 0.141295
672 4 0.403511 0.378512 0.11953
302 4 0.339978 0.408986 0.133395
671 4 0.440593 0.344962 0.119262
670 2 0.422052 0.361737 0.119396
281 4 0.459624 0.339091 0.115048
280 2 0.480454 0.343505 0.10194
315 4 0.0613035 0.421001 0.0837608
1618 2 0.159908 0.435657 0.0960236
1431 4 0.169683 0.428351 0.131238
1429 2 0.181813 0.416263 0.149456
1620 4 0.176761 0.427204 0.112446
1574 4 0.247137 0.483978 0.145863
1573 2 0.22344 0.487279 0.153126
1575 4 0.199744 0.49058 0.16039
639 4 0.261566 0.4911 0.134271
303 4 0.300001 0.438905 0.136121
638 4 0.28471 0.4475 0.126262
637 2 0.273138 0.4693 0.130267
301 2 0.31999 0.423946 0.134758
1559 4 0.376744 0.476621 0.0896397
14 3 0.390069 0.417516 0.138668
1558 2 0.364958 0.491309 0.106088
495 4 0.388947 0.421965 0.119131
493 2 0.389868 0.441777 0.103905
494 4 0.390789 0.461588 0.0886797
1404 4 0.0426318 0.0223127 0.230213
1415 4 0.0248469 0.0153778 0.231705
1414 2 0.0100697 0.00490966 0.214464
690 4 0.0931749 0.0143323 0.228064
688 2 0.10118 0.0208233 0.205284
689 4 0.109185 0.0273144 0.182503
693 4 0.240699 0.0731191 0.171586
1701 4 0.284641 0.0776419 0.209882
1699 2 0.309125 0.0774679 0.204811
1700 4 0.333608 0.0772939 0.199741
691 2 0.254584 0.081598 0.190573
22 3 0.374754 0.0502715 0.207013
698 4 0.392536 0.058022 0.207841
697 2 0.407537 0.0380564 0.209074
333 4 0.397212 0.0758089 0.215447
21 1 0.365257 0.0711451 0.205209
23 3 0.34497 0.0711551 0.216471
25 3 0.361933 0.0759972 0.183208
759 4 0.344337 0.0818408 0.182798
699 4 0.422538 0.0180908 0.210306
1518 4 0.441086 0.0115255 0.210402
743 4 0.484632 0.0175261 0.241151
512 4 0.0058548 0.116225 0.178367
511 2 0.0197436 0.135561 0.18601
513 4 0.0336323 0.154897 0.193652
449 4 0.12874 0.117754 0.166534
236 4 0.143708 0.123824 0.179778
235 2 0.16401 0.126109 0.194193
237 4 0.184312 0.128393 0.208608
692 4 0.268468 0.0900769 0.209561
24 3 0.379583 0.0867482 0.214681
331 2 0.414578 0.0936032 0.218084
769 2 0.473997 0.134258 0.169709
349 2 0.474613 0.0987589 0.212274
350 4 0.451262 0.107551 0.213894
332 4 0.431944 0.111397 0.220721
770 4 0.476355 0.155591 0.182535
351 4 0.497964 0.0899665 0.210654
578 4 0.0352197 0.174834 0.197034
577 2 0.0384587 0.190613 0.216158
579 4 0.0416977 0.206392 0.235281
361 2 0.151426 0.248893 0.233495
362 4 0.164681 0.230636 0.222717
372 4 0.163862 0.212745 0.212683
371 4 0.194171 0.220328 0.173636
370 2 0.179017 0.216536 0.193159
255 4 0.318252 0.215634 0.177652
28 3 0.284572 0.178104 0.189372
26 1 0.284741 0.189768 0.169314
27 3 0.297161 0.208948 0.171969
756 4 0.301201 0.215862 0.192968
754 2 0.311444 0.209283 0.214807
755 4 0.321688 0.202705 0.236647
764 4 0.472099 0.185915 0.241452
312 4 0.48812 0.171715 0.184448
703 2 0.00428272 0.31121 0.180305
2615 4 0.998402 0.336086 0.217398
363 4 0.138171 0.267151 0.244273
283 2 0.290659 0.30199 0.169076
284 4 0.286982 0.318326 0.187645
527 4 0.448881 0.291578 0.177806
528 4 0.458588 0.33142 0.206426
526 2 0.453735 0.311499 0.192116
620 4 0.0752588 0.408623 0.17274
299 4 0.0549691 0.368132 0.225001
298 2 0.0775814 0.359055 0.219392
619 2 0.0575366 0.414035 0.189528
750 4 0.0531661 0.348738 0.231774
748 2 0.0360887 0.340467 0.248057
646 2 0.114766 0.367904 0.175777
300 4 0.100194 0.349977 0.213783
648 4 0.104492 0.359247 0.196864
677 4 0.157016 0.411829 0.24895
416 4 0.211473 0.394468 0.22582
290 4 0.204552 0.405902 0.241343
415 2 0.205876 0.405461 0.204071
1430 4 0.193944 0.404175 0.167674
13 3 0.384131 0.394568 0.168376
597 4 0.373732 0.405036 0.186899
345 4 0.371418 0.355619 0.223418
596 4 0.358397 0.36865 0.217585
595 2 0.366065 0.386843 0.202242
645 4 0.393177 0.402608 0.188098
643 2 0.414043 0.415137 0.193826
343 2 0.372252 0.34819 0.247278
542 4 0.449592 0.338351 0.223633
541 2 0.441676 0.345533 0.246237
621 4 0.0398144 0.419448 0.206315
264 4 0.0360342 0.422655 0.2252
262 2 0.0311255 0.430939 0.248276
417 4 0.200279 0.416453 0.182322
438 4 0.297555 0.431747 0.210258
436 2 0.296129 0.432801 0.235199
659 4 0.362948 0.420091 0.196921
229 2 0.347028 0.490484 0.17241
660 4 0.336152 0.462303 0.197799
658 2 0.34955 0.441197 0.19736
231 4 0.349323 0.475961 0.192633
644 4 0.434909 0.427667 0.199553
447 4 0.436379 0.438559 0.216746
445 2 0.438613 0.439652 0.241626
1402 2 0.0547154 0.032157 0.249764
233 4 0.060883 0.0609962 0.273578
232 2 0.0519088 0.0583916 0.29677
234 4 0.0429345 0.0557869 0.319961
1403 4 0.066799 0.0420014 0.269316
674 4 0.135225 0.051748 0.304804
722 4 0.147626 0.0378508 0.313093
673 2 0.124807 0.0736431 0.298701
721 2 0.172245 0.0406056 0.31648
723 4 0.196865 0.0433604 0.319867
1405 2 0.229218 0.045493 0.302076
1406 4 0.207341 0.0557514 0.308507
1407 4 0.251094 0.0352347 0.295645
249 4 0.271233 0.0101636 0.32794
247 2 0.293159 0.0221318 0.329022
248 4 0.315086 0.0341 0.330105
425 4 0.475647 0.0322235 0.252534
424 2 0.478207 0.0450082 0.273869
426 4 0.480768 0.0577928 0.295204
258 4 0.496113 0.0711521 0.296082
391 2 0.0636129 0.128554 0.303713
392 4 0.0812667 0.132415 0.286432
393 4 0.0459591 0.124693 0.320993
2586 4 0.028004 0.117345 0.325052
545 4 0.0904105 0.134952 0.268861
675 4 0.114389 0.0955382 0.292599
546 4 0.128389 0.107532 0.286369
544 2 0.1094 0.121242 0.277615
404 4 0.159306 0.137082 0.293442
403 2 0.164172 0.157283 0.307349
716 4 0.399339 0.163143 0.323816
256 2 0.483976 0.0902603 0.306701
257 4 0.47184 0.109368 0.31732
444 4 0.0302262 0.239335 0.281455
530 4 0.0162704 0.226158 0.279314
442 2 0.0541257 0.232068 0.282539
443 4 0.0780252 0.2248 0.283622
529 2 0.0024982 0.238205 0.262273
400 2 0.153624 0.221986 0.30844
402 4 0.138883 0.241482 0.31371
396 4 0.0942951 0.236881 0.286387
401 4 0.168366 0.20249 0.303171
405 4 0.169038 0.177485 0.321255
472 2 0.210097 0.196937 0.318571
474 4 0.186357 0.195555 0.310845
473 4 0.233836 0.198319 0.326298
763 2 0.490314 0.17818 0.256735
715 2 0.419079 0.177796 0.319255
377 4 0.433587 0.211359 0.310289
717 4 0.438818 0.19245 0.314694
376 2 0.433575 0.236323 0.311697
749 4 0.0190113 0.332196 0.26434
395 4 0.122118 0.266359 0.257102
394 2 0.108207 0.25162 0.271744
378 4 0.433564 0.261287 0.313104
266 4 0.427043 0.277984 0.320107
366 4 6.55343e-05 0.337576 0.266267
734 4 0.159375 0.349574 0.276783
733 2 0.155921 0.372379 0.267131
735 4 0.152467 0.395185 0.257479
727 2 0.314754 0.395758 0.32827
729 4 0.312132 0.370914 0.329303
308 4 0.326761 0.367465 0.314824
307 2 0.344111 0.359058 0.298903
344 4 0.373085 0.34076 0.271138
309 4 0.361462 0.350652 0.282983
615 4 0.41717 0.355142 0.278526
543 4 0.433759 0.352714 0.268841
614 4 0.436961 0.357847 0.324371
613 2 0.427066 0.356495 0.301448
263 4 0.0262169 0.439222 0.271351
777 4 0.0725289 0.43547 0.315541
775 2 0.0730109 0.449451 0.294818
602 4 0.0523465 0.430521 0.319794
776 4 0.073493 0.463433 0.274094
1757 4 0.0670001 0.481996 0.27804
676 2 0.166145 0.432852 0.258944
289 2 0.219634 0.41799 0.257205
635 4 0.190447 0.468197 0.327451
634 2 0.180246 0.445484 0.325167
766 2 0.206481 0.481821 0.256257
678 4 0.175273 0.453874 0.268939
291 4 0.234715 0.430078 0.273066
768 4 0.192207 0.461771 0.260662
414 4 0.236759 0.417848 0.289575
636 4 0.170045 0.42277 0.322882
437 4 0.294702 0.433855 0.260139
412 2 0.251451 0.426408 0.307908
728 4 0.317376 0.420603 0.327237
433 2 0.313313 0.438185 0.286828
435 4 0.3135 0.438928 0.261836
434 4 0.313126 0.437442 0.31182
413 4 0.266143 0.434967 0.32624
5 3 0.279356 0.452348 0.32623
120 3 0.494801 0.433909 0.322353
446 4 0.440847 0.440745 0.266505
713 4 0.482177 0.425478 0.307154
714 4 0.437913 0.435591 0.286199
712 2 0.460045 0.430535 0.296677
2756 4 0.000905415 0.0523687 0.402522
2755 2 0.00181088 0.0743315 0.390606
317 4 0.058064 0.0509499 0.332516
316 2 0.0758033 0.055616 0.349508
730 2 0.0806896 0.0754092 0.400044
606 4 0.143215 0.0485014 0.387845
604 2 0.126197 0.0550792 0.370748
605 4 0.10918 0.061657 0.35365
318 4 0.0935425 0.060282 0.3665
732 4 0.0914649 0.0769522 0.377534
2429 4 0.223262 0.014488 0.413303
683 4 0.225468 0.0474028 0.373885
321 4 0.23156 0.0628326 0.384528
2428 2 0.201857 0.0273145 0.414887
319 2 0.233226 0.0802685 0.402372
682 2 0.245904 0.0338428 0.369019
684 4 0.266339 0.0202828 0.364152
633 4 0.331675 0.0393156 0.339703
631 2 0.348061 0.0491139 0.355849
632 4 0.364447 0.0589121 0.371994
468 4 0.373104 0.0715297 0.386708
466 2 0.372093 0.0840846 0.408307
1749 4 0.477399 0.00702993 0.339261
480 4 0.484284 0.0255584 0.338535
2757 4 0.00271635 0.0962942 0.37869
2585 4 0.0189369 0.1057 0.372832
2584 2 0.0234705 0.111523 0.348942
399 4 0.0908361 0.12116 0.332931
599 4 0.150882 0.0970525 0.334632
275 4 0.158918 0.168695 0.335768
397 2 0.0944182 0.108526 0.354208
398 4 0.0980003 0.0958916 0.375485
598 2 0.166942 0.110225 0.348551
600 4 0.183002 0.123397 0.36247
685 2 0.210602 0.139102 0.366418
687 4 0.196685 0.12972 0.347884
686 4 0.224519 0.148484 0.384951
410 4 0.235193 0.163195 0.393998
420 4 0.353032 0.138863 0.343927
419 4 0.401306 0.150798 0.338647
418 2 0.377169 0.14483 0.341287
575 4 0.405963 0.154663 0.413932
761 4 0.478574 0.103595 0.334528
762 4 0.470809 0.147265 0.357624
760 2 0.474692 0.12543 0.346076
470 4 0.0713506 0.183627 0.407997
390 4 0.0823581 0.193296 0.393787
274 2 0.150646 0.183227 0.354358
388 2 0.103769 0.191629 0.380982
276 4 0.142374 0.197759 0.372948
389 4 0.12518 0.189962 0.368177
409 2 0.230264 0.186863 0.40038
650 4 0.224768 0.226595 0.418316
411 4 0.225335 0.21053 0.406763
708 4 0.251597 0.203811 0.332861
707 4 0.280991 0.237546 0.355191
706 2 0.266294 0.220679 0.344026
497 4 0.294522 0.225509 0.362871
496 2 0.317324 0.216194 0.367171
2455 2 0.371724 0.215502 0.40157
498 4 0.340126 0.206878 0.37147
2456 4 0.356435 0.210752 0.382363
617 4 0.0205358 0.279665 0.38881
618 4 0.0671046 0.290803 0.403233
616 2 0.0438202 0.285234 0.396022
696 4 0.0833016 0.300467 0.410067
694 2 0.0872634 0.316254 0.391087
695 4 0.0912252 0.332041 0.372107
488 4 0.272123 0.314213 0.403515
509 4 0.266648 0.317575 0.384959
2769 4 0.489603 0.270529 0.337032
267 4 0.426741 0.307654 0.36036
265 2 0.426892 0.292819 0.340233
268 2 0.471228 0.278431 0.37527
269 4 0.486673 0.272481 0.356529
270 4 0.455782 0.284382 0.394011
306 4 0.441034 0.275442 0.404392
408 4 0.0207899 0.375266 0.413042
1259 4 0.103958 0.348116 0.374055
1258 2 0.127055 0.355143 0.380561
1260 4 0.150152 0.362169 0.387067
326 4 0.153467 0.362897 0.407771
504 4 0.195203 0.389851 0.378292
502 2 0.184313 0.398843 0.357659
503 4 0.173422 0.407836 0.337026
1401 4 0.30575 0.413451 0.414845
510 4 0.255957 0.365456 0.375269
374 4 0.256913 0.385778 0.370492
508 2 0.261303 0.341515 0.380114
373 2 0.264211 0.405046 0.356326
2925 4 0.452951 0.355245 0.336091
2923 2 0.473788 0.36906 0.336465
2924 4 0.494624 0.382876 0.336839
119 3 0.485702 0.41351 0.352664
753 4 0.48434 0.410148 0.373148
751 2 0.480646 0.414978 0.397401
601 2 0.0322539 0.434583 0.334111
679 2 0.0218433 0.477735 0.366999
603 4 0.0121612 0.438645 0.348427
680 4 0.0186511 0.453612 0.361248
1775 4 0.15118 0.468463 0.343625
1774 2 0.15335 0.492439 0.33687
569 4 0.114749 0.448321 0.402273
549 4 0.136778 0.467758 0.356469
547 2 0.128497 0.467672 0.380062
548 4 0.120217 0.467586 0.403654
1819 2 0.237663 0.498327 0.379172
1820 4 0.240804 0.486894 0.401185
2 3 0.31388 0.440468 0.333965
375 4 0.271509 0.424313 0.342159
3 3 0.285257 0.430033 0.355977
1 1 0.293862 0.447263 0.343034
668 4 0.30616 0.461512 0.374857
4 3 0.297574 0.465987 0.356226
667 2 0.320117 0.476833 0.388844
669 4 0.334074 0.492154 0.402831
731 4 0.0699142 0.0738662 0.422554
368 4 0.0529574 0.0663782 0.417564
367 2 0.0448762 0.0608406 0.440568
369 4 0.036795 0.055303 0.463573
719 4 0.0253412 0.047745 0.477086
718 2 0.0115524 0.0641024 0.490028
340 2 0.182314 0.0572034 0.455697
341 4 0.188383 0.0441411 0.435259
342 4 0.176245 0.0702657 0.476135
441 4 0.241977 0.016841 0.41851
2430 4 0.180453 0.0401409 0.416472
1216 2 0.379716 0.0148289 0.471614
1217 4 0.381368 0.039744 0.470315
842 4 0.379568 0.0567455 0.480056
841 2 0.362009 0.0737073 0.485454
471 4 0.0750583 0.16682 0.454949
1151 4 0.161132 0.133582 0.486941
1152 4 0.181355 0.0883847 0.479946
1150 2 0.171243 0.110983 0.483443
320 4 0.234892 0.0977043 0.420216
725 4 0.240162 0.0892664 0.439992
726 4 0.281399 0.108198 0.461012
432 4 0.281497 0.111852 0.48077
724 2 0.260781 0.0987324 0.450502
430 2 0.305882 0.106331 0.480504
431 4 0.330267 0.100809 0.480239
576 4 0.382213 0.112402 0.426205
574 2 0.394088 0.133532 0.420068
467 4 0.371082 0.0966395 0.429906
516 4 0.414315 0.162172 0.428915
843 4 0.344449 0.0906691 0.490851
260 4 0.0673029 0.172937 0.472479
469 2 0.0732045 0.175224 0.431473
259 2 0.0672476 0.184123 0.494841
878 4 0.112821 0.23053 0.460599
877 2 0.119755 0.228348 0.484523
649 2 0.239365 0.246386 0.422835
2457 4 0.387012 0.220251 0.420776
514 2 0.428315 0.182474 0.424792
515 4 0.442315 0.202776 0.42067
489 4 0.255389 0.282136 0.438036
651 4 0.253963 0.266176 0.427355
487 2 0.263756 0.298175 0.420776
585 4 0.358578 0.253327 0.473569
583 2 0.362728 0.276757 0.481249
239 4 0.374505 0.328964 0.479248
584 4 0.366878 0.300187 0.488929
304 2 0.440673 0.290307 0.424493
305 4 0.440313 0.305173 0.444595
1011 4 0.421439 0.313674 0.446373
1009 2 0.423382 0.320542 0.470336
1010 4 0.425326 0.32741 0.494299
406 2 0.0418905 0.372317 0.426128
407 4 0.0629911 0.369368 0.439214
710 4 0.131597 0.413138 0.44577
570 4 0.121632 0.40711 0.42975
709 2 0.150723 0.410043 0.461575
9 3 0.164884 0.357976 0.482512
325 2 0.166574 0.363533 0.429054
711 4 0.169849 0.406948 0.47738
8 3 0.178634 0.39277 0.489201
327 4 0.179681 0.364169 0.450338
7 3 0.194387 0.37081 0.463082
6 1 0.184112 0.370914 0.483663
10 3 0.198357 0.362297 0.499203
336 4 0.312901 0.400035 0.429968
334 2 0.332759 0.387976 0.439209
335 4 0.352617 0.375917 0.448451
240 4 0.369118 0.374839 0.460085
238 2 0.371811 0.351902 0.469667
561 4 0.481962 0.414444 0.440719
2508 4 0.474624 0.375113 0.494832
2506 2 0.457425 0.35746 0.49062
560 4 0.482898 0.389587 0.4841
559 2 0.48243 0.402016 0.46241
2507 4 0.440226 0.339807 0.486407
1383 4 0.0693189 0.483317 0.428416
538 2 0.037275 0.446228 0.499207
1381 2 0.0586978 0.467021 0.444126
540 4 0.0484134 0.456124 0.479128
1382 4 0.0480766 0.450725 0.459836
568 2 0.11819 0.427715 0.416011
1395 4 0.231013 0.483787 0.418429
1400 4 0.296665 0.456028 0.43945
586 2 0.306008 0.493437 0.461294
588 4 0.304379 0.470376 0.451771
1399 2 0.301208 0.434739 0.427148
594 4 0.440802 0.497395 0.414167
752 4 0.476952 0.419808 0.421653
1180 2 0.22809 0.0640402 0.530001
1181 4 0.244634 0.0469168 0.537634
963 4 0.238572 0.0288377 0.542491
961 2 0.240214 0.00673976 0.554074
1182 4 0.211546 0.0811636 0.522368
2283 4 0.449314 0.00887407 0.575536
951 4 0.16322 0.0976413 0.562372
1031 4 0.143041 0.0957643 0.55935
937 2 0.12893 0.145143 0.51763
939 4 0.146894 0.140935 0.500754
938 4 0.110967 0.149352 0.534505
950 4 0.207889 0.091337 0.540795
949 2 0.185554 0.0944892 0.551583
898 2 0.395009 0.161329 0.567623
899 4 0.377065 0.147511 0.578217
856 2 0.33714 0.1633 0.579199
1035 4 0.0596029 0.189224 0.575325
1033 2 0.0549647 0.190242 0.550776
261 4 0.0671923 0.195309 0.517203
1034 4 0.0503264 0.191259 0.526228
1082 4 0.0572794 0.172892 0.584887
879 4 0.126689 0.226167 0.508447
1272 4 0.141454 0.223104 0.521412
1270 2 0.146379 0.22495 0.545856
1271 4 0.151304 0.226796 0.5703
909 4 0.168913 0.219822 0.578114
858 4 0.316027 0.176271 0.575854
796 2 0.307076 0.211372 0.554289
812 4 0.326152 0.243166 0.537277
798 4 0.309632 0.233443 0.542819
797 4 0.304521 0.189302 0.565759
900 4 0.412954 0.175146 0.557028
872 4 0.411277 0.191421 0.547149
873 4 0.391123 0.236627 0.554287
871 2 0.4012 0.214024 0.550718
813 4 0.374363 0.245185 0.550405
811 2 0.350258 0.244175 0.543841
804 4 0.310235 0.331656 0.53444
1204 2 0.400264 0.315015 0.54586
1206 4 0.376867 0.312858 0.537309
930 4 0.36812 0.324066 0.550165
1205 4 0.423661 0.317172 0.55441
954 4 0.423686 0.316098 0.57552
983 4 0.0404719 0.396897 0.560235
982 2 0.0189981 0.390548 0.571359
1041 4 0.0563206 0.393544 0.572245
1039 2 0.0745584 0.403587 0.558399
1040 4 0.0927961 0.413629 0.544553
1135 2 0.160675 0.404758 0.564266
895 2 0.186297 0.358293 0.53893
896 4 0.198632 0.349771 0.51892
897 4 0.173962 0.366816 0.55894
1137 4 0.173444 0.384116 0.570269
1189 2 0.239811 0.364014 0.515152
1191 4 0.215074 0.360377 0.51494
802 2 0.297303 0.350893 0.525066
1190 4 0.264548 0.367652 0.515365
929 4 0.32544 0.345489 0.535326
803 4 0.284371 0.370131 0.515691
928 2 0.34678 0.334778 0.542746
926 4 0.461134 0.405615 0.546298
925 2 0.478341 0.400693 0.528837
927 4 0.495547 0.395772 0.511375
539 4 0.0261366 0.436333 0.519287
2813 4 0.0128863 0.450889 0.523582
1136 4 0.147906 0.4254 0.558262
992 4 0.143071 0.441607 0.54765
993 4 0.0978986 0.42739 0.531586
991 2 0.120485 0.434498 0.539618
2243 4 0.168247 0.496338 0.578122
882 4 0.259494 0.487034 0.557778
1172 4 0.260266 0.478604 0.575945
1001 4 0.470328 0.420165 0.555769
1000 2 0.473681 0.426731 0.579661
945 4 0.0134055 0.0209267 0.649351
1058 4 0.0689049 0.0085857 0.645888
943 2 0.0242503 0.0375575 0.66455
1057 2 0.0870731 0.0243546 0.652703
1155 4 0.116666 0.0494517 0.646906
1059 4 0.105241 0.0401235 0.659518
1153 2 0.127576 0.0649561 0.630603
1154 4 0.138485 0.0804605 0.6143
831 4 0.327139 0.0770084 0.640235
829 2 0.325166 0.0562287 0.654
1004 4 0.330993 0.0676727 0.622288
1142 4 0.369083 0.0714884 0.62292
810 4 0.477076 0.0805359 0.617332
44 3 0.467518 0.0512481 0.664583
41 1 0.48107 0.0474152 0.646142
2281 2 0.456977 0.0174504 0.597737
2282 4 0.464639 0.0260266 0.619939
43 3 0.47545 0.0271937 0.636248
45 3 0.478698 0.0643504 0.631102
808 2 0.494813 0.0794571 0.599742
1199 4 0.0182144 0.152581 0.633089
1030 2 0.1337 0.0945395 0.58251
1032 4 0.124359 0.0933147 0.605671
1210 2 0.207712 0.150967 0.642675
1211 4 0.228667 0.152007 0.629074
888 4 0.23908 0.134318 0.626718
1212 4 0.186757 0.149926 0.656277
1220 4 0.1743 0.167061 0.65593
886 2 0.245568 0.122303 0.605772
887 4 0.252057 0.110288 0.584827
1003 2 0.324653 0.0890206 0.61092
1005 4 0.318313 0.110369 0.599551
857 4 0.358253 0.15033 0.582543
1141 2 0.38581 0.0831709 0.637374
1143 4 0.402537 0.0948534 0.651828
1083 4 0.0273216 0.1683 0.624663
1081 2 0.0423005 0.170596 0.604775
821 4 0.108728 0.243644 0.657034
907 2 0.185637 0.227132 0.595203
908 4 0.202362 0.234443 0.612291
947 4 0.201649 0.244565 0.630311
1239 4 0.30714 0.210041 0.629719
1237 2 0.317996 0.22536 0.613208
1238 4 0.328853 0.24068 0.596696
3357 4 0.485917 0.233827 0.648522
3355 2 0.481428 0.213194 0.661913
906 4 0.485789 0.246557 0.632761
3044 4 0.041601 0.262449 0.605894
3043 2 0.0390775 0.277802 0.625467
3045 4 0.0365539 0.293155 0.64504
893 4 0.0844124 0.316155 0.585249
892 2 0.085066 0.329091 0.606636
946 2 0.207007 0.252588 0.653378
792 4 0.343982 0.254199 0.592995
791 4 0.384811 0.262575 0.620626
790 2 0.364397 0.258387 0.606811
952 2 0.434183 0.303873 0.594639
904 2 0.466982 0.258896 0.621843
905 4 0.448175 0.271235 0.610924
953 4 0.444679 0.291648 0.613759
3121 2 0.492633 0.306885 0.662619
894 4 0.0857196 0.342028 0.628023
1281 4 0.0954321 0.360244 0.631116
1279 2 0.0921475 0.369885 0.65395
1068 4 0.203985 0.381343 0.657328
1027 2 0.226039 0.410948 0.662708
936 4 0.0141544 0.497763 0.58515
1161 4 0.168495 0.477451 0.586868
1159 2 0.189293 0.475312 0.600581
1171 2 0.24527 0.475035 0.595632
1160 4 0.210091 0.473173 0.614294
1173 4 0.230274 0.471467 0.615319
1029 4 0.24424 0.426127 0.654738
1139 4 0.253165 0.441837 0.664983
889 2 0.368862 0.492371 0.653677
1269 4 0.401246 0.479319 0.651592
890 4 0.38442 0.474858 0.66242
1002 4 0.477033 0.433298 0.603553
1910 4 0.471039 0.420984 0.6185
1267 2 0.423115 0.467678 0.654969
1909 2 0.46766 0.437727 0.63676
1911 4 0.464281 0.45447 0.65502
1268 4 0.444984 0.456038 0.658347
944 4 0.035095 0.0541882 0.679748
1075 2 0.0593087 0.0613451 0.715315
1077 4 0.0709837 0.0717744 0.734812
1076 4 0.0476337 0.0509158 0.695819
1203 4 0.0812088 0.0562702 0.740352
1282 2 0.152355 0.0668221 0.701279
1283 4 0.154924 0.0446567 0.712561
1201 2 0.100214 0.0412993 0.746663
830 4 0.323192 0.0354491 0.667766
2400 4 0.314662 0.0179691 0.672244
2398 2 0.304603 0.00375603 0.690188
834 4 0.0719312 0.156889 0.735139
1284 4 0.149787 0.0889874 0.689997
33 3 0.0919155 0.161506 0.742246
1219 2 0.155618 0.162825 0.671999
32 3 0.117946 0.161705 0.715134
1129 2 0.145087 0.136536 0.723719
1131 4 0.134228 0.153591 0.709009
1130 4 0.155946 0.119481 0.73843
1221 4 0.136937 0.158589 0.688069
1227 4 0.17441 0.115238 0.745316
1025 4 0.394035 0.102568 0.66791
1024 2 0.390609 0.122145 0.683081
1026 4 0.387184 0.141722 0.698253
2977 2 0.49255 0.156708 0.676338
1106 4 0.0696149 0.168149 0.718403
851 4 0.00884468 0.188438 0.719251
1107 4 0.0244151 0.185696 0.706164
1105 2 0.047015 0.176922 0.712283
1178 4 0.00916124 0.231681 0.73999
3188 4 0.0226267 0.217822 0.746113
820 2 0.130508 0.239107 0.668445
31 1 0.100634 0.173624 0.724482
35 3 0.084522 0.177036 0.708752
822 4 0.152288 0.23457 0.679856
1278 4 0.154451 0.22348 0.695828
1276 2 0.142161 0.211402 0.713945
34 3 0.108771 0.194001 0.732029
1277 4 0.12987 0.199323 0.732062
1064 4 0.242091 0.249907 0.727523
976 2 0.319965 0.20888 0.729873
978 4 0.305152 0.189023 0.733252
918 4 0.310739 0.239649 0.736299
960 4 0.308555 0.16901 0.738813
977 4 0.334778 0.228738 0.726494
1008 4 0.354659 0.22981 0.72853
1006 2 0.37298 0.229828 0.745545
3356 4 0.476938 0.19256 0.675303
1263 4 0.426998 0.206212 0.733577
1261 2 0.429907 0.230915 0.731029
2978 4 0.474365 0.172941 0.670773
1145 4 0.433215 0.187865 0.732612
1144 2 0.44806 0.170762 0.743208
1207 2 0.0792316 0.262695 0.685541
1209 4 0.0615032 0.269867 0.701648
1243 2 0.0502617 0.298445 0.718545
1245 4 0.0689833 0.281875 0.718225
1244 4 0.0315402 0.315016 0.718866
1177 2 0.999403 0.250866 0.727266
1208 4 0.09696 0.255523 0.669434
942 4 0.152487 0.319005 0.719057
948 4 0.212366 0.260612 0.676445
1065 4 0.232644 0.262439 0.680043
1063 2 0.237367 0.256173 0.703783
1242 4 0.247389 0.260904 0.742741
1240 2 0.253326 0.284656 0.747818
917 4 0.291499 0.285286 0.729383
1096 2 0.301536 0.320637 0.724037
1097 4 0.300693 0.300815 0.739254
916 2 0.301119 0.262467 0.732841
3123 4 0.485778 0.292286 0.681726
1262 4 0.432817 0.255617 0.72848
1192 2 0.437416 0.29001 0.747012
1194 4 0.444726 0.26763 0.738593
806 4 0.418603 0.327361 0.748487
3275 4 0.083178 0.397787 0.684994
1280 4 0.088863 0.379527 0.676785
3274 2 0.0898411 0.409053 0.706298
940 2 0.154095 0.336053 0.700837
816 4 0.105608 0.402768 0.731027
941 4 0.155702 0.353101 0.682617
1067 4 0.166488 0.368678 0.687894
1028 4 0.207838 0.39577 0.670677
1066 2 0.185237 0.375011 0.672611
1098 4 0.302379 0.340459 0.708821
1228 2 0.297742 0.397069 0.720737
1230 4 0.300495 0.395337 0.745528
1229 4 0.294989 0.3988 0.695946
2130 4 0.010366 0.497684 0.671465
3276 4 0.0965042 0.42032 0.727602
1138 2 0.273179 0.451969 0.676025
1140 4 0.293194 0.462101 0.687067
1989 4 0.296773 0.472765 0.703508
1987 2 0.287409 0.47849 0.725974
1988 4 0.278045 0.484216 0.74844
1099 2 0.422251 0.495586 0.745774
2049 4 0.133178 0.0372876 0.763735
2047 2 0.146663 0.0165007 0.760381
911 4 0.0936409 0.0693838 0.819288
1202 4 0.11922 0.0263283 0.752975
818 4 0.377867 0.0701192 0.806531
817 2 0.358542 0.0793995 0.793663
965 4 0.384864 0.0521151 0.812233
964 2 0.406485 0.0640692 0.816085
966 4 0.428105 0.0760233 0.819936
863 4 0.0701878 0.0995885 0.765731
832 2 0.0662202 0.136908 0.749043
833 4 0.0605092 0.116926 0.762946
862 2 0.080951 0.0929156 0.787291
864 4 0.0917142 0.0862427 0.80885
1225 2 0.18937 0.125096 0.762757
1226 4 0.20433 0.134953 0.780199
840 4 0.211119 0.15302 0.771539
838 2 0.235424 0.153042 0.777409
1086 4 0.318972 0.140449 0.808267
1084 2 0.323203 0.122 0.791929
959 4 0.277521 0.155895 0.775767
1085 4 0.327434 0.103552 0.775592
839 4 0.259729 0.153065 0.783278
958 2 0.293038 0.162453 0.75729
1299 4 0.328317 0.156562 0.800779
819 4 0.339217 0.0886797 0.780794
3268 2 0.498953 0.147231 0.766335
1036 2 0.467356 0.0981123 0.81933
1037 4 0.488416 0.111514 0.817904
3270 4 0.481555 0.157873 0.751871
1146 4 0.462906 0.153659 0.753803
1038 4 0.446295 0.0847103 0.820756
151 1 0.00746103 0.240166 0.819628
154 3 0.0183918 0.247103 0.800372
1213 2 0.0455033 0.200797 0.815611
1215 4 0.0298652 0.219946 0.811878
3189 4 0.026008 0.229308 0.794666
3187 2 0.0243173 0.223565 0.770389