ITEM: TIMESTEP
5080000
ITEM: NUMBER OF ATOMS
4590
ITEM: BOX BOUNDS pp pp pp
-9.9985700000000008e+00 9.9985700000000008e+00
-9.9985700000000008e+00 9.9985700000000008e+00
-9.9985700000000008e+00 9.9985700000000008e+00
ITEM: ATOMS id type xs ys zs
1668 4 0.0633613 0.0504544 0.0480864
465 4 0.0220787 0.0397845 0.0108957
701 4 0.0132429 0.0542479 0.0212681
1666 2 0.0496637 0.0427065 0.0675164
463 2 0.0180722 0.016828 0.0018333
700 2 0.0253514 0.0723963 0.00905354
3290 4 0.0826845 0.0504636 0.0429767
3289 2 0.0913638 0.0286472 0.0343807
3291 4 0.100043 0.00683074 0.0257847
567 4 0.161698 0.00332405 0.0158201
2469 4 0.48344 0.0704318 0.0777148
555 4 0.0313106 0.106523 0.0082271
553 2 0.0304457 0.13127 0.00476027
3234 4 0.134002 0.151167 0.00432633
2723 4 0.44965 0.124573 0.0559247
2722 2 0.46292 0.107238 0.0681149
2724 4 0.476189 0.0899027 0.080305
657 4 0.00292545 0.236931 0.0613302
835 2 0.0836788 0.246105 0.022177
737 4 0.159608 0.200582 0.070972
836 4 0.101946 0.229762 0.0172384
421 2 0.11829 0.190972 0.0149096
422 4 0.104357 0.211317 0.01905
506 4 0.158355 0.220229 0.0761396
423 4 0.132223 0.170628 0.0107692
913 2 0.163769 0.243665 0.0268987
505 2 0.142737 0.239063 0.0812917
915 4 0.163499 0.218674 0.0261482
358 2 0.230261 0.196905 0.0199104
352 2 0.231822 0.234035 0.0602929
354 4 0.224539 0.210304 0.057294
359 4 0.22749 0.214149 0.0378034
738 4 0.209026 0.207993 0.0690591
736 2 0.184317 0.204288 0.0700155
360 4 0.233031 0.179662 0.00201753
462 4 0.254153 0.177494 0.0801751
2808 4 0.0134833 0.251505 0.0707662
2806 2 0.0343949 0.254103 0.0573077
2807 4 0.0553065 0.256702 0.0438492
1054 2 0.0553788 0.303617 0.0117961
1056 4 0.0478477 0.325466 0.00225345
1055 4 0.0629099 0.281767 0.0213388
837 4 0.0654115 0.262448 0.0271157
294 4 0.0899865 0.296184 0.0607338
456 4 0.0977491 0.314315 0.0662126
292 2 0.109565 0.286609 0.0729882
287 4 0.158508 0.286386 0.0195788
914 4 0.164039 0.268656 0.0276492
286 2 0.164702 0.310553 0.0212429
353 4 0.239106 0.257765 0.0632918
571 2 0.318255 0.292031 0.00434847
572 4 0.294507 0.284492 0.00226624
482 4 0.280704 0.297411 0.000167331
1071 4 0.358029 0.289011 0.00826556
573 4 0.342004 0.299571 0.0064307
1170 4 0.0632615 0.337531 0.00803412
454 2 0.0920626 0.338031 0.0717238
455 4 0.0863761 0.361747 0.0772351
288 4 0.170896 0.33472 0.0229071
990 4 0.171807 0.3517 0.0326362
988 2 0.177352 0.376029 0.0342321
989 4 0.182897 0.400357 0.035828
1104 4 0.19833 0.406665 0.0241992
1439 4 0.20331 0.411221 0.0798143
741 4 0.312697 0.387236 0.0260598
739 2 0.326383 0.378391 0.0450237
386 4 0.332384 0.362731 0.0817246
740 4 0.340069 0.369545 0.0639875
1303 2 0.432899 0.411264 0.0191981
1304 4 0.442195 0.389183 0.0120429
1095 4 0.445259 0.371078 0.0224665
1093 2 0.435841 0.356275 0.00465219
1620 4 0.10004 0.433681 0.0720692
1786 2 0.165601 0.490858 0.074152
1787 4 0.160241 0.467728 0.0819903
1618 2 0.123133 0.44253 0.0757537
1619 4 0.146226 0.451379 0.0794383
1438 2 0.221133 0.421401 0.0655344
1440 4 0.238955 0.431581 0.0512544
1102 2 0.189816 0.424542 0.00893156
241 2 0.254336 0.435506 0.0217486
243 4 0.256642 0.438674 0.0464433
251 4 0.304126 0.432799 0.0788366
523 2 0.327233 0.448103 0.0568328
524 4 0.310285 0.451266 0.0749417
227 4 0.407057 0.441247 0.0354827
226 2 0.382647 0.435843 0.0351587
228 4 0.358236 0.430439 0.0348348
525 4 0.344182 0.44494 0.038724
1305 4 0.423604 0.433345 0.0263532
1667 4 0.0359661 0.0349586 0.0869464
19 3 0.00921697 0.0266904 0.131513
17 3 0.0358122 0.0380762 0.107519
1422 4 0.00623769 0.0413442 0.145165
16 1 0.0133601 0.0391798 0.112401
20 3 0.00750309 0.0609082 0.115897
2480 4 0.000681095 0.0585318 0.134803
1420 2 0.00766759 0.0284305 0.166527
18 3 0.00136232 0.0305235 0.0945262
653 4 0.235721 0.0833468 0.15204
652 2 0.251984 0.081205 0.133169
1474 2 0.310151 0.0693035 0.113805
1476 4 0.28525 0.0672015 0.11464
654 4 0.268248 0.0790631 0.114299
1661 4 0.343417 0.0311494 0.15539
1475 4 0.335052 0.0714054 0.11297
486 4 0.345031 0.0167984 0.141325
484 2 0.368177 0.0190609 0.132143
297 4 0.390893 0.00183034 0.119695
485 4 0.391324 0.0213234 0.122962
745 2 0.477871 0.00723983 0.0974976
746 4 0.455907 0.010985 0.108844
747 4 0.499835 0.00349469 0.086151
580 2 0.303384 0.159622 0.140221
582 4 0.317816 0.139663 0.135915
758 4 0.317894 0.119646 0.13994
757 2 0.32328 0.102706 0.157525
557 4 0.430566 0.0987263 0.110949
556 2 0.435066 0.103217 0.135131
558 4 0.439565 0.107708 0.159313
337 2 0.00457445 0.244101 0.15531
461 4 0.205756 0.169593 0.0899695
460 2 0.229954 0.173544 0.0850723
475 2 0.245977 0.233943 0.151827
476 4 0.221338 0.236086 0.1555
581 4 0.288953 0.179581 0.144527
477 4 0.270617 0.231801 0.148155
29 3 0.283727 0.222706 0.161136
30 3 0.300134 0.188938 0.158271
279 4 0.280083 0.237229 0.130397
285 4 0.295344 0.24337 0.139539
628 2 0.400798 0.226274 0.13395
254 4 0.368999 0.222114 0.153076
630 4 0.37664 0.21986 0.134618
629 4 0.424956 0.232688 0.133283
624 4 0.443663 0.230017 0.126989
293 4 0.129143 0.277033 0.0852425
507 4 0.127119 0.257896 0.0864439
278 4 0.276172 0.266356 0.0899368
610 2 0.269039 0.311441 0.0846045
611 4 0.275541 0.287323 0.0857252
277 2 0.278127 0.251793 0.110167
283 2 0.313958 0.25536 0.151155
284 4 0.332573 0.26735 0.16277
622 2 0.450335 0.249368 0.141348
623 4 0.457008 0.26872 0.155706
620 4 0.0679961 0.378239 0.16297
647 4 0.108255 0.379127 0.150678
537 4 0.120503 0.368723 0.136905
535 2 0.106379 0.368874 0.116273
536 4 0.0922553 0.369025 0.095641
625 2 0.208177 0.380446 0.108983
627 4 0.198338 0.396617 0.092647
626 4 0.218016 0.364275 0.125319
612 4 0.262538 0.335558 0.0834838
608 4 0.259007 0.38912 0.102256
252 4 0.264806 0.40721 0.0961524
609 4 0.261776 0.339197 0.103133
607 2 0.260392 0.364158 0.102694
301 2 0.318084 0.403264 0.148519
303 4 0.298535 0.41551 0.158163
385 2 0.342279 0.372991 0.102267
302 4 0.337634 0.391018 0.138874
387 4 0.352173 0.383252 0.12281
12 3 0.387438 0.389967 0.122776
11 1 0.375368 0.403327 0.137094
15 3 0.353628 0.40385 0.13033
672 4 0.404061 0.389384 0.113774
13 3 0.376781 0.39455 0.158527
671 4 0.443603 0.375991 0.0862457
670 2 0.423832 0.382687 0.10001
281 4 0.454959 0.361659 0.0942089
280 2 0.479308 0.358059 0.0898118
313 2 0.00772518 0.445832 0.10085
315 4 0.0256452 0.42847 0.102466
1574 4 0.24219 0.474167 0.152063
1573 2 0.217229 0.473796 0.153471
1431 4 0.188272 0.453631 0.157617
1575 4 0.192267 0.473424 0.154879
250 2 0.284466 0.420005 0.0874945
639 4 0.254168 0.460085 0.144575
638 4 0.279495 0.417662 0.152293
637 2 0.266832 0.438873 0.148434
14 3 0.3843 0.424738 0.136697
495 4 0.372195 0.438041 0.129196
1559 4 0.338232 0.489207 0.107355
493 2 0.361071 0.460005 0.124838
494 4 0.349947 0.48197 0.12048
1404 4 0.0146634 0.0139331 0.245678
1421 4 0.00909748 0.0155167 0.18789
1504 2 0.152368 0.0315062 0.185703
1505 4 0.130251 0.0287638 0.197039
688 2 0.107023 0.0111298 0.208066
689 4 0.109253 0.0331305 0.196396
1506 4 0.174485 0.0342486 0.174367
1662 4 0.330862 0.0162169 0.201434
1700 4 0.322602 0.081158 0.194256
1660 2 0.33714 0.0236831 0.178412
22 3 0.360253 0.052768 0.196229
698 4 0.379944 0.0543154 0.199423
697 2 0.386178 0.0306054 0.204338
333 4 0.38571 0.07342 0.199633
21 1 0.353951 0.0747564 0.19379
699 4 0.392411 0.0068954 0.209253
23 3 0.33736 0.0795672 0.209283
25 3 0.346045 0.0779964 0.17268
744 4 0.498486 0.0219666 0.197518
743 4 0.491157 0.0436142 0.241997
351 4 0.484863 0.0719096 0.193818
742 2 0.494822 0.0327904 0.219758
513 4 0.0160665 0.149105 0.169876
450 4 0.0621082 0.124859 0.171464
512 4 0.0481762 0.11228 0.180534
511 2 0.0321213 0.130692 0.175205
578 4 0.0245211 0.166244 0.175828
448 2 0.085571 0.118468 0.177281
237 4 0.155135 0.0882651 0.228712
449 4 0.109034 0.112078 0.183098
236 4 0.12247 0.101151 0.193107
235 2 0.138802 0.0947081 0.210909
693 4 0.231547 0.0826642 0.172008
691 2 0.250042 0.0841783 0.188765
1701 4 0.281172 0.0967532 0.217515
1699 2 0.301887 0.0889556 0.205885
692 4 0.268538 0.0856925 0.205522
759 4 0.328666 0.0857666 0.175109
331 2 0.407811 0.0837465 0.205118
24 3 0.372419 0.0883074 0.197495
771 4 0.456641 0.116491 0.17016
769 2 0.464817 0.137431 0.181107
349 2 0.46461 0.0832418 0.184512
350 4 0.444358 0.0945741 0.175206
332 4 0.429912 0.0940729 0.210603
770 4 0.472992 0.158372 0.192054
577 2 0.017285 0.189652 0.180813
579 4 0.0100489 0.213061 0.185799
361 2 0.147481 0.24339 0.231134
362 4 0.16159 0.233033 0.213278
371 4 0.208998 0.224095 0.166631
370 2 0.190142 0.223096 0.183022
372 4 0.171287 0.222096 0.199413
28 3 0.274939 0.194973 0.185592
26 1 0.29187 0.204387 0.17282
27 3 0.308727 0.211389 0.186819
756 4 0.319647 0.217325 0.204574
754 2 0.315784 0.210512 0.228319
255 4 0.331956 0.212828 0.185361
253 2 0.350477 0.217471 0.169219
339 4 0.0220741 0.249988 0.17217
703 2 0.0297477 0.272832 0.201427
704 4 0.0331184 0.253032 0.186535
2615 4 0.021265 0.309601 0.224241
705 4 0.026377 0.292632 0.216319
363 4 0.133371 0.253746 0.24899
527 4 0.465321 0.273371 0.174833
528 4 0.432897 0.294533 0.206481
526 2 0.449109 0.283952 0.190657
542 4 0.439752 0.304964 0.2224
541 2 0.431413 0.319682 0.240813
619 2 0.0642097 0.395583 0.180578
621 4 0.0604232 0.412927 0.198185
264 4 0.0633797 0.411388 0.218788
750 4 0.0672591 0.34399 0.24883
298 2 0.105362 0.348565 0.233092
646 2 0.116346 0.36956 0.172315
300 4 0.120776 0.353965 0.214161
648 4 0.124437 0.359992 0.193953
1430 4 0.171277 0.411382 0.178279
416 4 0.183544 0.394941 0.237266
415 2 0.184716 0.399953 0.212798
417 4 0.185888 0.404966 0.18833
290 4 0.214497 0.390657 0.229776
289 2 0.232168 0.399587 0.245047
597 4 0.380163 0.386877 0.178479
345 4 0.363099 0.341071 0.219671
596 4 0.37239 0.343725 0.202525
595 2 0.376276 0.365301 0.190502
343 2 0.358216 0.337359 0.243911
645 4 0.392136 0.406177 0.171836
643 2 0.396968 0.418026 0.193317
262 2 0.0618414 0.418107 0.242823
1429 2 0.179774 0.432506 0.167948
766 2 0.22112 0.483694 0.230923
768 4 0.215939 0.461666 0.24156
438 4 0.25575 0.486857 0.233215
436 2 0.271292 0.471576 0.245467
230 4 0.346076 0.466724 0.167101
229 2 0.360124 0.471835 0.187144
231 4 0.374171 0.476947 0.207187
660 4 0.367669 0.465227 0.221812
658 2 0.358581 0.449875 0.239331
644 4 0.4018 0.429875 0.214798
447 4 0.419178 0.433661 0.22425
445 2 0.431247 0.445628 0.242589
1402 2 0.0207101 0.0283654 0.26518
233 4 0.0114712 0.0546342 0.294128
232 2 0.0248263 0.0565707 0.315177
1403 4 0.0267567 0.0427977 0.284682
317 4 0.0542728 0.0683869 0.329293
673 2 0.138904 0.0681803 0.325099
675 4 0.129 0.0825086 0.30716
721 2 0.182377 0.00272566 0.293114
723 4 0.198362 0.0202097 0.301111
1405 2 0.207848 0.057936 0.311975
1406 4 0.193943 0.0398893 0.301674
1407 4 0.221754 0.0759826 0.322277
249 4 0.289284 0.0169519 0.320225
247 2 0.308643 0.0264732 0.332864
425 4 0.482891 0.0397204 0.260073
424 2 0.473154 0.0515682 0.279821
426 4 0.463417 0.0634159 0.29957
258 4 0.470903 0.0779142 0.31183
391 2 0.0588557 0.11911 0.288982
392 4 0.0748276 0.11793 0.269781
393 4 0.0428838 0.12029 0.308183
2586 4 0.0309873 0.128081 0.322468
545 4 0.0921542 0.110095 0.269773
546 4 0.133895 0.0938325 0.291998
544 2 0.113024 0.101964 0.280886
404 4 0.201586 0.157958 0.297388
599 4 0.207688 0.0881723 0.329504
403 2 0.187277 0.164562 0.316799
716 4 0.382554 0.149996 0.310283
419 4 0.364708 0.141283 0.313395
418 2 0.343496 0.144427 0.326255
256 2 0.485623 0.0910092 0.327225
529 2 0.00236739 0.239343 0.262845
530 4 0.0262754 0.240734 0.270032
442 2 0.0563674 0.23236 0.278142
444 4 0.0357825 0.24351 0.286924
443 4 0.0769523 0.221211 0.269359
402 4 0.166881 0.237679 0.303679
396 4 0.0901053 0.219471 0.283106
394 2 0.110626 0.23066 0.274222
395 4 0.131146 0.241848 0.265339
400 2 0.189445 0.233847 0.313748
401 4 0.212008 0.230015 0.323817
472 2 0.245489 0.235455 0.307958
474 4 0.221275 0.229507 0.3061
755 4 0.31192 0.203698 0.252065
473 4 0.269704 0.241404 0.309817
715 2 0.394554 0.171883 0.308824
717 4 0.406555 0.19377 0.307364
376 2 0.404344 0.232633 0.322786
377 4 0.398733 0.211621 0.310449
366 4 0.0212342 0.327219 0.289098
708 4 0.281091 0.256877 0.314399
706 2 0.298303 0.251782 0.331805
344 4 0.353333 0.333647 0.268151
543 4 0.423073 0.334399 0.259226
615 4 0.429775 0.32736 0.277793
2769 4 0.48658 0.255628 0.323156
269 4 0.467856 0.266742 0.326155
265 2 0.420966 0.287921 0.329558
266 4 0.422429 0.263861 0.322914
748 2 0.0491485 0.343758 0.266067
749 4 0.0310378 0.343525 0.283305
299 4 0.089947 0.343166 0.252024
734 4 0.135013 0.360513 0.270576
733 2 0.151973 0.37571 0.260254
735 4 0.168934 0.390908 0.249932
504 4 0.183328 0.398732 0.30793
291 4 0.249839 0.408517 0.260317
308 4 0.333046 0.378885 0.302209
373 2 0.275659 0.385499 0.332715
375 4 0.283034 0.409113 0.329085
727 2 0.344065 0.413861 0.305929
729 4 0.350664 0.390034 0.302195
309 4 0.348493 0.333342 0.288499
307 2 0.340769 0.356114 0.295354
614 4 0.452289 0.350645 0.315894
613 2 0.441032 0.339003 0.296843
2925 4 0.454759 0.342057 0.333528
263 4 0.0603032 0.424826 0.266857
1757 4 0.0750124 0.476967 0.293876
775 2 0.074342 0.449715 0.315364
1756 2 0.0872768 0.496609 0.284443
776 4 0.0857334 0.459657 0.295449
678 4 0.205959 0.462001 0.259049
502 2 0.194339 0.415914 0.322377
1544 4 0.196938 0.487319 0.316964
677 4 0.183137 0.433285 0.293038
676 2 0.194548 0.447643 0.276044
437 4 0.286834 0.456295 0.257719
414 4 0.257593 0.423425 0.269675
412 2 0.264125 0.423476 0.29381
433 2 0.313075 0.450722 0.279468
435 4 0.306052 0.465502 0.260563
434 4 0.320098 0.435941 0.298373
413 4 0.270658 0.423528 0.317945
2 3 0.317198 0.439535 0.321603
5 3 0.279911 0.440412 0.320284
1 1 0.297896 0.437502 0.333948
728 4 0.337467 0.437687 0.309663
659 4 0.349494 0.434522 0.256849
2862 4 0.490549 0.424012 0.309751
446 4 0.443315 0.457596 0.260927
713 4 0.471537 0.421314 0.312572
714 4 0.447187 0.448776 0.278607
712 2 0.459362 0.435045 0.295589
120 3 0.466322 0.419348 0.331894
234 4 0.0381814 0.0585072 0.336227
316 2 0.0618122 0.0760762 0.351859
2755 2 0.00526311 0.0632599 0.375705
674 4 0.148808 0.053852 0.343037
606 4 0.101145 0.0433813 0.38953
604 2 0.116856 0.0519204 0.372054
605 4 0.132568 0.0604596 0.354577
684 4 0.243951 0.00435004 0.345859
321 4 0.246721 0.0571465 0.366572
319 2 0.244616 0.0739937 0.384927
2430 4 0.177833 0.0482448 0.416263
683 4 0.25778 0.0427243 0.374788
682 2 0.250865 0.0235372 0.360324
248 4 0.328003 0.0359945 0.345503
633 4 0.338761 0.0305992 0.361437
631 2 0.359038 0.0411275 0.371594
632 4 0.379315 0.0516557 0.381752
468 4 0.393982 0.0668063 0.379423
466 2 0.404391 0.0804646 0.397597
318 4 0.0693517 0.0837655 0.374425
2757 4 0.0124171 0.0855663 0.366963
732 4 0.0599324 0.0983102 0.384247
2585 4 0.00723069 0.0948649 0.351331
2584 2 0.019109 0.111473 0.3369
730 2 0.0669085 0.095399 0.408081
397 2 0.107449 0.159165 0.352557
399 4 0.106651 0.140633 0.335791
598 2 0.219261 0.106172 0.342437
600 4 0.230835 0.124171 0.35537
685 2 0.245742 0.143519 0.375581
687 4 0.245637 0.119653 0.368126
320 4 0.24251 0.0908408 0.403283
420 4 0.322285 0.14757 0.339115
257 4 0.500342 0.104104 0.342621
467 4 0.414799 0.0941228 0.415771
398 4 0.108248 0.177698 0.369323
388 2 0.103237 0.192056 0.403684
276 4 0.134016 0.197069 0.378254
389 4 0.119032 0.183479 0.386301
274 2 0.152393 0.193149 0.361758
405 4 0.172967 0.171167 0.33621
686 4 0.245848 0.167385 0.383036
275 4 0.17077 0.189229 0.345263
410 4 0.245979 0.182522 0.397329
409 2 0.23376 0.20426 0.399149
411 4 0.22154 0.225998 0.40097
650 4 0.220727 0.243635 0.409814
707 4 0.315515 0.246687 0.349211
496 2 0.339288 0.237654 0.380355
498 4 0.352094 0.223163 0.396203
2456 4 0.36579 0.231644 0.407135
616 2 0.0715852 0.270956 0.404624
618 4 0.0850755 0.286537 0.390467
696 4 0.0924678 0.302877 0.379308
694 2 0.103383 0.32528 0.377272
497 4 0.326481 0.252146 0.364507
488 4 0.30171 0.302434 0.393089
487 2 0.285 0.290994 0.407754
509 4 0.294047 0.317693 0.381132
508 2 0.286397 0.330765 0.361238
378 4 0.409954 0.253644 0.335124
267 4 0.419503 0.311981 0.336203
268 2 0.46776 0.269029 0.351054
270 4 0.467664 0.271316 0.375952
306 4 0.461674 0.290376 0.381435
304 2 0.447386 0.297209 0.400782
695 4 0.114298 0.347683 0.375235
1259 4 0.114606 0.363556 0.389185
1258 2 0.136205 0.361964 0.40168
1260 4 0.157804 0.360372 0.414175
374 4 0.268284 0.361886 0.336345
510 4 0.278747 0.343837 0.341344
3 3 0.297269 0.416347 0.343462
118 3 0.496445 0.399016 0.341735
2923 2 0.46846 0.362234 0.339037
2924 4 0.482161 0.382411 0.344545
751 2 0.481287 0.409878 0.409041
753 4 0.471165 0.413056 0.3864
119 3 0.476792 0.418151 0.368041
777 4 0.0629506 0.439774 0.335278
602 4 0.0555921 0.442277 0.354378
601 2 0.0393126 0.452794 0.370175
603 4 0.0230331 0.463311 0.385972
680 4 0.0140851 0.467135 0.367519
1383 4 0.0669286 0.481243 0.397276
548 4 0.106086 0.421618 0.394072
569 4 0.109373 0.423667 0.414716
1775 4 0.122142 0.466764 0.361738
1774 2 0.137603 0.48632 0.363664
549 4 0.120778 0.44769 0.354008
547 2 0.113432 0.434654 0.37404
503 4 0.205351 0.433096 0.336824
635 4 0.172525 0.461247 0.388819
636 4 0.192097 0.445619 0.345536
1395 4 0.239731 0.493767 0.400509
634 2 0.182311 0.453433 0.367178
1820 4 0.255989 0.499605 0.391109
668 4 0.305803 0.461576 0.366396
4 3 0.297896 0.453673 0.350588
667 2 0.319677 0.465759 0.386773
669 4 0.333551 0.469942 0.407149
1586 4 0.348038 0.484285 0.404613
117 3 0.497606 0.43657 0.34274
116 1 0.48414 0.418213 0.346032
369 4 0.0505248 0.0685479 0.484661
367 2 0.0659788 0.0763022 0.4666
340 2 0.148741 0.0801645 0.4294
341 4 0.161201 0.059541 0.422721
2429 4 0.216322 0.0188871 0.428813
441 4 0.228576 0.00685715 0.438323
2428 2 0.197077 0.033566 0.422538
1216 2 0.395652 0.0477091 0.470327
1217 4 0.37496 0.0615377 0.467929
842 4 0.358717 0.0729907 0.47315
841 2 0.33678 0.0822301 0.480804
87 3 0.48049 0.00893862 0.497049
2879 4 0.490554 0.00875201 0.479685
1218 4 0.416345 0.0338804 0.472725
719 4 0.043882 0.0864006 0.489935
731 4 0.0738847 0.0924878 0.431914
368 4 0.0814328 0.0840564 0.448538
342 4 0.136282 0.100788 0.436078
1152 4 0.143178 0.115735 0.447903
1150 2 0.147325 0.128066 0.469255
939 4 0.156165 0.158857 0.48368
1151 4 0.151472 0.140397 0.490607
260 4 0.101602 0.160754 0.489599
725 4 0.228273 0.097434 0.417771
724 2 0.239935 0.109507 0.436303
431 4 0.299385 0.103035 0.493417
726 4 0.251596 0.12158 0.454835
432 4 0.27245 0.12329 0.456472
430 2 0.285918 0.113163 0.474945
843 4 0.314843 0.0914694 0.488458
575 4 0.412989 0.147897 0.449799
574 2 0.42023 0.127231 0.43773
516 4 0.419816 0.164863 0.458085
576 4 0.42747 0.106564 0.425661
470 4 0.0802765 0.195236 0.438513
390 4 0.0874434 0.200633 0.421067
471 4 0.105337 0.17265 0.475425
469 2 0.0928069 0.183943 0.456969
2455 2 0.381912 0.238094 0.425125
2457 4 0.398035 0.244544 0.443115
514 2 0.412203 0.18417 0.44414
515 4 0.40459 0.203477 0.430195
617 4 0.058095 0.255375 0.418781
878 4 0.119986 0.259427 0.466796
877 2 0.135058 0.250597 0.484686
649 2 0.235601 0.259736 0.421843
651 4 0.250475 0.275838 0.433872
489 4 0.268289 0.279555 0.42242
584 4 0.324672 0.268944 0.489937
583 2 0.32731 0.291618 0.479734
585 4 0.329947 0.314292 0.469531
1010 4 0.427053 0.326586 0.476478
305 4 0.433098 0.304043 0.42013
1011 4 0.437191 0.296024 0.438217
1009 2 0.432122 0.311305 0.457347
408 4 0.0450437 0.345834 0.423785
406 2 0.0430843 0.367737 0.435683
407 4 0.0411248 0.389641 0.44758
326 4 0.163053 0.3507 0.429875
709 2 0.165531 0.413334 0.467892
711 4 0.171197 0.392352 0.480255
8 3 0.182075 0.3978 0.498289
325 2 0.16857 0.361963 0.451506
327 4 0.174086 0.373226 0.473137
7 3 0.178209 0.361605 0.488926
334 2 0.370147 0.401651 0.43982
335 4 0.383258 0.380986 0.444942
240 4 0.382932 0.370363 0.462998
238 2 0.399762 0.362445 0.479708
239 4 0.416592 0.354527 0.496418
559 2 0.493833 0.376687 0.461382
2508 4 0.478355 0.354362 0.497027
752 4 0.491409 0.406699 0.431682
2507 4 0.430631 0.341312 0.489757
2506 2 0.454493 0.347837 0.493392
560 4 0.487848 0.360216 0.479216
1382 4 0.0763787 0.497008 0.443783
1381 2 0.0716537 0.489126 0.420529
538 2 0.0538963 0.485716 0.477851
540 4 0.0719127 0.486186 0.46052
539 4 0.0358798 0.485246 0.495182
568 2 0.131252 0.424507 0.42679
570 4 0.153131 0.425347 0.438864
710 4 0.159865 0.434316 0.455529
1393 2 0.23981 0.500292 0.424646
881 4 0.230637 0.468461 0.498746
1400 4 0.32723 0.478021 0.455308
588 4 0.332556 0.496553 0.454466
1399 2 0.343099 0.45995 0.448469
1401 4 0.358968 0.441878 0.44163
336 4 0.357036 0.422316 0.434698
1180 2 0.232837 0.049223 0.538907
1182 4 0.208338 0.0496648 0.543886
950 4 0.195851 0.0613229 0.555545
949 2 0.177879 0.0786375 0.557096
1181 4 0.257336 0.0487813 0.533929
963 4 0.270626 0.0437513 0.51976
961 2 0.279324 0.0210142 0.514053
1003 2 0.329756 0.0242363 0.571498
1005 4 0.349301 0.0238387 0.555909
89 3 0.449822 0.0166485 0.517364
86 1 0.462361 0.999659 0.507744
718 2 0.0269878 0.0969169 0.505073
720 4 0.0100936 0.107433 0.520212
1031 4 0.158537 0.105485 0.576691
951 4 0.159907 0.0959522 0.558646
856 2 0.332747 0.14564 0.545219
858 4 0.319938 0.159333 0.528677
857 4 0.345556 0.131947 0.56176
899 4 0.347497 0.125858 0.580477
1035 4 0.0153436 0.186913 0.547675
1033 2 0.0395878 0.188055 0.541668
1034 4 0.0638321 0.189197 0.53566
261 4 0.0803113 0.179874 0.53061
1082 4 0.0200421 0.181303 0.566869
937 2 0.157581 0.168804 0.506575
259 2 0.0909565 0.170314 0.510104
938 4 0.158996 0.178751 0.529471
1272 4 0.141969 0.225027 0.508558
1270 2 0.155891 0.226181 0.529295
879 4 0.15013 0.241767 0.502576
1271 4 0.169813 0.227335 0.550032
909 4 0.170353 0.221805 0.569325
796 2 0.319514 0.199604 0.522256
798 4 0.326149 0.223618 0.524376
797 4 0.31288 0.17559 0.520137
812 4 0.338552 0.233318 0.536957
811 2 0.361771 0.231263 0.546003
873 4 0.380898 0.210014 0.559792
813 4 0.384989 0.229208 0.55505
871 2 0.385263 0.193031 0.577617
954 4 0.450443 0.318968 0.568027
1205 4 0.433697 0.328997 0.573213
983 4 0.048464 0.372077 0.576955
982 2 0.0256882 0.381165 0.572071
1041 4 0.0591327 0.385552 0.564692
1039 2 0.0744837 0.399333 0.550564
984 4 0.00291243 0.390253 0.567188
9 3 0.154841 0.376628 0.514242
1040 4 0.0898347 0.413114 0.536436
895 2 0.198086 0.39911 0.551029
896 4 0.204128 0.378039 0.539
1189 2 0.237694 0.361644 0.523508
1191 4 0.213425 0.367074 0.520918
10 3 0.191017 0.370648 0.522794
6 1 0.176614 0.376689 0.50622
804 4 0.321952 0.341393 0.52335
802 2 0.297263 0.3417 0.51941
1190 4 0.261963 0.356214 0.526097
803 4 0.272574 0.342007 0.515469
1206 4 0.403879 0.34697 0.537316
930 4 0.390968 0.345145 0.522084
928 2 0.366047 0.346981 0.522971
929 4 0.341127 0.348818 0.523857
1204 2 0.418788 0.337984 0.555265
2812 2 0.0130172 0.452938 0.514398
2813 4 0.0285157 0.471495 0.508026
1136 4 0.146938 0.453634 0.521588
992 4 0.12859 0.460308 0.517349
993 4 0.0904183 0.429298 0.526407
991 2 0.109504 0.444803 0.521878
1135 2 0.162456 0.44314 0.538149
897 4 0.192043 0.42018 0.563058
1137 4 0.177974 0.432647 0.554709
882 4 0.214828 0.458673 0.545168
1172 4 0.224393 0.462189 0.561304
880 2 0.222733 0.463567 0.521957
1171 2 0.212453 0.476143 0.578271
927 4 0.459262 0.427212 0.50388
925 2 0.460446 0.428924 0.528797
926 4 0.46163 0.430636 0.553714
1001 4 0.452804 0.423836 0.572142
945 4 0.0108082 0.0484883 0.656414
825 4 0.0284972 0.99972 0.649192
1155 4 0.133742 0.0285672 0.625906
1153 2 0.134841 0.0532224 0.621895
1284 4 0.142341 0.0279215 0.644095
1282 2 0.162385 0.0226549 0.658084
1154 4 0.13594 0.0778775 0.617883
1004 4 0.310212 0.0246339 0.587088
2400 4 0.32493 0.00541022 0.660039
2282 4 0.471842 0.0213872 0.641632
43 3 0.491525 0.0229576 0.646242
45 3 0.496204 0.0601242 0.650036
2281 2 0.468107 0.018091 0.61713
4467 4 0.445213 0.0122883 0.584714
2283 4 0.464372 0.0147948 0.592627
808 2 0.496256 0.0693895 0.612252
41 1 0.496595 0.0401524 0.660974
809 4 0.486327 0.0807389 0.592308
1032 4 0.13543 0.0970632 0.620233
1030 2 0.146983 0.101274 0.598462
1211 4 0.217017 0.153198 0.637846
888 4 0.214997 0.137477 0.625831
886 2 0.236611 0.125708 0.621416
1210 2 0.20328 0.152789 0.658734
887 4 0.258225 0.113939 0.617
898 2 0.361572 0.143779 0.59077
900 4 0.375647 0.161699 0.601063
1083 4 0.00583689 0.177904 0.614696
1081 2 0.0129395 0.179604 0.590782
1199 4 0.0053177 0.1676 0.631364
821 4 0.0858397 0.248558 0.653249
820 2 0.105938 0.240289 0.665613
907 2 0.183163 0.233712 0.587194
947 4 0.19565 0.232968 0.621276
946 2 0.192649 0.232182 0.646087
908 4 0.195973 0.245619 0.605063
1239 4 0.327712 0.169854 0.639958
1238 4 0.357191 0.20878 0.629166
1237 2 0.342451 0.189317 0.634562
792 4 0.348183 0.224152 0.621858
872 4 0.389628 0.176048 0.595442
790 2 0.370453 0.235069 0.618689
791 4 0.392723 0.245986 0.615519
906 4 0.478405 0.249804 0.638425
3357 4 0.472745 0.229609 0.63953
3355 2 0.492253 0.218751 0.650788
3044 4 0.0174636 0.282635 0.635687
3043 2 0.0061076 0.298345 0.619895
1207 2 0.060636 0.272554 0.665409
1209 4 0.042808 0.289611 0.66136
893 4 0.0938075 0.308649 0.587959
892 2 0.0952988 0.319285 0.610539
894 4 0.0967902 0.329922 0.633118
952 2 0.458478 0.301976 0.584516
904 2 0.479535 0.261498 0.616353
905 4 0.480664 0.273192 0.594282
953 4 0.466512 0.284984 0.601005
3121 2 0.493456 0.308537 0.659478
1279 2 0.0823347 0.357515 0.664237
1281 4 0.0921303 0.338444 0.651372
1067 4 0.179842 0.347721 0.665831
1066 2 0.184643 0.369109 0.653802
1028 4 0.200779 0.398869 0.627263
1068 4 0.189444 0.390497 0.641774
2128 2 0.0244631 0.492186 0.65197
2129 4 0.00702683 0.474265 0.652065
1027 2 0.213576 0.417054 0.638697
1173 4 0.200514 0.490098 0.595239
1029 4 0.226372 0.435238 0.650131
1139 4 0.232801 0.425595 0.665706
889 2 0.359398 0.48479 0.632026
890 4 0.360316 0.477264 0.655853
891 4 0.358481 0.492317 0.6082
1269 4 0.376744 0.46912 0.662337
1000 2 0.460487 0.426045 0.595833
1910 4 0.473468 0.442796 0.631293
1002 4 0.468169 0.428254 0.619524
1909 2 0.455244 0.446522 0.648003
943 2 0.0189477 0.0457074 0.679891
944 4 0.0270872 0.0429265 0.703369
1075 2 0.0496522 0.0584993 0.732755
1076 4 0.0408807 0.0558227 0.709494
2049 4 0.125882 0.0342361 0.741355
2047 2 0.140762 0.014434 0.744769
1283 4 0.182429 0.0173882 0.672072
829 2 0.365387 0.00699001 0.672963
831 4 0.388721 0.0143908 0.678056
1142 4 0.390441 0.0306262 0.687658
1141 2 0.38934 0.0555773 0.68647
1143 4 0.388239 0.0805283 0.685282
44 3 0.481316 0.0403874 0.678435
3386 4 0.0124046 0.119923 0.729679
1106 4 0.0720174 0.156711 0.737754
1105 2 0.0502233 0.160044 0.72596
1107 4 0.0284291 0.163377 0.714167
35 3 0.0834288 0.153887 0.720513
1219 2 0.15247 0.140476 0.6974
1131 4 0.133749 0.129093 0.735725
1221 4 0.134631 0.134725 0.713949
32 3 0.115561 0.135589 0.725572
31 1 0.102604 0.153177 0.732779
1129 2 0.1502 0.113964 0.746933
1220 4 0.170309 0.146227 0.68085
1212 4 0.189543 0.152379 0.679622
1025 4 0.387529 0.0884144 0.667501
1024 2 0.387081 0.111831 0.676257
1026 4 0.386633 0.135247 0.685013
3270 4 0.471262 0.157832 0.735747
850 2 0.00789499 0.195674 0.700601
851 4 0.0273732 0.208617 0.709447
3188 4 0.0264505 0.227779 0.738888
1178 4 0.026372 0.24408 0.727905
1177 2 0.0137628 0.249414 0.706983
822 4 0.126036 0.23202 0.677977
1278 4 0.130958 0.221773 0.693182
1276 2 0.131627 0.199445 0.704416
34 3 0.114512 0.172897 0.730005
1277 4 0.132296 0.177118 0.71565
1073 4 0.133934 0.184148 0.734543
948 4 0.189648 0.231396 0.670897
1065 4 0.203776 0.23764 0.683222
978 4 0.308612 0.213705 0.748168
1261 2 0.409856 0.230935 0.728624
1263 4 0.403919 0.207053 0.733048
1145 4 0.421415 0.197066 0.730134
1144 2 0.44222 0.185113 0.737165
1146 4 0.463025 0.17316 0.744197
1208 4 0.0784641 0.255497 0.669458
1243 2 0.0379726 0.322135 0.677267
1245 4 0.0281751 0.299845 0.67158
1179 4 0.00115358 0.254748 0.686061
942 4 0.127622 0.31954 0.688195
918 4 0.244969 0.250874 0.733752
1063 2 0.209452 0.253273 0.701892
1064 4 0.215127 0.268906 0.720562
1242 4 0.201829 0.280793 0.726213
1096 2 0.326468 0.285541 0.740984
1097 4 0.302203 0.291226 0.742997
917 4 0.286105 0.278769 0.73927
916 2 0.265537 0.264821 0.736511
1262 4 0.415794 0.254817 0.724199
1098 4 0.350733 0.279857 0.738971
1192 2 0.398655 0.288206 0.745392
1194 4 0.402216 0.269081 0.729684
3123 4 0.471266 0.317245 0.667025
1280 4 0.0725391 0.376587 0.677102
1244 4 0.0477701 0.344425 0.682954
3275 4 0.0672802 0.394503 0.685361
3274 2 0.0741404 0.405659 0.70666
940 2 0.147068 0.334814 0.684491
941 4 0.166514 0.350088 0.680787
1228 2 0.275914 0.382843 0.717101
1230 4 0.287643 0.361871 0.710188
1229 4 0.264186 0.403816 0.724014
3276 4 0.0810007 0.416816 0.72796
816 4 0.0818498 0.437444 0.730385
1982 4 0.0495144 0.490887 0.748775
814 2 0.099682 0.441804 0.747361
2016 4 0.160358 0.494239 0.72554
1079 4 0.160024 0.478351 0.736144
1078 2 0.14874 0.462011 0.751339
1138 2 0.240365 0.434219 0.687923
1140 4 0.247929 0.442842 0.710141
1989 4 0.259994 0.459129 0.713494
1987 2 0.265128 0.483591 0.714167
1267 2 0.399784 0.463172 0.670016
1911 4 0.437021 0.450248 0.664712
1268 4 0.422823 0.457225 0.677696
1099 2 0.445003 0.48494 0.738864
1101 4 0.4279 0.499052 0.727308
1077 4 0.0584238 0.0611758 0.756016
1203 4 0.0782044 0.0616498 0.752761
864 4 0.0640116 0.0769789 0.816486
1201 2 0.102387 0.0553338 0.753467
1202 4 0.126569 0.0490179 0.754174
1195 2 0.137973 0.0195252 0.831418
1197 4 0.11321 0.0192263 0.827972
818 4 0.373489 0.0732818 0.814817
965 4 0.391589 0.0736317 0.821499
832 2 0.0724728 0.142352 0.776263
863 4 0.0748818 0.125363 0.810042
833 4 0.0663654 0.141505 0.800494
862 2 0.0694467 0.101171 0.813264
834 4 0.0785802 0.1432 0.752031
33 3 0.097543 0.150068 0.75521
1130 4 0.166652 0.0988341 0.758142
1227 4 0.184976 0.107794 0.757136
1225 2 0.205312 0.120001 0.76505
1226 4 0.225649 0.132207 0.772963
840 4 0.243026 0.125862 0.765975
838 2 0.261487 0.142285 0.769804
839 4 0.279948 0.158708 0.773633
817 2 0.355465 0.0881678 0.805943
1086 4 0.344696 0.159176 0.78259
1084 2 0.337729 0.135194 0.781363
819 4 0.337442 0.103054 0.797069
1085 4 0.330763 0.111212 0.780135
3268 2 0.489772 0.155875 0.752441
151 1 0.999117 0.215345 0.813161
154 3 0.000961078 0.214506 0.790046
1213 2 0.0534821 0.215104 0.806889
1215 4 0.0288834 0.219408 0.805639
3189 4 0.0185652 0.223369 0.788072
1214 4 0.0780807 0.210801 0.80814
153 3 0.0200119 0.21263 0.822878
3187 2 0.0225079 0.225574 0.76348
1072 2 0.138542 0.192891 0.757511
1074 4 0.14315 0.201634 0.780478
778 2 0.10869 0.212368 0.802723
780 4 0.126142 0.199821 0.789948