ITEM: TIMESTEP
5470000
ITEM: NUMBER OF ATOMS
4590
ITEM: BOX BOUNDS pp pp pp
-9.9985700000000008e+00 9.9985700000000008e+00
-9.9985700000000008e+00 9.9985700000000008e+00
-9.9985700000000008e+00 9.9985700000000008e+00
ITEM: ATOMS id type xs ys zs
1668 4 0.0753128 0.0328396 0.0590972
701 4 0.0172061 0.0598589 0.0085493
1666 2 0.0567761 0.0439774 0.0716478
700 2 0.0157947 0.0758033 0.0277577
3290 4 0.0767609 0.046614 0.0444531
3289 2 0.0913579 0.0314321 0.0309765
2183 4 0.082892 0.0566811 0.999623
3291 4 0.105955 0.0162503 0.0175
2264 4 0.287754 0.0474164 0.999955
2469 4 0.49544 0.0679242 0.0438851
2723 4 0.439447 0.0573674 0.0469081
555 4 0.023098 0.106082 0.0356581
553 2 0.0317709 0.129523 0.0363461
702 4 0.0143833 0.0917477 0.0469662
554 4 0.0404439 0.152964 0.0370342
1475 4 0.338452 0.124639 0.0764757
2724 4 0.484531 0.0754106 0.0588492
2722 2 0.461989 0.066389 0.0528787
2833 2 0.0303685 0.183487 0.0265456
2835 4 0.0244305 0.159221 0.0255213
2834 4 0.0363064 0.207754 0.0275698
657 4 0.0183422 0.242349 0.0560248
835 2 0.0873981 0.237155 0.0164366
836 4 0.102646 0.217802 0.0121781
422 4 0.102457 0.205958 0.997222
915 4 0.171942 0.221595 0.0295405
358 2 0.224495 0.184151 0.0213336
354 4 0.245046 0.21942 0.0264454
359 4 0.242963 0.199231 0.0288653
738 4 0.186551 0.219405 0.0421012
736 2 0.182194 0.217559 0.0666529
360 4 0.206027 0.169071 0.0138019
352 2 0.241394 0.232951 0.0471515
913 2 0.181163 0.240753 0.0163822
837 4 0.0721503 0.256509 0.0206951
2806 2 0.037501 0.259542 0.023166
2807 4 0.0550752 0.265064 0.00625925
1055 4 0.0738519 0.273744 0.995114
2808 4 0.0199268 0.254021 0.0400728
294 4 0.100428 0.297731 0.0816892
278 4 0.246989 0.258228 0.0803467
287 4 0.181258 0.277952 0.004359
914 4 0.190384 0.25991 0.00322386
286 2 0.186152 0.29778 0.0187846
288 4 0.191046 0.317607 0.0332102
353 4 0.237741 0.246482 0.0678576
572 4 0.293724 0.305917 0.0118873
482 4 0.280389 0.320637 0.0141292
610 2 0.284952 0.297412 0.0545185
611 4 0.278092 0.283119 0.0351836
612 4 0.291812 0.311704 0.0738534
1094 4 0.40801 0.329645 0.00264779
990 4 0.192038 0.335511 0.0395182
988 2 0.197802 0.358238 0.0308331
989 4 0.203566 0.380965 0.022148
1104 4 0.219826 0.390979 0.0178606
1102 2 0.214811 0.410209 0.00268766
741 4 0.327128 0.347985 0.0254411
740 4 0.364776 0.362755 0.0548554
386 4 0.357255 0.361934 0.0739774
739 2 0.345952 0.35537 0.0401482
1093 2 0.424921 0.340883 0.0172386
1305 4 0.422867 0.416496 0.0198499
1303 2 0.429964 0.393853 0.0277301
1304 4 0.437061 0.371209 0.0356103
1095 4 0.441832 0.352121 0.0318295
1620 4 0.102992 0.435465 0.0492794
1618 2 0.121763 0.451941 0.0480978
1619 4 0.140534 0.468416 0.0469161
1787 4 0.158584 0.478274 0.0389527
1223 4 0.163564 0.484252 0.0200833
1222 2 0.149459 0.498642 0.00527931
1438 2 0.216597 0.426087 0.0749656
1786 2 0.167992 0.492854 0.0569555
1440 4 0.224131 0.442318 0.0575027
243 4 0.243328 0.44431 0.0517964
1788 4 0.1774 0.507433 0.0749583
242 4 0.29099 0.443621 0.0669145
241 2 0.267159 0.443966 0.0593554
524 4 0.310633 0.444328 0.0681995
251 4 0.290749 0.426963 0.0787339
523 2 0.329948 0.441149 0.0526427
227 4 0.40216 0.417671 0.0169608
226 2 0.377659 0.420535 0.0210412
228 4 0.353157 0.423399 0.0251215
525 4 0.349262 0.43797 0.037086
1667 4 0.0382393 0.0551151 0.0841985
19 3 0.0205809 0.0264485 0.131008
17 3 0.0315982 0.0449983 0.100232
16 1 0.0137892 0.0345198 0.110341
1422 4 0.0048295 0.0366774 0.138328
18 3 0.00679685 0.0169563 0.0968865
1504 2 0.155885 0.0264417 0.170756
1506 4 0.172461 0.0227711 0.1524
1661 4 0.336391 0.0340526 0.169199
654 4 0.298654 0.0815181 0.106309
486 4 0.353598 0.0319271 0.159961
1476 4 0.318877 0.0854165 0.100541
652 2 0.283005 0.0789315 0.125637
295 2 0.402544 0.025269 0.103023
297 4 0.383348 0.0250979 0.119045
484 2 0.358916 0.0253295 0.136437
485 4 0.364235 0.0187319 0.112914
296 4 0.421739 0.02544 0.0870018
747 4 0.475438 0.995307 0.0976862
745 2 0.451436 0.00229799 0.0972104
746 4 0.427435 0.00928878 0.0967346
349 2 0.440429 0.0827287 0.160588
461 4 0.246393 0.169304 0.136834
653 4 0.267355 0.0763448 0.144965
1474 2 0.328665 0.105028 0.0885081
580 2 0.312363 0.161386 0.136312
582 4 0.329358 0.14395 0.142001
758 4 0.32797 0.130828 0.156776
693 4 0.254045 0.0912299 0.149037
557 4 0.433141 0.154596 0.109386
350 4 0.441452 0.0927148 0.137688
556 2 0.434869 0.133359 0.12247
558 4 0.436597 0.112122 0.135553
771 4 0.493052 0.161501 0.14564
769 2 0.471431 0.162562 0.158154
462 4 0.230929 0.183077 0.0913164
506 4 0.172612 0.232658 0.101727
737 4 0.177837 0.215712 0.0912046
460 2 0.238661 0.176191 0.114075
475 2 0.233952 0.206629 0.168537
29 3 0.297245 0.231228 0.141313
285 4 0.295855 0.247024 0.153091
30 3 0.292993 0.193855 0.142996
581 4 0.295369 0.178822 0.130622
26 1 0.290298 0.213378 0.154409
477 4 0.250988 0.22473 0.16583
27 3 0.303047 0.212789 0.173547
28 3 0.268022 0.216084 0.160316
628 2 0.391586 0.244976 0.133253
254 4 0.359968 0.245874 0.165726
630 4 0.37214 0.245687 0.148954
253 2 0.342262 0.228554 0.169141
629 4 0.411031 0.244265 0.117551
456 4 0.0816464 0.30527 0.0842936
292 2 0.10984 0.275322 0.0875583
293 4 0.119253 0.252914 0.0934274
454 2 0.0872511 0.327716 0.0937776
505 2 0.150659 0.243813 0.106065
507 4 0.128706 0.254968 0.110403
277 2 0.230438 0.260065 0.0989974
279 4 0.213886 0.261902 0.117648
609 4 0.286292 0.326648 0.0858119
283 2 0.304338 0.270539 0.153555
284 4 0.312822 0.294055 0.154019
624 4 0.424989 0.256124 0.11059
622 2 0.442555 0.265058 0.125978
623 4 0.460121 0.273993 0.141366
527 4 0.457024 0.275216 0.161071
620 4 0.0535296 0.39635 0.176281
536 4 0.105913 0.364846 0.106809
455 4 0.0928558 0.350162 0.103262
537 4 0.119041 0.359022 0.15471
535 2 0.112477 0.361934 0.130759
1439 4 0.209062 0.409855 0.0924285
625 2 0.212944 0.389418 0.126106
626 4 0.20537 0.379386 0.14772
627 4 0.220519 0.39945 0.104492
250 2 0.2924 0.402816 0.0850112
607 2 0.286817 0.348987 0.0970317
252 4 0.294051 0.37867 0.0912886
608 4 0.287342 0.371325 0.108252
301 2 0.312138 0.390911 0.137283
303 4 0.288762 0.397929 0.142714
638 4 0.287697 0.416113 0.137196
385 2 0.350612 0.363662 0.0980202
302 4 0.335514 0.383894 0.131853
387 4 0.343968 0.36539 0.122063
12 3 0.388701 0.398359 0.121882
11 1 0.372039 0.397047 0.137687
15 3 0.357703 0.380257 0.132097
672 4 0.408313 0.392303 0.127935
13 3 0.381636 0.392708 0.158362
671 4 0.437062 0.361221 0.101323
670 2 0.422688 0.376762 0.114629
281 4 0.454501 0.371746 0.0974736
280 2 0.477932 0.363113 0.0962053
313 2 0.985499 0.469013 0.13094
315 4 0.989615 0.465024 0.155278
1573 2 0.218849 0.454424 0.151043
1575 4 0.201696 0.450585 0.168825
1574 4 0.236002 0.458263 0.13326
1431 4 0.195641 0.431548 0.165705
639 4 0.253528 0.452494 0.140305
637 2 0.270613 0.434304 0.138751
14 3 0.360684 0.417272 0.138312
495 4 0.368936 0.429692 0.125249
1559 4 0.349636 0.480354 0.112809
493 2 0.354365 0.447556 0.115568
494 4 0.339793 0.465421 0.105888
1420 2 0.00421028 0.0336058 0.163135
1421 4 0.00359105 0.0305341 0.187941
1416 4 0.997006 0.0156354 0.199983
1414 2 0.995108 0.0134223 0.224816
690 4 0.106567 0.0214694 0.24606
1505 4 0.139308 0.0301124 0.189112
688 2 0.114351 0.0251004 0.222578
689 4 0.122136 0.0287315 0.199096
1660 2 0.324904 0.0153652 0.1812
1701 4 0.272529 0.085442 0.21294
1699 2 0.297008 0.0835261 0.208219
692 4 0.258076 0.0843539 0.198405
22 3 0.350107 0.0456808 0.197562
698 4 0.367584 0.0403221 0.205953
697 2 0.368808 0.0164507 0.21329
333 4 0.381048 0.0556444 0.206334
21 1 0.35068 0.0684219 0.200978
23 3 0.333946 0.0741769 0.215987
331 2 0.405379 0.060331 0.202989
24 3 0.371418 0.0741854 0.209644
25 3 0.347318 0.0790748 0.181132
2744 4 0.492406 0.0456475 0.198142
351 4 0.439406 0.0727425 0.183488
742 2 0.475211 0.0472169 0.232157
332 4 0.429711 0.0650177 0.199644
743 4 0.466559 0.0585168 0.252715
744 4 0.483862 0.035917 0.211599
513 4 0.998756 0.140099 0.172084
511 2 0.0191124 0.133041 0.184772
512 4 0.0394689 0.125983 0.19746
450 4 0.0526898 0.114128 0.204545
448 2 0.0748469 0.124894 0.200264
578 4 0.000394573 0.157775 0.181591
449 4 0.0970039 0.135661 0.195984
236 4 0.114213 0.139264 0.188117
235 2 0.130798 0.122062 0.195479
237 4 0.147384 0.10486 0.202841
1700 4 0.321487 0.0816102 0.203498
691 2 0.256061 0.0877919 0.173721
757 2 0.328546 0.109824 0.170329
759 4 0.329122 0.0888202 0.183882
770 4 0.449811 0.163622 0.170668
763 2 0.506885 0.144356 0.248416
338 4 0.00508866 0.210345 0.175322
337 2 0.0175041 0.231845 0.17829
361 2 0.125671 0.216971 0.216127
372 4 0.157247 0.188294 0.207651
363 4 0.112559 0.236272 0.22511
362 4 0.138783 0.197669 0.207144
370 2 0.17952 0.189827 0.196394
476 4 0.216916 0.188529 0.171244
371 4 0.201793 0.19136 0.185136
756 4 0.314252 0.220692 0.190665
754 2 0.315965 0.203156 0.208406
255 4 0.324555 0.211234 0.172556
755 4 0.317679 0.185621 0.226147
339 4 0.0299195 0.253344 0.181257
703 2 0.0303161 0.275109 0.213705
704 4 0.0410128 0.258882 0.197975
2615 4 0.0175278 0.311307 0.228639
705 4 0.0196194 0.291337 0.229435
2614 2 0.000396209 0.309221 0.246732
648 4 0.103222 0.346283 0.207889
343 2 0.385696 0.323192 0.222892
345 4 0.396239 0.332839 0.202375
528 4 0.42877 0.296167 0.196617
526 2 0.442897 0.285691 0.178844
542 4 0.437515 0.297569 0.215486
541 2 0.440664 0.319991 0.226094
543 4 0.443814 0.342413 0.236701
619 2 0.0432284 0.408569 0.195511
621 4 0.0329272 0.420787 0.21474
647 4 0.100322 0.353399 0.158476
298 2 0.0869208 0.355979 0.243616
646 2 0.101772 0.349841 0.183183
300 4 0.103641 0.355818 0.225026
415 2 0.151329 0.395436 0.222783
417 4 0.149959 0.39687 0.197858
1430 4 0.167811 0.402725 0.19563
416 4 0.1527 0.394002 0.247707
290 4 0.219231 0.346401 0.236961
597 4 0.395076 0.376646 0.166334
596 4 0.37823 0.339659 0.19547
595 2 0.386653 0.358152 0.180902
645 4 0.401866 0.39873 0.16066
264 4 0.0279181 0.424289 0.2341
1319 4 0.0967679 0.505683 0.182993
767 4 0.220785 0.506581 0.222276
1429 2 0.181726 0.417137 0.180668
766 2 0.219655 0.48251 0.228946
768 4 0.218525 0.458439 0.235615
438 4 0.234827 0.448364 0.243123
678 4 0.206492 0.443598 0.244437
436 2 0.259457 0.447464 0.247335
230 4 0.349097 0.492667 0.190673
643 2 0.413858 0.410634 0.17909
229 2 0.35247 0.481124 0.212595
231 4 0.355842 0.469582 0.234517
660 4 0.362808 0.452522 0.231689
644 4 0.425851 0.422538 0.19752
447 4 0.424125 0.425947 0.2175
445 2 0.42332 0.430056 0.242151
1415 4 0.99321 0.0112091 0.249649
1402 2 0.00488315 0.0109209 0.282953
233 4 0.0311292 0.0172473 0.312001
232 2 0.0499884 0.0336108 0.310679
1403 4 0.0145307 0.0244304 0.301651
234 4 0.0688476 0.0499743 0.309358
317 4 0.0671313 0.0608628 0.326221
1462 2 0.0931683 0.0086788 0.272821
1464 4 0.0985817 0.0305914 0.262064
723 4 0.216034 0.0234674 0.292112
1405 2 0.219735 0.0498533 0.315707
1406 4 0.21799 0.0252177 0.311805
1407 4 0.22148 0.0744888 0.319608
2664 4 0.521769 0.0430199 0.312958
391 2 0.0622764 0.0817379 0.281165
393 4 0.0421822 0.0769915 0.295267
2586 4 0.0401064 0.0908076 0.309379
2584 2 0.0203135 0.0791459 0.319249
392 4 0.0823706 0.0864843 0.267063
675 4 0.131574 0.084111 0.311659
546 4 0.141883 0.0862171 0.294385
545 4 0.099422 0.0945197 0.269308
544 2 0.120652 0.0903684 0.281847
399 4 0.100604 0.137997 0.328067
599 4 0.233946 0.0896251 0.320979
598 2 0.251245 0.106948 0.315897
600 4 0.268545 0.12427 0.310815
716 4 0.356006 0.167358 0.275859
419 4 0.351298 0.149633 0.285062
418 2 0.353313 0.129798 0.300152
425 4 0.463591 0.0726401 0.266375
424 2 0.469902 0.0904061 0.282798
258 4 0.486181 0.0949468 0.310906
426 4 0.476214 0.108172 0.299221
765 4 0.492595 0.161199 0.260134
395 4 0.123193 0.245831 0.240183
275 4 0.15336 0.196752 0.333847
404 4 0.209962 0.16372 0.311315
403 2 0.187886 0.173327 0.318061
474 4 0.225724 0.265558 0.320299
472 2 0.248186 0.254613 0.319391
405 4 0.16581 0.182935 0.324807
708 4 0.28872 0.234089 0.317108
473 4 0.270649 0.243669 0.318483
715 2 0.376984 0.178688 0.283391
717 4 0.397962 0.190018 0.290923
377 4 0.403894 0.197829 0.307421
376 2 0.400743 0.222575 0.305732
378 4 0.397591 0.247322 0.304043
444 4 0.0249108 0.25178 0.271273
442 2 0.0498978 0.251311 0.272053
443 4 0.0748848 0.250842 0.272833
396 4 0.0814921 0.264895 0.260141
530 4 0.0060153 0.252794 0.26638
394 2 0.102343 0.255363 0.250162
401 4 0.207429 0.26531 0.325352
402 4 0.169422 0.278881 0.295823
400 2 0.188426 0.272095 0.310588
309 4 0.379809 0.322118 0.260691
344 4 0.375153 0.313544 0.243409
266 4 0.392609 0.26448 0.298128
265 2 0.382757 0.275831 0.31811
267 4 0.372905 0.287182 0.338092
269 4 0.483084 0.285569 0.319788
262 2 0.0399896 0.421673 0.255839
750 4 0.066217 0.367146 0.278834
366 4 0.0182761 0.348503 0.300484
748 2 0.0469768 0.351931 0.283679
749 4 0.0277365 0.336715 0.288525
263 4 0.052061 0.419056 0.277579
299 4 0.0702004 0.35614 0.262205
734 4 0.134426 0.39187 0.287793
733 2 0.157486 0.389207 0.278502
735 4 0.180546 0.386545 0.269211
289 2 0.226873 0.366616 0.249537
504 4 0.218539 0.377628 0.302282
502 2 0.207993 0.392724 0.319195
291 4 0.234515 0.38683 0.262113
414 4 0.24887 0.393965 0.273691
677 4 0.179699 0.407112 0.26569
412 2 0.261074 0.401748 0.294079
413 4 0.273277 0.409532 0.314467
728 4 0.324557 0.414498 0.305118
727 2 0.33932 0.394998 0.299924
308 4 0.367608 0.361628 0.288812
729 4 0.354083 0.375498 0.29473
307 2 0.373709 0.341873 0.274752
615 4 0.440182 0.342008 0.256357
614 4 0.452695 0.324387 0.301453
613 2 0.446438 0.333197 0.278905
2925 4 0.46377 0.338051 0.309547
120 3 0.478633 0.405086 0.330364
2862 4 0.486779 0.413225 0.312439
713 4 0.464663 0.415241 0.317304
2923 2 0.480697 0.346913 0.325676
775 2 0.0779426 0.454774 0.325264
776 4 0.0742197 0.459043 0.30091
1757 4 0.0760233 0.478863 0.298826
1756 2 0.0831155 0.499636 0.286853
1544 4 0.201476 0.491339 0.310991
676 2 0.193095 0.425355 0.255063
437 4 0.284087 0.446565 0.251547
433 2 0.304933 0.434777 0.272011
435 4 0.303626 0.446166 0.24979
2 3 0.312773 0.432019 0.313888
5 3 0.275531 0.429747 0.312988
434 4 0.306241 0.423388 0.294232
659 4 0.353115 0.422873 0.270774
658 2 0.357961 0.437698 0.251231
446 4 0.422515 0.434165 0.266801
714 4 0.43436 0.424933 0.278723
712 2 0.449511 0.420087 0.298013
316 2 0.0751484 0.0719288 0.347161
318 4 0.0831655 0.0829947 0.3681
2757 4 0.0101848 0.0669806 0.346688
732 4 0.0794527 0.0711039 0.383478
673 2 0.137 0.0773286 0.335105
674 4 0.142426 0.0705462 0.358552
604 2 0.150242 0.0548481 0.389409
605 4 0.138481 0.0512227 0.367645
606 4 0.162004 0.0584736 0.411174
321 4 0.220772 0.0615288 0.390874
683 4 0.232525 0.0448539 0.391686
319 2 0.22486 0.0804661 0.406681
682 2 0.240241 0.0228543 0.382649
684 4 0.247956 0.000854699 0.373612
247 2 0.294866 0.0182051 0.356157
248 4 0.314883 0.0327144 0.359898
633 4 0.332415 0.0436931 0.359734
631 2 0.355982 0.0517717 0.361857
632 4 0.379549 0.0598503 0.36398
468 4 0.389118 0.0736046 0.374176
466 2 0.399872 0.0900959 0.389589
730 2 0.075619 0.0777343 0.40728
397 2 0.0934767 0.161358 0.333418
686 4 0.243921 0.155842 0.364979
685 2 0.24567 0.133573 0.376215
687 4 0.24742 0.111305 0.387451
725 4 0.254623 0.120863 0.403913
420 4 0.355328 0.109964 0.315243
467 4 0.410626 0.106587 0.405002
576 4 0.412963 0.125041 0.399464
574 2 0.406777 0.136293 0.420919
256 2 0.493262 0.0954256 0.334881
398 4 0.0863492 0.184719 0.338769
390 4 0.0741501 0.20782 0.399846
388 2 0.0842809 0.198977 0.378767
276 4 0.118608 0.212927 0.365963
389 4 0.0944117 0.190134 0.357687
274 2 0.135984 0.20484 0.349905
410 4 0.261327 0.166767 0.365703
409 2 0.254638 0.188526 0.376047
650 4 0.239426 0.226109 0.378677
411 4 0.247949 0.210285 0.38639
649 2 0.249705 0.242262 0.394759
706 2 0.307612 0.227627 0.332159
707 4 0.326503 0.221164 0.34721
497 4 0.345332 0.221616 0.354036
496 2 0.356028 0.225837 0.376239
498 4 0.366725 0.230057 0.398441
2456 4 0.352421 0.239507 0.408838
616 2 0.0836431 0.278581 0.36513
618 4 0.0781639 0.302865 0.36746
617 4 0.0891224 0.254297 0.3628
696 4 0.08771 0.316408 0.378166
651 4 0.259983 0.258414 0.410841
488 4 0.29993 0.294972 0.384327
487 2 0.286415 0.282947 0.401587
509 4 0.288182 0.304085 0.372279
508 2 0.286426 0.325121 0.358878
489 4 0.272901 0.270921 0.418847
268 2 0.466089 0.289546 0.33769
270 4 0.449093 0.293523 0.355593
306 4 0.442807 0.279246 0.368711
304 2 0.424646 0.285348 0.384776
305 4 0.406484 0.291451 0.400841
694 2 0.104646 0.334414 0.381928
695 4 0.121582 0.352419 0.385689
1259 4 0.136264 0.339593 0.393435
1258 2 0.15884 0.336455 0.403715
548 4 0.130775 0.40688 0.385953
503 4 0.197446 0.407821 0.336108
375 4 0.279757 0.400721 0.331572
373 2 0.278283 0.379837 0.345241
374 4 0.276809 0.358952 0.35891
510 4 0.28467 0.346156 0.345477
3 3 0.294693 0.412439 0.34039
118 3 0.497024 0.378585 0.349783
2924 4 0.497623 0.355774 0.341805
116 1 0.488158 0.400018 0.35042
119 3 0.472325 0.401542 0.367314
753 4 0.485444 0.409564 0.380403
777 4 0.0816655 0.450505 0.349617
602 4 0.075528 0.451105 0.37032
601 2 0.0507674 0.452978 0.373249
603 4 0.0260067 0.454852 0.376178
680 4 0.00532181 0.448339 0.378329
1776 4 0.127663 0.494912 0.362333
1775 4 0.0960069 0.457888 0.373636
1774 2 0.111835 0.4764 0.367985
549 4 0.0954866 0.429751 0.358891
547 2 0.113131 0.418315 0.372422
569 4 0.130252 0.415995 0.40283
1543 2 0.199818 0.494905 0.335683
635 4 0.221133 0.450685 0.364982
636 4 0.202202 0.405406 0.355379
634 2 0.211667 0.428045 0.36018
1 1 0.293676 0.431132 0.326681
668 4 0.295224 0.462406 0.356397
4 3 0.292398 0.450366 0.339596
667 2 0.308009 0.481214 0.366788
669 4 0.320795 0.500022 0.377178
751 2 0.485585 0.414383 0.404937
369 4 0.0400277 0.0809945 0.488244
341 4 0.177776 0.0642075 0.422291
2430 4 0.180736 0.0581012 0.440426
2429 4 0.190956 0.00965513 0.433409
2428 2 0.185846 0.0338782 0.436917
841 2 0.337634 0.0721455 0.467974
842 4 0.355189 0.0684552 0.450556
1216 2 0.374507 0.0297796 0.452063
1217 4 0.368181 0.0539097 0.453767
1218 4 0.380832 0.00564938 0.450359
2878 2 0.501724 0.0286375 0.469635
2879 4 0.478905 0.0222805 0.477638
367 2 0.0537288 0.0769898 0.467716
368 4 0.0674299 0.072985 0.447187
259 2 0.0466634 0.150095 0.476391
260 4 0.0479858 0.15409 0.451744
731 4 0.0717853 0.0843646 0.431081
342 4 0.171934 0.111189 0.438396
340 2 0.174855 0.0876981 0.430344
320 4 0.228948 0.0994034 0.422487
1152 4 0.18446 0.124646 0.432293
1150 2 0.18103 0.143812 0.44798
1151 4 0.1776 0.162978 0.463667
724 2 0.260073 0.122063 0.428286
431 4 0.307989 0.0895764 0.491959
726 4 0.265524 0.123263 0.452659
432 4 0.28316 0.121682 0.462746
430 2 0.295575 0.105629 0.477352
843 4 0.320079 0.0758358 0.485391
575 4 0.400591 0.147544 0.442374
471 4 0.065344 0.154839 0.44169
469 2 0.0690607 0.172756 0.42465
470 4 0.0727774 0.190674 0.407611
879 4 0.164532 0.229694 0.497057
877 2 0.141713 0.237899 0.490961
939 4 0.191446 0.171955 0.475984
937 2 0.171321 0.176493 0.490111
516 4 0.394974 0.165822 0.435381
2455 2 0.349602 0.246017 0.432814
2457 4 0.346784 0.252527 0.456791
514 2 0.399375 0.177836 0.456863
515 4 0.403777 0.18985 0.478344
878 4 0.118894 0.246104 0.484865
1260 4 0.181416 0.333317 0.413994
584 4 0.35428 0.298162 0.465999
583 2 0.359815 0.307159 0.443336
585 4 0.36535 0.316155 0.420673
1011 4 0.420446 0.296252 0.41518
1009 2 0.427496 0.303848 0.437935
1010 4 0.434547 0.311443 0.46069
2507 4 0.450238 0.324099 0.466244
406 2 0.0600572 0.382597 0.47563
408 4 0.077422 0.37815 0.458199
326 4 0.193737 0.349295 0.420427
709 2 0.174088 0.411661 0.462164
711 4 0.180279 0.390007 0.473023
8 3 0.18236 0.390105 0.493465
325 2 0.192677 0.363132 0.441225
327 4 0.191616 0.376969 0.462024
7 3 0.201829 0.364616 0.473872
238 2 0.420071 0.381993 0.464415
240 4 0.395765 0.38753 0.466346
334 2 0.361121 0.398009 0.449267
335 4 0.376686 0.381551 0.459853
239 4 0.444377 0.376456 0.462484
560 4 0.480168 0.383266 0.474244
559 2 0.477251 0.403859 0.460366
561 4 0.474335 0.424452 0.446488
2506 2 0.459482 0.345952 0.474128
2508 4 0.468727 0.367805 0.482011
538 2 0.0665845 0.481486 0.479602
540 4 0.0688373 0.505166 0.471897
568 2 0.147232 0.426475 0.417897
710 4 0.167898 0.433316 0.451305
570 4 0.164213 0.436956 0.432964
881 4 0.2293 0.496228 0.489691
336 4 0.345557 0.414468 0.438682
1400 4 0.34864 0.478674 0.422312
1401 4 0.355589 0.429927 0.431041
1399 2 0.352114 0.454301 0.426676
752 4 0.485725 0.419202 0.429472
719 4 0.0350051 0.0764292 0.506534
1180 2 0.223254 0.0410373 0.550082
1182 4 0.201354 0.0484445 0.540557
950 4 0.204106 0.0643507 0.528905
1181 4 0.245153 0.0336301 0.559607
963 4 0.26354 0.027109 0.560919
961 2 0.271859 0.00928874 0.545479
962 4 0.280178 0.991468 0.530038
87 3 0.468858 0.0169245 0.49345
86 1 0.456852 0.00651028 0.51008
89 3 0.437216 0.0183363 0.513685
720 4 0.00349143 0.112668 0.520477
718 2 0.0192483 0.0945484 0.513506
261 4 0.045341 0.1461 0.501038
1034 4 0.0511538 0.145897 0.520731
1035 4 0.0469998 0.173145 0.562456
1033 2 0.0490768 0.159521 0.541594
1030 2 0.155713 0.100319 0.576087
1031 4 0.173311 0.103124 0.558549
951 4 0.181311 0.107114 0.541251
949 2 0.192709 0.0857323 0.535078
857 4 0.343692 0.13084 0.540376
856 2 0.335502 0.150632 0.527477
899 4 0.343219 0.125164 0.559708
898 2 0.360342 0.135622 0.574628
938 4 0.151196 0.181031 0.504237
1272 4 0.177433 0.242595 0.50679
1270 2 0.182366 0.234956 0.530081
1271 4 0.187299 0.227317 0.553373
909 4 0.191487 0.232583 0.571938
858 4 0.327312 0.170424 0.514579
797 4 0.32582 0.187929 0.504708
796 2 0.343756 0.204513 0.510038
798 4 0.361692 0.221098 0.515369
812 4 0.378816 0.230303 0.520413
811 2 0.38807 0.223738 0.542694
813 4 0.397324 0.217174 0.564975
873 4 0.408759 0.201547 0.572596
802 2 0.307221 0.334081 0.50751
804 4 0.33193 0.33261 0.511042
930 4 0.396892 0.331647 0.534835
928 2 0.37387 0.335002 0.525675
1204 2 0.423899 0.329204 0.549479
954 4 0.448315 0.32027 0.584837
1205 4 0.433404 0.319742 0.570581
1041 4 0.0624173 0.382694 0.57848
1039 2 0.0706511 0.405769 0.573483
982 2 0.0315222 0.362603 0.578666
984 4 0.00917928 0.35808 0.568394
407 4 0.0426925 0.387044 0.493062
9 3 0.181975 0.353534 0.5038
895 2 0.21477 0.406785 0.534808
896 4 0.223857 0.387957 0.521091
1189 2 0.255534 0.362379 0.51164
1191 4 0.234519 0.374548 0.505682
10 3 0.213167 0.374175 0.508121
6 1 0.194915 0.370649 0.494966
803 4 0.282512 0.335552 0.503979
1190 4 0.276549 0.350211 0.517599
929 4 0.350848 0.338357 0.516515
1206 4 0.414394 0.338667 0.528377
2813 4 0.00491873 0.488494 0.519362
1881 4 0.0244337 0.511014 0.51887
539 4 0.0643317 0.457807 0.487308
1040 4 0.0788849 0.428843 0.568486
993 4 0.0822937 0.441798 0.55418
1136 4 0.148702 0.44645 0.555912
992 4 0.131259 0.444676 0.544441
991 2 0.106776 0.443237 0.549311
1135 2 0.17316 0.442389 0.559151
897 4 0.205684 0.425613 0.548524
1137 4 0.197618 0.438328 0.562391
882 4 0.219686 0.494587 0.538738
1172 4 0.219457 0.497 0.558016
880 2 0.224493 0.495408 0.514214
1171 2 0.22528 0.484109 0.578634
1445 4 0.281058 0.496786 0.517445
926 4 0.458415 0.450641 0.54076
925 2 0.451677 0.442433 0.518124
1001 4 0.448438 0.439729 0.553386
1000 2 0.452896 0.44521 0.57737
927 4 0.444938 0.434224 0.495488
1155 4 0.150973 0.0386084 0.623107
1153 2 0.141365 0.0586075 0.611579
1284 4 0.156761 0.0351628 0.642547
1154 4 0.131757 0.0786066 0.600051
1282 2 0.151957 0.0111664 0.647672
2400 4 0.341381 0.00391389 0.674945
1005 4 0.364991 0.998868 0.610184
43 3 0.490962 0.00304691 0.652002
41 1 0.497678 0.0249764 0.655524
2282 4 0.476732 0.990882 0.64635
2281 2 0.461836 0.991376 0.626274
1082 4 0.0375729 0.161198 0.574252
1032 4 0.138114 0.0975132 0.593626
1211 4 0.205128 0.13218 0.637109
888 4 0.210841 0.114201 0.633199
1210 2 0.192058 0.123182 0.656432
886 2 0.231572 0.108075 0.620633
887 4 0.252302 0.101949 0.608067
1239 4 0.318004 0.159881 0.603549
900 4 0.377466 0.14608 0.589548
872 4 0.388165 0.162765 0.596525
1026 4 0.38075 0.147211 0.667943
1199 4 0.000707224 0.176241 0.627458
1083 4 0.0128907 0.162113 0.617734
1081 2 0.0252318 0.161655 0.595993
820 2 0.114964 0.233973 0.662062
947 4 0.173505 0.233199 0.631744
907 2 0.1912 0.23243 0.596939
908 4 0.190913 0.232278 0.621941
1237 2 0.33092 0.180263 0.610102
871 2 0.398462 0.182156 0.584561
1238 4 0.343835 0.200646 0.616654
792 4 0.34437 0.220846 0.618305
790 2 0.360794 0.225229 0.636642
3357 4 0.483361 0.232695 0.653144
906 4 0.474498 0.236246 0.634965
904 2 0.470924 0.253478 0.617204
1208 4 0.0876399 0.267501 0.65867
893 4 0.0958285 0.285222 0.65983
1243 2 0.0129477 0.294031 0.657175
892 2 0.0963852 0.307968 0.649464
821 4 0.0981973 0.251139 0.655036
894 4 0.096942 0.330715 0.639097
946 2 0.175122 0.251776 0.648401
952 2 0.449164 0.295379 0.587051
905 4 0.46735 0.27071 0.599443
953 4 0.450014 0.270488 0.589264
3121 2 0.483969 0.310914 0.640576
3123 4 0.468732 0.306512 0.659905
983 4 0.0538651 0.367126 0.588938
1279 2 0.104577 0.370585 0.652385
1281 4 0.0953317 0.347639 0.648755
1280 4 0.113823 0.393531 0.656015
1067 4 0.161063 0.353043 0.655086
941 4 0.172846 0.339036 0.645032
1066 2 0.174714 0.372511 0.647349
1068 4 0.188364 0.391978 0.639612
1028 4 0.189226 0.411809 0.635582
1938 4 0.997969 0.502322 0.583028
2128 2 0.0160362 0.484008 0.632393
2129 4 0.999696 0.468462 0.6216
1027 2 0.210598 0.421177 0.644562
1173 4 0.231103 0.471219 0.599252
1029 4 0.23197 0.430545 0.653543
889 2 0.378468 0.471573 0.639298
890 4 0.372541 0.46352 0.662216
891 4 0.384394 0.479627 0.616381
1952 4 0.392058 0.497818 0.610821
1910 4 0.459385 0.448217 0.621756
1002 4 0.457355 0.450692 0.601355
1909 2 0.450384 0.440204 0.643663
1911 4 0.441382 0.43219 0.665571
943 2 0.0195327 0.0266827 0.681801
944 4 0.0421101 0.0211823 0.691031
1075 2 0.053757 0.0424542 0.720124
1076 4 0.0387837 0.0389166 0.700414
1077 4 0.0687302 0.0459917 0.739833
829 2 0.371028 0.0268024 0.680928
831 4 0.382897 0.0432914 0.695502
1142 4 0.389565 0.055191 0.710598
1141 2 0.388815 0.0791845 0.703603
830 4 0.359159 0.0103133 0.666353
44 3 0.481112 0.0366094 0.666866
834 4 0.0923139 0.143957 0.752935
1106 4 0.0899714 0.157025 0.736519
35 3 0.104592 0.158476 0.724044
1219 2 0.148394 0.115508 0.69197
1131 4 0.139909 0.115357 0.736971
1221 4 0.13705 0.112764 0.714082
32 3 0.130332 0.131536 0.726194
31 1 0.12065 0.149218 0.737275
1220 4 0.159738 0.118253 0.669858
1212 4 0.178987 0.114185 0.675755
34 3 0.137023 0.164953 0.742042
33 3 0.111165 0.141439 0.756971
1143 4 0.388065 0.103178 0.696608
1025 4 0.387902 0.0984051 0.676162
1024 2 0.384326 0.122808 0.672052
1146 4 0.480187 0.169878 0.720716
1178 4 0.00973114 0.220673 0.713965
1105 2 0.0711597 0.170132 0.726544
1107 4 0.0523481 0.183239 0.716568
3188 4 0.0429328 0.182264 0.7344
1177 2 0.0307847 0.231817 0.706367
822 4 0.13173 0.216806 0.669089
1278 4 0.130786 0.213409 0.688773
1276 2 0.134231 0.195823 0.70621
1277 4 0.137676 0.178237 0.723646
1073 4 0.13149 0.1926 0.736601
918 4 0.252721 0.232332 0.698705
978 4 0.305109 0.222042 0.760471
976 2 0.327602 0.228975 0.752035
791 4 0.377217 0.229612 0.654979
1008 4 0.365735 0.247769 0.743358
977 4 0.350096 0.235907 0.7436
3355 2 0.498312 0.218643 0.667434
1261 2 0.433591 0.236181 0.725784
3270 4 0.495372 0.175177 0.733884
1263 4 0.452256 0.219633 0.727503
1145 4 0.450653 0.208887 0.710383
1144 2 0.46542 0.189382 0.71555
1207 2 0.0678506 0.263294 0.673362
1209 4 0.0480612 0.259087 0.688054
1179 4 0.0518382 0.242961 0.698769
1244 4 0.0277579 0.277852 0.669178
942 4 0.177591 0.292663 0.663134
1065 4 0.176471 0.275503 0.685173
940 2 0.175218 0.315849 0.654083
948 4 0.17674 0.270353 0.665057
1063 2 0.186504 0.280789 0.707458
1064 4 0.196537 0.286075 0.729742
1242 4 0.188407 0.293292 0.745885
1097 4 0.297243 0.272387 0.721071
917 4 0.279099 0.272136 0.713555
916 2 0.26591 0.252234 0.70613
1262 4 0.414925 0.252728 0.724066
1192 2 0.416812 0.289285 0.733516
1193 4 0.411536 0.313361 0.729311
806 4 0.42142 0.319438 0.745432
1194 4 0.422088 0.265209 0.737722
1139 4 0.236719 0.415373 0.665405
1228 2 0.285818 0.364824 0.716686
1230 4 0.310311 0.359929 0.71784
1229 4 0.261326 0.369718 0.715532
3275 4 0.107722 0.405783 0.670076
3276 4 0.0968922 0.408568 0.718817
3274 2 0.102307 0.407175 0.694446
816 4 0.0941095 0.42586 0.726535
814 2 0.111195 0.434102 0.742824
1078 2 0.156874 0.470458 0.743423
1138 2 0.241433 0.422026 0.689042
1140 4 0.246147 0.428678 0.712679
1079 4 0.16982 0.490299 0.735427
1989 4 0.248857 0.44782 0.71137
1987 2 0.252051 0.472606 0.710591
1988 4 0.255245 0.497393 0.709811
1269 4 0.387326 0.459661 0.675667
1267 2 0.409232 0.448074 0.678992
4323 4 0.420586 0.492761 0.695266
1268 4 0.431138 0.436487 0.682318
1203 4 0.0680484 0.0429075 0.759339
911 4 0.0937482 0.0676152 0.814035
1197 4 0.137729 0.0116517 0.827883
2049 4 0.12564 0.0238429 0.749232
1201 2 0.0929753 0.0412966 0.75823
1202 4 0.117902 0.0396858 0.757122
2047 2 0.147708 0.0150711 0.741406
818 4 0.39346 0.0789438 0.811565
817 2 0.371331 0.09004 0.808049
2342 4 0.404737 0.989972 0.793928
975 4 0.389828 0.992832 0.807849
832 2 0.0771179 0.137165 0.771594
863 4 0.0712731 0.126871 0.808383
833 4 0.0619218 0.130374 0.790252
862 2 0.0757167 0.103434 0.815873
864 4 0.0801603 0.0799959 0.823363
869 4 0.0844472 0.139284 0.817238
1129 2 0.148507 0.101152 0.755666
1130 4 0.157106 0.0869481 0.77436
1227 4 0.174265 0.0896353 0.784446
1225 2 0.197208 0.0969002 0.791226
1226 4 0.220152 0.104165 0.798006
840 4 0.23465 0.11734 0.794693
838 2 0.252279 0.13235 0.785254
1084 2 0.339048 0.134574 0.798682
1086 4 0.346147 0.158124 0.794193
1085 4 0.331949 0.111023 0.803171
839 4 0.269909 0.147359 0.775816
959 4 0.277543 0.161835 0.763874
965 4 0.408009 0.0679315 0.818116
964 2 0.422912 0.0870086 0.824373
819 4 0.349202 0.101136 0.804534
966 4 0.437815 0.106086 0.83063
1213 2 0.0429087 0.212302 0.80065
1215 4 0.0225844 0.212408 0.786087
3189 4 0.0154774 0.208451 0.766976
1214 4 0.063233 0.212196 0.815214
153 3 0.00797175 0.2204 0.797651
3187 2 0.0292051 0.195357 0.750688
779 4 0.0817795 0.217797 0.823646
1072 2 0.130898 0.201946 0.759785
1074 4 0.130307 0.211292 0.782969
778 2 0.103752 0.217949 0.811714
780 4 0.125725 0.2181 0.799783
960 4 0.305919 0.202883 0.760619
958 2 0.291731 0.182359 0.762246
1299 4 0.338432 0.172691 0.804675
1297 2 0.351175 0.181808 0.824161
1298 4 0.363917 0.190926 0.843646
1006 2 0.384799 0.246398 0.759479
1007 4 0.403862 0.245026 0.7756
1044 4 0.409734 0.227335 0.782035
1042 2 0.412663 0.213713 0.802796
1043 4 0.415591 0.200091 0.823558