ITEM: TIMESTEP
3670000
ITEM: NUMBER OF ATOMS
4590
ITEM: BOX BOUNDS pp pp pp
-9.9985700000000008e+00 9.9985700000000008e+00
-9.9985700000000008e+00 9.9985700000000008e+00
-9.9985700000000008e+00 9.9985700000000008e+00
ITEM: ATOMS id type xs ys zs
1666 2 0.065821 0.0558006 0.0857086
1668 4 0.0863067 0.0500833 0.0725623
3290 4 0.0951702 0.0462806 0.0545561
3289 2 0.107337 0.0328307 0.0373444
3291 4 0.119504 0.0193809 0.0201327
566 4 0.127491 0.0135901 0.00208855
490 2 0.289925 0.00594663 0.0739267
491 4 0.286041 0.030446 0.0770685
1475 4 0.278228 0.0490576 0.0725314
2723 4 0.481989 0.120335 0.0463179
2722 2 0.502582 0.108541 0.0384416
505 2 0.131901 0.223657 0.0616774
506 4 0.152525 0.211234 0.0549304
507 4 0.111278 0.23608 0.0684244
737 4 0.154574 0.189734 0.0510931
736 2 0.178743 0.185654 0.0461524
738 4 0.202911 0.181573 0.0412117
354 4 0.210054 0.188979 0.0580208
352 2 0.234858 0.188435 0.0549106
462 4 0.303119 0.175351 0.0859266
461 4 0.277209 0.194232 0.0475491
460 2 0.290164 0.184791 0.0667379
353 4 0.259661 0.187891 0.0518004
664 2 0.337761 0.175338 0.990898
665 4 0.360549 0.185141 0.994025
657 4 0.0108168 0.258189 0.0566413
2807 4 0.0327558 0.30005 0.0141707
2806 2 0.0241782 0.288912 0.0348482
2808 4 0.0156006 0.277775 0.0555257
837 4 0.0580899 0.283607 0.00182796
915 4 0.122866 0.265457 0.0126519
293 4 0.112715 0.257039 0.0695407
292 2 0.105437 0.280456 0.0744234
456 4 0.0986779 0.317278 0.0923893
287 4 0.182345 0.277193 0.0416989
286 2 0.17541 0.301126 0.0396359
288 4 0.168475 0.32506 0.037573
356 4 0.232683 0.296832 0.00586409
612 4 0.229748 0.334426 0.0662426
610 2 0.236369 0.312614 0.076517
483 4 0.24957 0.307276 0.0106743
482 4 0.289386 0.277564 0.00496831
481 2 0.269478 0.29242 0.00782132
572 4 0.303131 0.289238 0.995917
571 2 0.324839 0.285272 0.00767257
1071 4 0.364951 0.275117 0.0120744
573 4 0.346548 0.281305 0.0194285
3228 4 0.00879095 0.34506 0.00994245
1102 2 0.164928 0.413035 0.0145113
609 4 0.247341 0.342602 0.0603603
990 4 0.175651 0.34453 0.0366773
988 2 0.186311 0.366346 0.030709
989 4 0.196972 0.388161 0.0247407
1289 4 0.204563 0.415821 0.0128772
1104 4 0.188427 0.40494 0.0172457
607 2 0.25447 0.366545 0.0613982
250 2 0.287257 0.418768 0.0769444
252 4 0.266922 0.410509 0.0649662
608 4 0.261598 0.390488 0.0624361
740 4 0.332752 0.345288 0.0790687
739 2 0.34418 0.338458 0.0579041
741 4 0.355607 0.331628 0.0367395
226 2 0.386075 0.399899 0.0405537
227 4 0.406069 0.387038 0.0328075
1303 2 0.421512 0.362533 0.00786519
228 4 0.36608 0.41276 0.0482999
1305 4 0.417208 0.38587 0.0157431
280 2 0.471421 0.354847 0.0678621
282 4 0.495862 0.355825 0.0626759
281 4 0.446981 0.35387 0.0730483
104 3 0.500583 0.362234 0.0815614
671 4 0.4279 0.350726 0.0773098
1304 4 0.425817 0.339197 0.999987
313 2 0.0306781 0.440207 0.0820862
552 4 0.0446216 0.466014 0.0506666
314 4 0.0437861 0.45161 0.0641052
550 2 0.042885 0.49081 0.04796
1103 4 0.14143 0.42113 0.0117769
1786 2 0.157189 0.498933 0.0395964
1223 4 0.122908 0.418151 0.00460508
1440 4 0.22192 0.431026 0.0738714
1787 4 0.169726 0.477316 0.0404319
243 4 0.222257 0.446956 0.061963
241 2 0.199783 0.453087 0.0528787
242 4 0.17731 0.459219 0.0437944
271 2 0.262154 0.490068 0.0458711
272 4 0.274145 0.477953 0.0275775
525 4 0.359829 0.43093 0.0527693
523 2 0.343263 0.428672 0.0713612
564 4 0.499907 0.478437 0.0530845
1583 4 0.4872 0.487891 0.0644153
1667 4 0.0453352 0.061518 0.0988548
16 1 0.0106477 0.0661689 0.112471
19 3 0.0172186 0.0534507 0.130733
17 3 0.0261028 0.0635483 0.0956361
1422 4 0.00720616 0.0642909 0.145487
2480 4 0.00330854 0.0833392 0.136404
652 2 0.241992 0.0828952 0.149725
654 4 0.249223 0.0796841 0.126006
1476 4 0.264507 0.0704627 0.115593
1474 2 0.271368 0.0597602 0.0940621
1661 4 0.328447 0.00681292 0.15311
297 4 0.398025 0.0173722 0.127472
295 2 0.407291 0.0283635 0.147929
484 2 0.361525 0.99857 0.139771
485 4 0.381438 0.00539068 0.126276
296 4 0.416558 0.0393549 0.168387
745 2 0.470566 0.0227441 0.119217
746 4 0.450677 0.0303475 0.132325
557 4 0.425532 0.0565873 0.16138
556 2 0.442471 0.0708574 0.149778
747 4 0.490454 0.0151406 0.10611
20 3 0.00956291 0.088157 0.118302
450 4 0.0784715 0.132889 0.132192
2479 2 0.00284893 0.102408 0.15257
448 2 0.0941428 0.125489 0.150215
580 2 0.313161 0.138453 0.142217
581 4 0.301961 0.160808 0.142227
30 3 0.285383 0.169012 0.135765
582 4 0.324361 0.116099 0.142206
758 4 0.344844 0.114132 0.142422
757 2 0.349105 0.105666 0.16556
558 4 0.459409 0.0851276 0.138175
771 4 0.465945 0.103148 0.141524
769 2 0.478743 0.117625 0.157392
338 4 0.0508205 0.257494 0.142253
476 4 0.222227 0.227848 0.145724
475 2 0.23853 0.209607 0.140562
371 4 0.224047 0.219387 0.165106
26 1 0.281507 0.181722 0.154261
477 4 0.254834 0.191366 0.135399
29 3 0.259141 0.187839 0.155119
27 3 0.294387 0.200752 0.153211
630 4 0.400216 0.245136 0.122983
756 4 0.358301 0.234328 0.162215
629 4 0.443339 0.233886 0.145667
628 2 0.421778 0.239511 0.134325
624 4 0.461036 0.232312 0.154461
337 2 0.0557222 0.26412 0.16586
294 4 0.0981585 0.303874 0.0793062
279 4 0.257696 0.277493 0.147614
611 4 0.242991 0.290802 0.0867913
278 4 0.244294 0.300537 0.105305
277 2 0.250995 0.289015 0.126459
254 4 0.382422 0.255838 0.119941
255 4 0.347271 0.248737 0.154794
253 2 0.364847 0.252287 0.137367
619 2 0.0228741 0.353138 0.159025
620 4 0.0396657 0.365505 0.14523
621 4 0.00608242 0.340771 0.172819
2786 4 0.00119506 0.394011 0.119442
454 2 0.112731 0.337745 0.0894264
455 4 0.126783 0.358213 0.0864634
537 4 0.116633 0.404855 0.134064
535 2 0.117414 0.390088 0.113902
536 4 0.118195 0.37532 0.0937401
647 4 0.105946 0.417345 0.145086
646 2 0.097203 0.403957 0.164309
1438 2 0.225503 0.409936 0.0868161
625 2 0.227828 0.379093 0.133671
627 4 0.241532 0.385048 0.113623
1439 4 0.229087 0.388846 0.0997608
626 4 0.214125 0.373137 0.153719
386 4 0.316718 0.353464 0.0887746
385 2 0.32359 0.368825 0.107267
387 4 0.330461 0.384187 0.12576
302 4 0.318644 0.399006 0.13214
12 3 0.381454 0.37304 0.122828
11 1 0.370625 0.39223 0.129434
15 3 0.348711 0.387482 0.133421
672 4 0.390656 0.365854 0.107055
13 3 0.380642 0.400214 0.148781
14 3 0.372355 0.408021 0.112521
670 2 0.409278 0.35829 0.0921825
315 4 0.0175701 0.428803 0.100067
1618 2 0.141688 0.490055 0.109251
1431 4 0.161004 0.485542 0.143709
1620 4 0.149917 0.476869 0.128837
1619 4 0.13346 0.503241 0.089665
1574 4 0.232096 0.47382 0.152453
639 4 0.241174 0.46681 0.135372
1573 2 0.230119 0.493164 0.168172
524 4 0.326698 0.426413 0.0899532
301 2 0.310521 0.422354 0.128387
251 4 0.307591 0.427026 0.0889226
638 4 0.290209 0.45715 0.137103
637 2 0.265691 0.46198 0.136238
303 4 0.302398 0.445702 0.124634
495 4 0.366275 0.425076 0.104589
1559 4 0.366896 0.475391 0.141474
493 2 0.372377 0.44664 0.115676
494 4 0.378479 0.468204 0.126763
1582 2 0.488107 0.492451 0.0889827
1420 2 0.00153531 0.0465665 0.162186
1404 4 0.0645342 0.992462 0.241413
688 2 0.159559 0.0246993 0.216964
690 4 0.151272 0.0374417 0.236816
674 4 0.134396 0.0778047 0.240738
689 4 0.167846 0.0119569 0.197111
1506 4 0.234607 0.0165284 0.196502
1505 4 0.185292 0.0144797 0.188464
1504 2 0.20995 0.015504 0.192483
22 3 0.371424 0.056132 0.211164
698 4 0.391062 0.0585179 0.216736
697 2 0.399186 0.0357192 0.223013
699 4 0.40731 0.0129206 0.22929
333 4 0.402616 0.0743808 0.218445
21 1 0.370336 0.0788089 0.207459
742 2 0.497985 0.0108419 0.246001
2481 4 0.00238932 0.121476 0.168737
511 2 0.0079736 0.133816 0.202454
513 4 0.0226707 0.147148 0.217667
578 4 0.0399396 0.152633 0.223631
236 4 0.127455 0.125649 0.172285
449 4 0.109814 0.11809 0.168238
235 2 0.151813 0.120004 0.172162
673 2 0.128143 0.101235 0.234646
675 4 0.12189 0.124665 0.228554
546 4 0.124976 0.140455 0.240056
237 4 0.17617 0.114359 0.172039
653 4 0.23476 0.0861064 0.173444
693 4 0.243563 0.093235 0.192032
691 2 0.265003 0.0959141 0.204616
1701 4 0.300015 0.107355 0.229952
692 4 0.286442 0.0985932 0.217199
1699 2 0.32081 0.101177 0.21752
25 3 0.367119 0.0826336 0.18524
23 3 0.352634 0.0875593 0.219643
1700 4 0.341605 0.0950003 0.205087
759 4 0.353366 0.097201 0.188698
24 3 0.390258 0.0885008 0.214358
770 4 0.491541 0.132102 0.17326
349 2 0.480804 0.0886139 0.222919
331 2 0.423315 0.0848661 0.22776
350 4 0.459075 0.100507 0.226324
332 4 0.444014 0.0953514 0.237075
312 4 0.482925 0.141018 0.189247
310 2 0.485131 0.146792 0.213475
311 4 0.487338 0.152566 0.237703
577 2 0.0430665 0.174289 0.235732
529 2 0.0176492 0.242033 0.239796
579 4 0.0461933 0.195945 0.247832
361 2 0.169678 0.249791 0.222701
363 4 0.144935 0.250093 0.226289
362 4 0.194421 0.249489 0.219113
370 2 0.210884 0.23127 0.182734
372 4 0.19772 0.243152 0.200361
28 3 0.287211 0.169848 0.173363
284 4 0.267313 0.239895 0.1898
754 2 0.357609 0.219018 0.181972
755 4 0.356917 0.203709 0.201729
339 4 0.0606239 0.270745 0.189466
704 4 0.0452996 0.282985 0.19537
703 2 0.0327012 0.304167 0.199589
705 4 0.0201029 0.325349 0.203807
2615 4 0.00514539 0.334419 0.213881
395 4 0.13744 0.265936 0.234771
285 4 0.258899 0.283179 0.166212
283 2 0.263106 0.261537 0.178006
542 4 0.412728 0.316506 0.207926
541 2 0.406992 0.329267 0.228649
622 2 0.465962 0.25349 0.166807
528 4 0.418701 0.311066 0.18848
526 2 0.441623 0.30108 0.188386
623 4 0.470887 0.274668 0.179152
527 4 0.464546 0.291094 0.188292
262 2 0.033634 0.415651 0.223035
300 4 0.0682406 0.390376 0.184235
264 4 0.0162823 0.41004 0.205929
298 2 0.0666489 0.376088 0.204692
299 4 0.0650572 0.3618 0.225149
750 4 0.0626613 0.350671 0.241752
648 4 0.0884601 0.390569 0.183532
734 4 0.146658 0.382389 0.221988
733 2 0.14293 0.397257 0.241742
645 4 0.377648 0.416211 0.161225
597 4 0.35791 0.399631 0.174067
345 4 0.357547 0.362314 0.220314
596 4 0.341848 0.366965 0.208355
595 2 0.349879 0.383298 0.191211
343 2 0.361153 0.36023 0.244968
263 4 0.0509857 0.421262 0.240141
1429 2 0.170034 0.472263 0.162874
1430 4 0.179065 0.458983 0.182038
416 4 0.190374 0.430007 0.242563
417 4 0.174435 0.449975 0.199576
415 2 0.182405 0.439991 0.221069
438 4 0.28401 0.446034 0.229434
436 2 0.294278 0.461705 0.245992
660 4 0.336549 0.459866 0.186819
659 4 0.357728 0.419214 0.166829
643 2 0.400843 0.418044 0.170382
658 2 0.347139 0.43954 0.176824
231 4 0.338561 0.47934 0.191842
229 2 0.356718 0.495755 0.196948
644 4 0.424037 0.419878 0.179538
447 4 0.438328 0.430687 0.187224
445 2 0.440314 0.434743 0.211816
446 4 0.4423 0.438799 0.236409
233 4 0.0277507 0.0290396 0.279162
232 2 0.0396569 0.0434289 0.295786
234 4 0.0515632 0.0578182 0.312411
317 4 0.055679 0.0737409 0.322678
1403 4 0.0265216 0.0153117 0.264514
1402 2 0.0455279 0.00388698 0.252963
722 4 0.15025 0.0813173 0.253553
1340 4 0.232877 0.00559471 0.29347
723 4 0.178198 0.0815407 0.295021
721 2 0.164224 0.081429 0.274287
1405 2 0.207652 0.0379058 0.306843
1406 4 0.19909 0.0595871 0.315886
1407 4 0.216215 0.0162245 0.2978
599 4 0.181586 0.0677193 0.309377
1748 4 0.455226 0.00964947 0.330077
743 4 0.485946 0.0260462 0.261783
425 4 0.471233 0.0391909 0.26244
424 2 0.47527 0.0552889 0.281142
426 4 0.479306 0.0713868 0.299843
258 4 0.498781 0.0796735 0.29816
316 2 0.0763692 0.0869015 0.327566
318 4 0.0970593 0.100062 0.332454
544 2 0.105868 0.147162 0.254722
392 4 0.0955271 0.146612 0.285302
545 4 0.0867606 0.15387 0.269387
391 2 0.0933171 0.148742 0.310117
404 4 0.240977 0.156206 0.28572
598 2 0.181496 0.0830055 0.329163
256 2 0.490522 0.0969806 0.314204
530 4 0.0311659 0.234546 0.259454
444 4 0.0473068 0.234023 0.270753
442 2 0.0683126 0.245999 0.264388
403 2 0.225967 0.175673 0.281145
405 4 0.210957 0.19514 0.276571
401 4 0.193681 0.201365 0.269951
400 2 0.189987 0.225218 0.276472
402 4 0.186292 0.249072 0.282993
717 4 0.394533 0.224105 0.325647
715 2 0.389385 0.199972 0.321614
716 4 0.384236 0.175839 0.317582
419 4 0.368756 0.173921 0.330095
763 2 0.4491 0.1923 0.297577
765 4 0.458897 0.183449 0.276343
764 4 0.439303 0.201151 0.31881
443 4 0.0893184 0.257974 0.258022
394 2 0.120634 0.259427 0.252102
396 4 0.103828 0.252919 0.269433
378 4 0.398718 0.285736 0.325292
365 4 0.996714 0.385689 0.313227
366 4 0.0419523 0.366447 0.304066
749 4 0.0402937 0.363464 0.284609
364 2 0.0193331 0.376068 0.308647
748 2 0.0514775 0.357068 0.263181
777 4 0.0415564 0.428989 0.316616
290 4 0.182103 0.411961 0.245937
289 2 0.195031 0.401483 0.264599
291 4 0.207959 0.391005 0.28326
414 4 0.226076 0.398826 0.28953
412 2 0.234533 0.406615 0.311733
727 2 0.312372 0.394165 0.311773
729 4 0.326308 0.373613 0.314698
308 4 0.342312 0.364081 0.323466
543 4 0.401257 0.342028 0.249373
307 2 0.358815 0.362232 0.304774
344 4 0.364759 0.358147 0.269622
309 4 0.375318 0.360383 0.286081
615 4 0.41723 0.340192 0.260573
2860 2 0.499905 0.408251 0.267954
614 4 0.451056 0.349729 0.296147
613 2 0.434143 0.344961 0.27836
2862 4 0.484036 0.42039 0.282987
2923 2 0.483657 0.368285 0.311317
2925 4 0.470257 0.350062 0.300663
2924 4 0.497056 0.386509 0.321972
775 2 0.0576467 0.43603 0.298819
602 4 0.0513959 0.428782 0.334868
776 4 0.073737 0.44307 0.281023
1757 4 0.0857404 0.458379 0.286784
735 4 0.139201 0.412125 0.261496
677 4 0.146288 0.429704 0.257796
1756 2 0.0868889 0.483239 0.289195
1775 4 0.147307 0.489769 0.324537
676 2 0.159727 0.447681 0.268816
678 4 0.173165 0.465657 0.279835
768 4 0.189489 0.460482 0.270509
766 2 0.204335 0.477605 0.259946
635 4 0.180851 0.485722 0.321986
634 2 0.190684 0.463821 0.328976
636 4 0.200517 0.441921 0.335966
767 4 0.219181 0.494729 0.249384
728 4 0.298436 0.414718 0.308848
437 4 0.304547 0.477376 0.26255
433 2 0.301017 0.453186 0.29981
435 4 0.305253 0.470632 0.282407
434 4 0.296781 0.43574 0.317213
2 3 0.29515 0.417794 0.330058
713 4 0.469753 0.437542 0.282725
714 4 0.430301 0.44195 0.252314
120 3 0.482091 0.434573 0.301338
116 1 0.492554 0.428636 0.320675
117 3 0.509048 0.443965 0.32538
712 2 0.450027 0.439746 0.26752
730 2 0.0788579 0.0721474 0.38448
731 4 0.0747473 0.0724327 0.409142
606 4 0.152205 0.0710645 0.352347
604 2 0.12729 0.0715384 0.354392
605 4 0.102375 0.0720123 0.356438
732 4 0.0829684 0.0718622 0.359819
321 4 0.246133 0.067791 0.384383
683 4 0.253868 0.0485338 0.383712
249 4 0.310786 0.0230604 0.356729
684 4 0.29173 0.0226826 0.363739
682 2 0.272799 0.0356082 0.373725
247 2 0.331651 0.0230535 0.370507
248 4 0.352515 0.0230466 0.384286
633 4 0.356153 0.041793 0.378007
631 2 0.368281 0.0568623 0.39385
632 4 0.380409 0.0719317 0.409693
1747 2 0.478963 0.00959382 0.337934
1749 4 0.5027 0.00953816 0.345791
2757 4 0.00774188 0.108807 0.41282
2585 4 0.0102361 0.118417 0.395554
2584 2 0.0297468 0.126815 0.382364
2586 4 0.0492576 0.135213 0.369174
393 4 0.091107 0.150871 0.334931
399 4 0.102445 0.158604 0.350252
397 2 0.107162 0.161676 0.374613
398 4 0.11188 0.164748 0.398975
600 4 0.181407 0.0982917 0.34895
685 2 0.213832 0.122589 0.363199
687 4 0.197629 0.105219 0.355394
686 4 0.230035 0.139959 0.371005
410 4 0.246872 0.143523 0.380213
409 2 0.247696 0.160355 0.398684
319 2 0.250047 0.086147 0.400903
320 4 0.253961 0.104503 0.417423
418 2 0.35101 0.158021 0.337674
420 4 0.333263 0.142121 0.345252
257 4 0.482263 0.114288 0.330249
762 4 0.443356 0.14673 0.364392
760 2 0.453459 0.133177 0.345969
761 4 0.463561 0.119624 0.327545
388 2 0.107901 0.212604 0.398165
274 2 0.159523 0.194632 0.36192
276 4 0.137606 0.194626 0.373955
389 4 0.122725 0.198019 0.384283
390 4 0.0930769 0.227189 0.412047
275 4 0.18144 0.194638 0.349886
473 4 0.24426 0.209931 0.344612
474 4 0.199476 0.18768 0.344606
472 2 0.221868 0.198806 0.344609
708 4 0.264225 0.206781 0.344014
707 4 0.300613 0.240352 0.351054
706 2 0.282419 0.223566 0.347534
497 4 0.303542 0.24223 0.371115
496 2 0.323817 0.248055 0.384538
650 4 0.251482 0.19455 0.425296
377 4 0.401741 0.237759 0.339068
2456 4 0.353494 0.246084 0.413646
270 4 0.493946 0.24029 0.374915
617 4 0.0154009 0.264612 0.383665
616 2 0.0268828 0.251105 0.401298
695 4 0.0936861 0.299537 0.388406
1260 4 0.163025 0.338245 0.385011
509 4 0.247123 0.325109 0.403561
488 4 0.250882 0.30476 0.40736
487 2 0.249158 0.28014 0.403353
489 4 0.247434 0.25552 0.399346
498 4 0.344092 0.25388 0.39796
376 2 0.400229 0.261747 0.33218
266 4 0.387312 0.293744 0.338885
265 2 0.377189 0.312075 0.352548
267 4 0.367066 0.330406 0.366211
306 4 0.485092 0.250847 0.389042
304 2 0.478007 0.274368 0.393703
305 4 0.470922 0.29789 0.398365
1011 4 0.475051 0.302621 0.416664
407 4 0.0138772 0.410465 0.417183
1259 4 0.123928 0.362185 0.365033
1258 2 0.143476 0.350215 0.375022
326 4 0.167235 0.338489 0.404866
413 4 0.24299 0.414404 0.333937
508 2 0.23629 0.344412 0.391932
504 4 0.179856 0.383886 0.357902
502 2 0.185584 0.408052 0.355009
510 4 0.225457 0.363715 0.380304
374 4 0.224662 0.382157 0.375702
373 2 0.246264 0.394742 0.376075
375 4 0.267866 0.407328 0.376447
3 3 0.279861 0.417732 0.364393
751 2 0.475145 0.416565 0.379539
752 4 0.478178 0.403731 0.400782
753 4 0.472111 0.429398 0.358295
601 2 0.0591279 0.440738 0.355421
679 2 0.0462941 0.485765 0.387565
406 2 0.0258279 0.431235 0.410046
603 4 0.0668598 0.452694 0.375975
680 4 0.0497564 0.461138 0.390154
408 4 0.0377786 0.452006 0.402909
549 4 0.0691827 0.461617 0.393193
547 2 0.0912743 0.459334 0.404679
1395 4 0.230525 0.483519 0.408191
1820 4 0.242462 0.49607 0.395077
503 4 0.191312 0.432218 0.352115
5 3 0.259176 0.426797 0.334266
669 4 0.306278 0.489396 0.388116
1 1 0.279853 0.428234 0.343702
668 4 0.277721 0.467884 0.353153
4 3 0.285924 0.450499 0.346118
667 2 0.292 0.47864 0.370635
119 3 0.477317 0.428404 0.338172
368 4 0.057387 0.0738688 0.422034
367 2 0.0538753 0.0807527 0.445814
718 2 0.0181698 0.0774777 0.494428
2430 4 0.186625 0.0630013 0.418101
441 4 0.223591 0.0200143 0.448478
2428 2 0.202764 0.0449933 0.424461
2429 4 0.218902 0.0269852 0.430821
341 4 0.18125 0.0652391 0.437921
468 4 0.377253 0.0824224 0.425659
1216 2 0.385885 0.0611625 0.480601
1218 4 0.400001 0.052342 0.461943
2878 2 0.476539 0.00812523 0.449285
2880 4 0.473824 0.0164118 0.425851
642 4 0.473919 0.0360786 0.423517
640 2 0.480341 0.0599067 0.427538
719 4 0.041065 0.0784559 0.484427
369 4 0.0503637 0.0876367 0.469593
1152 4 0.166328 0.114479 0.468809
342 4 0.158054 0.107104 0.452413
1150 2 0.177327 0.123984 0.489152
340 2 0.169652 0.0861713 0.445167
726 4 0.282561 0.119242 0.475951
725 4 0.271047 0.10611 0.429093
724 2 0.276804 0.112676 0.452522
432 4 0.297504 0.119226 0.489506
467 4 0.373121 0.131504 0.434297
466 2 0.375187 0.106963 0.429978
576 4 0.372976 0.151977 0.431244
574 2 0.396649 0.157022 0.424972
641 4 0.486762 0.0837349 0.431558
515 4 0.455497 0.103974 0.429432
514 2 0.44305 0.12563 0.428313
516 4 0.430604 0.147287 0.427194
260 4 0.0686575 0.216966 0.483048
471 4 0.0630472 0.219015 0.464702
469 2 0.0724068 0.215533 0.44178
470 4 0.0817665 0.212051 0.418857
651 4 0.257794 0.240029 0.405485
649 2 0.254638 0.21729 0.415391
411 4 0.24852 0.177187 0.417155
2455 2 0.377917 0.244664 0.418807
2457 4 0.402341 0.243245 0.423969
575 4 0.420321 0.162067 0.4187
618 4 0.0383646 0.237598 0.41893
696 4 0.0910702 0.268325 0.427389
694 2 0.0923781 0.283931 0.407898
585 4 0.317018 0.294523 0.430275
583 2 0.332242 0.27469 0.430407
584 4 0.347467 0.254856 0.430539
1010 4 0.445395 0.324981 0.45015
1009 2 0.460223 0.313801 0.433407
709 2 0.147597 0.410016 0.495862
8 3 0.162598 0.381644 0.485946
711 4 0.150406 0.385982 0.502157
325 2 0.173374 0.348831 0.426787
327 4 0.179514 0.359172 0.448709
7 3 0.189337 0.36721 0.463826
6 1 0.179423 0.365729 0.48453
10 3 0.195078 0.369518 0.500631
9 3 0.170457 0.344477 0.487051
803 4 0.272692 0.355521 0.495626
1190 4 0.259733 0.366751 0.484455
802 2 0.287606 0.335473 0.494706
238 2 0.371793 0.399161 0.488278
239 4 0.364927 0.381916 0.505031
2507 4 0.435579 0.333313 0.465125
561 4 0.488871 0.400598 0.417809
559 2 0.47185 0.397856 0.435918
560 4 0.454828 0.395115 0.454027
2506 2 0.443157 0.357114 0.466239
2508 4 0.450735 0.380916 0.467352
927 4 0.495868 0.367665 0.486456
1381 2 0.00690481 0.458218 0.466231
1382 4 0.0158221 0.455684 0.489452
1383 4 0.997988 0.460753 0.443009
570 4 0.130599 0.430348 0.477068
568 2 0.122428 0.438714 0.454968
548 4 0.113366 0.457051 0.416164
569 4 0.114257 0.447079 0.432868
710 4 0.144787 0.434051 0.489568
1394 4 0.244108 0.481565 0.456278
1393 2 0.237316 0.482542 0.432234
1401 4 0.32195 0.467195 0.425026
1399 2 0.318321 0.487983 0.438437
1446 4 0.249188 0.492175 0.473341
586 2 0.320079 0.504454 0.489952
1444 2 0.269074 0.483395 0.485695
1400 4 0.314691 0.508772 0.451848
1445 4 0.28896 0.474615 0.49805
334 2 0.350188 0.444248 0.450491
336 4 0.337283 0.461011 0.437162
335 4 0.363092 0.427485 0.463819
240 4 0.378659 0.416405 0.471525
1032 4 0.103524 0.0747609 0.56968
1154 4 0.101541 0.0560548 0.577547
1030 2 0.122994 0.0829569 0.556303
1180 2 0.22207 0.0637858 0.540838
1182 4 0.198731 0.0716713 0.536564
950 4 0.193192 0.0750732 0.5176
949 2 0.169084 0.0755451 0.524215
1181 4 0.24541 0.0559003 0.545112
961 2 0.265429 0.0324127 0.565933
843 4 0.32971 0.0851999 0.533326
963 4 0.263917 0.0544874 0.554288
962 4 0.266941 0.0103379 0.577577
841 2 0.352529 0.0781872 0.525891
842 4 0.375349 0.0711745 0.518455
1217 4 0.37177 0.069983 0.499259
1033 2 0.0697568 0.161896 0.538927
1035 4 0.0689308 0.143918 0.556285
1082 4 0.0620687 0.146019 0.574962
1031 4 0.142464 0.0911529 0.542927
951 4 0.144976 0.0760169 0.53083
939 4 0.178895 0.14743 0.520229
1151 4 0.188325 0.13349 0.509496
431 4 0.315817 0.0829487 0.518648
430 2 0.30666 0.101088 0.504077
858 4 0.306776 0.157076 0.583656
857 4 0.354897 0.144503 0.588853
899 4 0.372709 0.143366 0.597945
898 2 0.386151 0.155334 0.580588
856 2 0.330836 0.150789 0.586254
1034 4 0.0705828 0.179874 0.52157
261 4 0.0567483 0.175359 0.508102
3045 4 0.0292022 0.213385 0.583387
3043 2 0.0119849 0.230723 0.578081
259 2 0.0627029 0.196162 0.495575
1270 2 0.115128 0.232419 0.558218
1272 4 0.100094 0.250541 0.549807
1271 4 0.130163 0.214297 0.566629
909 4 0.141152 0.226311 0.57831
937 2 0.19254 0.163082 0.534157
938 4 0.206186 0.178733 0.548085
900 4 0.399592 0.167302 0.563231
872 4 0.402996 0.187343 0.559564
873 4 0.371538 0.225949 0.56411
871 2 0.387267 0.206646 0.561837
811 2 0.347123 0.244898 0.581651
879 4 0.0866718 0.240399 0.539309
878 4 0.0524413 0.264086 0.511597
877 2 0.0695565 0.252243 0.525453
929 4 0.320482 0.305453 0.499919
804 4 0.30252 0.315426 0.493786
813 4 0.369294 0.245786 0.570126
1204 2 0.390319 0.303546 0.560462
1206 4 0.371754 0.305306 0.543806
1205 4 0.408884 0.301786 0.577118
930 4 0.353977 0.311888 0.536489
928 2 0.337229 0.308671 0.518204
954 4 0.422844 0.301002 0.591228
983 4 0.0510189 0.391431 0.542555
982 2 0.0271486 0.39223 0.549954
1041 4 0.0660948 0.396445 0.553459
1039 2 0.0762192 0.402509 0.575502
895 2 0.198433 0.389954 0.533644
896 4 0.201601 0.388355 0.508894
897 4 0.195265 0.391552 0.558395
1191 4 0.215478 0.36998 0.507515
1189 2 0.237605 0.368365 0.495985
1137 4 0.197623 0.40351 0.57451
1001 4 0.470415 0.37833 0.543804
926 4 0.477633 0.388638 0.528029
925 2 0.486751 0.378152 0.507243
1000 2 0.468401 0.391592 0.564905
539 4 0.0622409 0.449904 0.530873
538 2 0.0412879 0.446559 0.517645
936 4 0.0345426 0.508897 0.577918
540 4 0.0203348 0.443215 0.504418
882 4 0.286371 0.457559 0.554947
880 2 0.294254 0.468249 0.533763
881 4 0.302136 0.478939 0.512579
587 4 0.315606 0.492858 0.511648
1172 4 0.27659 0.45775 0.572209
1454 4 0.335072 0.48864 0.514858
1453 2 0.349328 0.489146 0.535393
1455 4 0.363585 0.489651 0.555928
1002 4 0.466386 0.404854 0.586006
1185 4 0.00875016 0.0331149 0.660925
945 4 0.0244793 0.045703 0.656517
1057 2 0.0933444 0.0377286 0.649425
1155 4 0.0970056 0.0681978 0.625845
1059 4 0.0842275 0.0552034 0.63404
1153 2 0.0992732 0.0621263 0.601696
1058 4 0.102461 0.0202537 0.66481
1142 4 0.394605 0.0793452 0.628992
44 3 0.477237 0.0499735 0.639371
41 1 0.494003 0.0528058 0.623583
43 3 0.490139 0.0389762 0.605356
45 3 0.494725 0.0745431 0.616829
2282 4 0.490787 0.0222085 0.617937
1081 2 0.0439312 0.154968 0.589662
1083 4 0.0257937 0.163918 0.604363
1199 4 0.00956257 0.1569 0.611845
1221 4 0.143719 0.125917 0.610228
1219 2 0.160802 0.128952 0.628232
1220 4 0.177884 0.131988 0.646237
1212 4 0.191036 0.138793 0.632942
1210 2 0.213279 0.14243 0.643769
1211 4 0.235522 0.146066 0.654595
888 4 0.245176 0.128101 0.660512
1003 2 0.306962 0.0866593 0.631991
1004 4 0.282837 0.0802503 0.633435
887 4 0.278783 0.0927421 0.649513
886 2 0.26198 0.110422 0.655013
1005 4 0.331087 0.0930682 0.630546
1141 2 0.386425 0.0975551 0.644048
1025 4 0.378196 0.13599 0.65874
1024 2 0.39406 0.155172 0.661096
1143 4 0.378245 0.115765 0.659104
808 2 0.496984 0.105094 0.584722
810 4 0.496875 0.0917225 0.60585
907 2 0.155627 0.240353 0.593091
797 4 0.301923 0.177352 0.584096
796 2 0.30935 0.201078 0.586761
798 4 0.316778 0.224803 0.589426
812 4 0.324951 0.244009 0.593175
906 4 0.489927 0.224808 0.619354
904 2 0.466004 0.23195 0.617973
905 4 0.442082 0.239091 0.616591
3044 4 0.994768 0.24806 0.572776
893 4 0.135332 0.322635 0.648019
908 4 0.170101 0.254395 0.607872
947 4 0.188964 0.255735 0.617233
946 2 0.208244 0.261813 0.631947
948 4 0.227525 0.267891 0.646661
1065 4 0.23025 0.278744 0.663402
1239 4 0.274925 0.267898 0.60687
1237 2 0.299442 0.270013 0.611302
1238 4 0.323958 0.272128 0.615733
792 4 0.34064 0.281255 0.620602
790 2 0.34087 0.305866 0.625009
791 4 0.341099 0.330477 0.629417
953 4 0.434786 0.254345 0.604692
952 2 0.428815 0.277674 0.59796
1281 4 0.0817636 0.367752 0.642827
1279 2 0.0712044 0.38125 0.661034
894 4 0.0957949 0.353234 0.649134
991 2 0.117434 0.409305 0.610956
992 4 0.141388 0.404761 0.605412
892 2 0.115563 0.337935 0.648576
1040 4 0.0863437 0.408573 0.597545
993 4 0.09348 0.41385 0.6165
1136 4 0.150478 0.412065 0.588824
1135 2 0.17405 0.407787 0.581667
1029 4 0.250588 0.414837 0.659565
1910 4 0.458545 0.422989 0.590617
2243 4 0.164609 0.484881 0.590447
1161 4 0.183338 0.488136 0.598812
1159 2 0.200576 0.470864 0.593359
1160 4 0.217813 0.453592 0.587906
1173 4 0.232864 0.463204 0.595853
1139 4 0.264144 0.424859 0.671398
1171 2 0.254727 0.460477 0.584031
891 4 0.363827 0.508624 0.629471
890 4 0.396523 0.483329 0.657611
889 2 0.380175 0.495976 0.643541
1909 2 0.455094 0.42978 0.614432
1911 4 0.451644 0.436572 0.638247
1267 2 0.423197 0.459135 0.649441
1268 4 0.435703 0.445689 0.63247
1269 4 0.410691 0.472581 0.666411
943 2 0.0442833 0.0555874 0.668148
944 4 0.0640873 0.0654717 0.679779
1075 2 0.0776927 0.0640789 0.71969
1076 4 0.0631023 0.0705587 0.700446
1282 2 0.146833 0.0740003 0.740788
1077 4 0.092283 0.057599 0.738933
1283 4 0.141552 0.0499916 0.745356
831 4 0.35363 0.0794362 0.675381
32 3 0.0987583 0.139247 0.728904
1284 4 0.152115 0.098009 0.73622
31 1 0.0986099 0.155605 0.745076
1129 2 0.154638 0.144603 0.743693
1131 4 0.142342 0.165165 0.750849
1130 4 0.166933 0.124041 0.736536
1227 4 0.174698 0.102403 0.735821
830 4 0.331406 0.108474 0.709493
829 2 0.342518 0.0939549 0.692437
850 2 0.00148654 0.206403 0.724519
851 4 0.0102743 0.184016 0.731358
1105 2 0.0476127 0.176412 0.748076
1107 4 0.0267703 0.18862 0.741615
852 4 0.992699 0.22879 0.717679
35 3 0.0827732 0.17113 0.739897
822 4 0.123883 0.220188 0.731933
1278 4 0.143733 0.224214 0.727305
1276 2 0.150801 0.201227 0.734146
820 2 0.113266 0.237662 0.717541
1277 4 0.15787 0.17824 0.740987
977 4 0.324776 0.199318 0.728116
918 4 0.32611 0.198337 0.708427
976 2 0.30525 0.198443 0.743708
916 2 0.328122 0.219746 0.695667
1026 4 0.409924 0.174354 0.663452
917 4 0.330134 0.241154 0.682907
1261 2 0.446758 0.24579 0.74443
1263 4 0.443936 0.221188 0.747885
1208 4 0.0820988 0.259029 0.702922
1207 2 0.0625297 0.257126 0.718369
1209 4 0.0429607 0.255222 0.733816
1243 2 0.00664468 0.305138 0.711185
3188 4 0.0298694 0.25882 0.748739
1244 4 0.00423075 0.32506 0.7261
821 4 0.102649 0.255136 0.70315
1240 2 0.243421 0.31262 0.741994
1241 4 0.251806 0.320806 0.719906
1063 2 0.249422 0.284051 0.67855
1064 4 0.268594 0.289357 0.693698
1098 4 0.286226 0.280441 0.694399
1096 2 0.308476 0.270545 0.688728
1097 4 0.330727 0.260649 0.683056
1008 4 0.344563 0.280557 0.744072
3121 2 0.490511 0.269705 0.680702
3123 4 0.481548 0.286833 0.696559
3275 4 0.0547598 0.400807 0.697115
1280 4 0.0606452 0.394747 0.679241
3274 2 0.0683189 0.393614 0.716853
3276 4 0.0818779 0.38642 0.736591
940 2 0.166702 0.379857 0.72206
942 4 0.155688 0.386989 0.743344
1027 2 0.24341 0.392318 0.667723
941 4 0.177715 0.372726 0.700775
1028 4 0.236233 0.369799 0.675881
1068 4 0.229765 0.351155 0.677529
1067 4 0.189388 0.358014 0.706224
1066 2 0.209576 0.354584 0.691877
1228 2 0.312019 0.388419 0.727157
1230 4 0.307994 0.366765 0.738994
1229 4 0.316043 0.410073 0.715321
2021 4 0.021886 0.473905 0.696602
1981 2 0.034499 0.498092 0.730472
2020 2 0.00433374 0.46933 0.679393
1983 4 0.0312864 0.480473 0.713023
1138 2 0.281575 0.432918 0.68741
1140 4 0.299006 0.440976 0.703423
1989 4 0.291615 0.432893 0.720662
1987 2 0.292658 0.445821 0.742039
1100 4 0.447567 0.485376 0.725845
1250 4 0.454573 0.485054 0.743472
862 2 0.0735379 0.0820857 0.808754
1203 4 0.084088 0.0493488 0.755317
2047 2 0.156073 0.0209212 0.757992
864 4 0.0918007 0.0721525 0.822646
1201 2 0.104846 0.0430751 0.767764
2049 4 0.138084 0.0375374 0.76304
1202 4 0.125604 0.0368014 0.780212
911 4 0.0901865 0.056082 0.833636
2048 4 0.174061 0.00430495 0.752944
1113 4 0.469977 0.00377659 0.767466
846 4 0.486747 0.00835805 0.758169
863 4 0.0552751 0.0920189 0.794863
1106 4 0.0684551 0.164204 0.754537
832 2 0.0653438 0.130501 0.780799
833 4 0.0562761 0.111495 0.79428
834 4 0.0744115 0.149507 0.767318
33 3 0.093739 0.145857 0.765561
34 3 0.11954 0.165594 0.745834
1073 4 0.127232 0.165162 0.767926
1225 2 0.194569 0.100329 0.750855
1226 4 0.21444 0.0982538 0.765889
840 4 0.217881 0.111049 0.781798
838 2 0.230709 0.130962 0.789803
839 4 0.243538 0.150875 0.797807
819 4 0.320793 0.104043 0.829227
1085 4 0.313862 0.119539 0.818262
1084 2 0.324262 0.142276 0.81819
959 4 0.252835 0.167561 0.792187
817 2 0.342862 0.0926255 0.826441
818 4 0.364932 0.0812079 0.823656
965 4 0.376606 0.0973725 0.826914
964 2 0.401417 0.0993891 0.824561
1299 4 0.343686 0.172346 0.803036
966 4 0.426228 0.101406 0.822209
3268 2 0.496901 0.155879 0.809523
1038 4 0.423905 0.121653 0.822368
1036 2 0.446571 0.132128 0.823674
1037 4 0.469237 0.142603 0.824979