ITEM: TIMESTEP
4530000
ITEM: NUMBER OF ATOMS
4590
ITEM: BOX BOUNDS pp pp pp
-9.9985700000000008e+00 9.9985700000000008e+00
-9.9985700000000008e+00 9.9985700000000008e+00
-9.9985700000000008e+00 9.9985700000000008e+00
ITEM: ATOMS id type xs ys zs
1668 4 0.0840459 0.0447791 0.0694191
465 4 0.030828 0.0632323 0.0209256
701 4 0.0229732 0.0795173 0.0261778
3290 4 0.0788833 0.0284569 0.0583874
3289 2 0.0974012 0.0173415 0.0457892
3291 4 0.115919 0.00622615 0.0331911
985 2 0.325958 0.0478999 0.0126715
491 4 0.316281 0.0218863 0.0608189
986 4 0.306363 0.0630206 0.00912494
1475 4 0.301275 0.0350676 0.0637893
987 4 0.345553 0.0327792 0.016218
2144 4 0.358272 0.0312542 0.000802108
700 2 0.0188518 0.102897 0.0183303
555 4 0.0283472 0.127053 0.995983
2264 4 0.296429 0.0795551 0.010825
462 4 0.306928 0.165633 0.0647365
2723 4 0.487573 0.157965 0.0633074
2722 2 0.499894 0.136803 0.0582527
657 4 0.00961019 0.232459 0.0473283
2808 4 0.0286767 0.232699 0.0555944
422 4 0.0902585 0.221773 0.00735616
507 4 0.111924 0.232877 0.0709381
358 2 0.240135 0.171193 0.0187446
352 2 0.238071 0.209123 0.0620371
354 4 0.220884 0.225051 0.0707603
359 4 0.245124 0.17898 0.0419748
461 4 0.258656 0.178393 0.0675005
460 2 0.282792 0.172013 0.0661185
353 4 0.255257 0.193195 0.0533139
665 4 0.334418 0.168023 0.00182195
2806 2 0.0339327 0.256778 0.0598099
2807 4 0.0391887 0.280857 0.0640253
913 2 0.147078 0.279287 0.00615405
292 2 0.106207 0.276627 0.069695
293 4 0.109045 0.251827 0.0682547
456 4 0.111612 0.316342 0.0613444
914 4 0.152302 0.290731 0.0277627
287 4 0.164372 0.292786 0.0428012
294 4 0.10337 0.301427 0.0711353
454 2 0.112655 0.335139 0.0777992
286 2 0.169624 0.315927 0.0506802
611 4 0.285269 0.303649 0.0847417
481 2 0.285073 0.31304 0.997626
482 4 0.309975 0.311432 0.999192
572 4 0.32397 0.320128 0.0101899
1071 4 0.387083 0.295409 0.00352047
571 2 0.346923 0.310276 0.0113161
1056 4 0.0660849 0.334908 0.999006
1170 4 0.0701296 0.354263 0.000397753
989 4 0.152346 0.396148 0.0379006
1104 4 0.156435 0.41468 0.0460294
288 4 0.174876 0.339068 0.0585592
988 2 0.16157 0.372985 0.0397905
990 4 0.170795 0.349822 0.0416803
243 4 0.227698 0.419904 0.0413858
1438 2 0.206405 0.399854 0.0696015
1440 4 0.209766 0.416303 0.0510733
241 2 0.252546 0.42055 0.0386774
741 4 0.288464 0.371318 0.0457048
739 2 0.31106 0.366738 0.0553809
740 4 0.333656 0.362158 0.0650571
242 4 0.277394 0.421195 0.0359689
1305 4 0.392862 0.399486 0.0282622
1303 2 0.398196 0.387421 0.00702156
227 4 0.396437 0.405098 0.047579
386 4 0.33592 0.374493 0.0805685
314 4 0.0255187 0.43535 0.0559921
550 2 0.00137785 0.465633 0.0453326
552 4 0.0161374 0.445706 0.0421304
313 2 0.0317204 0.434252 0.0801895
1102 2 0.159351 0.432379 0.0286103
1786 2 0.139321 0.475912 0.0679644
1103 4 0.162267 0.450078 0.0111911
1787 4 0.147292 0.452221 0.0673613
1222 2 0.131876 0.477185 0.00276082
1619 4 0.162311 0.448013 0.0800493
1223 4 0.145653 0.456397 0.000965912
251 4 0.303717 0.456333 0.0791033
523 2 0.338379 0.457606 0.0654825
226 2 0.385741 0.427671 0.0464703
228 4 0.375046 0.450244 0.0453616
525 4 0.354266 0.455056 0.046344
1583 4 0.498605 0.488787 0.0466653
1666 2 0.0613829 0.0457939 0.0799326
1667 4 0.0387198 0.0468087 0.0904461
19 3 0.0171404 0.0310204 0.130564
17 3 0.0192424 0.0472795 0.0967427
1422 4 0.0100562 0.0394289 0.14697
16 1 0.00711863 0.0463036 0.116267
2480 4 0.00961608 0.0603979 0.145372
20 3 0.00678797 0.0669232 0.12593
1504 2 0.126364 0.0466036 0.16592
1506 4 0.116107 0.0520242 0.14377
653 4 0.245604 0.0731877 0.154555
1661 4 0.334399 0.0190681 0.144809
1474 2 0.284647 0.0400406 0.0817883
1476 4 0.268019 0.0450137 0.0997872
486 4 0.328091 0.0362608 0.136043
654 4 0.251913 0.0522054 0.109603
652 2 0.248759 0.0626965 0.132079
484 2 0.345903 0.0335763 0.118702
297 4 0.37473 0.0145882 0.106375
295 2 0.399007 0.017135 0.11179
485 4 0.363714 0.0308919 0.101361
296 4 0.423283 0.0196819 0.117206
746 4 0.441608 0.014038 0.123993
745 2 0.448472 0.995932 0.108173
2479 2 0.0129349 0.0829947 0.155548
2481 4 0.0162538 0.105592 0.165724
450 4 0.0868505 0.10939 0.153132
512 4 0.011962 0.125267 0.171057
448 2 0.108423 0.104933 0.164961
580 2 0.321102 0.149077 0.149706
581 4 0.306341 0.169223 0.148512
582 4 0.335863 0.128931 0.150901
758 4 0.349247 0.119498 0.139973
757 2 0.34717 0.102076 0.157787
557 4 0.444308 0.0789078 0.115591
556 2 0.45175 0.0965142 0.13171
558 4 0.459192 0.114121 0.147829
505 2 0.130209 0.227556 0.0871412
506 4 0.148493 0.222235 0.103344
737 4 0.164616 0.211323 0.107938
736 2 0.183759 0.216416 0.0926814
738 4 0.202903 0.22151 0.0774247
475 2 0.225873 0.209796 0.159346
476 4 0.20261 0.218284 0.155888
30 3 0.292723 0.183446 0.149527
477 4 0.249136 0.201307 0.162804
253 2 0.348559 0.213015 0.159742
628 2 0.411932 0.22101 0.145429
254 4 0.371472 0.213804 0.149766
630 4 0.391474 0.209536 0.154091
629 4 0.43239 0.232483 0.136768
338 4 0.0510683 0.287458 0.11842
337 2 0.0356384 0.284775 0.137911
339 4 0.0202085 0.282091 0.157402
704 4 0.0028576 0.2898 0.164904
610 2 0.271078 0.324189 0.0833672
278 4 0.282103 0.287465 0.0965813
279 4 0.296746 0.270092 0.141128
277 2 0.289424 0.278779 0.118855
285 4 0.306823 0.285502 0.149213
624 4 0.431252 0.251608 0.145004
622 2 0.446317 0.264483 0.160251
623 4 0.461382 0.277358 0.175498
315 4 0.0379221 0.433154 0.104387
455 4 0.113697 0.353936 0.0942539
647 4 0.118209 0.386451 0.152024
537 4 0.123783 0.392011 0.134564
535 2 0.120715 0.382688 0.111567
536 4 0.117648 0.373366 0.0885699
625 2 0.225695 0.389868 0.125513
627 4 0.213848 0.382034 0.104936
1439 4 0.203044 0.383404 0.0881298
626 4 0.237542 0.397703 0.146091
612 4 0.256886 0.344729 0.0819927
609 4 0.270886 0.355064 0.0943883
608 4 0.266339 0.404792 0.0917075
607 2 0.268613 0.379928 0.0930479
385 2 0.339571 0.386965 0.101929
387 4 0.343223 0.399438 0.12329
12 3 0.386783 0.374747 0.142712
11 1 0.380586 0.396754 0.145245
15 3 0.358771 0.399153 0.139161
672 4 0.402184 0.374468 0.128185
302 4 0.338558 0.410036 0.142771
14 3 0.39407 0.409947 0.131734
495 4 0.398497 0.429581 0.127868
671 4 0.451446 0.371273 0.120204
670 2 0.426815 0.37287 0.124195
281 4 0.458256 0.355729 0.111312
280 2 0.480656 0.357398 0.100328
1618 2 0.163786 0.44039 0.103817
1431 4 0.186468 0.454848 0.140252
1429 2 0.188453 0.433179 0.152569
1620 4 0.165262 0.432767 0.127585
1574 4 0.233233 0.491851 0.129394
1573 2 0.212828 0.481667 0.139645
1575 4 0.192423 0.471482 0.149896
1430 4 0.190438 0.41151 0.164885
524 4 0.322492 0.460156 0.0846211
250 2 0.287427 0.440044 0.088822
252 4 0.271136 0.423754 0.0985407
639 4 0.254389 0.489875 0.127111
303 4 0.29485 0.434158 0.145677
638 4 0.280377 0.44939 0.140761
637 2 0.267383 0.469633 0.133936
301 2 0.316704 0.422097 0.144224
1862 4 0.283497 0.509083 0.130064
230 4 0.343733 0.499631 0.150427
1559 4 0.359628 0.466361 0.0967879
1558 2 0.353746 0.487499 0.108777
493 2 0.388172 0.444748 0.110882
494 4 0.377846 0.459915 0.0938966
1420 2 0.00284081 0.0278345 0.167914
1404 4 0.0517004 0.0317047 0.231527
1415 4 0.0365763 0.0210145 0.238164
1414 2 0.0248198 0.0152454 0.216864
1402 2 0.0552674 0.035121 0.256037
1416 4 0.0130632 0.00947642 0.195565
1505 4 0.13662 0.0411831 0.188069
690 4 0.0927586 0.00689185 0.232099
688 2 0.107007 0.0187721 0.215335
689 4 0.121255 0.0306522 0.198572
1701 4 0.287417 0.0684016 0.197535
1699 2 0.311574 0.0743273 0.194989
691 2 0.257011 0.0797201 0.190675
692 4 0.273893 0.0790405 0.209106
1700 4 0.335732 0.0802531 0.192442
22 3 0.374735 0.0547518 0.206228
698 4 0.394924 0.0583498 0.207514
697 2 0.402468 0.0345179 0.206966
333 4 0.39643 0.0784098 0.209018
21 1 0.366507 0.0755369 0.200803
23 3 0.346081 0.0785181 0.211401
25 3 0.363818 0.0768825 0.178229
759 4 0.345093 0.0846542 0.175601
699 4 0.410012 0.0106859 0.206418
1518 4 0.423376 0.00768288 0.220998
511 2 0.0302153 0.140965 0.177806
513 4 0.0484687 0.156664 0.184555
449 4 0.129996 0.100477 0.176791
236 4 0.144854 0.114364 0.178311
235 2 0.16198 0.123997 0.193773
693 4 0.24013 0.0803996 0.172243
237 4 0.179106 0.13363 0.209235
24 3 0.381572 0.0916696 0.207957
771 4 0.471051 0.115171 0.164575
331 2 0.42028 0.0857712 0.207545
769 2 0.474881 0.138514 0.172673
349 2 0.474698 0.0987981 0.226114
350 4 0.457293 0.10694 0.210116
332 4 0.44413 0.0931325 0.206072
770 4 0.478711 0.161858 0.180771
578 4 0.0450214 0.176027 0.1851
577 2 0.0395993 0.195686 0.199568
579 4 0.0341772 0.215345 0.214035
362 4 0.179407 0.25168 0.220929
372 4 0.167363 0.245481 0.206009
371 4 0.19109 0.218255 0.17142
370 2 0.179227 0.231868 0.188714
29 3 0.268278 0.204354 0.169095
255 4 0.325645 0.212225 0.169718
28 3 0.285133 0.174377 0.185273
26 1 0.287743 0.191766 0.170133
27 3 0.304964 0.205271 0.177216
756 4 0.323324 0.207845 0.190485
754 2 0.32763 0.215122 0.214015
755 4 0.331936 0.2224 0.237545
764 4 0.471547 0.182364 0.250575
312 4 0.486361 0.175916 0.192954
703 2 0.00206531 0.306662 0.183349
361 2 0.16513 0.263898 0.237424
363 4 0.150852 0.276116 0.253918
283 2 0.297707 0.293218 0.171179
284 4 0.28859 0.300933 0.193146
527 4 0.457005 0.296875 0.178853
528 4 0.442378 0.327751 0.215369
526 2 0.449692 0.312313 0.197111
620 4 0.0796492 0.405213 0.171266
299 4 0.0625062 0.363119 0.228473
298 2 0.0821644 0.359061 0.213564
619 2 0.0575703 0.405304 0.183
750 4 0.0437673 0.358013 0.22383
748 2 0.024776 0.355054 0.239823
621 4 0.0354913 0.405395 0.194734
264 4 0.0322785 0.409238 0.215053
646 2 0.110487 0.36728 0.166097
300 4 0.101823 0.355003 0.198655
648 4 0.102765 0.348109 0.180169
416 4 0.211849 0.402716 0.226568
290 4 0.215033 0.406054 0.246127
415 2 0.204791 0.400232 0.20271
417 4 0.197733 0.397749 0.178852
13 3 0.383315 0.402804 0.167479
597 4 0.371809 0.39604 0.185381
345 4 0.36751 0.344994 0.228141
596 4 0.361443 0.360628 0.219133
595 2 0.366626 0.378334 0.202257
645 4 0.394101 0.402537 0.186267
643 2 0.41519 0.414737 0.191886
542 4 0.450806 0.343017 0.225655
541 2 0.446459 0.344245 0.250247
262 2 0.0296144 0.431261 0.226588
263 4 0.0269503 0.453284 0.238124
438 4 0.277716 0.445601 0.207434
436 2 0.291858 0.437268 0.226295
659 4 0.356311 0.42145 0.21332
229 2 0.355332 0.492558 0.171418
660 4 0.361886 0.470326 0.204335
658 2 0.359099 0.445888 0.208827
231 4 0.366931 0.485485 0.192409
644 4 0.43628 0.426936 0.197506
447 4 0.439269 0.434272 0.215558
445 2 0.43856 0.439155 0.24007
233 4 0.0460866 0.0553159 0.282031
232 2 0.0482091 0.0562231 0.306928
234 4 0.0503316 0.0571304 0.331825
1403 4 0.0588344 0.0385374 0.280548
674 4 0.122337 0.0501038 0.330279
722 4 0.157993 0.0353859 0.293836
673 2 0.123706 0.0666158 0.311554
721 2 0.179522 0.0446228 0.302574
723 4 0.201051 0.0538597 0.311311
1405 2 0.234698 0.0504473 0.300722
1406 4 0.218696 0.0607024 0.316969
1407 4 0.250699 0.0401922 0.284475
249 4 0.27961 0.0134723 0.345355
1340 4 0.267801 0.0136987 0.315947
633 4 0.344519 0.0333502 0.345473
743 4 0.494859 0.0183938 0.246473
425 4 0.482674 0.0334374 0.246384
424 2 0.472217 0.0485925 0.2633
426 4 0.461761 0.0637477 0.280217
258 4 0.480559 0.0688328 0.284919
480 4 0.493459 0.0176665 0.34481
391 2 0.0503305 0.123126 0.296619
392 4 0.0685763 0.133847 0.283303
393 4 0.0320847 0.112405 0.309936
545 4 0.0877262 0.131155 0.284106
675 4 0.125075 0.0831277 0.292828
546 4 0.122238 0.0954182 0.278402
544 2 0.104982 0.113287 0.281254
404 4 0.166757 0.134611 0.286993
403 2 0.159706 0.147097 0.307476
399 4 0.0938008 0.132545 0.339969
716 4 0.396272 0.162701 0.318381
256 2 0.484905 0.0833614 0.304799
257 4 0.489251 0.09789 0.324679
530 4 0.0183408 0.239484 0.282903
442 2 0.0615196 0.234889 0.293746
443 4 0.0856157 0.238108 0.299593
400 2 0.158611 0.207434 0.302948
402 4 0.145002 0.226747 0.294764
396 4 0.0999028 0.244611 0.287488
401 4 0.172221 0.188121 0.311132
405 4 0.152655 0.159583 0.32796
472 2 0.211152 0.204256 0.321532
474 4 0.191597 0.189533 0.316435
473 4 0.230708 0.218979 0.32663
763 2 0.492425 0.171709 0.259281
715 2 0.409951 0.181357 0.308893
377 4 0.432168 0.213629 0.311709
717 4 0.423631 0.200013 0.299406
376 2 0.429485 0.238331 0.308912
444 4 0.0374234 0.23167 0.287899
529 2 0.00258076 0.246942 0.264982
395 4 0.133029 0.275153 0.265796
394 2 0.116466 0.259882 0.276642
378 4 0.426802 0.263032 0.306116
266 4 0.414115 0.268349 0.322236
749 4 0.00578459 0.352095 0.255815
366 4 0.0109032 0.360055 0.273276
677 4 0.164595 0.416571 0.271293
734 4 0.142446 0.350256 0.270799
733 2 0.148199 0.374578 0.27151
735 4 0.153951 0.398901 0.272221
727 2 0.321252 0.396527 0.326462
729 4 0.337958 0.37846 0.330899
308 4 0.338848 0.359294 0.328237
343 2 0.37064 0.340781 0.252587
307 2 0.353608 0.347751 0.311682
344 4 0.373771 0.336569 0.277034
309 4 0.368368 0.336207 0.295127
118 3 0.500989 0.383967 0.342395
615 4 0.422019 0.344585 0.278749
543 4 0.442112 0.345473 0.274839
614 4 0.439172 0.355854 0.324351
613 2 0.430596 0.350219 0.30155
2925 4 0.454582 0.352884 0.336518
777 4 0.067583 0.422423 0.320649
775 2 0.0755868 0.438807 0.303541
602 4 0.048641 0.419034 0.327694
776 4 0.0835906 0.45519 0.286432
1757 4 0.0762855 0.47493 0.287864
1756 2 0.0805909 0.499546 0.288701
676 2 0.166746 0.438353 0.259208
289 2 0.222342 0.424676 0.261128
635 4 0.199275 0.477964 0.312103
634 2 0.185603 0.458135 0.318817
766 2 0.206803 0.479397 0.254929
678 4 0.168898 0.460136 0.247122
291 4 0.229651 0.443297 0.276128
768 4 0.189057 0.462736 0.249214
414 4 0.249686 0.440229 0.2814
636 4 0.171931 0.438306 0.325532
503 4 0.185733 0.423617 0.321714
767 4 0.224549 0.496059 0.260644
437 4 0.306 0.428935 0.245157
412 2 0.258113 0.437939 0.304829
728 4 0.304547 0.414594 0.322025
433 2 0.309606 0.431885 0.287115
435 4 0.302143 0.434456 0.26339
434 4 0.31707 0.429313 0.310839
413 4 0.266541 0.435648 0.328257
5 3 0.278694 0.452597 0.331746
2 3 0.311304 0.434448 0.332059
120 3 0.495782 0.414539 0.321043
446 4 0.437852 0.444039 0.264582
713 4 0.479336 0.4297 0.315313
714 4 0.445268 0.432543 0.278816
712 2 0.462302 0.431121 0.297065
2756 4 0.0042942 0.0430446 0.401011
2755 2 0.0134114 0.0647075 0.392481
317 4 0.0527253 0.0400632 0.343064
316 2 0.0690965 0.0520521 0.357673
730 2 0.0712287 0.076855 0.406756
318 4 0.0854678 0.0640411 0.372282
606 4 0.149483 0.0587971 0.389391
604 2 0.135565 0.0590492 0.36862
605 4 0.121647 0.0593014 0.34785
2429 4 0.222815 0.00894578 0.406532
683 4 0.23816 0.0537189 0.374879
321 4 0.234157 0.0702064 0.38686
2428 2 0.202371 0.0228149 0.410385
319 2 0.22959 0.0871039 0.404715
682 2 0.247961 0.036101 0.36009
2430 4 0.181926 0.036684 0.414238
247 2 0.304187 0.0172086 0.342676
248 4 0.328764 0.020945 0.339997
684 4 0.257763 0.018483 0.345301
631 2 0.359488 0.0435715 0.362696
632 4 0.374457 0.0537927 0.379918
468 4 0.381127 0.0713039 0.383191
466 2 0.378211 0.0821111 0.405549
2586 4 0.0428328 0.107375 0.325125
2757 4 0.0225287 0.0863705 0.38395
2585 4 0.0275448 0.102072 0.372442
2584 2 0.0351888 0.104724 0.348783
732 4 0.0816245 0.0803866 0.384291
397 2 0.0919374 0.113043 0.355506
398 4 0.090074 0.0935408 0.371042
599 4 0.168521 0.0976103 0.330252
598 2 0.173017 0.107254 0.352879
600 4 0.177513 0.116899 0.375505
685 2 0.198792 0.143426 0.391012
687 4 0.176995 0.135322 0.381825
686 4 0.220589 0.15153 0.400199
420 4 0.340548 0.155067 0.356493
419 4 0.384175 0.156752 0.33211
418 2 0.362362 0.155909 0.344302
761 4 0.485931 0.103011 0.343953
762 4 0.488603 0.15286 0.346892
760 2 0.487267 0.127936 0.345422
275 4 0.165061 0.172407 0.336948
390 4 0.0969047 0.204278 0.404946
274 2 0.160217 0.173259 0.361463
388 2 0.119333 0.195976 0.397649
276 4 0.155373 0.174111 0.385978
389 4 0.141761 0.187674 0.390352
410 4 0.232537 0.166928 0.396005
409 2 0.231075 0.190144 0.405175
411 4 0.229612 0.213359 0.414345
708 4 0.244223 0.227265 0.339987
707 4 0.28988 0.220664 0.359289
706 2 0.267052 0.223964 0.349638
497 4 0.308324 0.212451 0.362969
496 2 0.332884 0.214607 0.358802
2455 2 0.378131 0.224327 0.390034
498 4 0.357443 0.216763 0.354635
2456 4 0.361666 0.213729 0.374484
2457 4 0.394595 0.234925 0.405583
515 4 0.425962 0.2096 0.409874
617 4 0.0213164 0.289241 0.404374
618 4 0.0708501 0.295523 0.407143
616 2 0.0460833 0.292382 0.405758
696 4 0.073263 0.316343 0.403336
694 2 0.0867749 0.326539 0.384934
488 4 0.276912 0.327615 0.409782
2769 4 0.495475 0.25314 0.347558
267 4 0.429655 0.310952 0.343312
265 2 0.421885 0.28965 0.332774
268 2 0.472097 0.283208 0.362866
269 4 0.481147 0.265954 0.347196
270 4 0.463047 0.300462 0.378537
306 4 0.45811 0.29273 0.396471
304 2 0.450818 0.28951 0.42017
408 4 0.0442469 0.371232 0.382399
406 2 0.0465019 0.364332 0.406325
695 4 0.100287 0.336734 0.366531
1259 4 0.116391 0.348076 0.360643
1258 2 0.137325 0.345392 0.37405
1260 4 0.158259 0.342708 0.387457
326 4 0.166736 0.332095 0.399846
504 4 0.181876 0.391375 0.359744
502 2 0.183805 0.407496 0.340729
374 4 0.2477 0.386927 0.369167
509 4 0.267513 0.345368 0.412426
510 4 0.260657 0.372116 0.370734
508 2 0.264085 0.358742 0.39158
373 2 0.259651 0.404583 0.356105
2923 2 0.478356 0.357375 0.342825
2924 4 0.502131 0.361866 0.349132
119 3 0.487667 0.416065 0.357778
753 4 0.499186 0.422998 0.371168
751 2 0.489154 0.422956 0.394071
681 4 0.998205 0.49192 0.379926
601 2 0.0314126 0.428984 0.342839
679 2 0.0108453 0.470644 0.376358
603 4 0.0141842 0.438934 0.357983
680 4 0.0234859 0.449368 0.37279
1775 4 0.12583 0.475651 0.351617
1774 2 0.141543 0.493112 0.34305
569 4 0.111048 0.447301 0.412998
549 4 0.116509 0.458894 0.358181
547 2 0.10851 0.46046 0.381819
548 4 0.100511 0.462026 0.405456
1821 4 0.222297 0.482613 0.352493
1545 4 0.221698 0.480706 0.333148
1819 2 0.22664 0.484264 0.377061
1820 4 0.230983 0.485915 0.40163
375 4 0.271603 0.422239 0.343043
3 3 0.285333 0.426466 0.358029
1 1 0.294632 0.44338 0.345151
668 4 0.309532 0.471302 0.373434
4 3 0.303804 0.45967 0.358897
667 2 0.31661 0.482455 0.394664
669 4 0.323688 0.493607 0.415893
752 4 0.479123 0.422913 0.416974
594 4 0.451419 0.502736 0.407718
731 4 0.060833 0.0733234 0.42922
368 4 0.064206 0.0563993 0.438853
367 2 0.0428928 0.0475016 0.448432
369 4 0.0215797 0.038604 0.458011
719 4 0.0163042 0.0565747 0.463378
340 2 0.171389 0.0674587 0.444357
341 4 0.175264 0.0478502 0.429335
342 4 0.167513 0.0870671 0.45938
1216 2 0.374532 0.0219275 0.475011
1217 4 0.380555 0.0445094 0.483896
842 4 0.362677 0.0506414 0.475493
841 2 0.350258 0.071231 0.48235
843 4 0.337839 0.0918206 0.489207
2878 2 0.502272 0.0184335 0.490842
471 4 0.064728 0.157878 0.444335
260 4 0.0680879 0.171376 0.460627
1152 4 0.1727 0.0867792 0.478622
1150 2 0.170529 0.107813 0.491965
320 4 0.225024 0.104001 0.42257
725 4 0.245048 0.104946 0.426152
726 4 0.27886 0.111866 0.46234
432 4 0.285093 0.122971 0.478832
724 2 0.261954 0.108406 0.444246
430 2 0.302279 0.107049 0.487568
575 4 0.416112 0.148272 0.429653
576 4 0.384329 0.109772 0.432538
574 2 0.40022 0.129022 0.431095
467 4 0.375296 0.0929184 0.427907
516 4 0.407182 0.166077 0.425804
470 4 0.0812121 0.195661 0.416026
469 2 0.07297 0.17677 0.430181
259 2 0.0645378 0.176375 0.484867
878 4 0.0946757 0.240508 0.483027
877 2 0.11779 0.235218 0.490959
650 4 0.246944 0.217061 0.422738
649 2 0.251338 0.241676 0.422714
514 2 0.416572 0.187839 0.417839
489 4 0.257199 0.285037 0.42708
651 4 0.255731 0.26629 0.42269
487 2 0.267056 0.306326 0.418431
585 4 0.353066 0.261672 0.471053
583 2 0.350026 0.284054 0.481774
239 4 0.379047 0.332027 0.474661
584 4 0.346985 0.306437 0.492496
305 4 0.443525 0.28629 0.443868
1011 4 0.425113 0.293449 0.448658
1009 2 0.421778 0.311382 0.465759
1010 4 0.418443 0.329316 0.48286
407 4 0.048757 0.357432 0.430252
570 4 0.12162 0.415338 0.449975
709 2 0.157933 0.41237 0.466589
9 3 0.157845 0.36171 0.484654
325 2 0.174602 0.343243 0.420799
711 4 0.177478 0.401963 0.478202
8 3 0.187208 0.385606 0.481312
327 4 0.182469 0.354391 0.441752
7 3 0.186942 0.353077 0.462485
6 1 0.18086 0.363304 0.482172
10 3 0.191288 0.352921 0.499553
1401 4 0.314805 0.40868 0.438697
336 4 0.333546 0.414431 0.436199
334 2 0.344719 0.39353 0.444167
335 4 0.355891 0.372628 0.452135
240 4 0.374624 0.371649 0.444474
238 2 0.376835 0.351838 0.459568
561 4 0.472251 0.409484 0.430037
2508 4 0.463891 0.377261 0.479812
2506 2 0.449507 0.357303 0.48428
560 4 0.479708 0.385991 0.473548
559 2 0.47598 0.397738 0.451792
2507 4 0.435123 0.337345 0.488748
927 4 0.480886 0.398671 0.489249
1383 4 0.0571378 0.452369 0.423817
538 2 0.052277 0.448502 0.505492
1381 2 0.0580348 0.453509 0.448779
540 4 0.0690533 0.459603 0.490642
1382 4 0.0589318 0.454649 0.47374
710 4 0.138388 0.422778 0.454976
568 2 0.116334 0.43132 0.431487
1393 2 0.234803 0.491041 0.437017
1395 4 0.230239 0.474257 0.419054
1399 2 0.305786 0.431928 0.440535
588 4 0.306024 0.472622 0.44981
586 2 0.321404 0.487355 0.462908
1400 4 0.296767 0.455176 0.442373
951 4 0.152991 0.0874518 0.558174
1031 4 0.132947 0.0831482 0.5574
1180 2 0.227317 0.0585353 0.539183
1181 4 0.243459 0.039532 0.54105
1182 4 0.211175 0.0775387 0.537315
949 2 0.17695 0.0904801 0.551697
963 4 0.260666 0.0323663 0.545189
961 2 0.25415 0.0111259 0.556659
2283 4 0.437403 0.00191701 0.591604
937 2 0.134914 0.154606 0.522021
939 4 0.154523 0.142842 0.511908
938 4 0.115304 0.16637 0.532134
1030 2 0.129348 0.090358 0.581069
1151 4 0.168358 0.128847 0.505308
950 4 0.20091 0.0935083 0.545221
856 2 0.330199 0.15454 0.572212
431 4 0.319464 0.0911266 0.496305
898 2 0.384931 0.164295 0.578805
857 4 0.351646 0.141707 0.571484
1035 4 0.0569057 0.177531 0.576773
1033 2 0.0551276 0.180729 0.552038
261 4 0.0609878 0.181374 0.509107
1034 4 0.0533494 0.183928 0.527304
879 4 0.140904 0.229929 0.498892
1272 4 0.137753 0.23464 0.517751
1270 2 0.147563 0.234022 0.540741
1271 4 0.157373 0.233404 0.563732
909 4 0.165396 0.217569 0.573255
858 4 0.308753 0.167374 0.572939
796 2 0.299824 0.20066 0.549693
812 4 0.314032 0.237156 0.536172
798 4 0.304045 0.219885 0.534273
797 4 0.295603 0.181435 0.565112
900 4 0.401657 0.182527 0.575197
872 4 0.401611 0.200732 0.566151
873 4 0.376592 0.237469 0.543235
871 2 0.389102 0.219101 0.554693
811 2 0.337705 0.243899 0.540563
929 4 0.330156 0.329495 0.51884
813 4 0.361378 0.250643 0.544954
1204 2 0.399631 0.30903 0.548293
1206 4 0.378897 0.304843 0.534961
930 4 0.364762 0.308449 0.54817
928 2 0.347459 0.318972 0.533505
1205 4 0.420365 0.313216 0.561625
954 4 0.424842 0.295741 0.569723
983 4 0.0500126 0.377655 0.573268
982 2 0.0257749 0.383756 0.573966
1041 4 0.062286 0.391423 0.564531
1039 2 0.0757796 0.411328 0.557682
1135 2 0.162337 0.412932 0.545416
895 2 0.186065 0.362617 0.536481
896 4 0.201176 0.354052 0.518495
897 4 0.170954 0.371182 0.554466
1137 4 0.164777 0.389228 0.552991
1189 2 0.240358 0.373014 0.518482
1191 4 0.217942 0.363778 0.524597
804 4 0.310278 0.332239 0.521081
802 2 0.295024 0.351662 0.517177
1190 4 0.262774 0.382251 0.512368
803 4 0.279769 0.371084 0.513272
925 2 0.474233 0.408101 0.51143
1001 4 0.473271 0.418313 0.552938
1000 2 0.466896 0.417929 0.577112
539 4 0.0355007 0.437401 0.520341
2813 4 0.0152431 0.438783 0.518822
2812 2 0.997892 0.430088 0.534586
1040 4 0.0892732 0.431233 0.550834
1136 4 0.159897 0.436635 0.537841
992 4 0.142082 0.443131 0.530217
993 4 0.0923579 0.443637 0.53551
991 2 0.11722 0.443384 0.532863
882 4 0.252314 0.491104 0.555585
1172 4 0.260501 0.482802 0.572194
926 4 0.46758 0.417531 0.533611
945 4 0.0279794 0.00580626 0.670511
1058 4 0.0682755 0.0035981 0.653887
1185 4 0.0161465 0.0148201 0.656838
1057 2 0.0863016 0.0206091 0.657183
1155 4 0.118504 0.0427999 0.647175
1059 4 0.104328 0.0376202 0.660479
1153 2 0.122725 0.0608086 0.630351
1004 4 0.329056 0.0596094 0.62183
831 4 0.346128 0.0600431 0.630532
829 2 0.342224 0.044054 0.649355
1142 4 0.369531 0.0713934 0.625804
44 3 0.473159 0.0549367 0.663761
41 1 0.486634 0.0507371 0.645344
2281 2 0.455528 0.0154377 0.602274
2282 4 0.473652 0.0289585 0.612945
43 3 0.476457 0.0351735 0.631466
45 3 0.490399 0.0700642 0.633901
1199 4 0.00849899 0.157544 0.63571
1154 4 0.126947 0.0788172 0.613527
1032 4 0.125749 0.0975679 0.604739
1210 2 0.213647 0.149116 0.654369
1211 4 0.233046 0.140339 0.64126
888 4 0.24121 0.126552 0.628145
1212 4 0.194248 0.157892 0.667477
1220 4 0.174851 0.154257 0.669966
886 2 0.2492 0.106269 0.615899
887 4 0.25719 0.0859871 0.603652
1003 2 0.320925 0.0763678 0.60515
1005 4 0.312793 0.0931262 0.588471
899 4 0.368205 0.146063 0.582412
1141 2 0.38618 0.0801614 0.64227
1143 4 0.402829 0.0889294 0.658735
810 4 0.481117 0.0867315 0.625893
808 2 0.495532 0.0891467 0.605607
1082 4 0.0453867 0.178362 0.592602
1083 4 0.0290784 0.160462 0.636355
1081 2 0.0372326 0.169412 0.614479
821 4 0.109553 0.240438 0.650617
907 2 0.178537 0.226499 0.592562
908 4 0.191678 0.235429 0.611869
947 4 0.207013 0.242204 0.622968
946 2 0.214548 0.249762 0.645579
1239 4 0.293626 0.207174 0.633618
1237 2 0.312718 0.217385 0.621111
1238 4 0.331811 0.227595 0.608605
792 4 0.346649 0.239086 0.602887
3357 4 0.483665 0.226986 0.641223
3355 2 0.489186 0.213446 0.661504
2978 4 0.487649 0.180574 0.682882
3044 4 0.000194453 0.28044 0.617708
3043 2 0.0189175 0.286488 0.633137
3045 4 0.0376406 0.292536 0.648566
1208 4 0.10043 0.250895 0.665128
791 4 0.360791 0.285767 0.591862
790 2 0.35372 0.262427 0.597374
906 4 0.469123 0.240829 0.640238
952 2 0.439046 0.292774 0.590085
904 2 0.468374 0.258598 0.622663
905 4 0.467625 0.276367 0.605088
953 4 0.45325 0.289806 0.610448
3121 2 0.500582 0.304258 0.659711
893 4 0.0847302 0.339364 0.582247
892 2 0.0899004 0.343348 0.606384
894 4 0.0950706 0.347332 0.63052
1281 4 0.103955 0.362961 0.638714
1279 2 0.0895635 0.368225 0.658472
1068 4 0.200328 0.374297 0.664371
1027 2 0.231376 0.406276 0.667714
1028 4 0.215207 0.387216 0.66839
1910 4 0.471531 0.428356 0.613249
936 4 0.0169593 0.495864 0.577691
1161 4 0.160894 0.499442 0.587497
1159 2 0.182074 0.488348 0.594812
1171 2 0.240231 0.475687 0.584989
1160 4 0.203254 0.477254 0.602127
1173 4 0.219961 0.468572 0.597783
1029 4 0.247544 0.425337 0.667039
889 2 0.359754 0.485309 0.6494
1269 4 0.396425 0.479463 0.647441
890 4 0.380141 0.473766 0.658137
1267 2 0.420126 0.474451 0.653631
891 4 0.339368 0.496851 0.640664
1002 4 0.460521 0.417545 0.601286
1909 2 0.463711 0.440884 0.633425
1911 4 0.455891 0.453412 0.653602
1268 4 0.443827 0.469439 0.65982
943 2 0.0380181 0.02406 0.684338
944 4 0.0480567 0.0423138 0.698166
1075 2 0.0610486 0.0643083 0.713559
1077 4 0.0788611 0.0672697 0.730854
1076 4 0.043236 0.0613468 0.696264
1203 4 0.0795185 0.0478113 0.736586
1282 2 0.140358 0.0558484 0.695205
1283 4 0.146921 0.033503 0.704304
1201 2 0.0983052 0.0400059 0.751123
1284 4 0.133795 0.0781939 0.686106
2400 4 0.317743 0.0278921 0.669632
2398 2 0.312477 0.00942626 0.685646
830 4 0.338321 0.0280649 0.668177
834 4 0.0763693 0.153336 0.737374
1106 4 0.0687333 0.164091 0.722037
832 2 0.0765495 0.13437 0.753666
33 3 0.0952113 0.158592 0.740046
1219 2 0.154406 0.157409 0.684011
1129 2 0.144376 0.142742 0.737342
1131 4 0.13097 0.156566 0.721394
1130 4 0.157782 0.128917 0.753291
1221 4 0.133961 0.16056 0.698056
1227 4 0.176667 0.129803 0.746997
1025 4 0.407345 0.0963443 0.676989
1024 2 0.399073 0.118799 0.684237
1026 4 0.390801 0.141254 0.691486
1144 2 0.442867 0.174019 0.733162
1146 4 0.446842 0.150802 0.741549
851 4 0.00341221 0.173681 0.710204
1107 4 0.0208662 0.178207 0.718844
1105 2 0.0447997 0.171149 0.72044
1178 4 0.0132072 0.241838 0.732988
3188 4 0.0220156 0.230659 0.745609
35 3 0.0811834 0.17754 0.710689
32 3 0.11484 0.161616 0.708136
820 2 0.126515 0.2327 0.667279
31 1 0.100204 0.172498 0.722154
822 4 0.143477 0.224963 0.683941
1278 4 0.158703 0.21977 0.696505
1276 2 0.146055 0.205884 0.71301
34 3 0.110229 0.191972 0.729814
1277 4 0.133408 0.191997 0.729514
1064 4 0.241316 0.24741 0.714856
976 2 0.327527 0.211021 0.723006
978 4 0.316581 0.188582 0.724354
918 4 0.32627 0.247699 0.731918
960 4 0.307554 0.173728 0.735263
977 4 0.338473 0.233461 0.721658
1008 4 0.365464 0.224625 0.729777
1006 2 0.38263 0.231423 0.746638
3356 4 0.494707 0.199905 0.681786
1263 4 0.443327 0.21058 0.710806
1261 2 0.436114 0.233619 0.717316
1145 4 0.438892 0.197236 0.724774
1207 2 0.0825525 0.263685 0.677043
1209 4 0.0646747 0.276475 0.688958
1243 2 0.0507184 0.298295 0.719208
1245 4 0.0668297 0.281409 0.710236
1244 4 0.0346071 0.315181 0.728179
942 4 0.133507 0.311563 0.708366
940 2 0.143906 0.333139 0.701187
948 4 0.222083 0.25732 0.668191
1065 4 0.208629 0.264616 0.681148
1063 2 0.224972 0.256013 0.698002
1242 4 0.240551 0.248847 0.733238
917 4 0.284557 0.275239 0.733443
1096 2 0.287909 0.314555 0.718041
1097 4 0.28461 0.296065 0.734545
916 2 0.305413 0.261469 0.73268
806 4 0.408544 0.334804 0.734605
3123 4 0.496225 0.296045 0.682921
1262 4 0.428901 0.256657 0.723826
1192 2 0.425366 0.292924 0.737081
1194 4 0.435032 0.269868 0.737523
1193 4 0.4157 0.315979 0.736639
1280 4 0.0751725 0.373489 0.678229
3275 4 0.0809975 0.388174 0.690442
3274 2 0.087011 0.397883 0.712685
816 4 0.0878056 0.409955 0.754546
941 4 0.154304 0.354715 0.694009
1067 4 0.159065 0.37384 0.692617
3276 4 0.0930245 0.407592 0.734927
1066 2 0.179697 0.374068 0.678494
1098 4 0.291208 0.333045 0.701536
1228 2 0.286842 0.389257 0.714291
1230 4 0.277618 0.387541 0.737467
1229 4 0.296067 0.390973 0.691115
1139 4 0.236801 0.436678 0.680742
1138 2 0.257004 0.450315 0.686314
1140 4 0.277207 0.463952 0.691885
1989 4 0.289888 0.473949 0.705648
1987 2 0.286131 0.466792 0.729309
864 4 0.0732686 0.0774883 0.805439
2049 4 0.13447 0.0235788 0.762796
2047 2 0.150608 0.00451381 0.763925
1202 4 0.117092 0.0322006 0.765659
818 4 0.371405 0.0626348 0.811004
817 2 0.361391 0.0815027 0.798008
965 4 0.389832 0.0673444 0.807134
964 2 0.414423 0.0711171 0.809633
966 4 0.439013 0.0748898 0.812131
911 4 0.0813367 0.0797186 0.823301
863 4 0.0925205 0.103838 0.767547
833 4 0.0767298 0.115404 0.769959
862 2 0.0828945 0.0906632 0.786493
1225 2 0.191133 0.122778 0.766142
1226 4 0.2056 0.115752 0.785288
840 4 0.222262 0.126354 0.789867
838 2 0.243877 0.1367 0.782728
1086 4 0.319703 0.147205 0.806217
1084 2 0.327279 0.128332 0.79167
959 4 0.267018 0.155523 0.758201
839 4 0.265491 0.147045 0.775589
958 2 0.287286 0.164626 0.746732
1299 4 0.328005 0.162546 0.817149
1085 4 0.334854 0.109459 0.777124
819 4 0.351378 0.100371 0.785012
3268 2 0.483647 0.142545 0.763952
1036 2 0.462518 0.109023 0.815018