ITEM: TIMESTEP
4000000
ITEM: NUMBER OF ATOMS
4590
ITEM: BOX BOUNDS pp pp pp
-9.9985700000000008e+00 9.9985700000000008e+00
-9.9985700000000008e+00 9.9985700000000008e+00
-9.9985700000000008e+00 9.9985700000000008e+00
ITEM: ATOMS id type xs ys zs
1668 4 0.0729086 0.0396458 0.0825269
1666 2 0.0550561 0.057011 0.0847457
3290 4 0.0931396 0.038974 0.081858
3289 2 0.101423 0.0406481 0.0583258
3291 4 0.109706 0.0423223 0.0347936
566 4 0.114692 0.0287158 0.0208238
565 2 0.131562 0.0107903 0.0164358
2723 4 0.505422 0.148827 0.0677511
505 2 0.126667 0.22622 0.0592352
506 4 0.147623 0.214468 0.066158
507 4 0.105711 0.237971 0.0523123
737 4 0.163657 0.225109 0.0723277
913 2 0.144654 0.235697 0.99991
736 2 0.184899 0.228091 0.0594804
738 4 0.206142 0.231073 0.0466331
354 4 0.225988 0.229058 0.0489153
352 2 0.235061 0.206075 0.0527428
461 4 0.259607 0.170355 0.0553928
460 2 0.280924 0.170456 0.0423264
353 4 0.244135 0.183092 0.0565703
462 4 0.302242 0.170556 0.02926
2807 4 0.0478164 0.289883 0.00750034
2806 2 0.0281945 0.275249 0.0125991
2808 4 0.00857259 0.260615 0.0176978
1055 4 0.0638765 0.289402 0.996198
294 4 0.0910199 0.298849 0.0720631
293 4 0.104013 0.250747 0.0678065
292 2 0.0975164 0.274798 0.0699348
456 4 0.107995 0.304278 0.080155
914 4 0.160567 0.253757 0.00667769
287 4 0.167254 0.270227 0.0155551
454 2 0.114336 0.328334 0.0826603
286 2 0.175711 0.293391 0.0196882
288 4 0.184169 0.316555 0.0238212
610 2 0.238767 0.311945 0.0763285
356 4 0.235862 0.310086 0.998812
571 2 0.328285 0.269474 0.995541
483 4 0.246277 0.293253 0.00171235
573 4 0.347798 0.258673 0.00684404
741 4 0.38096 0.326569 0.0526179
1071 4 0.367362 0.259956 0.0119899
315 4 0.0354457 0.415356 0.0941819
1102 2 0.141009 0.399227 0.0109257
1104 4 0.155813 0.386655 0.0266722
612 4 0.225361 0.330177 0.0656963
990 4 0.184271 0.331383 0.0371192
989 4 0.16936 0.37902 0.0401374
609 4 0.228683 0.350712 0.0676099
988 2 0.176815 0.355201 0.0386283
607 2 0.247076 0.36732 0.0709338
252 4 0.259308 0.402621 0.0748687
608 4 0.265469 0.383927 0.0742577
739 2 0.360142 0.338962 0.0587996
740 4 0.339324 0.351355 0.0649813
227 4 0.402554 0.409011 0.0251459
1305 4 0.410019 0.390528 0.0196992
1303 2 0.406362 0.367282 0.0112465
1046 4 0.491794 0.3534 0.0154405
1047 4 0.495213 0.354354 0.0653215
282 4 0.483772 0.35312 0.0824882
1045 2 0.493503 0.353877 0.040381
552 4 0.0313255 0.464142 0.0497933
314 4 0.0246311 0.446294 0.0564112
550 2 0.0207894 0.486647 0.0470188
313 2 0.0300384 0.430825 0.0752966
1786 2 0.148515 0.489593 0.0432372
1787 4 0.154527 0.467499 0.0532813
1619 4 0.163164 0.463779 0.0709215
1289 4 0.213304 0.414382 0.0222325
1440 4 0.212019 0.423465 0.0820366
243 4 0.199499 0.417926 0.0666495
241 2 0.204539 0.439083 0.0543143
242 4 0.20958 0.46024 0.0419791
250 2 0.27963 0.417114 0.0733941
272 4 0.285737 0.488432 0.0398133
251 4 0.299951 0.431607 0.0719194
524 4 0.307485 0.434023 0.0530838
523 2 0.331748 0.43759 0.0579573
226 2 0.38691 0.423803 0.0378598
228 4 0.371267 0.438595 0.0505738
525 4 0.356011 0.441157 0.0628308
19 3 0.0163359 0.046683 0.118933
1667 4 0.0372037 0.0743761 0.0869645
17 3 0.0166839 0.0717881 0.0909644
1420 2 0.00611207 0.0298405 0.152385
1421 4 0.00735525 0.0110958 0.168886
16 1 0.00331869 0.0613035 0.106476
1504 2 0.163308 0.0196842 0.161812
1506 4 0.178377 0.0352705 0.149355
491 4 0.272663 0.0163734 0.098644
490 2 0.28558 0.997755 0.0880749
1475 4 0.271649 0.0363378 0.10095
1474 2 0.276308 0.0595479 0.108998
1661 4 0.314223 0.0103442 0.14519
486 4 0.332757 0.00394357 0.148303
484 2 0.35245 0.0106938 0.134454
297 4 0.38302 0.0243647 0.13674
295 2 0.406943 0.0308054 0.133366
485 4 0.372142 0.0174441 0.120605
557 4 0.411157 0.0743291 0.153235
747 4 0.478434 0.00156526 0.119051
745 2 0.457387 0.0148211 0.116505
296 4 0.430866 0.037246 0.129992
746 4 0.43634 0.0280768 0.113958
556 2 0.435264 0.0770268 0.147171
558 4 0.45937 0.0797246 0.141106
450 4 0.086419 0.106972 0.130336
448 2 0.104555 0.115137 0.145489
449 4 0.12269 0.123302 0.160642
236 4 0.14057 0.116413 0.155043
652 2 0.254053 0.0820344 0.154513
654 4 0.267142 0.0828199 0.133224
1476 4 0.280967 0.082758 0.117046
580 2 0.319391 0.145049 0.131717
581 4 0.304454 0.164849 0.128552
582 4 0.334327 0.125249 0.134882
758 4 0.348572 0.11854 0.146263
757 2 0.350947 0.101347 0.164261
771 4 0.468217 0.096616 0.136685
769 2 0.476702 0.116453 0.149321
770 4 0.485186 0.13629 0.161957
477 4 0.250833 0.196187 0.149225
30 3 0.299409 0.177284 0.143766
26 1 0.289848 0.184939 0.162965
29 3 0.267229 0.18882 0.159545
27 3 0.299935 0.20468 0.169104
255 4 0.323579 0.224703 0.146376
756 4 0.31335 0.219278 0.165067
628 2 0.401362 0.247519 0.120588
253 2 0.340689 0.238111 0.13402
254 4 0.3578 0.251519 0.121665
629 4 0.425609 0.248416 0.126627
624 4 0.433938 0.238781 0.143197
622 2 0.443286 0.252216 0.1621
338 4 0.0913275 0.264652 0.15987
611 4 0.252173 0.293713 0.0869607
278 4 0.246408 0.282034 0.101095
279 4 0.26046 0.287791 0.14874
277 2 0.253434 0.284913 0.124918
285 4 0.279316 0.285377 0.15665
630 4 0.377115 0.246621 0.11455
620 4 0.0124745 0.368312 0.163421
646 2 0.0744043 0.384545 0.16705
455 4 0.120677 0.35239 0.0851657
537 4 0.0965743 0.386181 0.139239
535 2 0.10699 0.373259 0.120539
536 4 0.117405 0.360337 0.101838
647 4 0.0794257 0.392304 0.143817
1438 2 0.203456 0.405242 0.0968612
625 2 0.196866 0.370344 0.145046
627 4 0.203944 0.371825 0.121111
1439 4 0.194892 0.387019 0.111686
626 4 0.189788 0.368864 0.168981
386 4 0.324363 0.358465 0.0773659
301 2 0.314931 0.408211 0.133744
302 4 0.337091 0.396639 0.133296
303 4 0.292771 0.419783 0.134193
385 2 0.332886 0.374429 0.0946191
387 4 0.341409 0.390394 0.111872
12 3 0.377428 0.370054 0.135359
11 1 0.373035 0.392076 0.140346
15 3 0.357643 0.400172 0.125643
672 4 0.391594 0.358919 0.140355
13 3 0.364754 0.39336 0.161984
14 3 0.392736 0.404221 0.138671
670 2 0.405975 0.350319 0.121797
281 4 0.435768 0.352095 0.0964609
280 2 0.45977 0.352607 0.0894745
671 4 0.420356 0.341719 0.103239
104 3 0.49527 0.344536 0.0972249
1618 2 0.164981 0.458594 0.0953141
1431 4 0.168472 0.436091 0.128468
1620 4 0.166799 0.45341 0.119707
1429 2 0.184698 0.43167 0.146971
1573 2 0.232501 0.487698 0.16003
639 4 0.25494 0.469665 0.148184
638 4 0.293978 0.439415 0.140327
637 2 0.274459 0.45454 0.144256
1558 2 0.352771 0.497337 0.119966
495 4 0.388796 0.423664 0.135427
1559 4 0.361664 0.476515 0.109356
493 2 0.378047 0.445674 0.130407
494 4 0.367298 0.467684 0.125386
1416 4 0.00846628 0.995815 0.181499
1414 2 0.00935214 0.00935009 0.202504
1415 4 0.010238 0.0228849 0.223509
690 4 0.109539 0.0483327 0.213352
688 2 0.12315 0.0333526 0.198672
689 4 0.136761 0.0183724 0.183991
674 4 0.146989 0.0660116 0.252327
1505 4 0.148239 0.00409786 0.174268
722 4 0.163881 0.0554036 0.254253
673 2 0.133837 0.0872513 0.251288
693 4 0.237987 0.0792121 0.194851
691 2 0.258035 0.0835526 0.209149
22 3 0.376934 0.0518967 0.211736
698 4 0.395737 0.0504887 0.222938
697 2 0.399232 0.025776 0.221439
699 4 0.402727 0.00106328 0.21994
333 4 0.400321 0.0697419 0.222656
21 1 0.372715 0.0739905 0.206918
23 3 0.351876 0.0796696 0.215399
25 3 0.372977 0.0769265 0.184336
759 4 0.353322 0.084153 0.182258
1518 4 0.418915 0.997069 0.231982
331 2 0.423432 0.076153 0.229724
349 2 0.479858 0.0785762 0.221807
351 4 0.500641 0.0647306 0.220572
511 2 0.0222195 0.145958 0.188082
513 4 0.0359657 0.163745 0.177133
237 4 0.167133 0.0896112 0.187857
235 2 0.153852 0.103012 0.17145
653 4 0.240963 0.081249 0.175802
692 4 0.278083 0.087893 0.223447
1701 4 0.297058 0.0814022 0.219242
1699 2 0.319669 0.0833174 0.208744
1700 4 0.342281 0.0852326 0.198245
24 3 0.389124 0.0870883 0.216796
312 4 0.49684 0.134765 0.179134
350 4 0.459074 0.0924217 0.223042
332 4 0.446543 0.0825641 0.236792
578 4 0.0452027 0.180729 0.180799
577 2 0.0559424 0.188218 0.2021
579 4 0.0666821 0.195707 0.223401
529 2 0.0088627 0.245125 0.25344
475 2 0.236576 0.205866 0.167342
476 4 0.222319 0.215545 0.185459
371 4 0.206924 0.220772 0.197615
370 2 0.201354 0.242628 0.208407
28 3 0.292741 0.16943 0.17998
754 2 0.321752 0.232581 0.184498
755 4 0.330155 0.245885 0.20393
337 2 0.0785506 0.28266 0.171602
2483 4 0.0103226 0.247857 0.213052
339 4 0.0657736 0.300669 0.183333
704 4 0.0483045 0.309104 0.177761
703 2 0.0284065 0.318564 0.189583
705 4 0.00850859 0.328024 0.201405
372 4 0.195783 0.264484 0.219199
362 4 0.185565 0.278742 0.229128
284 4 0.299209 0.285239 0.20253
283 2 0.289263 0.285308 0.17959
541 2 0.416876 0.33255 0.230046
528 4 0.425145 0.294282 0.222665
542 4 0.419097 0.312995 0.214623
623 4 0.452633 0.265651 0.181003
526 2 0.443872 0.284499 0.209295
527 4 0.462599 0.274716 0.195925
619 2 0.0114879 0.382358 0.184083
621 4 0.0105013 0.396405 0.204744
300 4 0.0840603 0.376924 0.203809
298 2 0.0856628 0.358885 0.221048
299 4 0.0872652 0.340845 0.238287
648 4 0.0693829 0.376786 0.190283
262 2 0.0154037 0.407513 0.237064
264 4 0.000688987 0.394735 0.221399
734 4 0.166411 0.390703 0.223703
645 4 0.387434 0.400931 0.191896
597 4 0.380057 0.389804 0.176932
345 4 0.355095 0.367545 0.221885
596 4 0.362578 0.35535 0.208683
595 2 0.371317 0.372577 0.192808
343 2 0.3581 0.359393 0.24533
643 2 0.409533 0.412627 0.191962
1574 4 0.249881 0.471706 0.168237
1430 4 0.200924 0.42725 0.165474
290 4 0.227656 0.441876 0.236383
416 4 0.212071 0.42923 0.234158
417 4 0.205133 0.42636 0.184718
415 2 0.208602 0.427795 0.209438
438 4 0.28897 0.449247 0.218692
436 2 0.291092 0.454899 0.242956
229 2 0.343286 0.499199 0.173109
659 4 0.348248 0.424244 0.16725
660 4 0.338691 0.464307 0.195611
658 2 0.34347 0.444275 0.181431
644 4 0.431633 0.424324 0.192029
231 4 0.347523 0.48333 0.191961
447 4 0.433698 0.436521 0.206786
446 4 0.431327 0.44865 0.255242
445 2 0.432512 0.442586 0.231014
1402 2 0.0381407 0.00808599 0.263168
233 4 0.0272589 0.0395581 0.291146
232 2 0.044547 0.0576163 0.291595
234 4 0.0618352 0.0756744 0.292044
317 4 0.069295 0.0716812 0.311776
1403 4 0.028182 0.0251747 0.278465
721 2 0.162772 0.0437611 0.276353
723 4 0.161662 0.0321185 0.298453
1340 4 0.231721 0.00332021 0.307099
1405 2 0.198621 0.0230446 0.314132
1406 4 0.173774 0.0258149 0.313791
1407 4 0.223469 0.0202743 0.314472
743 4 0.488984 0.00494354 0.257319
425 4 0.484262 0.0246246 0.256606
424 2 0.482138 0.0453957 0.270362
426 4 0.480015 0.0661669 0.284118
258 4 0.492603 0.0712999 0.298554
391 2 0.0663783 0.146671 0.319137
392 4 0.0785866 0.152355 0.29807
545 4 0.0812648 0.133393 0.294315
675 4 0.120684 0.108491 0.25025
546 4 0.101102 0.111346 0.254052
544 2 0.0911835 0.122369 0.274184
599 4 0.181983 0.106507 0.299456
598 2 0.185523 0.110494 0.323885
404 4 0.201199 0.149735 0.298855
403 2 0.181468 0.162551 0.290394
256 2 0.486263 0.0883854 0.315673
530 4 0.0163741 0.246005 0.277272
444 4 0.0350707 0.241777 0.271638
442 2 0.0581575 0.248349 0.278637
443 4 0.0812443 0.254921 0.285636
402 4 0.15222 0.239597 0.25506
400 2 0.156074 0.217054 0.265168
405 4 0.161737 0.175368 0.281932
401 4 0.159928 0.194512 0.275275
708 4 0.250369 0.20998 0.337309
717 4 0.431232 0.221985 0.329325
377 4 0.431928 0.231602 0.311505
763 2 0.455164 0.180233 0.281521
765 4 0.476067 0.17662 0.268285
764 4 0.434261 0.183845 0.294758
749 4 0.0449622 0.327804 0.291292
748 2 0.0620936 0.332513 0.273699
366 4 0.0275796 0.329451 0.302134
364 2 0.00673796 0.335918 0.31434
396 4 0.0928453 0.254206 0.268066
363 4 0.155487 0.271384 0.268395
395 4 0.14269 0.256316 0.264642
394 2 0.117768 0.255261 0.266354
361 2 0.170526 0.275063 0.248761
266 4 0.395148 0.284801 0.312434
265 2 0.399341 0.307722 0.321504
378 4 0.408975 0.274815 0.321825
267 4 0.403535 0.330642 0.330573
376 2 0.420451 0.253209 0.316665
750 4 0.0792251 0.337222 0.256106
263 4 0.0301184 0.42029 0.252729
735 4 0.161843 0.413492 0.26798
733 2 0.164127 0.402098 0.245842
727 2 0.324755 0.403798 0.31069
729 4 0.323869 0.379721 0.304008
308 4 0.326753 0.362769 0.31399
543 4 0.414655 0.352104 0.245469
307 2 0.340797 0.350068 0.297661
344 4 0.361105 0.351241 0.268776
309 4 0.354841 0.337366 0.281333
615 4 0.416848 0.353095 0.263861
2861 4 0.497867 0.406457 0.252199
614 4 0.452113 0.362834 0.297952
613 2 0.43448 0.357964 0.280907
2923 2 0.476158 0.366936 0.319342
2925 4 0.459125 0.350274 0.311763
118 3 0.494347 0.4054 0.33257
2860 2 0.486847 0.417183 0.271915
2924 4 0.49319 0.383599 0.326921
777 4 0.0392056 0.437864 0.309258
775 2 0.0526048 0.451366 0.29303
602 4 0.0327093 0.43716 0.329022
776 4 0.066004 0.464868 0.276802
1757 4 0.077856 0.477995 0.285472
1756 2 0.0891035 0.499902 0.281142
677 4 0.155576 0.426343 0.28253
676 2 0.158282 0.450336 0.276034
678 4 0.160988 0.474329 0.269538
767 4 0.216553 0.497014 0.25355
291 4 0.224312 0.433807 0.285621
414 4 0.243546 0.435856 0.288496
289 2 0.225984 0.437842 0.261002
1544 4 0.194366 0.498751 0.308415
768 4 0.167451 0.487635 0.254862
766 2 0.192002 0.492325 0.254206
635 4 0.18035 0.484752 0.311899
634 2 0.187422 0.465839 0.326645
412 2 0.253408 0.424241 0.308321
728 4 0.325642 0.427876 0.317373
437 4 0.293214 0.46055 0.26722
433 2 0.312939 0.45947 0.296271
435 4 0.306443 0.472222 0.275768
434 4 0.319434 0.446718 0.316774
413 4 0.263269 0.412625 0.328145
2862 4 0.475827 0.427908 0.291631
713 4 0.462208 0.441821 0.298466
714 4 0.422103 0.455714 0.272021
120 3 0.476523 0.43342 0.314827
116 1 0.489375 0.428063 0.332848
712 2 0.442156 0.448768 0.285244
730 2 0.0779259 0.0840804 0.395809
316 2 0.0844988 0.0774222 0.330778
732 4 0.0930912 0.0730794 0.379251
606 4 0.157764 0.0563319 0.363576
604 2 0.13332 0.0595903 0.367704
318 4 0.0997025 0.0831632 0.34978
605 4 0.108876 0.0628486 0.371832
2429 4 0.207918 0.0199792 0.411339
441 4 0.220868 0.00543329 0.41522
321 4 0.27484 0.0713828 0.388043
683 4 0.259372 0.0585925 0.384187
684 4 0.279479 0.0158256 0.367834
682 2 0.269426 0.037209 0.37601
247 2 0.311366 0.0101013 0.356324
319 2 0.277005 0.0845601 0.409181
248 4 0.334237 0.0198252 0.353579
633 4 0.332481 0.0363093 0.364925
631 2 0.339098 0.0547279 0.380486
632 4 0.345715 0.0731466 0.396047
468 4 0.363839 0.0741091 0.405403
731 4 0.0627607 0.0950815 0.412367
2757 4 0.00138553 0.104518 0.395421
2585 4 0.00797098 0.114135 0.377876
2584 2 0.0273939 0.119002 0.362902
2586 4 0.0468168 0.12387 0.347927
393 4 0.05417 0.140986 0.340204
399 4 0.0713382 0.143303 0.352388
397 2 0.0891093 0.136833 0.368744
398 4 0.10688 0.130362 0.385099
600 4 0.189063 0.11448 0.348313
685 2 0.205108 0.149723 0.361052
687 4 0.192253 0.133494 0.347034
686 4 0.217964 0.165953 0.37507
420 4 0.369324 0.136791 0.362143
418 2 0.385766 0.154438 0.355552
466 2 0.362532 0.0982801 0.411666
574 2 0.377579 0.153004 0.413204
257 4 0.479923 0.105471 0.332792
761 4 0.485756 0.115756 0.347133
762 4 0.437591 0.127246 0.354115
760 2 0.461674 0.121501 0.350624
470 4 0.0767824 0.206342 0.40515
390 4 0.0947598 0.203078 0.397815
388 2 0.115717 0.194938 0.386873
276 4 0.140353 0.18067 0.356877
389 4 0.136674 0.186799 0.375932
274 2 0.156852 0.197611 0.348755
410 4 0.20888 0.179746 0.388414
409 2 0.218174 0.197058 0.403877
275 4 0.17335 0.214552 0.340632
473 4 0.239306 0.22337 0.325659
474 4 0.190721 0.222605 0.337476
472 2 0.215014 0.222988 0.331568
411 4 0.227467 0.21437 0.419339
707 4 0.290018 0.205219 0.367409
706 2 0.270194 0.2076 0.352359
497 4 0.298678 0.217849 0.380723
496 2 0.319862 0.229496 0.387108
575 4 0.398636 0.164161 0.405637
419 4 0.402208 0.172084 0.348961
716 4 0.421071 0.177761 0.35034
2455 2 0.385262 0.24238 0.398075
498 4 0.341045 0.241143 0.393492
2456 4 0.361433 0.24304 0.390529
715 2 0.426151 0.199873 0.339832
270 4 0.486551 0.256479 0.373353
616 2 0.0526464 0.259484 0.368213
618 4 0.0768805 0.253574 0.366492
617 4 0.0284124 0.265394 0.369934
695 4 0.106121 0.30518 0.402627
694 2 0.0964261 0.28517 0.414064
1258 2 0.142439 0.313967 0.39512
1259 4 0.11858 0.311983 0.387908
1260 4 0.166297 0.315951 0.402332
509 4 0.26526 0.328074 0.397047
488 4 0.262162 0.310024 0.403101
487 2 0.260601 0.287873 0.414595
306 4 0.477665 0.264422 0.389341
304 2 0.458912 0.278684 0.397716
305 4 0.440159 0.292945 0.40609
407 4 0.050203 0.393569 0.411713
326 4 0.176754 0.331124 0.396509
504 4 0.19066 0.384682 0.364861
374 4 0.238623 0.386298 0.383106
502 2 0.197775 0.40659 0.355134
510 4 0.23537 0.366875 0.386958
508 2 0.250315 0.347474 0.392003
373 2 0.259446 0.39983 0.380197
375 4 0.28027 0.413361 0.377288
3 3 0.292699 0.411085 0.362235
752 4 0.496005 0.396504 0.407416
751 2 0.486086 0.408155 0.387642
601 2 0.0371524 0.43836 0.353598
679 2 0.0483486 0.483839 0.382607
603 4 0.0415956 0.43956 0.378175
680 4 0.0482472 0.458839 0.38218
569 4 0.139991 0.445466 0.403685
1775 4 0.124518 0.479522 0.334837
549 4 0.0858233 0.480941 0.387581
547 2 0.108063 0.4715 0.394019
548 4 0.130302 0.462058 0.400457
636 4 0.194495 0.446926 0.341392
503 4 0.204889 0.428497 0.345407
2 3 0.311366 0.428318 0.334535
669 4 0.332017 0.491727 0.395023
5 3 0.274046 0.428004 0.334244
1 1 0.292454 0.429097 0.347608
668 4 0.299219 0.460963 0.373146
4 3 0.292401 0.448994 0.359545
667 2 0.315618 0.476345 0.384084
753 4 0.476166 0.419807 0.367867
119 3 0.478186 0.433478 0.352442
367 2 0.0502175 0.0764279 0.442826
369 4 0.0342063 0.0740136 0.461878
368 4 0.0662286 0.0788421 0.423773
340 2 0.171281 0.0631919 0.470387
341 4 0.182348 0.0445973 0.457859
2430 4 0.192787 0.0543616 0.444348
2428 2 0.200352 0.0371704 0.427843
726 4 0.264745 0.0807981 0.487873
1216 2 0.379613 0.0291373 0.486211
1218 4 0.393037 0.0203727 0.467023
2878 2 0.484797 0.0211795 0.45033
2880 4 0.485524 0.0390542 0.467798
642 4 0.495467 0.0495578 0.484119
640 2 0.506094 0.0687141 0.472065
719 4 0.0397254 0.0928255 0.467799
718 2 0.026964 0.0953346 0.489154
342 4 0.160215 0.0817864 0.482915
1152 4 0.164385 0.099133 0.473749
1150 2 0.174138 0.117701 0.48736
320 4 0.279171 0.0977375 0.43032
725 4 0.261485 0.0987226 0.441303
724 2 0.263115 0.0897603 0.464588
432 4 0.28239 0.0883976 0.493158
576 4 0.356521 0.141847 0.420772
467 4 0.361225 0.122451 0.41793
516 4 0.413966 0.15865 0.417011
514 2 0.430888 0.146525 0.43086
515 4 0.44781 0.134399 0.44471
260 4 0.0733559 0.204289 0.46757
471 4 0.0610677 0.200334 0.452242
469 2 0.0689251 0.203338 0.428696
259 2 0.0792339 0.200994 0.491649
650 4 0.244871 0.212686 0.427286
649 2 0.252318 0.235047 0.435633
584 4 0.327281 0.247282 0.450089
2457 4 0.409091 0.241719 0.405621
3425 4 0.468871 0.198604 0.47765
696 4 0.0867309 0.265161 0.425501
878 4 0.113278 0.259419 0.495573
651 4 0.259765 0.257409 0.443981
489 4 0.25904 0.265723 0.426088
585 4 0.354879 0.284355 0.469186
583 2 0.34108 0.265818 0.459637
1011 4 0.435423 0.298169 0.425651
1010 4 0.44979 0.321133 0.467686
1009 2 0.442607 0.309651 0.446669
406 2 0.0285734 0.401756 0.421216
709 2 0.154253 0.411122 0.473517
711 4 0.158922 0.387553 0.480435
325 2 0.183582 0.343175 0.417326
8 3 0.175131 0.37696 0.478351
327 4 0.190409 0.355227 0.438142
7 3 0.198169 0.35598 0.457333
6 1 0.186821 0.356943 0.477319
10 3 0.201743 0.355765 0.494482
9 3 0.172053 0.33908 0.478428
1191 4 0.221016 0.364146 0.498111
1189 2 0.245241 0.36506 0.491988
802 2 0.29577 0.331386 0.498095
803 4 0.278745 0.347622 0.489624
1190 4 0.269466 0.365974 0.485865
334 2 0.339305 0.410698 0.433684
335 4 0.359944 0.397591 0.438917
240 4 0.362882 0.409673 0.453664
238 2 0.382287 0.405573 0.468889
239 4 0.401693 0.401473 0.484115
2507 4 0.440825 0.336791 0.478525
559 2 0.478399 0.403784 0.443543
560 4 0.466356 0.398615 0.464837
2506 2 0.448342 0.360403 0.47518
2508 4 0.455859 0.384014 0.471836
1382 4 0.0640789 0.463817 0.483103
1381 2 0.0581836 0.47533 0.461705
1383 4 0.0522883 0.486843 0.440307
408 4 0.00694388 0.409944 0.430718
570 4 0.15609 0.430858 0.44872
568 2 0.148041 0.438162 0.426202
710 4 0.149584 0.434692 0.4666
1399 2 0.306469 0.451701 0.450394
1401 4 0.306512 0.438977 0.42887
336 4 0.318665 0.423805 0.428451
588 4 0.315232 0.480271 0.466285
586 2 0.324522 0.491856 0.486401
1400 4 0.306426 0.464425 0.471919
1445 4 0.264529 0.498105 0.498384
561 4 0.490442 0.408953 0.422249
1180 2 0.215634 0.0613244 0.550196
1182 4 0.195448 0.0738301 0.542365
950 4 0.182203 0.0639928 0.531201
1181 4 0.235819 0.0488188 0.558027
961 2 0.247335 0.0128322 0.537954
963 4 0.246089 0.0355137 0.548403
841 2 0.352561 0.071624 0.522631
842 4 0.369215 0.0532983 0.519167
1217 4 0.366189 0.037902 0.505398
1082 4 0.0590027 0.165027 0.578171
1035 4 0.0661198 0.171604 0.561635
720 4 0.0142025 0.0978437 0.510509
951 4 0.140822 0.0837372 0.551164
1030 2 0.129846 0.110314 0.570506
1031 4 0.133286 0.102676 0.546948
939 4 0.199823 0.135546 0.51258
949 2 0.161512 0.073865 0.541182
937 2 0.189932 0.14634 0.53285
938 4 0.180041 0.157134 0.553119
1151 4 0.18389 0.13627 0.500972
431 4 0.329184 0.0977949 0.508084
430 2 0.305787 0.0930962 0.500621
843 4 0.335907 0.0899497 0.526094
898 2 0.389777 0.155394 0.555342
899 4 0.374847 0.139935 0.56812
856 2 0.332352 0.156359 0.569763
857 4 0.35511 0.146718 0.573541
808 2 0.485876 0.105693 0.570262
809 4 0.480523 0.118983 0.549771
3426 4 0.477369 0.176041 0.521461
3008 4 0.485355 0.136053 0.540816
1033 2 0.0816323 0.177415 0.542906
3044 4 0.084584 0.247311 0.56595
1034 4 0.0971447 0.183227 0.524177
261 4 0.085112 0.197698 0.515727
877 2 0.116864 0.243728 0.514707
879 4 0.12045 0.228036 0.533841
1272 4 0.123007 0.21043 0.543639
1270 2 0.130649 0.219815 0.565518
796 2 0.300351 0.205601 0.560854
812 4 0.319818 0.239885 0.565132
798 4 0.302231 0.230168 0.565108
797 4 0.29847 0.181033 0.5566
858 4 0.309593 0.166 0.565986
900 4 0.404707 0.170854 0.542563
872 4 0.397704 0.187698 0.551316
873 4 0.381668 0.234788 0.546206
871 2 0.389686 0.211243 0.548761
813 4 0.363194 0.240242 0.540251
811 2 0.341506 0.240063 0.552692
3424 2 0.47312 0.187323 0.499555
3043 2 0.0631807 0.257386 0.574047
928 2 0.336078 0.300368 0.532372
929 4 0.313544 0.302242 0.5217
804 4 0.312794 0.315151 0.506566
1204 2 0.387822 0.294044 0.560811
1206 4 0.366678 0.283176 0.553066
930 4 0.358611 0.298493 0.543044
1205 4 0.408966 0.304913 0.568557
954 4 0.425484 0.307535 0.577814
983 4 0.0546987 0.389723 0.553156
982 2 0.0298392 0.387043 0.553102
1041 4 0.060775 0.402833 0.568051
984 4 0.00497974 0.384364 0.553048
1039 2 0.0826496 0.40033 0.579901
895 2 0.203562 0.378272 0.532603
896 4 0.205856 0.360664 0.515
897 4 0.201268 0.39588 0.550206
1137 4 0.197264 0.41542 0.546525
1001 4 0.460802 0.384469 0.551945
926 4 0.455931 0.395701 0.535651
925 2 0.47438 0.406733 0.52288
1000 2 0.457471 0.390022 0.576095
539 4 0.0254225 0.426266 0.520954
538 2 0.0429741 0.441636 0.511962
1936 2 0.0308477 0.492836 0.55515
1937 4 0.0392413 0.486644 0.532426
1881 4 0.0227522 0.489565 0.519567
2813 4 0.0106625 0.431494 0.508491
1938 4 0.022454 0.499028 0.577875
540 4 0.0605256 0.457007 0.50297
2243 4 0.150024 0.479497 0.568827
1136 4 0.163791 0.428468 0.58131
2242 2 0.134198 0.497393 0.561448
1135 2 0.180528 0.421944 0.563917
1171 2 0.229802 0.464088 0.577304
1172 4 0.251079 0.466546 0.564404
882 4 0.270644 0.468821 0.560529
880 2 0.267689 0.477749 0.537361
881 4 0.264733 0.486676 0.514193
587 4 0.333812 0.50344 0.506517
1953 4 0.344184 0.480321 0.568174
1455 4 0.355294 0.489573 0.555293
927 4 0.492829 0.417764 0.510108
1057 2 0.105498 0.0235944 0.652325
1155 4 0.122433 0.0544124 0.625559
1059 4 0.110908 0.0392489 0.633594
1153 2 0.123579 0.0763961 0.613702
1058 4 0.100088 0.00793992 0.671056
1003 2 0.310231 0.0503711 0.631614
1005 4 0.30445 0.0660927 0.613051
1004 4 0.316011 0.0346494 0.650178
1142 4 0.367769 0.0643651 0.638294
44 3 0.468049 0.0671462 0.609958
41 1 0.490575 0.0653672 0.615233
2281 2 0.487944 0.00855369 0.60824
45 3 0.502374 0.0816314 0.604514
1163 4 0.498107 0.065556 0.6574
43 3 0.498525 0.0444558 0.609076
1154 4 0.124725 0.0983799 0.601845
1032 4 0.126405 0.117953 0.594064
1221 4 0.139117 0.108675 0.656054
1210 2 0.212118 0.144366 0.664856
1211 4 0.232169 0.154636 0.654009
888 4 0.243623 0.144463 0.640603
887 4 0.273859 0.104632 0.640767
886 2 0.258741 0.124547 0.640685
1141 2 0.375217 0.0854644 0.649453
1143 4 0.382665 0.106564 0.660612
810 4 0.491229 0.0924021 0.590754
1081 2 0.0433892 0.171062 0.596745
1199 4 0.00890783 0.177175 0.62322
1083 4 0.0277757 0.177097 0.615318
1271 4 0.13829 0.2292 0.587398
909 4 0.148101 0.235772 0.60329
1239 4 0.308969 0.228443 0.614379
906 4 0.491282 0.24792 0.633995
3357 4 0.482133 0.237696 0.649251
3355 2 0.492939 0.220232 0.663513
3045 4 0.0417774 0.267461 0.582144
907 2 0.169488 0.248618 0.601629
893 4 0.124658 0.297822 0.654446
892 2 0.106457 0.31457 0.658104
947 4 0.187011 0.264179 0.619365
908 4 0.190875 0.261465 0.599968
946 2 0.196489 0.280522 0.635743
948 4 0.205968 0.296864 0.652122
1065 4 0.220289 0.284422 0.661819
1237 2 0.322214 0.248891 0.608752
1238 4 0.335458 0.269338 0.603125
792 4 0.336344 0.284038 0.618677
791 4 0.368473 0.315183 0.641002
790 2 0.352409 0.29961 0.62984
904 2 0.47047 0.255289 0.622259
905 4 0.449658 0.262658 0.610523
953 4 0.450194 0.266009 0.590688
952 2 0.437839 0.286772 0.584251
3114 4 0.486906 0.321789 0.638466
3122 4 0.476246 0.309749 0.650016
1281 4 0.0751362 0.34683 0.659319
894 4 0.0882559 0.331319 0.661762
1040 4 0.104524 0.397828 0.591751
1067 4 0.174889 0.349907 0.677018
993 4 0.112551 0.415187 0.586984
1027 2 0.232908 0.404215 0.658323
1028 4 0.212788 0.390443 0.652781
1068 4 0.216787 0.371908 0.660857
1066 2 0.195838 0.360907 0.668938
1002 4 0.45414 0.395575 0.600246
1910 4 0.447669 0.413404 0.607363
992 4 0.154642 0.440812 0.595493
991 2 0.133596 0.427999 0.591238
1161 4 0.154032 0.485767 0.587423
1160 4 0.190292 0.452737 0.597167
1173 4 0.208525 0.461629 0.590203
1159 2 0.172162 0.469252 0.592295
1029 4 0.253027 0.417988 0.663864
1139 4 0.274381 0.422975 0.666723
891 4 0.355464 0.497104 0.633551
889 2 0.377834 0.495234 0.644563
1952 4 0.359126 0.486771 0.615459
1951 2 0.351655 0.483546 0.591817
890 4 0.400204 0.493364 0.655574
1909 2 0.441614 0.431125 0.62393
1911 4 0.43556 0.448846 0.640498
1267 2 0.430174 0.473545 0.662726
1268 4 0.446073 0.45545 0.656023
945 4 0.00497686 0.0267809 0.669616
943 2 0.0256105 0.0406972 0.672018
944 4 0.0462441 0.0546136 0.67442
1075 2 0.0604321 0.0699149 0.707838
1076 4 0.0445304 0.0683758 0.688604
1203 4 0.0801579 0.0785446 0.748252
2390 4 0.162491 0.005019 0.739672
831 4 0.315083 0.0342421 0.671191
2400 4 0.326724 0.00458807 0.707664
829 2 0.314577 0.0469106 0.692741
830 4 0.314071 0.0595792 0.714292
1077 4 0.0763339 0.071454 0.727072
1219 2 0.160952 0.112593 0.66759
32 3 0.0992165 0.142684 0.739564
1129 2 0.136424 0.138229 0.730432
1131 4 0.114622 0.150439 0.729555
1130 4 0.158226 0.126018 0.731309
1284 4 0.14844 0.110965 0.739621
1282 2 0.146662 0.0869443 0.746331
1227 4 0.165918 0.13945 0.744585
1220 4 0.182787 0.11651 0.679126
1212 4 0.192067 0.134096 0.675702
1025 4 0.389566 0.105474 0.679575
1024 2 0.390453 0.119754 0.700081
1026 4 0.39134 0.134034 0.720586
35 3 0.07852 0.172985 0.746375
3188 4 0.00204774 0.238977 0.739859
851 4 0.0225419 0.1821 0.714249
1207 2 0.0596603 0.244765 0.69985
1208 4 0.083005 0.23581 0.699754
850 2 0.997901 0.18625 0.71337
1107 4 0.0214362 0.178359 0.732774
1105 2 0.0419629 0.171736 0.745422
1178 4 0.00190259 0.245112 0.721146
822 4 0.134442 0.220567 0.716225
1278 4 0.140686 0.215906 0.734389
1276 2 0.134419 0.192859 0.741785
820 2 0.116157 0.23531 0.707654
821 4 0.0978717 0.250054 0.699083
977 4 0.30677 0.201926 0.727803
918 4 0.309255 0.2055 0.708155
916 2 0.306427 0.229609 0.702157
976 2 0.307075 0.194994 0.751825
1008 4 0.374827 0.243497 0.726443
1209 4 0.0363155 0.25372 0.699946
1243 2 0.0290244 0.318817 0.704547
1245 4 0.0291043 0.295128 0.696547
1179 4 0.00952177 0.288387 0.697273
1177 2 0.00571218 0.266749 0.709209
1063 2 0.236061 0.284458 0.681221
1242 4 0.252972 0.300652 0.713687
1064 4 0.251832 0.284495 0.700623
917 4 0.303599 0.253717 0.696159
1240 2 0.253799 0.31412 0.734738
1098 4 0.282211 0.313704 0.698296
1096 2 0.295455 0.292671 0.701013
1097 4 0.308699 0.271638 0.70373
3121 2 0.472989 0.297718 0.671691
3123 4 0.469732 0.285687 0.693366
1244 4 0.0289446 0.342506 0.712548
1279 2 0.0786225 0.366746 0.674029
3275 4 0.0767358 0.396225 0.705294
1280 4 0.0821087 0.386661 0.68874
3274 2 0.0926459 0.400669 0.724064
942 4 0.148632 0.32988 0.72554
940 2 0.153343 0.335135 0.701553
941 4 0.158054 0.340391 0.677567
3276 4 0.108556 0.405112 0.742834
1228 2 0.283268 0.398443 0.712238
1230 4 0.291526 0.378679 0.725137
1981 2 0.0354527 0.509196 0.727257
1229 4 0.27501 0.418206 0.699339
1138 2 0.293749 0.437233 0.673561
1140 4 0.313118 0.451491 0.680399
1989 4 0.304396 0.462238 0.697941
1987 2 0.300284 0.468081 0.721901
1988 4 0.296171 0.473924 0.745862
1269 4 0.414274 0.491641 0.66943
1100 4 0.448056 0.474515 0.734449
2049 4 0.139614 0.0531386 0.771534
1283 4 0.144884 0.0629235 0.753041
2047 2 0.152583 0.032808 0.764927
1201 2 0.0972611 0.0639834 0.759236
1202 4 0.114364 0.0494221 0.770219
2048 4 0.165552 0.0124774 0.758321
874 2 0.245861 0.996166 0.823882
875 4 0.255603 0.996249 0.800855
818 4 0.374586 0.066034 0.828068
817 2 0.354819 0.077603 0.818038
1113 4 0.464555 0.00502559 0.779262
846 4 0.464421 0.0204517 0.766311
844 2 0.481087 0.0361515 0.776358
845 4 0.497753 0.0518513 0.786404
862 2 0.0532123 0.0872745 0.824558
1106 4 0.0624897 0.165113 0.758069
863 4 0.0361671 0.10008 0.811495
832 2 0.0534337 0.135365 0.789007
833 4 0.0426887 0.119373 0.804944
834 4 0.0641786 0.151357 0.77307
33 3 0.0823373 0.146558 0.772921
31 1 0.0928488 0.157885 0.755612
1225 2 0.179702 0.135457 0.76506
1226 4 0.193487 0.131463 0.785535
840 4 0.203952 0.136006 0.802528
838 2 0.225945 0.147581 0.805269
839 4 0.247938 0.159157 0.80801
1085 4 0.319668 0.102134 0.812853
1084 2 0.325257 0.125348 0.820272
1086 4 0.330847 0.148562 0.827691
819 4 0.335052 0.089172 0.808007
3268 2 0.492034 0.166425 0.794081
1036 2 0.445922 0.118637 0.81712
1037 4 0.465602 0.122313 0.802141
1213 2 0.0431223 0.223137 0.808618
1215 4 0.0214631 0.232721 0.800604
3189 4 0.00708074 0.243284 0.789426
3187 2 0.00456424 0.24113 0.764643
1214 4 0.0647816 0.213554 0.816631
153 3 0.0134909 0.234858 0.819579
779 4 0.0715242 0.214017 0.835684
34 3 0.111745 0.168745 0.763574
1277 4 0.128151 0.169811 0.749181
1073 4 0.130889 0.163923 0.7713
1072 2 0.127106 0.173945 0.793892
1074 4 0.123322 0.183968 0.816485