ITEM: TIMESTEP
4180000
ITEM: NUMBER OF ATOMS
4590
ITEM: BOX BOUNDS pp pp pp
-9.9985700000000008e+00 9.9985700000000008e+00
-9.9985700000000008e+00 9.9985700000000008e+00
-9.9985700000000008e+00 9.9985700000000008e+00
ITEM: ATOMS id type xs ys zs
3290 4 0.0931267 0.0584831 0.0601079
1668 4 0.0750256 0.051055 0.0638481
701 4 0.017137 0.0749161 0.00294442
3289 2 0.0942176 0.0380797 0.0456963
3291 4 0.0953085 0.0176764 0.0312848
566 4 0.116401 0.0187079 0.0298151
565 2 0.13396 0.00772774 0.0158048
985 2 0.32081 0.0436496 0.0036175
986 4 0.312436 0.0672074 0.00392223
490 2 0.295698 0.00161472 0.0906988
2264 4 0.303823 0.0807355 0.992709
987 4 0.329183 0.0200918 0.00331277
655 2 0.0105753 0.239841 0.05174
505 2 0.119701 0.22813 0.0659189
506 4 0.137301 0.211196 0.0605667
737 4 0.150969 0.224347 0.0648173
507 4 0.1021 0.245064 0.0712711
423 4 0.108166 0.187595 0.998343
913 2 0.162112 0.240928 0.00175789
736 2 0.175693 0.22145 0.0671605
738 4 0.200418 0.218553 0.0695038
354 4 0.215015 0.214685 0.0826636
352 2 0.224345 0.193195 0.0739294
353 4 0.233676 0.171705 0.0651951
461 4 0.252209 0.170828 0.0599746
665 4 0.32638 0.17204 0.00431603
460 2 0.270889 0.170003 0.0433743
462 4 0.289568 0.169178 0.0267739
2806 2 0.0128133 0.282428 0.0188045
2808 4 0.0240861 0.272874 0.0389745
657 4 0.0174701 0.263591 0.0554246
1054 2 0.0851897 0.319488 0.99999
1055 4 0.0789374 0.29637 0.992805
294 4 0.110757 0.310925 0.063068
292 2 0.112585 0.286015 0.0642284
914 4 0.173038 0.252672 0.020938
293 4 0.114414 0.261106 0.0653888
287 4 0.179367 0.269834 0.0282768
286 2 0.178974 0.293091 0.0374498
288 4 0.178581 0.316348 0.0466228
610 2 0.255598 0.318869 0.0759192
990 4 0.162625 0.328652 0.0471301
573 4 0.368126 0.271551 0.00868382
741 4 0.323519 0.330652 0.0472174
1071 4 0.38671 0.269799 0.0017553
571 2 0.343687 0.275056 0.00473013
1056 4 0.091442 0.342607 0.00717618
1102 2 0.147032 0.409373 0.0235287
1104 4 0.148721 0.38698 0.034523
455 4 0.101616 0.367203 0.0796973
989 4 0.166347 0.37791 0.0393479
988 2 0.164486 0.353281 0.043239
612 4 0.255815 0.341243 0.0647611
609 4 0.259297 0.357142 0.0765735
386 4 0.339107 0.381517 0.0747582
740 4 0.351478 0.367104 0.0669719
739 2 0.337499 0.348878 0.0570946
227 4 0.403019 0.412844 0.0333909
1305 4 0.408974 0.39298 0.0382139
1303 2 0.408914 0.381853 0.0158225
1046 4 0.499007 0.31564 0.0260633
282 4 0.489246 0.340809 0.0881454
552 4 0.00316334 0.428139 0.0511787
314 4 0.00281519 0.420527 0.0703666
550 2 0.997266 0.452117 0.0472481
313 2 0.0241786 0.423415 0.0830331
1786 2 0.14449 0.493779 0.0536551
1103 4 0.145344 0.431766 0.0125344
1787 4 0.161201 0.475202 0.0545541
1619 4 0.164538 0.45598 0.0585351
1618 2 0.163827 0.446162 0.0815192
1289 4 0.209467 0.439314 0.00752351
1440 4 0.213608 0.412283 0.0670904
243 4 0.223018 0.429523 0.0611801
241 2 0.222126 0.450404 0.0474544
242 4 0.221234 0.471284 0.0337288
272 4 0.309098 0.50074 0.0465225
524 4 0.303211 0.467798 0.0671592
523 2 0.324427 0.456641 0.0600476
226 2 0.382192 0.422989 0.0427977
228 4 0.361364 0.433134 0.0522044
525 4 0.345642 0.445483 0.0529359
1583 4 0.488111 0.494439 0.0609318
1666 2 0.0601028 0.0593533 0.0821135
1667 4 0.04518 0.0676516 0.100379
19 3 0.0222007 0.0372677 0.116079
17 3 0.0258838 0.0667655 0.0930793
1420 2 0.0104205 0.020377 0.14815
1421 4 0.0112046 0.00187465 0.16495
1422 4 0.00963646 0.0388793 0.13135
16 1 0.0108553 0.0544707 0.105414
1504 2 0.14962 0.0227594 0.151212
1506 4 0.167814 0.0344502 0.138663
1661 4 0.326762 0.00657652 0.15268
652 2 0.252548 0.0758446 0.160263
491 4 0.309678 0.0222236 0.0884621
1475 4 0.301845 0.0419379 0.091304
1474 2 0.28704 0.0559526 0.10578
1476 4 0.272235 0.0699673 0.120257
486 4 0.323926 0.0279964 0.154187
654 4 0.266775 0.0745461 0.139743
484 2 0.337409 0.0353372 0.134451
297 4 0.371108 0.0423969 0.122451
295 2 0.392196 0.0300561 0.117142
485 4 0.350891 0.0426781 0.114715
557 4 0.403764 0.0770008 0.144691
747 4 0.476873 0.00569946 0.106712
745 2 0.45387 0.0134973 0.112647
296 4 0.413284 0.0177152 0.111833
746 4 0.430867 0.0212952 0.118582
556 2 0.426911 0.0859822 0.141737
512 4 0.0074468 0.136858 0.168088
450 4 0.113845 0.100249 0.113951
448 2 0.112287 0.109354 0.137186
449 4 0.110729 0.11846 0.160421
580 2 0.325889 0.15024 0.143934
581 4 0.308651 0.16736 0.138022
582 4 0.343127 0.133121 0.149846
758 4 0.34114 0.113539 0.149246
558 4 0.450058 0.0949635 0.138783
771 4 0.465667 0.107162 0.138464
769 2 0.476954 0.113414 0.159882
30 3 0.295987 0.168357 0.153
26 1 0.289297 0.187247 0.163819
29 3 0.271239 0.196731 0.152758
27 3 0.30663 0.202368 0.164085
255 4 0.321691 0.21864 0.163474
253 2 0.33735 0.220688 0.144089
628 2 0.389238 0.237108 0.123807
254 4 0.353008 0.222736 0.124703
630 4 0.365536 0.236457 0.115873
629 4 0.412941 0.237759 0.13174
337 2 0.0581748 0.271938 0.145382
456 4 0.104139 0.317299 0.0816812
338 4 0.0655425 0.249244 0.137908
611 4 0.255381 0.296494 0.0870774
278 4 0.259457 0.277044 0.0917812
279 4 0.27321 0.279024 0.139819
277 2 0.266333 0.278034 0.1158
285 4 0.285091 0.275312 0.155608
283 2 0.282599 0.295842 0.169661
624 4 0.421695 0.242616 0.148657
622 2 0.440021 0.250132 0.163916
620 4 0.00205441 0.369268 0.169279
454 2 0.102877 0.342251 0.0806892
647 4 0.0907446 0.376577 0.149041
537 4 0.10139 0.391713 0.140141
535 2 0.100472 0.388223 0.1154
536 4 0.099553 0.384733 0.0906579
1438 2 0.203188 0.398748 0.0853494
625 2 0.207989 0.379507 0.141406
627 4 0.197676 0.37517 0.119045
1439 4 0.192768 0.385212 0.103608
607 2 0.263811 0.381662 0.078473
252 4 0.270575 0.414165 0.0992977
608 4 0.268326 0.406181 0.0803724
301 2 0.318573 0.414713 0.144146
302 4 0.337993 0.399256 0.141127
385 2 0.342385 0.387176 0.0988916
387 4 0.345662 0.392834 0.123025
12 3 0.388421 0.379043 0.134721
11 1 0.383038 0.400782 0.139974
15 3 0.360692 0.403928 0.136904
672 4 0.404709 0.371774 0.125253
13 3 0.388618 0.404743 0.162146
14 3 0.395016 0.415032 0.126124
670 2 0.414571 0.356117 0.108438
671 4 0.424433 0.34046 0.0916218
281 4 0.440641 0.347087 0.0980851
280 2 0.464944 0.343948 0.0931152
104 3 0.499185 0.347801 0.104918
315 4 0.045542 0.426303 0.0956996
1431 4 0.160517 0.439943 0.124191
1620 4 0.163116 0.436343 0.104503
1429 2 0.166654 0.431285 0.14683
1573 2 0.231101 0.477886 0.165246
1430 4 0.172791 0.422627 0.16947
1575 4 0.210967 0.464777 0.17217
251 4 0.297889 0.450904 0.0791766
250 2 0.284232 0.432535 0.0892372
303 4 0.299153 0.43017 0.147166
638 4 0.299046 0.43992 0.165284
637 2 0.282715 0.458808 0.163975
1558 2 0.357749 0.49858 0.118784
495 4 0.385694 0.432155 0.126846
1559 4 0.369529 0.48529 0.101184
493 2 0.380338 0.45018 0.110365
494 4 0.374983 0.468204 0.0938842
230 4 0.338036 0.506779 0.153442
1416 4 0.00171334 0.00936412 0.180151
690 4 0.120108 0.0286096 0.221142
688 2 0.117725 0.0201089 0.197748
689 4 0.115343 0.0116082 0.174355
1505 4 0.131426 0.0110686 0.163761
653 4 0.238321 0.077143 0.180783
693 4 0.238954 0.0848866 0.199011
22 3 0.371547 0.0527123 0.219908
698 4 0.393597 0.0542625 0.218996
697 2 0.405317 0.0324854 0.215311
699 4 0.417036 0.0107082 0.211625
333 4 0.396528 0.0734947 0.221667
21 1 0.365687 0.0740274 0.213546
25 3 0.359834 0.0739445 0.191537
24 3 0.383835 0.0881011 0.216859
23 3 0.34775 0.0810519 0.226481
331 2 0.417262 0.0837773 0.23113
349 2 0.46963 0.082274 0.210979
350 4 0.454386 0.0908212 0.228861
1518 4 0.422862 0.00326049 0.229111
511 2 0.0223429 0.150979 0.182367
513 4 0.0372391 0.1651 0.196646
578 4 0.0523489 0.162914 0.209377
236 4 0.122587 0.113686 0.175785
235 2 0.146557 0.118003 0.181442
237 4 0.170526 0.12232 0.187098
691 2 0.258815 0.0897195 0.21341
692 4 0.278677 0.0945525 0.227809
1701 4 0.295139 0.105291 0.230744
1699 2 0.316383 0.0971316 0.220386
757 2 0.342519 0.099925 0.170173
759 4 0.343898 0.0863108 0.1911
1700 4 0.337627 0.088972 0.210029
332 4 0.437996 0.09406 0.240593
770 4 0.488241 0.119666 0.181299
577 2 0.0471623 0.185601 0.218518
579 4 0.0419756 0.208289 0.227659
475 2 0.238024 0.207605 0.16882
476 4 0.225553 0.221676 0.185302
371 4 0.21164 0.235082 0.186795
370 2 0.201648 0.252948 0.201154
477 4 0.250494 0.193534 0.152337
756 4 0.320084 0.208388 0.18249
28 3 0.283422 0.182186 0.185688
754 2 0.3154 0.22558 0.200031
755 4 0.310716 0.242772 0.217571
765 4 0.503075 0.186877 0.23665
763 2 0.478502 0.184354 0.240522
764 4 0.453929 0.18183 0.244394
339 4 0.0508072 0.294633 0.152857
704 4 0.0442804 0.308607 0.16548
703 2 0.0274507 0.30821 0.183967
705 4 0.0106209 0.307813 0.202454
361 2 0.171109 0.27506 0.246525
372 4 0.191657 0.270813 0.215513
362 4 0.191176 0.266064 0.234627
284 4 0.280108 0.316372 0.183715
623 4 0.458347 0.257648 0.179176
528 4 0.439178 0.29993 0.229973
542 4 0.429041 0.315223 0.223356
526 2 0.447024 0.283599 0.212742
527 4 0.454871 0.267268 0.195511
750 4 0.0590644 0.337888 0.254088
619 2 0.0121843 0.387205 0.183449
621 4 0.0223142 0.405143 0.19762
298 2 0.0803794 0.35268 0.227904
299 4 0.0762066 0.33401 0.244003
264 4 0.0331981 0.405521 0.214028
262 2 0.0254304 0.418294 0.23407
646 2 0.0950234 0.374226 0.173563
300 4 0.0845522 0.371351 0.211805
648 4 0.0993023 0.371874 0.198085
626 4 0.218302 0.383844 0.163767
417 4 0.183234 0.41936 0.185099
645 4 0.403001 0.4046 0.178394
597 4 0.380048 0.405359 0.184048
345 4 0.377122 0.367138 0.225662
596 4 0.361966 0.36793 0.211848
595 2 0.371007 0.386644 0.197948
643 2 0.421813 0.417508 0.188627
659 4 0.368355 0.419564 0.188384
541 2 0.429361 0.337592 0.234522
735 4 0.150788 0.424441 0.255646
1574 4 0.251235 0.490995 0.158322
290 4 0.218565 0.428176 0.243756
416 4 0.210727 0.424129 0.226597
415 2 0.19698 0.421744 0.205848
1658 4 0.29127 0.501519 0.239509
639 4 0.266383 0.477696 0.162666
438 4 0.288456 0.428008 0.214112
436 2 0.289515 0.43717 0.237353
660 4 0.376554 0.468895 0.188298
658 2 0.372455 0.444229 0.188341
231 4 0.36031 0.478005 0.187744
229 2 0.349173 0.492392 0.170593
644 4 0.440624 0.430415 0.198859
447 4 0.438384 0.440573 0.217217
445 2 0.436942 0.433478 0.241149
1402 2 0.0421799 0.0223752 0.250516
233 4 0.0224643 0.0535145 0.270864
232 2 0.0316324 0.0628736 0.292161
234 4 0.0408005 0.0722328 0.313457
1403 4 0.0240891 0.0359869 0.261129
317 4 0.0559601 0.062418 0.319911
674 4 0.133758 0.0668943 0.290412
722 4 0.143882 0.0502636 0.295457
721 2 0.167865 0.0554245 0.300292
1340 4 0.24805 0.998935 0.330349
723 4 0.191848 0.0605854 0.305128
1405 2 0.222676 0.0354344 0.317306
1406 4 0.209811 0.0560454 0.311404
1407 4 0.235542 0.0148235 0.323208
424 2 0.495934 0.0436923 0.273214
426 4 0.492684 0.0663662 0.283239
258 4 0.494983 0.0828763 0.272117
391 2 0.0597538 0.132825 0.300407
392 4 0.0748497 0.149149 0.288968
393 4 0.044658 0.116501 0.311845
673 2 0.12716 0.0826759 0.272175
675 4 0.120563 0.0984574 0.253938
546 4 0.12028 0.117769 0.252726
545 4 0.0894733 0.150263 0.274993
544 2 0.104876 0.134016 0.263859
599 4 0.180365 0.114199 0.313461
404 4 0.155612 0.13899 0.291566
256 2 0.490927 0.0944526 0.293905
257 4 0.486871 0.106029 0.315693
444 4 0.0317661 0.248419 0.294119
442 2 0.0566586 0.25043 0.292894
443 4 0.081551 0.252441 0.291669
400 2 0.137827 0.206301 0.274697
405 4 0.172494 0.185871 0.295799
402 4 0.118213 0.215403 0.262143
401 4 0.157441 0.197199 0.287252
274 2 0.154832 0.202794 0.334828
403 2 0.164053 0.162431 0.293682
472 2 0.211195 0.215745 0.32692
474 4 0.190345 0.213756 0.313263
275 4 0.17743 0.20446 0.324257
717 4 0.394158 0.212949 0.320332
715 2 0.39659 0.189206 0.327782
377 4 0.413196 0.217371 0.323565
376 2 0.419189 0.240982 0.317927
529 2 0.00844891 0.24787 0.255366
530 4 0.0217365 0.244902 0.276337
363 4 0.151041 0.284056 0.258423
396 4 0.099479 0.256316 0.282837
395 4 0.131513 0.287544 0.260491
394 2 0.115496 0.27193 0.271664
265 2 0.41123 0.294513 0.328487
266 4 0.422021 0.272142 0.331364
378 4 0.425182 0.264593 0.312289
749 4 0.0330802 0.365264 0.286892
366 4 0.0127634 0.360664 0.286407
748 2 0.0460723 0.351576 0.27049
364 2 0.996302 0.36346 0.305018
734 4 0.16738 0.377325 0.257993
733 2 0.159084 0.400883 0.25682
727 2 0.302638 0.397755 0.326348
729 4 0.309067 0.374375 0.320247
308 4 0.31618 0.364446 0.303798
267 4 0.400439 0.316884 0.32561
343 2 0.378472 0.366826 0.250627
307 2 0.33915 0.363555 0.293962
344 4 0.379821 0.366513 0.275592
309 4 0.36212 0.362664 0.284125
543 4 0.429681 0.359962 0.245688
615 4 0.42661 0.366121 0.265328
614 4 0.447047 0.360768 0.310653
613 2 0.436828 0.363445 0.28799
2923 2 0.479424 0.3685 0.336929
2925 4 0.459129 0.357551 0.327266
2924 4 0.49972 0.379449 0.346593
263 4 0.0176627 0.431067 0.254113
777 4 0.0374648 0.438883 0.314299
775 2 0.0504986 0.451143 0.296835
602 4 0.044884 0.426229 0.328595
776 4 0.0635324 0.463404 0.279372
1757 4 0.0768467 0.476756 0.273425
677 4 0.146939 0.441013 0.266764
676 2 0.162012 0.460884 0.264986
1775 4 0.147687 0.483758 0.301998
766 2 0.199216 0.501463 0.248332
678 4 0.177085 0.480754 0.263208
291 4 0.240123 0.442083 0.286682
414 4 0.227201 0.435367 0.299555
289 2 0.229344 0.435129 0.265219
1544 4 0.21371 0.483149 0.301259
768 4 0.18278 0.483014 0.2445
635 4 0.166477 0.477151 0.305112
634 2 0.172117 0.458352 0.320603
412 2 0.243282 0.43393 0.318647
636 4 0.177756 0.439553 0.336094
1639 2 0.255286 0.506281 0.251041
1641 4 0.274804 0.491327 0.246503
728 4 0.296208 0.421135 0.332449
437 4 0.290574 0.446332 0.260593
433 2 0.303502 0.442311 0.293825
435 4 0.308543 0.446136 0.269635
434 4 0.29846 0.438486 0.318014
2 3 0.30737 0.438179 0.341224
2860 2 0.500631 0.414575 0.279929
446 4 0.4355 0.426382 0.265081
2862 4 0.488913 0.424223 0.299799
713 4 0.469042 0.41826 0.305119
714 4 0.424733 0.421297 0.282136
120 3 0.485847 0.416732 0.321676
712 2 0.446888 0.419778 0.293627
316 2 0.0734539 0.0705315 0.335827
2755 2 0.00509889 0.0706786 0.381447
731 4 0.0565178 0.0677591 0.400224
730 2 0.0813915 0.0701889 0.399467
606 4 0.153849 0.0683958 0.376023
604 2 0.129889 0.0696855 0.368992
732 4 0.106265 0.0726187 0.39871
605 4 0.10593 0.0709753 0.36196
2429 4 0.222757 0.0249637 0.403609
321 4 0.25397 0.0696393 0.38757
683 4 0.238484 0.0573849 0.385931
249 4 0.276187 0.0232045 0.351232
684 4 0.255424 0.0237497 0.353031
682 2 0.246954 0.0405673 0.369481
247 2 0.300577 0.0280696 0.353808
248 4 0.324967 0.0329347 0.356384
633 4 0.338505 0.021828 0.365761
631 2 0.350063 0.0374543 0.38149
632 4 0.361622 0.0530806 0.397218
468 4 0.34827 0.0675135 0.401261
2757 4 0.0162291 0.0920783 0.374863
2585 4 0.00363497 0.0992474 0.359798
2584 2 0.0229044 0.114416 0.35492
2586 4 0.0421739 0.129584 0.350042
399 4 0.0520651 0.124849 0.366
397 2 0.076947 0.123606 0.368127
318 4 0.0909476 0.0786449 0.351743
398 4 0.101829 0.122362 0.370255
598 2 0.183626 0.119734 0.337625
600 4 0.186887 0.125268 0.36179
685 2 0.21355 0.148799 0.379115
687 4 0.192051 0.136101 0.377801
686 4 0.235049 0.161497 0.38043
319 2 0.258199 0.0820522 0.408859
420 4 0.360334 0.115795 0.349593
418 2 0.372512 0.137581 0.348092
466 2 0.348489 0.0913381 0.408845
419 4 0.384691 0.159366 0.346591
575 4 0.40125 0.151219 0.43996
761 4 0.478785 0.0929537 0.329849
762 4 0.464543 0.131231 0.358706
760 2 0.471664 0.112092 0.344278
618 4 0.0560557 0.252402 0.415495
470 4 0.10117 0.204057 0.413486
390 4 0.106421 0.205604 0.394645
388 2 0.110605 0.197294 0.371437
276 4 0.132235 0.201128 0.345399
389 4 0.114789 0.188983 0.348229
473 4 0.232044 0.217735 0.340578
708 4 0.237227 0.201315 0.350027
410 4 0.244225 0.177506 0.389387
409 2 0.242352 0.193228 0.408739
707 4 0.285161 0.215194 0.353252
706 2 0.261194 0.208254 0.351639
497 4 0.303661 0.219158 0.349132
496 2 0.322699 0.224089 0.364574
2455 2 0.373829 0.236509 0.384087
498 4 0.341737 0.229021 0.380015
2456 4 0.354735 0.225021 0.395429
716 4 0.399022 0.165462 0.335232
616 2 0.0345604 0.259156 0.404654
617 4 0.0130651 0.26591 0.393813
696 4 0.0549297 0.311821 0.396607
695 4 0.104751 0.307926 0.398449
694 2 0.0798403 0.309873 0.397528
1258 2 0.130818 0.327279 0.383915
1259 4 0.108037 0.317225 0.381657
1260 4 0.1536 0.337333 0.386173
326 4 0.168472 0.341305 0.398088
509 4 0.274882 0.314648 0.374747
488 4 0.2771 0.309866 0.395138
487 2 0.268078 0.298992 0.415766
2457 4 0.392923 0.247996 0.372746
270 4 0.48932 0.253715 0.383283
306 4 0.49084 0.255854 0.402281
304 2 0.470622 0.265532 0.41336
408 4 0.0296883 0.399507 0.376079
406 2 0.0281335 0.40456 0.400517
374 4 0.245008 0.377657 0.367208
510 4 0.252674 0.359324 0.371347
508 2 0.263778 0.336986 0.373047
373 2 0.254991 0.399449 0.360094
752 4 0.489389 0.410215 0.411939
601 2 0.0500811 0.431998 0.352362
679 2 0.0414034 0.477127 0.378495
603 4 0.0552783 0.437768 0.376129
680 4 0.0499242 0.45476 0.385726
549 4 0.113132 0.460796 0.371634
547 2 0.130325 0.45102 0.386931
548 4 0.147518 0.441243 0.402227
504 4 0.201764 0.395952 0.378882
502 2 0.196759 0.411779 0.360184
503 4 0.191755 0.427606 0.341485
413 4 0.259364 0.432492 0.337739
375 4 0.264974 0.421241 0.352979
3 3 0.281762 0.422722 0.363982
5 3 0.271811 0.449344 0.339285
1 1 0.288269 0.442299 0.353361
668 4 0.292726 0.463571 0.388255
4 3 0.292788 0.458729 0.369111
667 2 0.305714 0.483307 0.396438
116 1 0.500191 0.420093 0.339043
751 2 0.482001 0.421453 0.39086
753 4 0.474613 0.432691 0.369781
119 3 0.489385 0.431446 0.356153
367 2 0.0406236 0.0551763 0.435146
369 4 0.0388281 0.0509728 0.459728
368 4 0.0424191 0.0593798 0.410564
719 4 0.045461 0.0678788 0.46872
441 4 0.234248 0.0133703 0.416968
340 2 0.169627 0.0770427 0.448609
341 4 0.179728 0.058977 0.434581
2430 4 0.200646 0.0600245 0.431583
2428 2 0.211701 0.0424941 0.417596
1216 2 0.381486 0.0320611 0.475163
1218 4 0.387235 0.023263 0.452475
842 4 0.378156 0.0607349 0.50188
1217 4 0.375737 0.0408592 0.49785
2878 2 0.486142 0.0274024 0.471137
2879 4 0.472698 0.0072094 0.465081
718 2 0.0322546 0.082848 0.483776
342 4 0.159526 0.0951084 0.462636
1152 4 0.165474 0.111783 0.473359
1150 2 0.174616 0.122396 0.49407
726 4 0.281843 0.0983387 0.483355
320 4 0.262427 0.0944651 0.430148
432 4 0.294122 0.114448 0.48258
725 4 0.250696 0.0995938 0.444253
724 2 0.266269 0.0989663 0.463804
574 2 0.381728 0.140724 0.428387
576 4 0.362206 0.130229 0.416814
467 4 0.348708 0.115163 0.416429
516 4 0.420984 0.143448 0.44168
514 2 0.442874 0.15511 0.444837
515 4 0.464765 0.166772 0.447994
260 4 0.0568113 0.172587 0.455586
471 4 0.0671892 0.187242 0.446094
469 2 0.0841796 0.195649 0.42979
259 2 0.0637998 0.180257 0.478335
878 4 0.122024 0.211936 0.471355
877 2 0.123002 0.21602 0.496004
411 4 0.240479 0.20895 0.428091
650 4 0.244244 0.221629 0.442194
649 2 0.247121 0.245999 0.437395
651 4 0.249998 0.270368 0.432596
584 4 0.345949 0.287221 0.460632
489 4 0.259055 0.288118 0.436395
583 2 0.347286 0.270918 0.479543
585 4 0.348623 0.254616 0.498454
305 4 0.450404 0.275211 0.42444
1011 4 0.455541 0.287064 0.43923
1010 4 0.439378 0.316655 0.47616
1009 2 0.447459 0.301859 0.457695
407 4 0.0265786 0.409613 0.424955
709 2 0.15243 0.41047 0.489975
711 4 0.167176 0.391135 0.495795
325 2 0.176552 0.346932 0.421071
8 3 0.183516 0.383308 0.488528
327 4 0.184632 0.35256 0.444054
7 3 0.183902 0.35475 0.464095
6 1 0.182599 0.36022 0.4864
10 3 0.20006 0.350695 0.497492
1191 4 0.221626 0.350546 0.499078
1189 2 0.244464 0.356522 0.490839
9 3 0.16253 0.352271 0.494913
336 4 0.312753 0.403632 0.438685
802 2 0.299239 0.338922 0.502466
803 4 0.278549 0.350755 0.49491
1190 4 0.267302 0.362498 0.482599
334 2 0.332777 0.391789 0.447848
335 4 0.352801 0.379946 0.457012
240 4 0.37153 0.387006 0.458914
238 2 0.380772 0.407518 0.469824
561 4 0.493873 0.403037 0.430087
2507 4 0.435415 0.334906 0.481826
559 2 0.482538 0.398803 0.451968
560 4 0.471203 0.394569 0.473849
2506 2 0.448344 0.355558 0.476212
2508 4 0.461272 0.37621 0.470598
538 2 0.0150257 0.449039 0.492564
540 4 0.0331522 0.459568 0.478935
1383 4 0.0714243 0.489343 0.447405
1381 2 0.0496266 0.478907 0.453818
1382 4 0.0278289 0.468471 0.460231
569 4 0.137446 0.436402 0.41953
568 2 0.134282 0.438925 0.444204
570 4 0.131119 0.441448 0.468878
710 4 0.137684 0.429806 0.484155
1401 4 0.32011 0.422741 0.438318
1399 2 0.318994 0.445876 0.447737
588 4 0.31053 0.469098 0.47598
586 2 0.317724 0.485118 0.493779
1400 4 0.317877 0.469011 0.457156
1180 2 0.216116 0.0508483 0.534592
1182 4 0.199404 0.0684809 0.528676
1181 4 0.232827 0.0332157 0.540509
963 4 0.233056 0.0148738 0.548291
841 2 0.357667 0.0728766 0.509494
720 4 0.0190481 0.0978171 0.498833
949 2 0.17172 0.0960331 0.543702
951 4 0.15113 0.105399 0.554357
1030 2 0.121184 0.11189 0.57823
1031 4 0.13448 0.115813 0.557421
938 4 0.137347 0.168939 0.548706
937 2 0.157627 0.157864 0.539154
950 4 0.192309 0.0866669 0.533047
939 4 0.177908 0.14679 0.529603
1151 4 0.183758 0.133009 0.514782
431 4 0.332664 0.105532 0.51317
430 2 0.313393 0.10999 0.497875
856 2 0.327476 0.156362 0.582049
858 4 0.307426 0.171249 0.580797
843 4 0.337178 0.0850183 0.517107
898 2 0.381832 0.163555 0.567365
857 4 0.347525 0.141475 0.583302
900 4 0.401012 0.171878 0.553653
808 2 0.495966 0.0928061 0.579861
1035 4 0.0748552 0.178941 0.568008
1033 2 0.0700592 0.179312 0.543471
261 4 0.0707882 0.187927 0.501084
1034 4 0.0652633 0.179683 0.518935
879 4 0.12398 0.220103 0.520652
1272 4 0.143623 0.220948 0.526249
1270 2 0.139469 0.230031 0.549171
796 2 0.307802 0.201151 0.554525
812 4 0.327936 0.238315 0.541811
798 4 0.318498 0.218824 0.540438
797 4 0.297106 0.183479 0.568612
872 4 0.409089 0.191496 0.55347
873 4 0.390961 0.232528 0.531368
871 2 0.400025 0.212012 0.542419
813 4 0.377681 0.236494 0.546586
811 2 0.352809 0.237405 0.544199
3426 4 0.51499 0.206243 0.538029
929 4 0.325111 0.31825 0.527206
804 4 0.319929 0.327089 0.510023
928 2 0.340647 0.299524 0.532962
1204 2 0.390928 0.297121 0.558843
1206 4 0.369494 0.289004 0.548848
930 4 0.356183 0.280797 0.538717
1205 4 0.412361 0.305239 0.568838
954 4 0.430827 0.300502 0.56516
983 4 0.0375438 0.379765 0.548837
982 2 0.0135704 0.384966 0.553675
1041 4 0.0531674 0.39285 0.544937
1039 2 0.0727664 0.407556 0.549913
895 2 0.200482 0.365273 0.539183
896 4 0.20825 0.354489 0.518005
897 4 0.192715 0.376058 0.560362
1137 4 0.18937 0.393636 0.570169
1135 2 0.171097 0.409893 0.564976
1001 4 0.453875 0.417865 0.551215
926 4 0.468833 0.405188 0.54888
925 2 0.482987 0.405337 0.52827
1000 2 0.456144 0.413139 0.575663
539 4 0.996899 0.43851 0.506193
1936 2 0.0327774 0.488485 0.553381
1937 4 0.0421088 0.485775 0.530342
1881 4 0.042486 0.502638 0.519114
1938 4 0.023446 0.491195 0.576419
1040 4 0.0923654 0.422263 0.55489
2242 2 0.13242 0.497384 0.549636
1136 4 0.152824 0.426151 0.559783
992 4 0.143063 0.438715 0.571704
993 4 0.0935078 0.43201 0.571861
991 2 0.118285 0.435363 0.571782
2244 4 0.116057 0.497651 0.530732
1172 4 0.264382 0.467015 0.577377
882 4 0.268969 0.477592 0.562266
880 2 0.275618 0.49496 0.545553
881 4 0.282267 0.512328 0.52884
587 4 0.324918 0.501137 0.511578
239 4 0.390013 0.42803 0.480733
1953 4 0.37696 0.501594 0.576889
1454 4 0.3409 0.493988 0.522202
927 4 0.497142 0.405486 0.507659
945 4 0.0179708 0.0269305 0.6625
1057 2 0.101906 0.0269404 0.656675
1155 4 0.122235 0.0487878 0.627079
1059 4 0.116234 0.0442684 0.645737
1153 2 0.12116 0.0706501 0.614994
1004 4 0.309849 0.0740093 0.650502
831 4 0.325038 0.0619544 0.659793
1142 4 0.370007 0.0841943 0.625353
44 3 0.466852 0.0733878 0.629997
41 1 0.4894 0.0694439 0.633799
2281 2 0.479551 0.0147573 0.604403
42 3 0.493424 0.070511 0.656423
1163 4 0.497348 0.0662988 0.676
2282 4 0.492036 0.029243 0.620511
43 3 0.495144 0.0483049 0.626148
45 3 0.501944 0.0852199 0.623197
1083 4 0.0394576 0.151687 0.611785
1154 4 0.120085 0.0925124 0.602908
1032 4 0.107889 0.107968 0.599039
1210 2 0.217535 0.150094 0.657464
1211 4 0.240851 0.141495 0.65471
1220 4 0.185851 0.143355 0.670862
1212 4 0.194218 0.158693 0.660217
1003 2 0.312724 0.0928589 0.634328
888 4 0.24784 0.122513 0.651788
1005 4 0.315599 0.111709 0.618154
887 4 0.262716 0.105914 0.607023
886 2 0.255278 0.114214 0.629405
899 4 0.362651 0.155233 0.581077
1141 2 0.380396 0.0928633 0.646379
1143 4 0.390786 0.101532 0.667405
810 4 0.503925 0.0891003 0.603273
1082 4 0.0645097 0.185076 0.584248
3044 4 0.0323372 0.245894 0.573213
1081 2 0.0519836 0.168382 0.598017
1199 4 0.0202147 0.15602 0.617294
909 4 0.152538 0.242004 0.581449
1271 4 0.135314 0.239114 0.572093
907 2 0.17642 0.248374 0.585223
1239 4 0.306288 0.205588 0.600319
1237 2 0.316321 0.224337 0.61347
1238 4 0.326354 0.243087 0.626622
906 4 0.474624 0.228347 0.626652
3357 4 0.489741 0.22324 0.640383
904 2 0.46932 0.251391 0.618526
3355 2 0.497192 0.209264 0.659731
3043 2 0.0289402 0.261704 0.592283
3045 4 0.0255432 0.277514 0.611354
893 4 0.119651 0.320346 0.610495
892 2 0.100449 0.324642 0.625922
908 4 0.200303 0.254744 0.588996
947 4 0.213918 0.268144 0.592869
946 2 0.21698 0.274548 0.616843
948 4 0.220042 0.280952 0.640818
1065 4 0.217579 0.266099 0.653145
792 4 0.317188 0.261953 0.625078
791 4 0.354226 0.283798 0.650606
790 2 0.335707 0.272876 0.637842
952 2 0.442751 0.283794 0.579438
905 4 0.464017 0.274434 0.610399
953 4 0.454675 0.267087 0.593717
894 4 0.0812467 0.328939 0.64135
1281 4 0.0826738 0.347267 0.648436
1279 2 0.0801459 0.364875 0.666006
1029 4 0.252901 0.42168 0.666402
1910 4 0.457142 0.428961 0.606222
1002 4 0.458414 0.408412 0.60011
936 4 0.0111719 0.499749 0.589656
1161 4 0.156924 0.488585 0.584697
1171 2 0.240287 0.467931 0.583993
1160 4 0.206742 0.486274 0.588367
1173 4 0.216192 0.468847 0.59061
1159 2 0.181833 0.487429 0.586532
1139 4 0.267576 0.423953 0.653811
891 4 0.348236 0.491591 0.631651
889 2 0.361998 0.490087 0.652472
1952 4 0.348425 0.4837 0.613852
1951 2 0.362693 0.492647 0.595371
890 4 0.375759 0.488583 0.673294
1269 4 0.394682 0.485035 0.667152
1909 2 0.449524 0.434314 0.629427
1911 4 0.441906 0.439668 0.652633
1267 2 0.414281 0.47167 0.65925
1268 4 0.43388 0.458305 0.651348
943 2 0.0315321 0.0401719 0.678808
944 4 0.0450935 0.0534132 0.695115
1075 2 0.0511737 0.0625501 0.73156
1076 4 0.0366195 0.0534197 0.713394
1077 4 0.0657278 0.0716805 0.749726
1185 4 0.00304981 0.0350594 0.6516
1058 4 0.0875786 0.00961241 0.667613
825 4 0.0759749 0.00750963 0.65061
1282 2 0.154734 0.0804582 0.752155
829 2 0.316264 0.0525449 0.681232
830 4 0.30749 0.0431353 0.702672
2400 4 0.356865 0.0109315 0.710036
1221 4 0.142463 0.142077 0.695694
1219 2 0.164157 0.142716 0.683278
32 3 0.105296 0.155895 0.722697
1129 2 0.132028 0.125784 0.725932
1131 4 0.114053 0.139965 0.715883
1130 4 0.150004 0.111604 0.735981
1284 4 0.156276 0.0919503 0.730002
1227 4 0.162789 0.127401 0.739094
1025 4 0.398493 0.116967 0.678086
1024 2 0.388221 0.120932 0.700535
1026 4 0.377948 0.124896 0.722984
3188 4 0.00488417 0.233864 0.746199
851 4 0.00914671 0.184423 0.734483
1208 4 0.0740029 0.237702 0.694068
1107 4 0.0240923 0.196214 0.725438
1105 2 0.0442713 0.185336 0.735421
35 3 0.0815193 0.181068 0.736621
1178 4 0.0105988 0.247812 0.731873
822 4 0.130686 0.214008 0.697255
1278 4 0.143332 0.216337 0.712309
1276 2 0.139373 0.200238 0.731026
820 2 0.109425 0.223531 0.688174
31 1 0.096801 0.165065 0.742008
821 4 0.0881646 0.233054 0.679093
1277 4 0.135414 0.184138 0.749743
977 4 0.32609 0.218531 0.711997
918 4 0.325241 0.236229 0.702963
916 2 0.314744 0.25781 0.695946
976 2 0.315286 0.209586 0.732696
1008 4 0.361646 0.239384 0.736096
1207 2 0.0559186 0.249004 0.707122
1209 4 0.0378344 0.260307 0.720175
1243 2 0.0361504 0.300084 0.702979
1245 4 0.0318996 0.278548 0.71495
1244 4 0.0404011 0.321621 0.691008
942 4 0.175345 0.31962 0.727478
940 2 0.166133 0.334109 0.709301
1063 2 0.223046 0.270412 0.677159
1240 2 0.241156 0.291887 0.730109
1064 4 0.228513 0.274725 0.701174
1242 4 0.237139 0.291707 0.705431
917 4 0.304246 0.279391 0.688928
1098 4 0.299795 0.342587 0.71058
1096 2 0.302395 0.318097 0.706258
1097 4 0.304995 0.293608 0.701936
3121 2 0.485297 0.326511 0.668129
3123 4 0.460884 0.327502 0.673438
1194 4 0.43539 0.293762 0.745864
3275 4 0.0638189 0.379586 0.698135
1280 4 0.0776181 0.382484 0.683577
3274 2 0.0792915 0.392747 0.712714
3276 4 0.0947641 0.405908 0.727294
816 4 0.0908055 0.419794 0.740347
941 4 0.156922 0.348598 0.691125
1027 2 0.229841 0.412443 0.663565
1068 4 0.205138 0.384734 0.659526
1067 4 0.174434 0.35381 0.684055
1028 4 0.20678 0.403205 0.660728
1066 2 0.189786 0.369272 0.67179
1228 2 0.290108 0.407559 0.715639
1230 4 0.307047 0.389215 0.716958
1229 4 0.273169 0.425903 0.71432
1138 2 0.283347 0.434418 0.67015
1140 4 0.299117 0.444884 0.686488
1989 4 0.287635 0.455997 0.698539
1987 2 0.292139 0.466272 0.720885
1100 4 0.43885 0.486848 0.742044
1203 4 0.07669 0.0795769 0.763623
2049 4 0.13271 0.0475313 0.773786
1283 4 0.153192 0.068966 0.774307
2047 2 0.147783 0.0275946 0.773071
1201 2 0.100493 0.0727117 0.767009
1202 4 0.124296 0.0658465 0.770395
2048 4 0.162856 0.00765791 0.772357
1050 4 0.22334 0.0628033 0.8209
818 4 0.374776 0.0793399 0.827166
2321 4 0.50791 0.0394464 0.789071
844 2 0.484838 0.0170032 0.777618
862 2 0.0676216 0.0976307 0.807547
863 4 0.0680507 0.120016 0.796417
832 2 0.0600629 0.13867 0.769903
833 4 0.0523214 0.120447 0.785173
834 4 0.0678044 0.156893 0.754634
33 3 0.0866627 0.148303 0.754444
1225 2 0.172442 0.135736 0.7606
1226 4 0.182094 0.144071 0.782107
840 4 0.195601 0.157497 0.777591
838 2 0.219915 0.161796 0.77365
1086 4 0.311403 0.145612 0.815189
1084 2 0.321737 0.127057 0.801995
1085 4 0.33207 0.108501 0.788801
1299 4 0.327042 0.157982 0.819738
817 2 0.359247 0.0858303 0.808675
819 4 0.343718 0.0923208 0.790185
3268 2 0.4916 0.159263 0.788179
1036 2 0.466874 0.105422 0.822981
1037 4 0.486936 0.101266 0.808649
3270 4 0.47142 0.166316 0.77521
966 4 0.42897 0.118521 0.837159
1146 4 0.451222 0.163565 0.772609
1106 4 0.0644504 0.174459 0.745404
1213 2 0.0298786 0.217399 0.824809
1215 4 0.0119346 0.231011 0.813952
3189 4 0.00251655 0.233708 0.796149
3187 2 0.00370036 0.233786 0.771174
1214 4 0.0478226 0.203786 0.835666
153 3 0.00411484 0.239675 0.830569
779 4 0.0617417 0.201302 0.850019
34 3 0.114202 0.174493 0.754121
1073 4 0.124324 0.190657 0.767497
1072 2 0.123092 0.194515 0.792171
1074 4 0.12186 0.198374 0.816844
778 2 0.0846019 0.196813 0.840939
839 4 0.244229 0.166096 0.769708
959 4 0.25845 0.167947 0.783817
978 4 0.304483 0.20064 0.753394
958 2 0.276315 0.184232 0.777427
960 4 0.294179 0.200517 0.771037
1006 2 0.365431 0.239132 0.76081