ITEM: TIMESTEP
5130000
ITEM: NUMBER OF ATOMS
4590
ITEM: BOX BOUNDS pp pp pp
-9.9985700000000008e+00 9.9985700000000008e+00
-9.9985700000000008e+00 9.9985700000000008e+00
-9.9985700000000008e+00 9.9985700000000008e+00
ITEM: ATOMS id type xs ys zs
1668 4 0.0628175 0.0572748 0.0472331
465 4 0.0165059 0.040172 0.0133557
701 4 0.0142424 0.0595673 0.0157115
1666 2 0.0510528 0.0533313 0.0689407
700 2 0.0271486 0.0808831 0.0177714
3290 4 0.0812205 0.0479667 0.0433526
3289 2 0.0970081 0.0324156 0.0317727
3291 4 0.112796 0.0168645 0.0201928
567 4 0.165332 0.00421185 0.036348
565 2 0.14269 0.00143411 0.0261112
1635 4 0.183983 0.00244503 0.0278697
2469 4 0.482561 0.0709009 0.0772583
2724 4 0.466756 0.0820791 0.0803513
2974 2 0.485403 0.00129818 0.00418616
555 4 0.0360743 0.118976 0.00918813
553 2 0.0321177 0.14288 0.00301099
702 4 0.0400549 0.102199 0.0198314
2183 4 0.0849033 0.0870013 0.0103999
3234 4 0.143499 0.162346 0.995004
2723 4 0.436447 0.110337 0.0523582
2722 2 0.451601 0.0962078 0.0663547
835 2 0.07976 0.242124 0.0146175
836 4 0.0898982 0.219322 0.0161869
421 2 0.117261 0.19086 0.00575401
422 4 0.0977364 0.200952 0.0176754
506 4 0.164364 0.229025 0.0746433
505 2 0.157092 0.250905 0.0843171
737 4 0.175381 0.211857 0.0677085
915 4 0.17195 0.23025 0.0219763
358 2 0.230183 0.187979 0.0167291
352 2 0.24938 0.231129 0.0585566
354 4 0.239674 0.21013 0.0490677
359 4 0.231383 0.194373 0.0408715
738 4 0.21379 0.186868 0.0476827
736 2 0.194586 0.199362 0.0576956
2808 4 0.999838 0.246238 0.0472426
2806 2 0.0231478 0.253001 0.0412353
2807 4 0.0464578 0.259764 0.035228
1054 2 0.0524917 0.298437 0.0199745
1056 4 0.0490864 0.322842 0.0157368
1055 4 0.055897 0.274032 0.0242123
837 4 0.0696217 0.264926 0.0130482
456 4 0.0795009 0.313471 0.06538
294 4 0.0923954 0.298343 0.064094
292 2 0.112707 0.289475 0.0756688
287 4 0.164724 0.293104 0.0219546
914 4 0.162245 0.277858 0.0338106
913 2 0.167097 0.254054 0.0278934
286 2 0.178116 0.312978 0.0290884
288 4 0.191507 0.332851 0.0362223
353 4 0.259086 0.252127 0.0680456
571 2 0.316349 0.299965 0.0049958
572 4 0.292879 0.297326 0.0132028
482 4 0.275958 0.304934 0.0075607
278 4 0.269149 0.261388 0.0829393
610 2 0.279391 0.300156 0.0761692
611 4 0.283075 0.275439 0.0753295
612 4 0.275708 0.324872 0.0770088
1071 4 0.359615 0.305336 0.998087
573 4 0.33982 0.302603 0.996789
1170 4 0.0387668 0.333863 0.00304213
454 2 0.0796142 0.337106 0.0735382
990 4 0.178828 0.346974 0.0338905
988 2 0.182692 0.371676 0.0341592
989 4 0.186555 0.396378 0.034428
1104 4 0.184329 0.405069 0.0163925
1438 2 0.222884 0.419309 0.0734385
741 4 0.3174 0.389812 0.030026
739 2 0.330071 0.378206 0.0481898
386 4 0.336666 0.363151 0.0852011
740 4 0.342742 0.3666 0.0663536
1303 2 0.436054 0.403786 0.0257016
1304 4 0.44867 0.384527 0.0159493
1095 4 0.445885 0.364496 0.0142131
1093 2 0.434415 0.347464 0.999947
1620 4 0.103084 0.43612 0.0758724
1787 4 0.159281 0.469681 0.0807268
1618 2 0.124397 0.447227 0.0827694
1786 2 0.172366 0.488209 0.0702082
1440 4 0.242252 0.424419 0.0584741
1102 2 0.188893 0.423971 0.00067438
242 4 0.247967 0.440869 0.00719608
241 2 0.254948 0.434221 0.0302667
243 4 0.261928 0.427573 0.0533373
523 2 0.332842 0.440831 0.0547401
524 4 0.324366 0.43856 0.0781533
227 4 0.40934 0.43725 0.0344278
226 2 0.384693 0.439963 0.0376479
228 4 0.360047 0.442675 0.0408679
525 4 0.341318 0.443103 0.0313268
1305 4 0.423438 0.423046 0.0354539
1667 4 0.0392882 0.0493878 0.0906483
19 3 0.00889888 0.0282731 0.132439
17 3 0.0320958 0.0401903 0.105374
1422 4 0.00559045 0.0447377 0.143851
16 1 0.0100511 0.0388113 0.111799
20 3 0.00134685 0.0598029 0.113295
2480 4 0.00487202 0.0622785 0.133228
653 4 0.241066 0.0735456 0.154368
652 2 0.256448 0.0813278 0.136257
1475 4 0.333754 0.0715731 0.107013
491 4 0.306035 0.99924 0.114674
1661 4 0.332075 0.0283882 0.154577
486 4 0.343124 0.0209984 0.139768
484 2 0.363565 0.0141815 0.127083
485 4 0.384005 0.00736463 0.114399
745 2 0.472595 0.00928935 0.0959905
746 4 0.452608 0.0176744 0.108455
350 4 0.454008 0.0870994 0.161672
296 4 0.442418 0.0010331 0.0991182
513 4 0.0143356 0.144751 0.160887
511 2 0.0299099 0.125537 0.164552
461 4 0.227533 0.15437 0.0940325
1474 2 0.310961 0.0818174 0.106171
1476 4 0.288168 0.0920617 0.105329
654 4 0.27183 0.0891101 0.118146
580 2 0.301795 0.155513 0.1576
582 4 0.316201 0.135501 0.153461
758 4 0.326491 0.119172 0.145014
757 2 0.328678 0.104134 0.16487
557 4 0.444778 0.113191 0.111209
556 2 0.440824 0.116442 0.135683
558 4 0.436869 0.119692 0.160157
771 4 0.48588 0.123037 0.164669
337 2 0.00358554 0.240979 0.157039
339 4 0.0271886 0.244473 0.164514
460 2 0.242549 0.173988 0.0901844
475 2 0.242487 0.236831 0.156922
476 4 0.220253 0.226178 0.161089
371 4 0.19937 0.223808 0.159178
462 4 0.257565 0.193607 0.0863363
581 4 0.287388 0.175526 0.16174
477 4 0.26472 0.247484 0.152756
29 3 0.292207 0.23171 0.163577
30 3 0.287549 0.194919 0.157066
279 4 0.264775 0.250868 0.131631
285 4 0.285197 0.243932 0.149825
628 2 0.397653 0.2181 0.125717
254 4 0.373215 0.225224 0.14529
630 4 0.374544 0.211165 0.132279
253 2 0.352297 0.221642 0.158511
629 4 0.420762 0.225034 0.119155
624 4 0.43781 0.229256 0.130466
622 2 0.449561 0.24936 0.139572
293 4 0.133019 0.280607 0.0872435
507 4 0.149819 0.272784 0.093991
277 2 0.266962 0.256128 0.107285
283 2 0.306291 0.257344 0.149248
284 4 0.327386 0.270756 0.148671
623 4 0.461311 0.269464 0.148679
455 4 0.0797275 0.360741 0.0816964
620 4 0.06619 0.37798 0.158936
647 4 0.117028 0.363855 0.152124
537 4 0.110928 0.377824 0.137578
535 2 0.102846 0.37481 0.11411
536 4 0.0947629 0.371796 0.0906412
1439 4 0.203515 0.414199 0.088403
625 2 0.207219 0.38055 0.118463
627 4 0.201663 0.397289 0.10074
626 4 0.212774 0.36381 0.136186
608 4 0.263728 0.383533 0.102388
252 4 0.279887 0.393058 0.098121
609 4 0.273479 0.334962 0.0955706
607 2 0.268604 0.359248 0.0989795
301 2 0.311415 0.400844 0.151741
303 4 0.289157 0.411983 0.15412
385 2 0.335442 0.3735 0.10793
638 4 0.271402 0.410578 0.143278
302 4 0.333673 0.389704 0.149362
387 4 0.334219 0.383849 0.130658
12 3 0.388821 0.389815 0.124022
11 1 0.37387 0.400402 0.137934
15 3 0.352675 0.394523 0.132033
672 4 0.399079 0.392552 0.106675
13 3 0.378087 0.393912 0.159808
671 4 0.443573 0.370634 0.100307
670 2 0.421326 0.381593 0.103491
281 4 0.46338 0.372179 0.10308
280 2 0.486989 0.365002 0.0990468
313 2 0.00702117 0.459498 0.119828
315 4 0.0174123 0.441789 0.134097
1619 4 0.14571 0.458334 0.0896664
1574 4 0.246675 0.459036 0.148603
1573 2 0.22307 0.465439 0.143407
1431 4 0.192421 0.45732 0.150475
1575 4 0.199465 0.471843 0.138211
1429 2 0.17713 0.441853 0.16281
251 4 0.305763 0.43349 0.0841066
250 2 0.292825 0.413274 0.0911138
639 4 0.266325 0.460054 0.148484
637 2 0.268864 0.435316 0.145881
14 3 0.376603 0.423347 0.135812
495 4 0.373955 0.438289 0.149929
1559 4 0.342392 0.483534 0.111143
493 2 0.365015 0.457972 0.137365
494 4 0.356076 0.477655 0.124802
1420 2 0.00192972 0.0368872 0.167306
1404 4 0.00454417 0.01853 0.252438
1415 4 0.00674 0.00785811 0.235386
1504 2 0.15306 0.0405133 0.181883
1505 4 0.128485 0.0404479 0.18649
688 2 0.115013 0.0170573 0.217502
689 4 0.117057 0.0374153 0.20313
1506 4 0.177636 0.0405787 0.177275
693 4 0.238484 0.0704922 0.173897
691 2 0.25327 0.0800351 0.191658
1701 4 0.281069 0.083053 0.223454
1699 2 0.304113 0.0848406 0.213919
1662 4 0.339902 0.0104642 0.200601
1660 2 0.335989 0.0194262 0.177589
22 3 0.357672 0.0504957 0.204817
698 4 0.377386 0.0482199 0.202909
697 2 0.390149 0.02672 0.203098
333 4 0.388196 0.065942 0.204279
21 1 0.355758 0.0732908 0.202394
699 4 0.402912 0.00522015 0.203287
23 3 0.341341 0.0813806 0.218677
25 3 0.347504 0.0779666 0.18169
331 2 0.410429 0.0773733 0.204719
744 4 0.487042 0.0438433 0.201394
743 4 0.4816 0.0325242 0.249798
351 4 0.473602 0.0717559 0.205047
742 2 0.484321 0.0381838 0.225596
349 2 0.463805 0.0794277 0.18336
450 4 0.0658693 0.109941 0.174813
512 4 0.0454842 0.106322 0.168216
578 4 0.022902 0.162337 0.169063
448 2 0.0882499 0.107314 0.185647
449 4 0.11063 0.104687 0.196482
236 4 0.123613 0.109181 0.181871
235 2 0.142547 0.0989407 0.194594
237 4 0.16148 0.0887006 0.207316
1700 4 0.327158 0.0866282 0.204383
692 4 0.268056 0.089578 0.20942
759 4 0.330864 0.0890962 0.184725
24 3 0.376733 0.0828888 0.204909
769 2 0.48451 0.14345 0.179043
332 4 0.432662 0.0888045 0.205159
770 4 0.483139 0.163863 0.193416
577 2 0.0128107 0.185143 0.170854
579 4 0.0027193 0.20795 0.172645
361 2 0.142951 0.244401 0.222152
372 4 0.168483 0.232056 0.197631
363 4 0.133699 0.245325 0.245362
370 2 0.183926 0.227932 0.178405
28 3 0.277682 0.209155 0.190498
26 1 0.292732 0.210461 0.172885
27 3 0.313909 0.206366 0.180879
756 4 0.332634 0.215936 0.191855
754 2 0.325744 0.214698 0.215858
255 4 0.331379 0.218059 0.171731
755 4 0.318854 0.213461 0.239862
703 2 0.0337387 0.274161 0.195437
704 4 0.0305172 0.261539 0.174095
2615 4 0.0229511 0.287453 0.229403
705 4 0.0369603 0.286783 0.216779
362 4 0.152203 0.243477 0.198942
345 4 0.344769 0.338762 0.212653
527 4 0.45875 0.269338 0.168076
528 4 0.44213 0.293852 0.208369
526 2 0.45044 0.281595 0.188223
542 4 0.437172 0.302339 0.225554
541 2 0.430941 0.312407 0.247577
619 2 0.0662766 0.393858 0.178251
621 4 0.0663632 0.409736 0.197566
262 2 0.0662709 0.411166 0.242237
299 4 0.0795004 0.347741 0.23294
298 2 0.103241 0.352765 0.226912
646 2 0.121947 0.36013 0.176354
300 4 0.126981 0.35779 0.220884
648 4 0.126866 0.356405 0.200584
416 4 0.184709 0.396505 0.234087
415 2 0.176745 0.40601 0.212375
290 4 0.2239 0.380856 0.241799
735 4 0.174417 0.381545 0.244217
597 4 0.373526 0.380898 0.178512
596 4 0.361866 0.347984 0.214309
595 2 0.367696 0.364441 0.19641
343 2 0.346567 0.336792 0.237514
645 4 0.387833 0.395987 0.181168
264 4 0.0688727 0.415026 0.217671
1430 4 0.161839 0.426387 0.175145
417 4 0.168781 0.415515 0.190663
766 2 0.216523 0.480995 0.228262
768 4 0.204914 0.459824 0.234759
643 2 0.404172 0.412659 0.190125
230 4 0.348292 0.486783 0.174031
229 2 0.36305 0.482424 0.193739
231 4 0.377807 0.478066 0.213447
660 4 0.369817 0.465636 0.226092
658 2 0.362096 0.445974 0.239469
644 4 0.420512 0.429331 0.199082
447 4 0.431781 0.430913 0.215807
445 2 0.430103 0.438592 0.239543
1402 2 0.0183099 0.0330859 0.267399
233 4 0.0235266 0.0583549 0.296759
232 2 0.0278061 0.0551723 0.321187
1403 4 0.0320757 0.0476418 0.282359
673 2 0.140118 0.0730379 0.324305
1340 4 0.242468 0.0051493 0.332282
721 2 0.191918 0.00448689 0.293606
723 4 0.200403 0.0141856 0.315034
1405 2 0.208741 0.0529955 0.320329
1406 4 0.196995 0.033351 0.310264
599 4 0.227844 0.0836063 0.314498
249 4 0.305097 0.00776004 0.32592
425 4 0.47438 0.0513988 0.255529
424 2 0.472303 0.0644362 0.276763
426 4 0.470226 0.0774737 0.297998
391 2 0.066169 0.123473 0.295071
393 4 0.0517255 0.132916 0.313165
2586 4 0.0324987 0.125936 0.313203
2584 2 0.0227602 0.112149 0.331649
675 4 0.136819 0.0915983 0.307879
392 4 0.0806125 0.11403 0.276977
545 4 0.100813 0.110581 0.271726
546 4 0.144737 0.095709 0.290439
544 2 0.122775 0.103145 0.281083
404 4 0.191377 0.160559 0.291473
598 2 0.232385 0.101634 0.331219
716 4 0.381618 0.15457 0.311147
419 4 0.369889 0.152451 0.32662
418 2 0.345088 0.151149 0.329513
258 4 0.473628 0.0923767 0.311965
256 2 0.488266 0.09716 0.331664
530 4 0.0156551 0.250518 0.283864
442 2 0.0544061 0.241241 0.2808
443 4 0.0739096 0.228764 0.271358
396 4 0.0831458 0.211539 0.263453
402 4 0.153156 0.236823 0.318725
394 2 0.10535 0.218934 0.254651
395 4 0.127554 0.226329 0.24585
403 2 0.189208 0.172478 0.313345
400 2 0.177421 0.231255 0.316409
401 4 0.201686 0.225686 0.314093
472 2 0.242018 0.239327 0.310394
474 4 0.220402 0.226849 0.308895
715 2 0.393722 0.176011 0.306791
717 4 0.405826 0.197451 0.302434
376 2 0.407688 0.230241 0.322815
377 4 0.415126 0.206841 0.318089
444 4 0.0349027 0.253717 0.290241
473 4 0.263634 0.251804 0.311893
708 4 0.283258 0.255299 0.316061
706 2 0.304555 0.251717 0.328662
266 4 0.411508 0.269369 0.319537
309 4 0.354289 0.334597 0.281598
378 4 0.400251 0.25364 0.327541
543 4 0.42471 0.322474 0.2696
2769 4 0.489599 0.255156 0.332912
269 4 0.475569 0.268194 0.32989
265 2 0.422808 0.286617 0.333679
750 4 0.0777384 0.346966 0.253544
366 4 0.0179968 0.34391 0.275102
748 2 0.056293 0.352087 0.265336
749 4 0.0348477 0.357209 0.277128
263 4 0.063669 0.407306 0.266804
734 4 0.137109 0.386616 0.277127
733 2 0.155763 0.384081 0.260672
289 2 0.237395 0.394442 0.257876
504 4 0.187824 0.395806 0.30306
291 4 0.25089 0.408027 0.273954
502 2 0.19326 0.413851 0.319492
373 2 0.272442 0.377601 0.333785
375 4 0.280523 0.40082 0.329228
344 4 0.348365 0.334822 0.262375
308 4 0.339735 0.377395 0.30298
727 2 0.34343 0.406589 0.312511
729 4 0.357467 0.386126 0.309443
307 2 0.347012 0.355996 0.292289
615 4 0.437087 0.336832 0.276861
614 4 0.448426 0.348353 0.324183
613 2 0.442756 0.342592 0.300522
775 2 0.0778803 0.460213 0.309916
1757 4 0.0968457 0.477916 0.272901
776 4 0.0834719 0.469929 0.287566
1545 4 0.240816 0.494828 0.323258
678 4 0.208529 0.449664 0.251596
1544 4 0.203377 0.47566 0.296208
677 4 0.188823 0.441944 0.296903
676 2 0.198676 0.445804 0.27425
1543 2 0.222097 0.485244 0.309733
438 4 0.252004 0.478317 0.257189
436 2 0.275604 0.470265 0.259039
437 4 0.299203 0.462213 0.260889
414 4 0.265037 0.422227 0.27028
412 2 0.270457 0.419503 0.294537
433 2 0.324741 0.453496 0.286515
435 4 0.310017 0.470526 0.275635
413 4 0.275876 0.416779 0.318793
2 3 0.319243 0.430832 0.333125
5 3 0.282948 0.433986 0.325022
728 4 0.329392 0.427052 0.315579
434 4 0.339465 0.436467 0.297395
659 4 0.354375 0.426312 0.252847
2862 4 0.485761 0.438563 0.299215
446 4 0.428425 0.446271 0.263279
713 4 0.469896 0.428599 0.312335
714 4 0.436642 0.432407 0.275181
712 2 0.453269 0.430503 0.293758
120 3 0.468171 0.414647 0.329186
317 4 0.0511227 0.0562156 0.347187
234 4 0.0320856 0.0519898 0.345615
316 2 0.0586835 0.0737921 0.363283
2755 2 0.00612 0.0607661 0.374281
674 4 0.143417 0.0544776 0.340731
606 4 0.115503 0.0520828 0.404857
604 2 0.125902 0.0550404 0.382312
605 4 0.136301 0.057998 0.359767
1407 4 0.220488 0.07264 0.330393
321 4 0.254493 0.0605094 0.377879
319 2 0.24915 0.079754 0.392921
247 2 0.315832 0.0250884 0.3404
684 4 0.254785 0.0105409 0.347069
683 4 0.25963 0.0420588 0.38559
682 2 0.257208 0.0262998 0.36633
248 4 0.326567 0.0424168 0.35488
633 4 0.343492 0.0340175 0.359512
631 2 0.360367 0.0505866 0.367628
632 4 0.377243 0.0671558 0.375743
318 4 0.0662443 0.0913687 0.379379
2757 4 0.0153654 0.0809956 0.362859
732 4 0.0724485 0.107968 0.388047
2585 4 0.0130216 0.0983626 0.350095
730 2 0.0780756 0.0991539 0.410758
397 2 0.108105 0.149105 0.350439
399 4 0.118346 0.129321 0.339086
600 4 0.236927 0.119661 0.347939
320 4 0.243807 0.0989986 0.407964
686 4 0.245714 0.166903 0.379027
685 2 0.250598 0.146875 0.364877
687 4 0.255481 0.126847 0.350727
420 4 0.320286 0.149847 0.332405
468 4 0.382274 0.0839427 0.385091
466 2 0.404345 0.0904592 0.394867
467 4 0.426417 0.0969757 0.404643
398 4 0.0978649 0.168889 0.361793
388 2 0.104376 0.185306 0.397356
276 4 0.127381 0.193394 0.370321
389 4 0.108923 0.183521 0.372834
274 2 0.149074 0.18896 0.358706
405 4 0.187039 0.184398 0.335217
275 4 0.170768 0.184526 0.34709
410 4 0.234428 0.169726 0.395806
409 2 0.229438 0.193953 0.399459
411 4 0.224449 0.21818 0.403112
650 4 0.231604 0.235082 0.396659
497 4 0.32589 0.239096 0.358706
496 2 0.339395 0.231773 0.378433
498 4 0.3529 0.224451 0.39816
2456 4 0.362405 0.232294 0.413608
616 2 0.0751848 0.27637 0.397348
618 4 0.0892101 0.280454 0.377056
696 4 0.0881564 0.30032 0.378574
694 2 0.0970231 0.323246 0.373994
649 2 0.239436 0.25622 0.407478
707 4 0.325852 0.248135 0.341264
488 4 0.291367 0.310379 0.393432
487 2 0.279419 0.293614 0.407623
509 4 0.291842 0.306888 0.373619
508 2 0.286596 0.327326 0.360205
267 4 0.434109 0.303864 0.347821
268 2 0.471183 0.268197 0.354506
270 4 0.466798 0.268199 0.379122
306 4 0.448752 0.267437 0.386414
304 2 0.444931 0.280561 0.407351
695 4 0.10589 0.346171 0.369414
1259 4 0.119426 0.349803 0.383713
1258 2 0.131783 0.354984 0.404824
374 4 0.264361 0.354382 0.338342
510 4 0.281351 0.347765 0.346792
3 3 0.295557 0.403326 0.342874
2925 4 0.451554 0.345658 0.345062
118 3 0.488061 0.395332 0.354661
2923 2 0.470878 0.361341 0.347472
2924 4 0.490202 0.377024 0.349883
751 2 0.480234 0.410371 0.402786
777 4 0.0722887 0.450496 0.332265
602 4 0.0585697 0.461225 0.341491
601 2 0.0411989 0.457216 0.359023
603 4 0.0238281 0.453207 0.376555
680 4 0.00680801 0.457814 0.386261
1383 4 0.0811774 0.484564 0.391012
1381 2 0.0791171 0.487151 0.415796
1776 4 0.155048 0.500504 0.364054
548 4 0.113167 0.430431 0.40225
1775 4 0.107819 0.484073 0.363685
1774 2 0.131434 0.492288 0.363869
549 4 0.104279 0.464715 0.366947
547 2 0.108723 0.447573 0.384598
503 4 0.198696 0.431896 0.335924
635 4 0.191064 0.468802 0.388675
636 4 0.204703 0.435319 0.354127
634 2 0.197883 0.45206 0.371401
1 1 0.297894 0.426277 0.340379
668 4 0.307996 0.451007 0.366354
4 3 0.294479 0.436848 0.360751
667 2 0.323704 0.464068 0.380772
669 4 0.339411 0.477129 0.395189
1586 4 0.346491 0.494106 0.388182
753 4 0.476562 0.424244 0.38231
119 3 0.473854 0.429504 0.363313
117 3 0.502252 0.426359 0.338893
116 1 0.48293 0.416415 0.34644
369 4 0.0569198 0.074318 0.486805
367 2 0.0720303 0.0747889 0.46689
719 4 0.0578477 0.0845827 0.504836
368 4 0.0871409 0.0752598 0.446974
340 2 0.158113 0.0807816 0.437867
2430 4 0.186835 0.0573564 0.437842
341 4 0.17877 0.0718429 0.426979
2429 4 0.209811 0.0141785 0.427426
2428 2 0.198323 0.0357674 0.432634
841 2 0.334073 0.0749208 0.481242
1216 2 0.38563 0.051813 0.466771
1217 4 0.370133 0.0697619 0.458843
842 4 0.352714 0.064001 0.468655
1218 4 0.401127 0.0338642 0.4747
2878 2 0.501194 0.0196143 0.455269
87 3 0.470482 0.0105822 0.485204
2879 4 0.483707 0.0146011 0.472423
731 4 0.0837028 0.0903396 0.43347
342 4 0.137455 0.0897203 0.448756
1152 4 0.144317 0.10978 0.45009
1150 2 0.145598 0.131582 0.462265
939 4 0.161495 0.152901 0.488189
1151 4 0.146879 0.153384 0.47444
260 4 0.102737 0.154487 0.484011
725 4 0.229966 0.110452 0.415461
724 2 0.242274 0.116059 0.436491
431 4 0.307806 0.0970434 0.478768
726 4 0.254582 0.121667 0.45752
432 4 0.273248 0.127815 0.459807
430 2 0.290527 0.112429 0.469288
843 4 0.315432 0.0858406 0.49383
575 4 0.402749 0.138696 0.453321
574 2 0.414711 0.124094 0.436924
516 4 0.406341 0.155427 0.4428
576 4 0.426674 0.109492 0.420527
470 4 0.0831522 0.177938 0.425459
390 4 0.09983 0.187092 0.421878
471 4 0.102 0.169809 0.471059
469 2 0.0925761 0.173873 0.448259
879 4 0.133892 0.232272 0.494196
2455 2 0.374823 0.237552 0.434664
2457 4 0.38724 0.242811 0.455719
514 2 0.403577 0.180096 0.4458
515 4 0.400814 0.204764 0.4488
617 4 0.0611595 0.272285 0.417641
878 4 0.128266 0.267542 0.459195
877 2 0.131079 0.249907 0.476695
651 4 0.247267 0.277358 0.418297
489 4 0.267471 0.27685 0.421813
584 4 0.323328 0.284727 0.48654
583 2 0.330528 0.305205 0.47413
585 4 0.337727 0.325683 0.46172
1010 4 0.444785 0.32579 0.482135
305 4 0.44111 0.293685 0.428287
1011 4 0.449614 0.310503 0.434767
1009 2 0.4472 0.318146 0.458451
408 4 0.0453888 0.35282 0.447256
406 2 0.0415876 0.377362 0.450161
407 4 0.0377864 0.401903 0.453066
1260 4 0.144141 0.360165 0.425934
326 4 0.161745 0.34781 0.426771
709 2 0.172845 0.412684 0.464271
711 4 0.178204 0.38965 0.47239
8 3 0.175766 0.394647 0.492448
325 2 0.168051 0.359522 0.447943
327 4 0.174357 0.371235 0.469114
7 3 0.171329 0.358343 0.483791
334 2 0.368397 0.400024 0.441464
335 4 0.378312 0.378431 0.44925
240 4 0.391732 0.371409 0.463489
238 2 0.408089 0.360233 0.478744
561 4 0.489869 0.398967 0.442908
239 4 0.424447 0.349058 0.494
559 2 0.491345 0.382511 0.461676
2508 4 0.487634 0.359891 0.498568
752 4 0.483906 0.396499 0.423261
2507 4 0.441773 0.339975 0.497675
2506 2 0.464704 0.349933 0.498121
560 4 0.49282 0.366055 0.480443
1382 4 0.0770567 0.489738 0.44058
538 2 0.0548279 0.483247 0.477129
540 4 0.0631461 0.490499 0.454693
539 4 0.0465097 0.475995 0.499565
569 4 0.113716 0.4288 0.421834
570 4 0.156968 0.444898 0.441091
568 2 0.135342 0.436849 0.431462
881 4 0.222168 0.478182 0.499898
710 4 0.167485 0.435717 0.456153
588 4 0.332811 0.492444 0.448346
336 4 0.358482 0.421617 0.433679
1401 4 0.348622 0.427345 0.44944
1399 2 0.346457 0.452228 0.450588
1400 4 0.344293 0.477111 0.451736
718 2 0.0369608 0.0830284 0.518493
720 4 0.0160738 0.081474 0.532149
1180 2 0.232967 0.0521141 0.540488
1182 4 0.208403 0.0563118 0.53844
950 4 0.194042 0.0646439 0.528144
949 2 0.180364 0.0782632 0.544038
1181 4 0.25753 0.0479165 0.542537
963 4 0.272439 0.0456906 0.529049
961 2 0.283844 0.0242542 0.523082
1003 2 0.325465 0.0127558 0.57565
962 4 0.295248 0.00281776 0.517115
1005 4 0.343071 0.0225567 0.560847
89 3 0.441053 0.0218303 0.5057
86 1 0.457387 0.00550829 0.503424
4465 2 0.451175 0.000407184 0.564047
1062 4 0.483606 0.00717648 0.54178
88 3 0.470771 0.00499855 0.522371
1031 4 0.153195 0.10737 0.563446
937 2 0.158241 0.165142 0.509747
951 4 0.166687 0.0918825 0.559932
856 2 0.328125 0.155401 0.544227
857 4 0.341182 0.139883 0.558852
899 4 0.342401 0.134135 0.578566
3008 4 0.480526 0.101939 0.575581
1035 4 0.0195386 0.176826 0.549839
1033 2 0.0395015 0.182447 0.535873
1034 4 0.0594645 0.188068 0.521906
261 4 0.0712885 0.172015 0.518717
1082 4 0.0179009 0.180823 0.569408
259 2 0.0870126 0.163251 0.501364
938 4 0.154987 0.177384 0.531305
1272 4 0.140814 0.22061 0.507956
1270 2 0.157737 0.226566 0.525372
1271 4 0.17466 0.232523 0.542788
909 4 0.175008 0.226592 0.561646
858 4 0.315068 0.170919 0.529601
796 2 0.323134 0.206269 0.522756
798 4 0.333134 0.227763 0.530704
797 4 0.313135 0.184774 0.514809
812 4 0.348725 0.239891 0.536097
811 2 0.371504 0.232075 0.542821
873 4 0.395907 0.21273 0.566073
813 4 0.394283 0.22426 0.549545
871 2 0.388132 0.190604 0.574744
954 4 0.458321 0.326989 0.575522
1205 4 0.442074 0.334601 0.565127
952 2 0.466384 0.304183 0.58185
983 4 0.0529545 0.384681 0.56373
982 2 0.0286705 0.384483 0.557778
1041 4 0.0708496 0.375601 0.561318
1039 2 0.0808274 0.396706 0.552361
984 4 0.00438646 0.384286 0.551826
9 3 0.155013 0.371963 0.51479
1040 4 0.0908051 0.417811 0.543405
895 2 0.200517 0.3967 0.540601
896 4 0.193721 0.373533 0.534097
1189 2 0.235215 0.356523 0.525184
1191 4 0.211262 0.363544 0.52372
10 3 0.192405 0.367899 0.513072
6 1 0.173745 0.373235 0.501156
804 4 0.324538 0.346638 0.525346
802 2 0.300381 0.353047 0.52607
1190 4 0.259168 0.349503 0.526647
803 4 0.276224 0.359457 0.526794
1206 4 0.396641 0.335955 0.544277
930 4 0.38203 0.336797 0.530703
928 2 0.360277 0.346494 0.523092
929 4 0.338523 0.356192 0.51548
1204 2 0.419358 0.335278 0.554702
2812 2 0.0147751 0.451439 0.517291
2813 4 0.0288594 0.467901 0.504809
2814 4 0.000690834 0.434976 0.529773
1938 4 0.0119877 0.492761 0.573224
1136 4 0.156729 0.463274 0.52772
992 4 0.142447 0.449525 0.525098
993 4 0.0973631 0.435477 0.541554
991 2 0.119905 0.442501 0.533326
1135 2 0.175261 0.446763 0.530735
897 4 0.207312 0.419867 0.547105
1137 4 0.193794 0.430251 0.53375
882 4 0.230116 0.461271 0.546283
1172 4 0.217353 0.455382 0.562004
880 2 0.226142 0.469727 0.523091
1171 2 0.208062 0.472875 0.577263
927 4 0.42755 0.427669 0.514848
925 2 0.442067 0.426874 0.535191
926 4 0.456583 0.426079 0.555534
1001 4 0.450505 0.438558 0.570227
945 4 0.0047338 0.048624 0.659141
1155 4 0.130484 0.0317407 0.631709
1153 2 0.133989 0.0497615 0.614734
1284 4 0.148676 0.0264985 0.634633
1154 4 0.137495 0.0677823 0.597759
1282 2 0.163784 0.0209689 0.653774
1004 4 0.307859 0.0029549 0.590454
829 2 0.364067 0.00489175 0.671433
2282 4 0.482956 0.0218845 0.63473
45 3 0.482816 0.0529454 0.643748
2281 2 0.465279 0.011698 0.620275
4467 4 0.441183 0.00114846 0.586956
2283 4 0.447602 0.00151137 0.60582
808 2 0.489811 0.0756175 0.609537
810 4 0.492539 0.0652401 0.632121
1032 4 0.128069 0.0855817 0.600792
1030 2 0.140632 0.096476 0.582119
1211 4 0.211986 0.133492 0.640582
888 4 0.226666 0.14131 0.631793
886 2 0.245749 0.128916 0.621429
1210 2 0.196305 0.139256 0.659185
887 4 0.264832 0.116523 0.611064
898 2 0.361998 0.145549 0.589094
900 4 0.381596 0.156962 0.599623
809 4 0.487084 0.0859948 0.586952
1083 4 0.0122234 0.187197 0.618681
1081 2 0.0150621 0.18401 0.594045
1199 4 0.00197957 0.18149 0.635524
820 2 0.105116 0.241176 0.671261
907 2 0.17814 0.230559 0.586134
947 4 0.180118 0.227486 0.629821
946 2 0.193929 0.2316 0.650254
908 4 0.181273 0.234525 0.610621
948 4 0.20774 0.235714 0.670687
1239 4 0.32269 0.176139 0.62534
1238 4 0.345715 0.220398 0.62876
1237 2 0.334203 0.198269 0.62705
792 4 0.364799 0.216508 0.624116
872 4 0.380358 0.168478 0.583414
790 2 0.374234 0.236644 0.612684
906 4 0.477778 0.234276 0.627017
3357 4 0.475529 0.221856 0.642716
3355 2 0.493337 0.222102 0.660266
3044 4 0.010655 0.288991 0.650152
1207 2 0.0541592 0.267019 0.661372
893 4 0.0658997 0.303042 0.596013
892 2 0.0798963 0.316605 0.611675
1208 4 0.0728614 0.253078 0.652369
821 4 0.0860498 0.256873 0.667356
894 4 0.0938929 0.330168 0.627338
791 4 0.383669 0.256781 0.601253
904 2 0.473169 0.256999 0.617657
905 4 0.468559 0.279722 0.608297
953 4 0.474446 0.281376 0.588177
3121 2 0.487023 0.30174 0.658769
3122 4 0.498577 0.308711 0.637719
1279 2 0.0901219 0.363707 0.658689
1281 4 0.0942958 0.34697 0.640589
941 4 0.159132 0.353323 0.667632
1066 2 0.180242 0.372015 0.65374
1028 4 0.196156 0.402208 0.636524
1068 4 0.183572 0.385659 0.633054
1027 2 0.219439 0.410205 0.640898
2128 2 0.0306089 0.479502 0.646107
2129 4 0.0165847 0.461748 0.635462
3494 4 0.997279 0.468437 0.632326
1173 4 0.198772 0.490369 0.592522
1029 4 0.242721 0.418203 0.645273
1139 4 0.24346 0.429139 0.662023
1160 4 0.17969 0.489476 0.588011
889 2 0.355608 0.480057 0.641432
890 4 0.362616 0.466688 0.661365
891 4 0.3486 0.493426 0.621499
1000 2 0.458484 0.439662 0.593898
1910 4 0.46295 0.431039 0.634412
1002 4 0.466462 0.440767 0.617569
1909 2 0.444901 0.440066 0.649173
1911 4 0.426851 0.449094 0.663935
943 2 0.0190445 0.0430418 0.678869
944 4 0.0333553 0.0374596 0.698598
1075 2 0.0547417 0.0536328 0.73453
1076 4 0.0447046 0.0427843 0.714362
2049 4 0.117919 0.0126733 0.748251
1283 4 0.178891 0.0154393 0.672914
831 4 0.382796 0.0133062 0.685702
1142 4 0.375874 0.028433 0.695991
1141 2 0.383307 0.0520572 0.692552
1143 4 0.39074 0.0756815 0.689113
44 3 0.48858 0.0329834 0.675148
3386 4 0.00635701 0.117641 0.722233
1106 4 0.0776942 0.152843 0.736537
1105 2 0.0567332 0.154209 0.722974
1107 4 0.0357723 0.155574 0.709411
35 3 0.0911495 0.157019 0.722926
1219 2 0.149943 0.139838 0.699876
1131 4 0.131874 0.122093 0.738351
1221 4 0.136995 0.125992 0.71618
32 3 0.123499 0.139013 0.727638
31 1 0.109678 0.155358 0.736063
1129 2 0.152664 0.111977 0.747872
1220 4 0.162891 0.153683 0.683571
1212 4 0.180624 0.145019 0.677788
1025 4 0.38371 0.0897177 0.675724
1024 2 0.386536 0.114561 0.675671
1026 4 0.389362 0.139404 0.675618
850 2 0.00344874 0.198312 0.701551
851 4 0.00322395 0.218447 0.716373
3188 4 0.0198298 0.231552 0.738431
852 4 0.00367353 0.178177 0.686728
822 4 0.124182 0.225478 0.675166
1278 4 0.12313 0.218618 0.693677
1276 2 0.129524 0.19812 0.706488
34 3 0.121133 0.175537 0.736184
1277 4 0.135917 0.177622 0.7193
1073 4 0.141169 0.185205 0.740052
1065 4 0.214316 0.23053 0.688389
918 4 0.23861 0.241313 0.727753
1261 2 0.413999 0.234065 0.721774
3270 4 0.469453 0.167267 0.745242
1263 4 0.418321 0.209489 0.720197
1145 4 0.426798 0.192327 0.721629
1144 2 0.43918 0.176927 0.736949
1209 4 0.035457 0.28096 0.670375
1178 4 0.0224812 0.251467 0.73964
1177 2 0.0126565 0.254145 0.716804
1243 2 0.0378624 0.314845 0.686557
1245 4 0.0347368 0.29006 0.687619
942 4 0.123151 0.318741 0.670826
1063 2 0.20909 0.247461 0.70603
1064 4 0.203863 0.264392 0.723671
1242 4 0.191167 0.271332 0.737668
1096 2 0.307724 0.281664 0.732712
1097 4 0.283183 0.284953 0.729227
917 4 0.282267 0.265511 0.724721
916 2 0.260438 0.253412 0.726237
1262 4 0.409677 0.258642 0.72335
1098 4 0.332264 0.278375 0.736197
1192 2 0.395275 0.291197 0.745995
1194 4 0.39662 0.272107 0.729904
3123 4 0.47547 0.294769 0.679819
1280 4 0.0859479 0.380445 0.676789
1244 4 0.040988 0.33963 0.685496
3275 4 0.0817597 0.3988 0.680786
3274 2 0.0810277 0.413681 0.700866
940 2 0.141142 0.336032 0.669229
1067 4 0.176913 0.358371 0.674427
1228 2 0.272822 0.378537 0.715789
1230 4 0.275646 0.35974 0.699544
1229 4 0.269997 0.397334 0.732033
1982 4 0.0479324 0.502519 0.747131
3276 4 0.0802956 0.428561 0.720947
816 4 0.0867722 0.439201 0.737224
2016 4 0.160371 0.499583 0.720717
1078 2 0.161932 0.470339 0.746651
1079 4 0.172159 0.48801 0.732217
1138 2 0.23892 0.434909 0.685925
1140 4 0.23438 0.440679 0.709826
1989 4 0.232695 0.459964 0.711223
1987 2 0.247 0.479459 0.717585
1988 4 0.261305 0.498954 0.723947
1269 4 0.377137 0.464963 0.67446
1267 2 0.401137 0.45943 0.678767
1268 4 0.425137 0.453897 0.683074
1077 4 0.0647789 0.0644812 0.754698
1203 4 0.0827753 0.0587888 0.760495
864 4 0.0594029 0.082002 0.829803
2047 2 0.138622 0.998891 0.745678
1201 2 0.103509 0.0458932 0.75511
1202 4 0.124243 0.0329976 0.749725
1197 4 0.114385 0.00643288 0.835934
818 4 0.375237 0.065483 0.824052
965 4 0.391182 0.0768723 0.831457
817 2 0.361617 0.0766246 0.806288
845 4 0.499912 0.0409107 0.789722
832 2 0.0705352 0.146005 0.777886
863 4 0.0699976 0.126318 0.809197
833 4 0.0588002 0.139863 0.799093
862 2 0.0647002 0.10416 0.8195
834 4 0.0822703 0.152148 0.756679
33 3 0.103559 0.149593 0.75769
1130 4 0.173453 0.10186 0.757392
1227 4 0.182867 0.11947 0.760617
1225 2 0.207733 0.120446 0.763041
1226 4 0.2326 0.121421 0.765465
840 4 0.252187 0.120645 0.761233
838 2 0.263522 0.137282 0.776061
839 4 0.274858 0.153919 0.79089
1086 4 0.334834 0.155165 0.796201
1084 2 0.340272 0.131374 0.79076
819 4 0.347998 0.0877662 0.788525
1085 4 0.34571 0.107584 0.785318
964 2 0.414893 0.0833932 0.835983
1146 4 0.451563 0.161528 0.75227
3268 2 0.490561 0.16161 0.757392
1213 2 0.0516636 0.201935 0.804464
1215 4 0.0270294 0.201562 0.800199
3189 4 0.0201516 0.207115 0.782059
1214 4 0.0762979 0.202308 0.80873
153 3 0.0172786 0.198414 0.818676
3187 2 0.0199907 0.219334 0.760245
1072 2 0.140459 0.19452 0.763245
1074 4 0.139749 0.203835 0.786438