ITEM: TIMESTEP
4320000
ITEM: NUMBER OF ATOMS
4590
ITEM: BOX BOUNDS pp pp pp
-9.9985700000000008e+00 9.9985700000000008e+00
-9.9985700000000008e+00 9.9985700000000008e+00
-9.9985700000000008e+00 9.9985700000000008e+00
ITEM: ATOMS id type xs ys zs
1668 4 0.0771382 0.0343463 0.0731319
465 4 0.019204 0.0692394 0.00750241
3290 4 0.0956472 0.0367945 0.0648609
1666 2 0.0616506 0.0497226 0.0853337
463 2 0.0328713 0.0500418 0.999145
3289 2 0.0959532 0.0281734 0.0413926
3291 4 0.0962592 0.0195522 0.0179243
985 2 0.315965 0.0565714 0.0080526
491 4 0.304623 0.0299682 0.0816242
987 4 0.326661 0.034139 0.0108037
359 4 0.250908 0.136726 0.997245
358 2 0.237926 0.157184 0.0034211
461 4 0.268876 0.175517 0.0838648
460 2 0.281723 0.166923 0.0642106
462 4 0.29457 0.15833 0.0445565
2723 4 0.494742 0.15184 0.0604553
655 2 0.010161 0.236863 0.051203
836 4 0.0635838 0.226044 0.0067898
422 4 0.0793764 0.219633 0.994295
505 2 0.129555 0.230754 0.0802235
737 4 0.156858 0.198161 0.0839848
507 4 0.109278 0.245311 0.0787692
913 2 0.165303 0.243738 0.0115013
736 2 0.179883 0.200613 0.0934189
354 4 0.218773 0.215249 0.0986097
352 2 0.238129 0.203971 0.0875044
360 4 0.224945 0.177641 0.0095969
353 4 0.257485 0.192693 0.0763992
665 4 0.329798 0.195615 0.00332859
2806 2 0.0293598 0.289353 0.0305192
2808 4 0.0371119 0.266606 0.0374243
657 4 0.030301 0.251365 0.0481609
2807 4 0.0216076 0.312099 0.0236142
1055 4 0.057365 0.284709 0.99512
835 2 0.0680553 0.25064 0.00632124
294 4 0.110965 0.308532 0.0699084
292 2 0.112699 0.28369 0.0676614
293 4 0.114433 0.258848 0.0654145
990 4 0.157398 0.33812 0.0487484
456 4 0.090576 0.311641 0.0741267
914 4 0.16969 0.267432 0.018174
286 2 0.173369 0.302307 0.039755
288 4 0.16553 0.320922 0.0544924
287 4 0.181208 0.283691 0.0250177
356 4 0.245908 0.30433 0.0036075
610 2 0.258861 0.329404 0.0785679
611 4 0.251215 0.305698 0.0763863
313 2 0.0309479 0.418436 0.0849761
1102 2 0.149964 0.418848 0.0365904
989 4 0.142013 0.385652 0.0465717
988 2 0.149705 0.361886 0.0476601
454 2 0.098748 0.335217 0.0725253
1104 4 0.152369 0.402629 0.0554678
1440 4 0.201297 0.399402 0.0464395
243 4 0.209376 0.408015 0.0299385
1438 2 0.197063 0.397105 0.0709746
741 4 0.311999 0.32846 0.0518049
739 2 0.32365 0.350173 0.0560461
609 4 0.253489 0.367461 0.0840614
386 4 0.34005 0.38232 0.0776656
740 4 0.335301 0.371886 0.0602872
1305 4 0.402946 0.401555 0.0289486
1303 2 0.40457 0.382613 0.0127077
1304 4 0.406193 0.363672 0.996467
1095 4 0.403666 0.347839 0.00758819
314 4 0.0191159 0.432337 0.0678905
551 4 0.999782 0.488162 0.0322532
550 2 0.00418556 0.468238 0.0467036
552 4 0.00858873 0.448313 0.061154
1786 2 0.131757 0.477243 0.0641583
1103 4 0.147559 0.435066 0.017713
1787 4 0.153817 0.466599 0.0591348
1222 2 0.141464 0.463654 0.00462303
1223 4 0.149269 0.441137 0.997058
1619 4 0.158947 0.449016 0.0672405
241 2 0.229121 0.423125 0.0325857
242 4 0.248866 0.438235 0.0352328
524 4 0.309547 0.454293 0.0840324
523 2 0.330408 0.460323 0.0716376
251 4 0.294352 0.465549 0.0781994
227 4 0.393622 0.418873 0.0284325
226 2 0.378605 0.436413 0.0380243
228 4 0.363588 0.453953 0.0476162
525 4 0.351269 0.466354 0.0592429
1559 4 0.363695 0.475023 0.0947569
1583 4 0.500291 0.498849 0.065447
1667 4 0.0461631 0.0650989 0.0975355
19 3 0.0158713 0.0316451 0.119793
17 3 0.0272847 0.0580575 0.0956109
1420 2 0.00847711 0.0202586 0.155886
1422 4 0.00549017 0.0354396 0.136244
16 1 0.00987956 0.0513254 0.10906
2480 4 0.996786 0.0549956 0.138761
20 3 0.00556932 0.0675609 0.124438
1504 2 0.140005 0.026234 0.138175
1505 4 0.124465 0.0311487 0.157136
1506 4 0.155545 0.0213193 0.119213
1475 4 0.311116 0.0470946 0.0877242
490 2 0.301819 0.0065488 0.073327
1661 4 0.300542 0.00320794 0.131952
652 2 0.253527 0.0822276 0.142916
1474 2 0.291622 0.0579578 0.0989998
1476 4 0.272127 0.0688211 0.110275
486 4 0.318412 0.0135825 0.134318
654 4 0.255479 0.0741863 0.119321
484 2 0.337687 0.0262796 0.124704
297 4 0.37172 0.0359915 0.102529
295 2 0.394591 0.0275361 0.108062
485 4 0.356963 0.0389767 0.115091
296 4 0.417462 0.0190808 0.113595
745 2 0.443759 0.0126041 0.131477
746 4 0.423607 0.0273834 0.130677
450 4 0.0979206 0.10745 0.113394
448 2 0.115342 0.110035 0.131141
449 4 0.132764 0.112619 0.148889
236 4 0.139719 0.115962 0.166051
580 2 0.319951 0.148824 0.136373
581 4 0.304389 0.166586 0.128157
557 4 0.407542 0.0922316 0.142528
582 4 0.335512 0.131061 0.144589
758 4 0.331177 0.115375 0.156382
556 2 0.428012 0.106497 0.140906
558 4 0.448482 0.120763 0.139284
771 4 0.464849 0.114912 0.149295
506 4 0.149832 0.216197 0.0816778
738 4 0.202908 0.203065 0.102853
30 3 0.297779 0.176574 0.144465
26 1 0.289711 0.183534 0.164592
29 3 0.269337 0.194248 0.161679
255 4 0.323262 0.210689 0.171884
27 3 0.304603 0.198313 0.174024
253 2 0.342072 0.218196 0.157221
628 2 0.395286 0.225846 0.127778
254 4 0.360882 0.225703 0.142559
630 4 0.370825 0.221086 0.125732
629 4 0.419746 0.230607 0.129824
624 4 0.430584 0.235037 0.146098
338 4 0.0740939 0.263425 0.116316
337 2 0.0609574 0.272234 0.135681
339 4 0.0478209 0.281044 0.155046
704 4 0.0343915 0.294099 0.149229
278 4 0.253106 0.287221 0.0830676
279 4 0.276669 0.271688 0.12435
277 2 0.264887 0.279455 0.103709
285 4 0.278017 0.271183 0.143906
622 2 0.434237 0.258259 0.154616
671 4 0.426206 0.325043 0.101514
281 4 0.444151 0.333001 0.108493
623 4 0.43789 0.281481 0.163135
315 4 0.04278 0.404534 0.102062
455 4 0.10692 0.358793 0.070924
647 4 0.117418 0.376521 0.1516
537 4 0.104981 0.377016 0.135796
535 2 0.109887 0.372108 0.111775
536 4 0.114793 0.3672 0.0877535
612 4 0.266507 0.353109 0.0807496
625 2 0.209854 0.378572 0.134111
627 4 0.200116 0.388053 0.113124
1439 4 0.192828 0.394807 0.0955097
626 4 0.219593 0.369091 0.155098
607 2 0.265265 0.388996 0.0888302
608 4 0.27704 0.410531 0.093599
302 4 0.348794 0.417535 0.131146
385 2 0.348303 0.389971 0.0999935
387 4 0.356555 0.397623 0.122321
12 3 0.393128 0.382274 0.125296
11 1 0.3903 0.400762 0.138689
15 3 0.368404 0.407013 0.13832
672 4 0.4042 0.365815 0.12033
13 3 0.396631 0.39537 0.160351
670 2 0.415203 0.345429 0.110922
282 4 0.493036 0.337008 0.0987517
280 2 0.468593 0.335004 0.103622
1618 2 0.16333 0.437583 0.0890408
1431 4 0.177874 0.430049 0.128683
1620 4 0.167713 0.42615 0.110841
1429 2 0.169173 0.426867 0.151907
1573 2 0.216676 0.465162 0.160418
1574 4 0.233774 0.466778 0.142246
1575 4 0.199578 0.463545 0.17859
1863 4 0.330935 0.512338 0.136157
250 2 0.279805 0.446383 0.0849968
252 4 0.265257 0.427217 0.0917941
303 4 0.30827 0.440913 0.148809
638 4 0.288648 0.442457 0.151978
637 2 0.269918 0.455964 0.14239
639 4 0.251188 0.469472 0.132802
14 3 0.403587 0.417982 0.130607
301 2 0.328532 0.429224 0.139978
1558 2 0.35446 0.494574 0.107311
495 4 0.39582 0.435871 0.129845
493 2 0.388987 0.451586 0.111638
494 4 0.382154 0.467301 0.09343
1421 4 0.0114641 0.00507763 0.175527
1416 4 0.000470751 0.994111 0.187701
1404 4 0.0556192 0.00455276 0.243195
1415 4 0.0113365 0.017726 0.230421
1414 2 0.00590362 0.00591867 0.209061
690 4 0.0950507 0.0198096 0.22032
688 2 0.103839 0.022461 0.197062
689 4 0.112627 0.0251124 0.173804
653 4 0.251575 0.0902688 0.16651
692 4 0.280866 0.0867107 0.211323
1701 4 0.291877 0.0789896 0.227644
1699 2 0.315262 0.0786889 0.218798
22 3 0.38334 0.0526555 0.209849
698 4 0.402313 0.0576825 0.217209
697 2 0.414242 0.0363236 0.212043
333 4 0.398509 0.0764326 0.223462
21 1 0.370083 0.0714506 0.21025
25 3 0.366361 0.0784608 0.188904
23 3 0.349932 0.0662003 0.220486
699 4 0.42617 0.0149646 0.206878
759 4 0.346317 0.0825145 0.190904
1700 4 0.338646 0.0783881 0.209951
1518 4 0.430584 0.995023 0.206007
331 2 0.419305 0.0879025 0.231281
743 4 0.492653 0.0161185 0.237655
511 2 0.0115938 0.140198 0.182972
513 4 0.0256857 0.158849 0.174099
512 4 0.997502 0.121547 0.191845
235 2 0.15566 0.120379 0.184801
237 4 0.1716 0.124796 0.203551
693 4 0.239905 0.0898577 0.18281
691 2 0.260386 0.0882842 0.197067
24 3 0.380974 0.0880568 0.222251
757 2 0.338747 0.0989447 0.173643
769 2 0.481442 0.125538 0.164688
349 2 0.470404 0.094824 0.209915
350 4 0.449382 0.101933 0.221435
332 4 0.440101 0.0993725 0.239101
770 4 0.498035 0.136163 0.180082
312 4 0.502767 0.156594 0.182257
351 4 0.491426 0.0877146 0.198394
578 4 0.0272825 0.163007 0.194612
577 2 0.0409542 0.176119 0.210931
579 4 0.0546259 0.189232 0.227251
362 4 0.167133 0.248319 0.231169
475 2 0.234086 0.209528 0.177584
476 4 0.209824 0.213501 0.182142
371 4 0.191318 0.222015 0.180782
370 2 0.18846 0.235096 0.201898
372 4 0.185602 0.248178 0.223014
477 4 0.258347 0.205555 0.173027
756 4 0.317077 0.200222 0.191905
28 3 0.28715 0.165371 0.178804
754 2 0.326897 0.206275 0.214088
755 4 0.336718 0.212327 0.236272
703 2 0.0202214 0.305031 0.166689
2483 4 0.995149 0.25914 0.229041
2482 2 0.992185 0.261406 0.204317
361 2 0.145781 0.257236 0.240641
283 2 0.276502 0.283206 0.165777
284 4 0.274986 0.295228 0.187648
528 4 0.431293 0.309316 0.217398
542 4 0.444259 0.320314 0.228946
526 2 0.437723 0.304142 0.193796
527 4 0.444153 0.298968 0.170194
619 2 0.0518832 0.406242 0.197831
621 4 0.0523721 0.403729 0.222703
298 2 0.0796945 0.347532 0.215634
299 4 0.0563931 0.348608 0.224637
264 4 0.0356961 0.398814 0.233745
750 4 0.0453011 0.332784 0.229337
620 4 0.0513942 0.408756 0.172959
646 2 0.117894 0.367579 0.174945
300 4 0.102996 0.346457 0.20663
648 4 0.118369 0.358637 0.19829
734 4 0.160489 0.358561 0.245319
416 4 0.199474 0.408276 0.226174
417 4 0.168011 0.409758 0.187334
290 4 0.205996 0.41169 0.245389
415 2 0.183743 0.409017 0.206754
597 4 0.393175 0.398136 0.182241
345 4 0.379656 0.35268 0.222546
596 4 0.372964 0.358272 0.204671
595 2 0.38307 0.378204 0.193456
343 2 0.378308 0.360022 0.246409
541 2 0.456368 0.337619 0.242328
766 2 0.195653 0.500528 0.246236
1430 4 0.160472 0.423686 0.175131
676 2 0.173994 0.44763 0.254588
678 4 0.182681 0.470331 0.248723
438 4 0.294779 0.436026 0.207493
436 2 0.294334 0.436505 0.232488
645 4 0.411602 0.40659 0.17166
659 4 0.384524 0.412759 0.193747
660 4 0.354521 0.452745 0.192467
658 2 0.369522 0.432752 0.193107
231 4 0.354669 0.472565 0.186434
229 2 0.345919 0.483849 0.165909
643 2 0.422354 0.425335 0.184237
644 4 0.433107 0.44408 0.196813
447 4 0.437377 0.439629 0.216422
445 2 0.434847 0.431123 0.239797
1402 2 0.0544363 0.0276852 0.252612
233 4 0.0398426 0.049959 0.277336
232 2 0.0468325 0.0523921 0.301219
234 4 0.0538224 0.0548252 0.325102
1403 4 0.0532534 0.0508175 0.262028
317 4 0.059253 0.0674942 0.340374
674 4 0.138801 0.0528613 0.288204
722 4 0.148151 0.0439391 0.303713
673 2 0.13774 0.0716575 0.27175
721 2 0.171255 0.0416681 0.312999
723 4 0.194359 0.0393971 0.322285
1405 2 0.228905 0.037728 0.306351
1406 4 0.211026 0.049807 0.318985
1407 4 0.246784 0.025649 0.293717
1340 4 0.266543 0.999484 0.319706
425 4 0.501307 0.0311761 0.247004
258 4 0.489864 0.0634963 0.295905
424 2 0.490764 0.0476352 0.262597
426 4 0.480221 0.0640944 0.278189
391 2 0.0608601 0.125932 0.301
392 4 0.0699824 0.130375 0.278148
393 4 0.0517377 0.121489 0.323852
545 4 0.0823872 0.130853 0.262085
675 4 0.136679 0.0904536 0.255295
546 4 0.12219 0.100684 0.264598
544 2 0.102288 0.115768 0.263342
404 4 0.171517 0.138544 0.282189
599 4 0.159024 0.112424 0.32734
403 2 0.170541 0.16167 0.291643
598 2 0.170967 0.127828 0.343
419 4 0.408911 0.156176 0.332121
256 2 0.4846 0.0848588 0.307784
257 4 0.479335 0.106221 0.319663
444 4 0.0315022 0.240122 0.297426
530 4 0.0156797 0.231762 0.288015
442 2 0.056285 0.239762 0.300721
443 4 0.0810678 0.239402 0.304017
529 2 0.00553541 0.240339 0.266833
400 2 0.141553 0.216682 0.28632
402 4 0.123571 0.231855 0.277859
401 4 0.159536 0.201509 0.294781
405 4 0.169565 0.184797 0.301097
396 4 0.0865702 0.257267 0.296964
472 2 0.211078 0.199533 0.325818
474 4 0.191429 0.184265 0.323375
275 4 0.171849 0.185645 0.320865
473 4 0.230728 0.214801 0.328262
717 4 0.418414 0.215375 0.326915
715 2 0.413209 0.191577 0.321281
377 4 0.414739 0.227028 0.311348
716 4 0.408003 0.167779 0.315648
763 2 0.482431 0.170691 0.248983
764 4 0.458035 0.168841 0.243828
363 4 0.124428 0.266153 0.250113
395 4 0.127975 0.263669 0.269663
394 2 0.107273 0.260468 0.283314
376 2 0.419105 0.251646 0.311038
266 4 0.41447 0.276764 0.32852
378 4 0.42347 0.276263 0.310728
262 2 0.0217398 0.414476 0.24735
749 4 0.0234117 0.344857 0.272648
366 4 0.00733677 0.352696 0.266533
748 2 0.0343564 0.338821 0.250992
364 2 0.995792 0.355976 0.288468
733 2 0.159858 0.383215 0.249437
735 4 0.159227 0.407869 0.253555
291 4 0.226924 0.417317 0.290457
289 2 0.21646 0.414503 0.267923
727 2 0.324858 0.404157 0.330004
729 4 0.324303 0.379457 0.326159
308 4 0.328573 0.371365 0.307547
307 2 0.347737 0.362857 0.293926
344 4 0.37696 0.367364 0.270273
309 4 0.366901 0.354349 0.280305
118 3 0.493425 0.390483 0.335986
543 4 0.468477 0.354925 0.255709
615 4 0.453539 0.367412 0.263927
614 4 0.443555 0.361867 0.312613
613 2 0.448547 0.364639 0.28827
2925 4 0.450506 0.352504 0.329983
263 4 0.00778359 0.430138 0.260955
777 4 0.0391172 0.43934 0.300543
775 2 0.0565423 0.450985 0.286906
602 4 0.0297438 0.434739 0.318112
776 4 0.0739674 0.462629 0.27327
1757 4 0.0860244 0.478961 0.270114
1756 2 0.0928772 0.498496 0.284134
677 4 0.165307 0.42493 0.260453
1775 4 0.142738 0.471268 0.333923
635 4 0.139094 0.460323 0.317451
634 2 0.157253 0.443373 0.320301
636 4 0.175411 0.426423 0.323152
768 4 0.183458 0.485265 0.26184
1543 2 0.230465 0.486922 0.303874
414 4 0.241444 0.427669 0.298324
1544 4 0.239198 0.476989 0.282655
412 2 0.254527 0.429525 0.319551
728 4 0.325414 0.428857 0.333849
437 4 0.293888 0.436983 0.257483
433 2 0.304722 0.444495 0.295029
435 4 0.291803 0.450118 0.274374
434 4 0.317641 0.438871 0.315685
120 3 0.490972 0.42435 0.319718
446 4 0.432317 0.422617 0.263173
2862 4 0.493161 0.433112 0.299637
713 4 0.474026 0.436327 0.310368
714 4 0.433663 0.426174 0.282647
712 2 0.453845 0.43125 0.296508
2756 4 0.990208 0.0466261 0.404704
316 2 0.077141 0.0577118 0.354849
2755 2 0.998943 0.0658757 0.39135
731 4 0.0699067 0.065701 0.429681
2757 4 0.00767875 0.0851253 0.377996
730 2 0.0771629 0.0775931 0.408918
606 4 0.154829 0.0527867 0.355116
604 2 0.130877 0.0580053 0.360037
605 4 0.106924 0.0632239 0.364958
318 4 0.0950289 0.0479293 0.369323
2429 4 0.226791 0.0230219 0.414593
683 4 0.241586 0.0533099 0.370877
441 4 0.24507 0.0139891 0.410831
682 2 0.253934 0.0352816 0.358725
249 4 0.276512 0.00610283 0.336232
684 4 0.266282 0.0172532 0.346572
247 2 0.300359 0.0107106 0.342168
248 4 0.324207 0.0153184 0.348104
633 4 0.327727 0.0333964 0.356093
321 4 0.251005 0.0643433 0.385068
319 2 0.249842 0.0803813 0.404215
631 2 0.337346 0.0391198 0.378451
632 4 0.346966 0.0448432 0.400809
468 4 0.36067 0.0565551 0.408331
1749 4 0.507226 0.0056137 0.333463
2585 4 0.0023643 0.0897731 0.358491
2584 2 0.0194324 0.103465 0.346391
2586 4 0.0365005 0.117157 0.334292
399 4 0.0640367 0.128421 0.338816
397 2 0.0744468 0.117981 0.35901
732 4 0.0844191 0.0894852 0.388155
398 4 0.0848569 0.107541 0.379205
600 4 0.18291 0.143232 0.358661
685 2 0.21671 0.146732 0.368152
687 4 0.199805 0.134695 0.354204
686 4 0.233615 0.158768 0.382099
420 4 0.366871 0.129994 0.339038
418 2 0.387891 0.143085 0.33558
466 2 0.358691 0.0812774 0.411504
467 4 0.356711 0.106 0.414677
761 4 0.478642 0.111857 0.338204
762 4 0.437475 0.111786 0.366593
760 2 0.458059 0.111822 0.352399
274 2 0.155292 0.186267 0.339591
470 4 0.0793219 0.182589 0.394263
390 4 0.0778191 0.19795 0.382477
388 2 0.0991283 0.196552 0.369472
276 4 0.138736 0.186888 0.358317
389 4 0.120438 0.195155 0.356466
410 4 0.229902 0.171357 0.396875
708 4 0.244703 0.201318 0.331662
409 2 0.22743 0.191113 0.412
707 4 0.294115 0.206476 0.337366
706 2 0.269409 0.203897 0.334514
497 4 0.305123 0.21943 0.347935
496 2 0.326192 0.214859 0.360599
2455 2 0.378762 0.230718 0.396563
498 4 0.347261 0.210287 0.373262
2456 4 0.360705 0.224088 0.380588
2457 4 0.396818 0.237348 0.412537
515 4 0.453912 0.172422 0.419528
618 4 0.0492367 0.277651 0.427092
616 2 0.0271091 0.270502 0.417903
617 4 0.00498158 0.263352 0.408714
696 4 0.0658084 0.304986 0.389595
694 2 0.0827495 0.322506 0.384008
695 4 0.0996905 0.340026 0.37842
489 4 0.242395 0.276716 0.411794
509 4 0.272859 0.32835 0.407398
488 4 0.280463 0.309013 0.408879
487 2 0.261429 0.292865 0.410337
265 2 0.410458 0.298119 0.340891
267 4 0.406446 0.319474 0.353263
268 2 0.470088 0.271678 0.360935
269 4 0.491796 0.271109 0.34854
270 4 0.44838 0.272248 0.373329
306 4 0.44513 0.268095 0.391867
408 4 0.00509596 0.384881 0.403318
406 2 0.0255658 0.376563 0.415023
1259 4 0.1164 0.337263 0.388667
1258 2 0.139223 0.347364 0.387164
1260 4 0.162046 0.357464 0.385661
326 4 0.175481 0.361888 0.400146
510 4 0.256904 0.355448 0.368516
325 2 0.176911 0.359576 0.425001
374 4 0.262435 0.375512 0.367967
508 2 0.264882 0.341899 0.387957
373 2 0.270998 0.397988 0.361136
2923 2 0.47305 0.360674 0.337068
2924 4 0.495593 0.368845 0.344154
681 4 0.016184 0.503007 0.394429
601 2 0.0306615 0.43994 0.342551
679 2 0.02715 0.483678 0.382969
603 4 0.0315791 0.445141 0.366991
680 4 0.038116 0.46435 0.371509
1774 2 0.13743 0.495526 0.336853
569 4 0.111 0.44085 0.401752
549 4 0.139187 0.463371 0.35328
547 2 0.135173 0.450932 0.374596
548 4 0.131159 0.438493 0.395911
1395 4 0.233921 0.497313 0.409578
504 4 0.228282 0.411349 0.354243
1821 4 0.217579 0.504726 0.34374
502 2 0.204566 0.416085 0.347896
503 4 0.180849 0.420821 0.34155
2 3 0.311315 0.447362 0.335224
413 4 0.267611 0.431381 0.340777
375 4 0.279561 0.420465 0.354304
3 3 0.296957 0.426779 0.363203
5 3 0.27513 0.450536 0.343792
1 1 0.295974 0.447272 0.352365
668 4 0.31576 0.477772 0.359747
4 3 0.301197 0.464335 0.367196
667 2 0.312964 0.493411 0.379056
751 2 0.475209 0.418952 0.395989
116 1 0.494804 0.413405 0.339318
753 4 0.469433 0.414881 0.372004
119 3 0.479299 0.420041 0.355254
368 4 0.0587818 0.0489692 0.425415
367 2 0.0447654 0.0492573 0.446119
369 4 0.030749 0.0495454 0.466822
719 4 0.024308 0.0639601 0.47887
340 2 0.16738 0.0752962 0.441972
2428 2 0.208956 0.0404404 0.416512
439 2 0.246451 0.995651 0.427772
341 4 0.172389 0.0602772 0.42262
2430 4 0.191121 0.0578589 0.418431
320 4 0.24868 0.0964193 0.423362
1216 2 0.388575 0.031414 0.486508
1218 4 0.379853 0.0111541 0.474733
842 4 0.37805 0.0581588 0.497178
1217 4 0.397297 0.0516738 0.498283
841 2 0.359215 0.0738606 0.502065
2878 2 0.498596 0.0106904 0.490104
342 4 0.162371 0.0903153 0.461325
1152 4 0.155734 0.103737 0.475207
1150 2 0.157646 0.127457 0.48288
725 4 0.253968 0.0929726 0.443009
726 4 0.286652 0.102018 0.47976
432 4 0.290736 0.113917 0.495692
724 2 0.27031 0.0974951 0.461385
430 2 0.315003 0.108326 0.493449
575 4 0.391114 0.151498 0.441353
574 2 0.382267 0.134516 0.425274
576 4 0.373419 0.117534 0.409195
431 4 0.33927 0.102735 0.491207
516 4 0.408738 0.159575 0.436701
260 4 0.0563182 0.196038 0.456656
471 4 0.0634735 0.184278 0.441663
469 2 0.0713977 0.183433 0.417963
259 2 0.060871 0.193557 0.481116
878 4 0.129175 0.19799 0.474598
877 2 0.133209 0.217448 0.489773
411 4 0.224958 0.210869 0.427126
650 4 0.222924 0.227781 0.437971
649 2 0.235148 0.249192 0.43381
514 2 0.431325 0.165998 0.428114
651 4 0.247372 0.270603 0.429648
585 4 0.337792 0.253697 0.48473
584 4 0.369948 0.291974 0.486
583 2 0.35387 0.272835 0.485365
304 2 0.44265 0.274876 0.415805
305 4 0.44017 0.281658 0.439743
1011 4 0.442117 0.299925 0.447054
1009 2 0.439406 0.31729 0.464838
407 4 0.0460356 0.368246 0.426727
709 2 0.143219 0.414511 0.478759
711 4 0.163991 0.410782 0.492167
9 3 0.176385 0.358257 0.504647
8 3 0.171261 0.392348 0.488647
327 4 0.178341 0.357264 0.449857
7 3 0.185629 0.363944 0.468663
6 1 0.184943 0.373628 0.489517
10 3 0.206016 0.379684 0.495672
1191 4 0.220358 0.370397 0.505656
336 4 0.329969 0.410362 0.421947
334 2 0.348913 0.395318 0.42827
335 4 0.367857 0.380274 0.434593
240 4 0.370156 0.374544 0.453373
238 2 0.376077 0.37148 0.477472
239 4 0.381998 0.368415 0.50157
1010 4 0.436695 0.334656 0.482622
2507 4 0.433334 0.347242 0.497764
559 2 0.480948 0.401153 0.451418
560 4 0.470985 0.383746 0.466348
2506 2 0.445649 0.367207 0.489107
2508 4 0.457965 0.387171 0.48045
927 4 0.492082 0.40979 0.504467
1382 4 0.0321489 0.473793 0.46204
1381 2 0.0562711 0.473879 0.455461
1383 4 0.0803934 0.473965 0.448881
538 2 0.0189836 0.455744 0.497207
540 4 0.0327614 0.460888 0.476986
710 4 0.122446 0.418241 0.465351
570 4 0.12066 0.429817 0.449561
568 2 0.11583 0.435333 0.425656
1400 4 0.299208 0.450354 0.45609
586 2 0.316901 0.48406 0.477503
588 4 0.306504 0.467486 0.461934
1399 2 0.311496 0.439509 0.437207
1401 4 0.323785 0.428664 0.418325
561 4 0.490912 0.418559 0.436487
752 4 0.480985 0.423023 0.419973
718 2 0.0299284 0.0707296 0.502275
1180 2 0.205432 0.0563227 0.527571
1182 4 0.189909 0.0749639 0.533633
1181 4 0.220954 0.0376816 0.52151
963 4 0.226496 0.0252921 0.535074
961 2 0.236214 0.00653071 0.548444
720 4 0.0355489 0.077499 0.525679
951 4 0.156166 0.108193 0.553366
1031 4 0.140602 0.0935969 0.553926
937 2 0.137905 0.155027 0.52531
939 4 0.158705 0.153826 0.511487
1151 4 0.159558 0.151177 0.490554
950 4 0.199648 0.0918613 0.534837
949 2 0.177907 0.100027 0.544101
858 4 0.311333 0.156241 0.575587
856 2 0.331452 0.147131 0.563864
843 4 0.34038 0.0895623 0.506951
898 2 0.386139 0.148575 0.549958
899 4 0.368729 0.130849 0.54715
857 4 0.351571 0.138021 0.552141
900 4 0.403548 0.166301 0.552767
1035 4 0.0751625 0.179517 0.571429
1033 2 0.0744347 0.186828 0.54753
261 4 0.0654238 0.191076 0.505576
1034 4 0.073707 0.194138 0.52363
938 4 0.117105 0.156229 0.539134
879 4 0.137243 0.236906 0.504948
1272 4 0.137919 0.240655 0.525504
1270 2 0.140789 0.230699 0.548259
1271 4 0.143659 0.220742 0.571015
909 4 0.158137 0.229822 0.582373
796 2 0.303264 0.19751 0.567132
812 4 0.321798 0.23158 0.555828
798 4 0.305919 0.221737 0.561545
797 4 0.300609 0.173284 0.572718
872 4 0.409472 0.183353 0.564003
873 4 0.385301 0.222703 0.544817
871 2 0.397386 0.203028 0.55441
813 4 0.371706 0.22956 0.558251
811 2 0.346752 0.23057 0.557039
3044 4 0.0316269 0.240368 0.598346
929 4 0.328126 0.330689 0.538303
804 4 0.32273 0.330055 0.518209
928 2 0.342726 0.312544 0.5474
1204 2 0.397291 0.304313 0.56041
1206 4 0.373001 0.303852 0.566323
930 4 0.357326 0.294398 0.556496
1205 4 0.421581 0.304774 0.554496
954 4 0.426332 0.295047 0.571246
952 2 0.443653 0.284318 0.58574
983 4 0.0355043 0.385233 0.56102
982 2 0.0113272 0.388767 0.566326
1041 4 0.0528449 0.376437 0.565514
1039 2 0.0660344 0.395292 0.55573
1136 4 0.146746 0.423191 0.57401
1135 2 0.163348 0.405644 0.567554
895 2 0.201025 0.366694 0.543009
896 4 0.211627 0.36078 0.521149
897 4 0.190424 0.372607 0.564868
1137 4 0.179949 0.388097 0.561099
1189 2 0.245265 0.37108 0.50357
802 2 0.302067 0.343488 0.513998
803 4 0.281403 0.356922 0.509787
1190 4 0.270172 0.371763 0.501483
926 4 0.464311 0.399893 0.54486
925 2 0.478197 0.404842 0.524664
1001 4 0.466799 0.408176 0.563026
1936 2 0.0402911 0.490435 0.562421
1937 4 0.0544021 0.498439 0.543395
1938 4 0.02618 0.482432 0.581447
936 4 0.0117028 0.483861 0.594565
1040 4 0.079224 0.414146 0.545947
539 4 0.00520578 0.4506 0.517428
992 4 0.137197 0.418436 0.557072
993 4 0.0910932 0.429742 0.541344
991 2 0.114145 0.424089 0.549208
2243 4 0.158647 0.495751 0.565651
1161 4 0.165871 0.478079 0.570953
1159 2 0.185087 0.479317 0.586902
882 4 0.264545 0.478575 0.553952
880 2 0.268128 0.499817 0.541259
1953 4 0.344151 0.485593 0.576884
1455 4 0.338953 0.504272 0.570221
1185 4 0.00322217 0.0142981 0.662271
1058 4 0.0767348 0.00795692 0.658814
1057 2 0.090532 0.0272546 0.650914
1155 4 0.103639 0.0665045 0.639627
1059 4 0.104329 0.0465523 0.643014
1153 2 0.12373 0.0765058 0.628604
1004 4 0.316813 0.0926952 0.643628
831 4 0.314501 0.0782628 0.65833
810 4 0.486384 0.0610246 0.596185
44 3 0.472453 0.0704421 0.651651
41 1 0.482069 0.0544531 0.637857
2281 2 0.457699 0.00782247 0.609744
2282 4 0.470106 0.0262221 0.621264
43 3 0.470347 0.0344949 0.639495
45 3 0.482008 0.061752 0.616284
1083 4 0.0418215 0.152088 0.611007
1199 4 0.0251165 0.161172 0.608614
1198 2 0.00449724 0.153202 0.620298
1030 2 0.135225 0.0918481 0.578282
1154 4 0.143821 0.0865071 0.61758
1032 4 0.129848 0.0900994 0.602638
1210 2 0.214368 0.154176 0.657227
1211 4 0.23757 0.147964 0.65028
888 4 0.229944 0.130221 0.642838
886 2 0.240327 0.11807 0.623609
887 4 0.25071 0.10592 0.60438
1212 4 0.191166 0.160389 0.664175
1003 2 0.323858 0.0902562 0.619762
1005 4 0.330904 0.0878172 0.595896
1142 4 0.376291 0.109084 0.620491
1141 2 0.386299 0.102806 0.642527
1082 4 0.0713827 0.186333 0.589697
1081 2 0.0566021 0.169211 0.600352
907 2 0.175514 0.246154 0.589887
1220 4 0.174465 0.171899 0.667267
1239 4 0.317298 0.198922 0.635166
1237 2 0.329055 0.218697 0.625372
1238 4 0.340811 0.238472 0.615578
3357 4 0.492875 0.228171 0.638976
3355 2 0.490058 0.216918 0.661126
3043 2 0.0356324 0.262287 0.609691
3045 4 0.039638 0.284205 0.621036
892 2 0.0847162 0.322933 0.626009
893 4 0.0904237 0.307835 0.606913
908 4 0.192891 0.262487 0.597402
947 4 0.207037 0.255352 0.609073
946 2 0.209417 0.268416 0.630259
948 4 0.211797 0.281479 0.651445
792 4 0.335236 0.256848 0.6197
791 4 0.365781 0.29284 0.636202
790 2 0.350509 0.274844 0.627951
904 2 0.480127 0.260244 0.624946
905 4 0.461317 0.275983 0.620081
953 4 0.460973 0.273589 0.600234
3121 2 0.473844 0.305576 0.660049
3122 4 0.494832 0.317089 0.652829
894 4 0.0790087 0.338031 0.645104
1279 2 0.0793822 0.356964 0.668824
1281 4 0.0669192 0.35323 0.647472
1028 4 0.200918 0.415222 0.665567
1000 2 0.470137 0.407348 0.587792
1002 4 0.473475 0.40652 0.612558
1027 2 0.224739 0.419789 0.659493
1171 2 0.243676 0.478213 0.590831
1160 4 0.204304 0.480555 0.602851
1173 4 0.224572 0.479108 0.606938
1029 4 0.24856 0.424356 0.653419
1172 4 0.262779 0.477318 0.574723
1139 4 0.268288 0.426863 0.653145
1138 2 0.277183 0.445883 0.666721
891 4 0.348197 0.486633 0.641049
889 2 0.366499 0.483017 0.657697
1952 4 0.354546 0.496218 0.624631
1951 2 0.349348 0.490906 0.600757
1269 4 0.399287 0.481051 0.659551
1267 2 0.423181 0.47369 0.659306
1910 4 0.470059 0.411529 0.630595
1909 2 0.464745 0.43125 0.645017
1911 4 0.45943 0.450972 0.659439
1268 4 0.447075 0.466328 0.659061
945 4 0.0172675 0.0292519 0.669745
943 2 0.0308416 0.0460659 0.682323
944 4 0.0444158 0.06288 0.694901
1075 2 0.0525724 0.0670051 0.736883
1076 4 0.0425712 0.0666862 0.713969
1282 2 0.134819 0.0580378 0.728999
1283 4 0.142642 0.0567445 0.752712
829 2 0.30482 0.0575075 0.668363
830 4 0.295138 0.0367522 0.678397
2400 4 0.292268 0.0354718 0.697468
2398 2 0.305765 0.0200648 0.711808
2399 4 0.319262 0.00465772 0.726148
33 3 0.0954302 0.14836 0.748229
834 4 0.0761079 0.153347 0.745486
1284 4 0.126995 0.0593311 0.705286
1221 4 0.141791 0.145599 0.694497
1219 2 0.158128 0.158749 0.680882
32 3 0.11623 0.151801 0.717113
1129 2 0.146921 0.123464 0.722761
1131 4 0.131197 0.137944 0.70979
1130 4 0.162645 0.108984 0.735733
31 1 0.10211 0.162937 0.731458
1227 4 0.169244 0.124253 0.747261
1143 4 0.396306 0.096527 0.664563
1025 4 0.394952 0.1062 0.681928
1024 2 0.37932 0.121231 0.694374
1026 4 0.363689 0.136263 0.70682
851 4 0.0104982 0.187494 0.722853
1208 4 0.0869775 0.251609 0.665792
1107 4 0.0256681 0.180023 0.713196
1105 2 0.047271 0.170171 0.721034
1207 2 0.0770694 0.254484 0.688568
1106 4 0.0688739 0.160319 0.728872
35 3 0.0839382 0.170308 0.719877
822 4 0.141634 0.210856 0.676843
1278 4 0.150252 0.202643 0.694835
1276 2 0.141205 0.198034 0.717685
820 2 0.123644 0.228026 0.674253
821 4 0.105654 0.245197 0.671663
34 3 0.113463 0.180951 0.740677
1277 4 0.132158 0.193425 0.740534
918 4 0.334996 0.237727 0.716623
976 2 0.324997 0.202088 0.732497
978 4 0.309982 0.184865 0.742651
977 4 0.340012 0.219311 0.722343
1008 4 0.359402 0.214528 0.72109
1006 2 0.374402 0.220992 0.74002
3356 4 0.48724 0.205665 0.683275
1263 4 0.451679 0.219253 0.747693
1209 4 0.0671614 0.257359 0.711344
1243 2 0.0504846 0.297459 0.712028
1245 4 0.0632896 0.276005 0.713004
1244 4 0.0376796 0.318913 0.711052
1177 2 0.997726 0.258089 0.736371
1065 4 0.214902 0.266699 0.665791
942 4 0.173964 0.318542 0.731664
1063 2 0.224871 0.260031 0.687731
1240 2 0.243835 0.28717 0.736676
1064 4 0.23484 0.253363 0.70967
1242 4 0.241854 0.266447 0.722825
916 2 0.327834 0.261193 0.711804
917 4 0.320671 0.28466 0.706986
1096 2 0.312862 0.317953 0.7077
1097 4 0.306454 0.29567 0.717058
1262 4 0.419088 0.256881 0.74294
3123 4 0.452857 0.294062 0.667269
1261 2 0.435383 0.238067 0.745317
3275 4 0.0797023 0.37669 0.695659
1280 4 0.0918452 0.360698 0.690176
3274 2 0.0895326 0.387399 0.716003
3276 4 0.0993628 0.398107 0.736347
941 4 0.182387 0.355435 0.698973
1067 4 0.170759 0.366123 0.685901
1068 4 0.20381 0.39573 0.662841
940 2 0.178175 0.336988 0.715319
1066 2 0.187285 0.380927 0.674371
1098 4 0.319271 0.340236 0.698343
1228 2 0.30349 0.398256 0.722822
1230 4 0.327581 0.398195 0.729515
1229 4 0.279399 0.398318 0.71613
2130 4 0.00304203 0.507728 0.696385
816 4 0.107185 0.415648 0.733924
814 2 0.125411 0.414621 0.75101
1140 4 0.286078 0.464903 0.680297
1989 4 0.293521 0.465349 0.69749
1987 2 0.296951 0.471156 0.721566
1988 4 0.300382 0.476962 0.745643
2214 4 0.289855 0.505397 0.751752
890 4 0.3848 0.479402 0.674345
1077 4 0.0625737 0.0673241 0.759797
1203 4 0.0748877 0.0543073 0.769788
911 4 0.0806578 0.0700166 0.828816
2049 4 0.142262 0.0403764 0.763149
2047 2 0.148412 0.0161429 0.762835
1201 2 0.0996443 0.0513339 0.76793
1202 4 0.124401 0.0483605 0.766073
2390 4 0.173036 0.999459 0.763951
1050 4 0.265003 0.0646923 0.822765
874 2 0.266759 0.00410238 0.830034
818 4 0.377683 0.0666634 0.827137
817 2 0.357877 0.0754981 0.814693
863 4 0.0604171 0.116821 0.781554
832 2 0.0654062 0.144233 0.766164
833 4 0.0547044 0.135119 0.786842
862 2 0.0689085 0.10077 0.798742
864 4 0.0773998 0.0847191 0.815931
1225 2 0.183734 0.136391 0.763628
1226 4 0.198224 0.148528 0.779996
840 4 0.208605 0.158628 0.764744
1086 4 0.324802 0.15076 0.797646
1084 2 0.326519 0.12582 0.79809
819 4 0.338072 0.0843329 0.802248
959 4 0.271795 0.156226 0.776432
1085 4 0.328237 0.100879 0.798533
1299 4 0.335366 0.154065 0.814662
1036 2 0.466849 0.107454 0.820213
1037 4 0.482958 0.120451 0.806185
3270 4 0.472164 0.155188 0.77443